Membrane in water
40344
    1TMC1    C1    1   1.989   3.349  11.282 -0.1536 -0.2739  0.5364
    1TMC1    C2    2   2.059   3.439  11.353 -0.0643 -0.3979 -0.3635
    1TMC1    C3    3   2.187   3.454  11.320  0.1132 -0.8372 -0.2400
    1TMC1    C4    4   2.041   3.259  11.193 -0.4960  0.6483 -1.0137
    1TMC1    C5    5   2.176   3.279  11.159  0.3215 -0.2487 -0.5855
    1TMC1    C6    6   2.252   3.379  11.223 -0.5439  0.9903  0.1111
    1TMC1     C    7   1.856   3.321  11.331 -0.5563  0.0740  0.4284
    1TMC1     O    8   1.815   3.403  11.408  0.7458 -0.4991  0.1983
    1TMC1     H    9   2.008   3.510  11.417 -1.6883 -2.0271  0.1399
    1TMC1    H1   10   1.989   3.184  11.136  0.2922  0.3273 -1.3122
    1TMC1    H2   11   2.357   3.386  11.197 -0.6667  3.8350  0.4183
    1TMC1    C7   12   2.246   3.162  11.097 -0.4270 -0.3884  0.6149
    1TMC1    C8   13   2.268   3.536  11.400  0.4967 -0.9083  0.1567
    1TMC1    O1   14   2.352   3.112  11.132 -0.1918 -0.4836  0.5597
    1TMC1    O2   15   2.380   3.566  11.364 -0.3906  0.4255  0.6476
    1TMC1    O3   16   2.187   3.149  10.978 -0.0330  0.1410 -0.5339
    1TMC1    H3   17   2.111   3.206  10.957 -0.4634 -0.3197 -0.2298
    1TMC1    O5   18   2.231   3.541  11.529 -0.1202 -0.4772 -0.2195
    1TMC1    H5   19   2.162   3.478  11.558  0.3097 -0.3344  1.0723
    2MPD2     C   20   1.575   2.956  11.561  0.2133  0.2476  0.2047
    2MPD2    C1   21   1.609   3.087  11.605 -0.2938 -0.2036 -0.8668
    2MPD2    C2   22   1.689   3.166  11.513  0.3533  0.0618 -0.6678
    2MPD2    C3   23   1.728   3.117  11.385  0.1323  0.2371 -1.0298
    2MPD2    C4   24   1.686   2.999  11.350 -0.4421  0.9988  0.2855
    2MPD2    C5   25   1.619   2.915  11.436 -0.1987 -0.0366 -0.0728
    2MPD2     H   26   1.719   3.263  11.552  1.1154  0.1031 -1.3596
    2MPD2    H1   27   1.710   2.953  11.255  1.2280  0.7042  0.8497
    2MPD2    H2   28   1.526   2.885  11.627 -0.0946  1.0402  0.8419
    2MPD2    H3   29   1.602   2.812  11.407  1.8700 -0.4181  0.0911
    2MPD2     N   30   1.811   3.197  11.299 -0.8573  0.0255 -0.2379
    2MPD2    H5   31   1.852   3.139  11.226  1.2435 -0.9193  1.6828
    2MPD2    N1   32   1.560   3.144  11.724  0.0283 -0.7126  0.1258
    2MPD2    H7   33   1.570   3.243  11.742 -1.5143 -0.9116  2.1128
    3TMC1    C1   34   4.613   3.487  10.920  0.1230 -0.1783  0.6228
    3TMC1    C2   35   4.671   3.556  10.822  0.4338  0.3006 -0.3423
    3TMC1    C3   36   0.013   3.489  10.733  0.6205  0.5492  0.5057
    3TMC1    C4   37   4.633   3.352  10.946 -0.2184  0.2017  0.0552
    3TMC1    C5   38   4.710   3.290  10.850 -0.4895 -0.0322 -0.7608
    3TMC1    C6   39   0.027   3.353  10.741  0.5771  0.3567 -0.2013
    3TMC1     C   40   4.545   3.565  11.023 -0.2896 -0.3189 -0.1257
    3TMC1     O   41   4.460   3.508  11.091  0.0746  0.1291 -0.3096
    3TMC1     H   42   4.636   3.654  10.794  1.6671  0.3223 -1.8248
    3TMC1    H1   43   4.601   3.322  11.045 -1.4977 -2.2872 -1.1252
    3TMC1    H2   44   0.066   3.308  10.651 -1.7681 -1.0326 -0.5075
    3TMC1    C7   45   0.000   3.147  10.850 -0.4053 -0.0488  1.3126
    3TMC1    C8   46   0.032   3.556  10.596  0.3070  0.5602  0.3578
    3TMC1    O1   47   0.085   3.093  10.781 -0.0844 -0.4778 -0.8726
    3TMC1    O2   48   0.068   3.673  10.598 -0.3428  0.2640  0.0366
    3TMC1    O3   49   4.612   3.091  10.878  0.5187  0.4163  0.1207
    3TMC1    H3   50   4.538   3.139  10.922 -0.7445 -3.2711  1.9976
    3TMC1    O5   51   4.651   3.513  10.538  0.0226  0.4331 -0.0888
    3TMC1    H5   52   4.623   3.423  10.566 -0.1941  0.7592  0.7728
    4MPD2     C   53   4.436   4.004  11.264 -0.3341  0.4719 -0.1934
    4MPD2    C1   54   4.557   4.018  11.194 -0.5242  0.6204 -0.4959
    4MPD2    C2   55   4.604   3.910  11.121  0.0464  0.9708  0.8485
    4MPD2    C3   56   4.545   3.787  11.124 -0.0221  0.1667 -0.2909
    4MPD2    C4   57   4.419   3.777  11.192 -0.9730  0.3931 -0.0072
    4MPD2    C5   58   4.371   3.881  11.260 -0.2246  0.0081 -1.1293
    4MPD2     H   59   4.693   3.925  11.062 -0.4883 -1.4194 -0.5785
    4MPD2    H1   60   4.354   3.690  11.194  2.1418 -1.9109  2.2402
    4MPD2    H2   61   4.387   4.083  11.320  3.3475  1.2867  1.8177
    4MPD2    H3   62   4.274   3.877  11.309  1.3223  2.0534  2.1173
    4MPD2     N   63   4.602   3.686  11.044 -0.7156 -0.1062  0.3493
    4MPD2    H5   64   4.691   3.710  11.003 -0.8034 -0.4354 -0.0252
    4MPD2    N1   65   4.624   4.143  11.180 -0.2677  1.2106  0.3247
    4MPD2    H7   66   4.702   4.154  11.117  0.2212  0.2697  0.7629
    5TCq1    O1   67   1.032   1.730  11.338  0.4403  0.1081 -0.5015
    5TCq1    C1   68   1.063   1.595  11.352  0.1600  0.1625 -0.3494
    5TCq1    O2   69   1.137   1.538  11.275 -0.0710 -0.1133  0.5348
    5TCq1    C2   70   0.965   1.546  11.440 -0.3118  0.5121 -0.5390
    5TCq1    C3   71   0.921   1.604  11.552  0.5693 -0.1442 -0.2971
    5TCq1    C4   72   0.824   1.544  11.624  0.1343  0.5626 -0.1781
    5TCq1    C5   73   0.768   1.428  11.582 -0.4257  0.1898 -0.2893
    5TCq1    C6   74   0.811   1.370  11.463 -0.2031  0.0715 -0.0978
    5TCq1    C7   75   0.913   1.432  11.395  1.0056  0.8316 -0.0823
    5TCq1    C8   76   0.743   1.264  11.397  0.2827  0.2046 -0.3657
    5TCq1    O4   77   0.809   1.213  11.307 -0.4092 -0.3259  0.1596
    5TCq1    C9   78   0.767   1.600  11.739 -0.0784  0.3228  0.2964
    5TCq1    O5   79   0.650   1.562  11.767 -0.0885  0.0290  0.2021
    5TCq1    O6   80   0.828   1.694  11.794  0.0138 -0.4310  0.0301
    5TCq1    H1   81   0.947   1.746  11.383 -0.0069  1.0493 -1.6720
    5TCq1    H2   82   0.957   1.694  11.599  0.1276  0.1910 -0.5996
    5TCq1    H3   83   0.682   1.387  11.634  0.3387  0.2949  1.0497
    5TCq1    H4   84   0.953   1.391  11.304 -0.9173  1.2203 -1.1064
    6MPD2     C   85   0.438   1.077  11.457 -0.2855 -0.7603 -0.5220
    6MPD2    C1   86   0.552   1.119  11.392  0.5004  0.1948 -1.0303
    6MPD2    C2   87   0.602   1.033  11.288  0.1523 -0.0540 -0.2472
    6MPD2    C3   88   0.526   0.918  11.247 -0.3319 -0.1279  0.1402
    6MPD2    C4   89   0.430   0.869  11.334  0.3839 -0.7466  0.9966
    6MPD2    C5   90   0.387   0.951  11.434 -0.2574 -0.3292 -0.1939
    6MPD2     H   91   0.701   1.058  11.252  0.0550  2.4173  1.1630
    6MPD2    H1   92   0.392   0.768  11.333  0.0494 -0.6132  0.5733
    6MPD2    H2   93   0.387   1.137  11.531  1.0704  0.1709 -0.3301
    6MPD2    H3   94   0.304   0.917  11.495 -0.7486  2.2909  0.6013
    6MPD2     N   95   0.573   0.843  11.134  0.8433 -0.0946 -0.1733
    6MPD2    H5   96   0.658   0.882  11.095  1.4665  0.8777  2.1654
    6MPD2    N1   97   0.619   1.230  11.444  0.4370 -0.0929  0.0096
    6MPD2    H7   98   0.579   1.280  11.523 -0.0894  0.8890 -0.8693
    7TCq1    O1   99   3.159   0.430  13.566  0.2388  0.3601  0.2254
    7TCq1    C1  100   3.103   0.309  13.591 -0.3074  0.6385  0.1534
    7TCq1    O2  101   3.125   0.210  13.522  0.2587 -0.4622 -0.5663
    7TCq1    C2  102   3.110   0.291  13.742  0.5745  0.0823  0.1883
    7TCq1    C3  103   3.010   0.356  13.812 -0.0830  0.1310  0.1106
    7TCq1    C4  104   3.033   0.385  13.948  0.1279  0.2761  0.5860
    7TCq1    C5  105   3.145   0.330  14.005 -0.0637 -0.1339  0.1250
    7TCq1    C6  106   3.229   0.253  13.934 -0.0448 -0.1864  0.5115
    7TCq1    C7  107   3.215   0.236  13.798  0.0433 -0.6687 -0.3940
    7TCq1    C8  108   3.341   0.195  14.005  0.3811 -0.0575 -0.5348
    7TCq1    O4  109   3.394   0.097  13.955  0.0234 -0.3225 -0.2535
    7TCq1    C9  110   2.941   0.461  14.034 -0.2497  0.3887 -0.5367
    7TCq1    O5  111   2.818   0.458  14.004 -0.6621 -0.2299  0.5006
    7TCq1    O6  112   2.987   0.518  14.137  0.3100 -0.0303 -0.3047
    7TCq1    H1  113   3.148   0.500  13.633  0.3756  1.2053 -0.6229
    7TCq1    H2  114   2.931   0.409  13.761 -0.2973  0.1736  0.4943
    7TCq1    H3  115   3.157   0.349  14.111 -0.7188  0.2945  0.1219
    7TCq1    H4  116   3.289   0.182  13.740 -1.4260 -1.4243 -1.5638
    8MPD2     C  117   3.707   0.160  14.370  0.2742  0.3163  0.7301
    8MPD2    C1  118   3.670   0.070  14.271  0.0339  0.0718 -0.3043
    8MPD2    C2  119   3.578   0.116  14.177  0.4080  0.3204  0.2151
    8MPD2    C3  120   3.508   0.237  14.184 -0.5116 -0.2868  0.0018
    8MPD2    C4  121   3.547   0.321  14.295 -0.2057  0.3407 -0.2886
    8MPD2    C5  122   3.644   0.286  14.381 -0.1468  0.4545  0.1151
    8MPD2     H  123   3.547   0.063  14.088  1.1036 -0.9243  0.7176
    8MPD2    H1  124   3.497   0.416  14.312  1.4450  1.0161  0.7079
    8MPD2    H2  125   3.782   0.138  14.445 -1.8510 -0.2957  2.7013
    8MPD2    H3  126   3.658   0.353  14.465 -0.7706 -0.4836  0.9677
    8MPD2     N  127   3.398   0.274  14.104  0.4066 -0.2998 -0.2266
    8MPD2    H5  128   3.364   0.367  14.126  3.1658  0.8676 -0.9015
    8MPD2    N1  129   3.734   4.674  14.271 -0.5236 -0.2728 -0.2931
    8MPD2    H7  130   3.819   4.668  14.327  0.3810 -1.3938 -1.7602
    9TMC1    C1  131   1.053   0.329  11.910 -0.1870 -0.0185 -0.2804
    9TMC1    C2  132   1.161   0.408  11.928 -0.3890 -0.8824 -0.0966
    9TMC1    C3  133   1.140   0.502  12.032 -0.0297  0.1341  0.1201
    9TMC1    C4  134   0.935   0.340  11.965 -0.5745  0.1489  1.1671
    9TMC1    C5  135   0.920   0.436  12.055 -0.7802 -0.1650  0.2628
    9TMC1    C6  136   1.017   0.519  12.094  0.0116  1.0267  0.0558
    9TMC1     C  137   1.065   0.236  11.802  0.3221  0.5020  0.6493
    9TMC1     O  138   1.163   0.228  11.726 -0.7876 -0.0707  0.9832
    9TMC1     H  139   1.260   0.405  11.885  0.1069  3.1140  0.7588
    9TMC1    H1  140   0.847   0.292  11.924  1.5482 -3.1695  0.4879
    9TMC1    H2  141   0.995   0.583  12.179 -2.1683 -0.2413  0.4287
    9TMC1    C7  142   0.798   0.440  12.135  0.0274  0.4368  0.0740
    9TMC1    C8  143   1.247   0.593  12.060 -0.2971 -0.8201 -0.2373
    9TMC1    O1  144   0.723   0.535  12.120 -0.0882  0.3288  0.2861
    9TMC1    O2  145   1.322   0.637  11.980  0.6587 -0.3876 -0.4601
    9TMC1    O3  146   0.779   0.324  12.195 -0.1553  0.9204 -0.1816
    9TMC1    H3  147   0.852   0.261  12.180  1.1221  2.0378  1.4129
    9TMC1    O5  148   1.212   0.640  12.177 -0.2122  0.0597  0.0354
    9TMC1    H5  149   1.162   0.579  12.235  0.5422 -1.3977 -0.8426
   10MPD2     C  150   1.014   4.720  11.610  0.1197  0.0837  0.2829
   10MPD2    C1  151   0.964   0.012  11.738  0.0126 -0.2092  0.3175
   10MPD2    C2  152   0.883   4.651  11.796 -0.1365  0.3170 -0.2528
   10MPD2    C3  153   0.866   4.526  11.737  0.2199  0.0761 -0.0641
   10MPD2    C4  154   0.921   4.503  11.618 -0.0205  0.3145  0.0477
   10MPD2    C5  155   0.991   4.597  11.553 -0.0668 -0.0044 -0.1424
   10MPD2     H  156   0.848   4.676  11.895 -0.1164  2.4965 -0.7862
   10MPD2    H1  157   0.902   4.409  11.567  1.5604  1.1850 -2.1090
   10MPD2    H2  158   1.067   0.060  11.550 -1.9727  0.4553 -1.1233
   10MPD2    H3  159   1.037   4.568  11.459  1.4873  0.7479  0.3817
   10MPD2     N  160   0.794   4.424  11.798  0.8541  0.0861 -0.1167
   10MPD2    H5  161   0.822   4.334  11.758 -0.1197 -0.1532 -0.2673
   10MPD2    N1  162   0.979   0.129  11.821  0.3093  0.4269 -0.1274
   10MPD2    H7  163   0.925   0.122  11.907 -1.9226  0.2916 -1.5334
   11TCq1    O1  164   1.959   3.891  13.479  0.4826 -0.1897  0.2338
   11TCq1    C1  165   2.035   3.929  13.584 -0.9522  0.6162 -0.0861
   11TCq1    O2  166   2.124   4.015  13.585  0.5097  0.1351 -0.3908
   11TCq1    C2  167   1.996   3.856  13.703 -0.1416  0.3060  0.7199
   11TCq1    C3  168   2.056   3.903  13.814  0.2865 -0.4905 -0.5121
   11TCq1    C4  169   2.049   3.825  13.928 -0.0693 -0.3230  0.3675
   11TCq1    C5  170   1.964   3.716  13.932  0.0542 -0.0374  0.1916
   11TCq1    C6  171   1.888   3.687  13.820  0.7911  0.8931  0.3773
   11TCq1    C7  172   1.907   3.751  13.702 -0.1098  0.3691 -0.3761
   11TCq1    C8  173   1.813   3.560  13.824 -0.4597  0.3362 -1.1260
   11TCq1    O4  174   1.849   3.485  13.910 -0.2268  0.4726  0.3211
   11TCq1    C9  175   2.127   3.856  14.048  1.0642  0.5390 -0.6255
   11TCq1    O5  176   2.091   3.804  14.157 -0.4830 -0.0166  0.2664
   11TCq1    O6  177   2.226   3.930  14.029 -0.0174 -0.2495  0.0820
   11TCq1    H1  178   1.972   3.950  13.401  0.6988  0.3734  0.6990
   11TCq1    H2  179   2.119   3.991  13.808 -0.0221 -0.2365 -0.0083
   11TCq1    H3  180   1.935   3.683  14.032 -0.5230  1.2280  0.4414
   11TCq1    H4  181   1.858   3.715  13.612  1.3244 -1.1055 -0.5540
   12MPD2     C  182   1.493   3.466  13.660  0.7745 -0.1732  0.3387
   12MPD2    C1  183   1.619   3.445  13.720  0.1033  0.0228  0.0514
   12MPD2    C2  184   1.648   3.317  13.765  0.1525 -0.4015 -0.1097
   12MPD2    C3  185   1.553   3.219  13.754 -0.0442 -0.3148  0.0595
   12MPD2    C4  186   1.426   3.240  13.696  0.4179 -0.9691 -0.5833
   12MPD2    C5  187   1.404   3.363  13.641  0.4455  0.6203 -0.5049
   12MPD2     H  188   1.748   3.291  13.798  0.5698 -1.4675 -2.2124
   12MPD2    H1  189   1.345   3.167  13.698 -0.6997  0.2890  0.0113
   12MPD2    H2  190   1.470   3.563  13.618 -2.0297 -1.5744 -1.3072
   12MPD2    H3  191   1.311   3.381  13.590 -0.0053 -0.2980 -0.0191
   12MPD2     N  192   1.578   3.092  13.805 -0.2619 -0.4368  0.1317
   12MPD2    H5  193   1.499   3.029  13.816 -1.8658  1.0880 -2.5497
   12MPD2    N1  194   1.706   3.558  13.734  0.1517 -0.3899  0.4394
   12MPD2    H7  195   1.686   3.649  13.694  0.3252 -0.1345  0.9271
   13TCq1    O1  196   1.177   3.725  10.902  0.1221  0.2884 -0.1237
   13TCq1    C1  197   1.121   3.726  11.022 -0.8848 -0.3456  0.3112
   13TCq1    O2  198   1.181   3.759  11.123 -0.4262  0.0002 -0.5286
   13TCq1    C2  199   0.976   3.717  11.006  0.1723 -0.2690 -0.8789
   13TCq1    C3  200   0.921   3.758  10.888 -0.9076 -0.5090 -0.1223
   13TCq1    C4  201   0.783   3.747  10.885  0.0779 -0.2758  0.0053
   13TCq1    C5  202   0.701   3.708  10.991 -0.1681 -0.2765 -1.1926
   13TCq1    C6  203   0.761   3.676  11.107  0.1618  0.0128 -0.1617
   13TCq1    C7  204   0.902   3.670  11.113  0.2067  0.7615  0.6880
   13TCq1    C8  205   0.673   3.644  11.220  0.7824 -0.6890  0.6958
   13TCq1    O4  206   0.552   3.663  11.204 -0.0436  0.0954  0.2680
   13TCq1    C9  207   0.719   3.785  10.762 -0.4337 -0.2406  0.3780
   13TCq1    O5  208   0.602   3.751  10.740  0.2290 -0.3970  0.6096
   13TCq1    O6  209   0.787   3.839  10.666 -0.6029 -0.3432 -0.3038
   13TCq1    H1  210   1.127   3.664  10.843 -0.8175  1.3008 -0.3730
   13TCq1    H2  211   0.972   3.793  10.799 -1.2344 -1.2848 -0.6122
   13TCq1    H3  212   0.596   3.694  10.971  0.0277 -0.6972 -1.9064
   13TCq1    H4  213   0.961   3.648  11.201  0.9719 -0.0818 -0.0445
   14MPD2     C  214   0.808   3.515  11.541  0.3063  0.8053 -0.1246
   14MPD2    C1  215   0.709   3.570  11.456  0.2262  0.0097  0.2320
   14MPD2    C2  216   0.603   3.636  11.508  0.1591 -0.7148  0.8774
   14MPD2    C3  217   0.585   3.647  11.645  0.0789 -0.8159  0.3053
   14MPD2    C4  218   0.678   3.583  11.729 -0.7682  0.3362  0.0224
   14MPD2    C5  219   0.791   3.527  11.674  0.2881  0.0433 -0.2014
   14MPD2     H  220   0.535   3.687  11.440  1.8169  0.1069 -0.1803
   14MPD2    H1  221   0.666   3.595  11.836  2.8081 -1.5720  0.6361
   14MPD2    H2  222   0.903   3.481  11.501  0.9609  1.7431  0.6341
   14MPD2    H3  223   0.871   3.489  11.737  1.6987  1.6253 -1.0377
   14MPD2     N  224   0.466   3.710  11.687  0.4443  0.0751 -0.1160
   14MPD2    H5  225   0.425   3.776  11.621  2.2072  2.9844  1.6954
   14MPD2    N1  226   0.748   3.587  11.323  0.1511 -0.4707 -0.0581
   14MPD2    H7  227   0.839   3.546  11.302 -0.3975 -0.8167 -1.7826
   15TCq1    O1  228   3.445   3.742   1.927 -0.3452 -0.3742 -0.4732
   15TCq1    C1  229   3.471   3.745   1.796  0.2654 -0.0404  0.0285
   15TCq1    O2  230   3.586   3.749   1.758 -0.0067  0.9216  0.1344
   15TCq1    C2  231   3.354   3.686   1.727  0.2034 -0.0033 -0.5833
   15TCq1    C3  232   3.227   3.704   1.776 -0.4783  1.0612  1.1095
   15TCq1    C4  233   3.132   3.624   1.726 -0.9661  0.3959  0.5220
   15TCq1    C5  234   3.163   3.528   1.633 -0.8062  0.0608  0.2362
   15TCq1    C6  235   3.286   3.528   1.575  0.3910 -0.2496  0.3240
   15TCq1    C7  236   3.392   3.602   1.626  0.5171 -0.0738  0.1650
   15TCq1    C8  237   3.337   3.419   1.492  0.2156 -0.5072  0.0418
   15TCq1    O4  238   3.455   3.412   1.465 -0.5695 -0.3578 -0.1691
   15TCq1    C9  239   2.992   3.647   1.762 -0.4595  0.3940 -0.4857
   15TCq1    O5  240   2.911   3.595   1.669 -0.6724 -0.2634  0.1832
   15TCq1    O6  241   2.964   3.700   1.873  0.4091  0.1824 -0.8657
   15TCq1    H1  242   3.354   3.706   1.941  0.5024 -2.4949 -0.4056
   15TCq1    H2  243   3.205   3.782   1.848 -0.0845  0.8154  1.5002
   15TCq1    H3  244   3.079   3.470   1.594 -0.9629  1.0906 -0.9855
   15TCq1    H4  245   3.495   3.594   1.592  1.6968 -2.2500  4.2792
   16MPD2     C  246   3.125   3.144   1.366 -0.0151 -0.2921 -0.4809
   16MPD2    C1  247   3.244   3.214   1.379 -0.6546  0.6893  1.0101
   16MPD2    C2  248   3.360   3.171   1.322  0.1669  0.4358  0.0791
   16MPD2    C3  249   3.356   3.047   1.250  0.1645  0.7130  0.0793
   16MPD2    C4  250   3.236   2.976   1.247  0.5041 -0.3038  0.1744
   16MPD2    C5  251   3.123   3.019   1.311 -0.1994 -0.2554  0.2324
   16MPD2     H  252   3.447   3.235   1.307  0.2209  0.3025 -0.1859
   16MPD2    H1  253   3.228   2.887   1.187 -0.5826  0.1019 -0.2820
   16MPD2    H2  254   3.030   3.188   1.395  0.3016 -0.9584  1.5758
   16MPD2    H3  255   3.034   2.956   1.318  1.9015 -3.3602 -0.6568
   16MPD2     N  256   3.467   2.999   1.178  0.5231 -0.3924  0.0539
   16MPD2    H5  257   3.547   3.060   1.163  0.1272  0.2590  0.5964
   16MPD2    N1  258   3.238   3.334   1.458  0.1917  0.0333 -0.0640
   16MPD2    H7  259   3.144   3.351   1.490  0.0652 -2.0868  0.6857
   17TMC1    C1  260   0.899   2.958  11.353  0.9660  0.7169  0.3029
   17TMC1    C2  261   0.821   2.902  11.450 -0.6877  0.1934 -0.0346
   17TMC1    C3  262   0.824   2.960  11.577  0.1458  0.9114  0.1788
   17TMC1    C4  263   0.977   3.065  11.370  0.2394 -0.0854 -0.4499
   17TMC1    C5  264   0.974   3.120  11.497  0.2190  0.7728 -0.2999
   17TMC1    C6  265   0.898   3.070  11.604 -0.0394  0.3961 -0.3065
   17TMC1     C  266   0.916   2.879  11.233  0.3784 -0.1568 -0.5789
   17TMC1     O  267   0.841   2.780  11.221 -0.1219  0.5260 -0.9319
   17TMC1     H  268   0.765   2.812  11.427 -0.9962  0.2604  0.4749
   17TMC1    H1  269   1.014   3.124  11.287  0.8294  1.0449  0.6273
   17TMC1    H2  270   0.899   3.122  11.699 -2.5193 -1.7723  0.8879
   17TMC1    C7  271   1.046   3.240  11.514  0.2224 -0.5996  0.9955
   17TMC1    C8  272   0.781   2.881  11.696 -0.7812  0.0169 -0.3671
   17TMC1    O1  273   1.077   3.305  11.416  0.2590  0.2340 -0.0385
   17TMC1    O2  274   0.850   2.883  11.796  0.0051 -0.0898 -0.3784
   17TMC1    O3  275   1.117   3.232  11.636  0.4745 -0.0412  0.5321
   17TMC1    H3  276   1.100   3.150  11.688  1.1964 -0.3242  0.3296
   17TMC1    O5  277   0.650   2.848  11.687 -0.6841 -0.4999 -0.4376
   17TMC1    H5  278   0.605   2.878  11.605  1.3174  1.2482 -0.9066
   18MPD2     C  279   0.974   2.764  10.968  0.4229  0.0945 -0.9794
   18MPD2    C1  280   1.014   2.886  11.009  0.7976  0.5595 -0.2307
   18MPD2    C2  281   1.084   2.966  10.921 -0.2971 -0.0046 -0.4434
   18MPD2    C3  282   1.112   2.925  10.795  0.4661 -0.0266 -0.7664
   18MPD2    C4  283   1.079   2.796  10.760  0.3214  0.0408  0.4962
   18MPD2    C5  284   1.003   2.720  10.843 -0.1481 -0.6058 -0.4228
   18MPD2     H  285   1.117   3.066  10.944 -0.9963  0.5098 -1.6456
   18MPD2    H1  286   1.106   2.763  10.661  1.7917 -0.0390  0.9354
   18MPD2    H2  287   0.940   2.689  11.039 -1.9190  4.0370  2.0822
   18MPD2    H3  288   0.982   2.616  10.822  1.0233 -0.8803 -0.2421
   18MPD2     N  289   1.189   2.993  10.693  0.2298  0.7241 -0.0673
   18MPD2    H5  290   1.199   2.943  10.606 -0.1479 -1.9654  1.4438
   18MPD2    N1  291   1.001   2.934  11.141  0.0369 -0.3788  0.5282
   18MPD2    H7  292   1.044   3.023  11.164  0.1029  0.3419 -2.2741
   19TMC2    C1  293   2.775   3.876  13.869  0.3739 -0.3057 -1.0243
   19TMC2    C2  294   2.678   3.955  13.810  0.1216  0.1893  0.2114
   19TMC2    C3  295   2.551   3.939  13.851 -0.3901 -0.2084  0.4791
   19TMC2    C4  296   2.738   3.770  13.946  0.4070  0.8400  0.6305
   19TMC2    C5  297   2.609   3.756  13.986  0.1234 -0.2612 -0.0916
   19TMC2    C6  298   2.516   3.845  13.944  0.2460  0.1626  0.1991
   19TMC2     C  299   2.904   3.867  13.800  0.2804  0.3134 -0.3157
   19TMC2     O  300   2.920   3.945  13.702  0.6120  0.3272  0.1284
   19TMC2     H  301   2.698   4.035  13.741 -0.9557  0.0168 -0.2881
   19TMC2    H1  302   2.812   3.708  13.996 -0.7998 -0.4455  0.8183
   19TMC2    H2  303   2.415   3.843  13.984  0.8593  0.8972  1.7899
   19TMC2    C7  304   2.571   3.630  14.041 -0.4937 -0.4149 -0.7494
   19TMC2    C8  305   2.447   4.010  13.777  0.4647 -0.4094  0.1932
   19TMC2    O1  306   2.657   3.557  14.087 -0.0861 -0.2117 -0.2688
   19TMC2    O2  307   2.478   4.071  13.678  0.6682  0.3835  0.8873
   19TMC2    O5  308   2.358   4.058  13.865 -0.3428  0.1906  0.0494
   19TMC2    H5  309   2.328   3.992  13.931 -0.9327  1.9959  1.5795
   20MPD2     C  310   3.196   3.846  13.757  0.2779  0.0852  0.0438
   20MPD2    C1  311   3.120   3.765  13.837 -0.0613  0.4631  0.3864
   20MPD2    C2  312   3.186   3.658  13.904  0.8738  0.0840  0.0238
   20MPD2    C3  313   3.320   3.625  13.883 -0.4591 -0.2565  0.0957
   20MPD2    C4  314   3.385   3.710  13.799 -0.5689  0.2520  0.2215
   20MPD2    C5  315   3.325   3.826  13.752 -0.9934  0.5262  0.2705
   20MPD2     H  316   3.121   3.610  13.976  0.0884  0.5720 -0.3541
   20MPD2    H1  317   3.489   3.692  13.776 -0.7651  0.3349 -0.7452
   20MPD2    H2  318   3.156   3.931  13.703  1.4816  1.2416  0.9830
   20MPD2    H3  319   3.386   3.894  13.693 -0.1499 -1.9770 -1.7444
   20MPD2     N  320   3.393   3.507  13.929 -0.5411 -0.1892  0.0422
   20MPD2    H5  321   3.491   3.505  13.904 -0.5761  1.3660 -0.2238
   20MPD2    N1  322   2.988   3.791  13.868  0.0713 -0.0422  0.2121
   20MPD2    H7  323   2.954   3.744  13.951  0.6303  0.9180  0.9673
   21TMC2    C1  324   0.279   3.996  13.896 -0.6139 -0.1563  0.5563
   21TMC2    C2  325   0.323   3.872  13.867 -0.1844  0.4613  1.0215
   21TMC2    C3  326   0.231   3.786  13.834  1.1054  0.3256 -0.1147
   21TMC2    C4  327   0.144   4.026  13.909 -0.4364 -0.1447 -0.5377
   21TMC2    C5  328   0.054   3.925  13.879  0.0718  0.3215  0.3368
   21TMC2    C6  329   0.098   3.804  13.853  0.0495  0.1508 -0.5255
   21TMC2     C  330   0.369   4.062  13.992 -0.5413 -0.4467  0.3785
   21TMC2     O  331   0.471   3.997  14.020 -0.1443  0.4882 -0.5025
   21TMC2     H  332   0.428   3.846  13.864 -0.0185  1.0405  2.0097
   21TMC2    H1  333   0.114   4.129  13.917  0.1809 -0.1066  1.3046
   21TMC2    H2  334   0.029   3.723  13.834 -0.0821 -0.0832  0.9541
   21TMC2    C7  335   4.655   3.932  13.932  0.8356  0.0520  0.0669
   21TMC2    C8  336   0.279   3.655  13.795 -0.4481  0.1711 -0.0331
   21TMC2    O1  337   4.601   3.828  13.962 -0.1227  0.2021 -0.1431
   21TMC2    O2  338   0.385   3.603  13.829 -0.0432 -0.0760  0.3216
   21TMC2    O5  339   0.193   3.613  13.701  0.6239  0.2124 -0.2868
   21TMC2    H5  340   0.127   3.679  13.671  0.8144  1.0775  1.2202
   22MPD2     C  341   0.446   4.330  14.416  0.3084  0.0736 -0.2821
   22MPD2    C1  342   0.509   4.217  14.366 -0.2319  0.4287 -0.3782
   22MPD2    C2  343   0.465   4.162  14.251  0.1405 -0.8278 -0.1517
   22MPD2    C3  344   0.363   4.223  14.178 -1.0428 -0.6267 -1.1497
   22MPD2    C4  345   0.302   4.334  14.230  0.4096  0.0639  0.2797
   22MPD2    C5  346   0.338   4.385  14.353 -0.1379 -0.1497  0.8091
   22MPD2     H  347   0.519   4.076  14.213  0.2193 -0.2433 -1.3659
   22MPD2    H1  348   0.218   4.384  14.184  2.1304  2.9794  0.3492
   22MPD2    H2  349   0.469   4.381  14.509 -1.7433 -1.0226  0.8274
   22MPD2    H3  350   0.287   4.473  14.390  1.8236  1.1223  0.4688
   22MPD2     N  351   0.314   4.169  14.053 -0.4545  0.4685  0.2408
   22MPD2    H5  352   0.233   4.215  14.014 -0.5322 -1.8346 -2.2873
   22MPD2    N1  353   0.605   4.139  14.436 -0.5416 -0.5700 -0.3009
   22MPD2    H7  354   0.645   4.053  14.400 -1.4065 -0.5970 -1.2097
   23TMC2    C1  355   1.140   0.109  14.296 -0.2799  0.2144 -0.6929
   23TMC2    C2  356   1.136   0.015  14.193 -0.5024  0.9574 -0.2243
   23TMC2    C3  357   1.006   4.716  14.151 -0.0315 -0.1442 -0.4303
   23TMC2    C4  358   1.029   0.154  14.365  0.1026 -1.2826  0.4593
   23TMC2    C5  359   0.906   0.122  14.314  0.2252  0.4637  0.0872
   23TMC2    C6  360   0.892   0.034  14.204 -0.2843 -0.3027  0.1686
   23TMC2     C  361   1.262   0.124  14.379  0.0257  0.0216 -0.6321
   23TMC2     O  362   1.344   0.035  14.373  0.2553 -0.5363  0.2784
   23TMC2     H  363   1.227   4.709  14.149 -0.3155 -0.7701  1.7188
   23TMC2    H1  364   1.034   0.192  14.466 -0.8161 -0.5364  0.2254
   23TMC2    H2  365   0.795   0.003  14.168  0.3477 -0.9709 -0.9688
   23TMC2    C7  366   0.793   0.197  14.363 -0.6808  0.1653 -0.6610
   23TMC2    C8  367   0.982   4.668  14.019 -0.2030 -0.4380 -0.4588
   23TMC2    O1  368   0.820   0.266  14.463 -0.4754 -0.4016  0.5953
   23TMC2    O2  369   0.872   4.639  13.974 -0.3360  0.3411 -0.1773
   23TMC2    O5  370   1.081   4.715  13.951 -0.1492  0.2450 -0.4101
   23TMC2    H5  371   1.158   0.029  13.988 -1.1563  0.6704  1.1228
   24MPD2     C  372   1.532   0.338  14.770  0.1860  0.0965  0.0782
   24MPD2    C1  373   1.559   0.231  14.694 -0.2901  0.0061  0.2160
   24MPD2    C2  374   1.473   0.187  14.599 -0.2245 -0.1414 -0.2397
   24MPD2    C3  375   1.358   0.260  14.561 -0.1256  0.7916  0.3997
   24MPD2    C4  376   1.334   0.368  14.641  0.4277  0.3464 -0.2915
   24MPD2    C5  377   1.416   0.404  14.741 -0.6434  0.1607 -0.2425
   24MPD2     H  378   1.503   0.089  14.564 -0.1744 -0.9656  2.0728
   24MPD2    H1  379   1.260   0.443  14.617  0.1263 -0.6676 -2.5592
   24MPD2    H2  380   1.581   0.379  14.857 -1.9005 -1.7900  2.1622
   24MPD2    H3  381   1.383   0.487  14.802 -1.8091 -0.0244 -0.6191
   24MPD2     N  382   1.263   0.235  14.462 -0.3065 -0.1717 -0.0265
   24MPD2    H5  383   1.185   0.299  14.454  1.6535  1.9970 -1.9699
   24MPD2    N1  384   1.667   0.148  14.725  0.3682 -0.4723  0.1504
   24MPD2    H7  385   1.695   0.074  14.661  2.1304  0.3917 -0.0867
   25TMC2    C1  386   0.770   2.477  11.547 -0.9059  0.1554 -0.6123
   25TMC2    C2  387   0.879   2.483  11.630  0.3853  0.5626 -0.3000
   25TMC2    C3  388   0.860   2.517  11.762 -0.5159  0.1611  0.4618
   25TMC2    C4  389   0.640   2.495  11.588  0.6696  0.4422  0.2556
   25TMC2    C5  390   0.627   2.511  11.725  0.1440 -0.7276  0.8211
   25TMC2    C6  391   0.733   2.510  11.815  0.6290 -0.2213 -0.1955
   25TMC2     C  392   0.791   2.454  11.398  0.6974 -0.0129 -1.1522
   25TMC2     O  393   0.904   2.456  11.358 -0.3734 -0.4393 -0.1590
   25TMC2     H  394   0.979   2.475  11.589 -0.7146 -1.6033 -2.5735
   25TMC2    H1  395   0.561   2.488  11.514  0.6503  2.7340  0.0654
   25TMC2    H2  396   0.729   2.546  11.917 -1.5488  2.5878 -1.2687
   25TMC2    C7  397   0.506   2.561  11.786 -0.1700  0.0478  0.1345
   25TMC2    C8  398   0.977   2.513  11.846 -0.4447 -0.1465 -0.5479
   25TMC2    O1  399   0.501   2.553  11.906 -0.1706  0.6129 -0.4127
   25TMC2    O2  400   1.086   2.544  11.806  0.0359  0.1669  0.0739
   25TMC2    O5  401   0.950   2.483  11.971 -0.1322 -0.3646 -0.4847
   25TMC2    H5  402   0.853   2.476  11.986 -0.6620  0.1425 -3.6842
   26MPD2     C  403   0.668   2.293  10.922 -0.7001  0.1566  0.7511
   26MPD2    C1  404   0.564   2.256  11.006 -0.4860  0.3151 -0.2764
   26MPD2    C2  405   0.566   2.303  11.140 -0.4361  0.0017  0.4095
   26MPD2    C3  406   0.674   2.378  11.189  0.0011 -0.2589 -0.3288
   26MPD2    C4  407   0.773   2.417  11.100  0.1328  0.4896 -0.1707
   26MPD2    C5  408   0.770   2.373  10.966  0.5033 -0.5269  0.6666
   26MPD2     H  409   0.484   2.292  11.210 -1.9149 -0.6692 -1.4318
   26MPD2    H1  410   0.866   2.461  11.136  0.0755 -0.1968  0.8224
   26MPD2    H2  411   0.679   2.255  10.821 -0.0583 -1.0966  1.2845
   26MPD2    H3  412   0.848   2.393  10.894 -1.9194  2.0764 -1.2262
   26MPD2     N  413   0.679   2.410  11.327 -0.2044  0.4248  0.5700
   26MPD2    H5  414   0.600   2.377  11.381 -0.7424  0.7850 -0.0022
   26MPD2    N1  415   0.455   2.171  10.956 -0.2380  0.6990  0.0259
   26MPD2    H7  416   0.474   2.146  10.859 -2.6455 -1.7750  0.2012
   27TMC2    C1  417   3.970   0.262  11.856  0.7499 -0.5590 -0.5066
   27TMC2    C2  418   3.982   0.356  11.752  0.6289  1.1909  0.5556
   27TMC2    C3  419   4.065   0.464  11.764  0.0705 -0.3613  0.1017
   27TMC2    C4  420   4.052   0.267  11.963 -0.4768  0.7057 -0.5117
   27TMC2    C5  421   4.122   0.386  11.977  0.4460  0.3138  0.0048
   27TMC2    C6  422   4.126   0.493  11.884  0.4442 -0.5475 -0.2991
   27TMC2     C  423   3.872   0.163  11.836  0.2017 -0.0915 -0.8370
   27TMC2     O  424   3.826   0.144  11.724  0.1580 -0.4287 -0.0393
   27TMC2     H  425   3.930   0.330  11.660  0.7675  0.3627  0.7035
   27TMC2    H1  426   4.044   0.190  12.039 -0.4434 -0.7807 -2.0443
   27TMC2    H2  427   4.173   0.589  11.902  0.9634 -0.5479 -1.6414
   27TMC2    C7  428   4.181   0.407  12.108  0.2467 -0.3747  0.0567
   27TMC2    C8  429   4.051   0.571  11.660  0.2092 -0.8952 -0.1824
   27TMC2    O1  430   4.143   0.337  12.197  0.6745 -0.3026  0.1056
   27TMC2    O2  431   4.147   0.583  11.585 -0.7633  0.4517 -0.9563
   27TMC2    O5  432   3.925   0.606  11.633  0.3930 -0.0938  0.1645
   27TMC2    H5  433   3.861   0.571  11.698  1.5474 -0.1568  1.2616
   28MPD2     C  434   3.511   4.584  12.034  0.1002  0.3868  0.5409
   28MPD2    C1  435   3.545   4.680  12.127 -0.0544 -0.2527  0.2882
   28MPD2    C2  436   3.645   0.040  12.107  0.4838 -0.1900  0.2747
   28MPD2    C3  437   3.718   0.024  11.982 -0.1141  0.4070 -0.5661
   28MPD2    C4  438   3.680   4.666  11.881  0.7390 -0.4357 -0.6215
   28MPD2    C5  439   3.584   4.579  11.920  0.1465  0.0037 -0.0540
   28MPD2     H  440   3.676   0.117  12.177  1.6109  0.2023 -0.6482
   28MPD2    H1  441   3.742   4.651  11.794 -1.5570  1.4406 -2.5553
   28MPD2    H2  442   3.434   4.513  12.063  0.3134 -0.3416 -0.7147
   28MPD2    H3  443   3.562   4.492  11.859  0.2431  1.4616 -2.1409
   28MPD2     N  444   3.820   0.123  11.963 -0.3313  0.5055 -0.7075
   28MPD2    H5  445   3.847   0.181  12.042  0.4219  0.5055 -0.9649
   28MPD2    N1  446   3.473   4.667  12.247 -0.1745  0.5229 -0.1880
   28MPD2    H7  447   3.395   4.602  12.245  0.8030 -0.7372  2.1547
   29TMC2    C1  448   4.031   2.199  14.402 -0.1858  0.2323 -0.7354
   29TMC2    C2  449   3.971   2.255  14.507 -0.0211  0.7875 -0.1836
   29TMC2    C3  450   3.982   2.394  14.517  0.1795 -0.0656  0.6686
   29TMC2    C4  451   4.098   2.258  14.303  0.1055 -0.4970  0.6167
   29TMC2    C5  452   4.120   2.384  14.324  0.3258  0.1409 -0.6471
   29TMC2    C6  453   4.061   2.460  14.426 -0.1939  0.3560 -0.5758
   29TMC2     C  454   4.003   2.053  14.391 -0.5970  0.1610  0.0200
   29TMC2     O  455   3.999   1.985  14.494 -0.5579 -0.6230 -0.2037
   29TMC2     H  456   3.925   2.189  14.580  0.3900 -0.0048 -0.6443
   29TMC2    H1  457   4.153   2.203  14.228 -2.1007  0.1851 -1.5104
   29TMC2    H2  458   4.051   2.568  14.424 -0.7755  0.3130  0.3504
   29TMC2    C7  459   4.161   2.467  14.207 -0.2198  0.0002  0.3965
   29TMC2    C8  460   3.940   2.467  14.634  0.1213  0.7195  0.0247
   29TMC2    O1  461   4.166   2.417  14.095  0.3588  0.4382 -0.0858
   29TMC2    O2  462   3.999   2.554  14.682  0.1883  0.1436 -0.4699
   29TMC2    O5  463   3.842   2.394  14.690 -0.4900  0.7700  0.1407
   29TMC2    H5  464   3.798   2.330  14.630  0.9534 -1.1787  1.1612
   30MPD2     C  465   3.945   1.643  14.101 -0.0661  0.6297 -0.5768
   30MPD2    C1  466   3.964   1.644  14.238 -0.4753 -0.0616 -0.1823
   30MPD2    C2  467   3.982   1.773  14.291  0.5184  0.0924  0.0394
   30MPD2    C3  468   3.973   1.891  14.215 -0.2753 -0.3897  0.5590
   30MPD2    C4  469   3.948   1.878  14.072 -0.3467 -0.4773  0.0469
   30MPD2    C5  470   3.935   1.754  14.016  0.4774 -0.1372 -0.3833
   30MPD2     H  471   3.993   1.776  14.399  1.0888 -0.6994 -0.0015
   30MPD2    H1  472   3.944   1.969  14.013  0.2518  0.4261  1.4038
   30MPD2    H2  473   3.939   1.547  14.052 -3.4323  0.1787  0.6651
   30MPD2    H3  474   3.926   1.730  13.911 -0.3204  2.2121 -0.8637
   30MPD2     N  475   3.994   2.021  14.262 -0.1304 -0.2546 -0.3486
   30MPD2    H5  476   3.993   2.096  14.193  1.5939 -1.0936 -1.2667
   30MPD2    N1  477   3.971   1.529  14.319  0.3128 -0.2574 -0.2069
   30MPD2    H7  478   4.004   1.546  14.414 -0.7663 -1.6643  0.4045
   31TMC2    C1  479   1.482   0.967  15.225  0.1080  0.3466  0.1945
   31TMC2    C2  480   1.408   1.045  15.312 -0.4198 -0.6756 -0.0162
   31TMC2    C3  481   1.378   1.004  15.441 -0.0441  0.6453 -0.3074
   31TMC2    C4  482   1.528   0.845  15.263  0.0876 -0.3636 -0.1538
   31TMC2    C5  483   1.503   0.805  15.396  0.0970  0.2674 -0.1731
   31TMC2    C6  484   1.427   0.887  15.487  0.1996  0.3074 -0.1120
   31TMC2     C  485   1.534   1.045  15.116  0.5182  0.0888  0.3853
   31TMC2     O  486   1.451   1.095  15.042  0.5244 -0.8504 -0.4362
   31TMC2     H  487   1.393   1.150  15.288 -0.6375 -0.5750  0.5465
   31TMC2    H1  488   1.588   0.794  15.187  0.3648 -0.2847  0.0126
   31TMC2    H2  489   1.414   0.859  15.591 -0.6880  0.9146 -0.0656
   31TMC2    C7  490   1.565   0.681  15.433  0.2751 -0.1508  0.3979
   31TMC2    C8  491   1.287   1.066  15.527 -1.2061  0.2954 -0.3822
   31TMC2    O1  492   1.628   0.626  15.338  0.3175 -0.6467  0.7959
   31TMC2    O2  493   1.275   1.022  15.642 -0.1546 -0.0181  0.0054
   31TMC2    O5  494   1.189   1.105  15.445  0.5625 -0.3692 -0.6964
   31TMC2    H5  495   1.221   1.170  15.378  0.3369  1.7701  1.2807
   32MPD2     C  496   1.937   1.217  14.850  0.9330 -0.4200 -0.2229
   32MPD2    C1  497   1.810   1.223  14.810  0.1424  0.0292  0.6998
   32MPD2    C2  498   1.721   1.170  14.901  0.0226 -0.7330 -0.3687
   32MPD2    C3  499   1.757   1.106  15.016  0.2099  0.2379  0.7591
   32MPD2    C4  500   1.892   1.102  15.059  0.3068  0.1521  0.0518
   32MPD2    C5  501   1.980   1.164  14.973 -0.7161 -0.2595 -0.4345
   32MPD2     H  502   1.620   1.176  14.863 -0.5940 -1.1881  1.2106
   32MPD2    H1  503   1.928   1.055  15.151  0.9339  0.5947  0.0325
   32MPD2    H2  504   2.017   1.260  14.791  2.3393  0.9594  2.6724
   32MPD2    H3  505   2.087   1.162  14.989 -0.6392 -3.6759 -1.4574
   32MPD2     N  506   1.670   1.046  15.112  0.0315 -0.1637 -0.0185
   32MPD2    H5  507   1.716   0.992  15.184  0.6438 -1.8242 -1.6367
   32MPD2    N1  508   1.784   1.278  14.683  0.4685 -0.9078 -0.6295
   32MPD2    H7  509   1.864   1.313  14.631 -0.5019  2.2087 -0.0509
   33TMC2    C1  510   1.097   4.109  10.585 -0.5217  0.3065 -0.1727
   33TMC2    C2  511   0.965   4.094  10.568  0.2894  0.2125  0.6950
   33TMC2    C3  512   0.882   4.197  10.548 -0.1190  0.8383 -0.0542
   33TMC2    C4  513   1.151   4.237  10.582 -0.1365  0.4515 -0.4899
   33TMC2    C5  514   1.066   4.342  10.560 -0.3319  0.1445  0.7136
   33TMC2    C6  515   0.925   4.327  10.544 -0.5470  0.1022  0.4343
   33TMC2     C  516   1.182   3.995  10.600 -0.6012  0.1359  0.2454
   33TMC2     O  517   1.130   3.882  10.607 -0.1318 -0.7590 -0.0057
   33TMC2     H  518   0.932   3.991  10.562 -0.0257  0.4560 -2.1315
   33TMC2    H1  519   1.249   4.261  10.623  0.4185  0.1511 -1.6274
   33TMC2    H2  520   0.854   4.407  10.524  1.9805  2.0425 -0.7393
   33TMC2    C7  521   1.126   4.474  10.542  0.0614  0.7998  0.2290
   33TMC2    C8  522   0.739   4.177  10.538 -0.4930  0.6310 -1.3380
   33TMC2    O1  523   1.250   4.477  10.545 -0.8187  0.1822 -0.2878
   33TMC2    O2  524   0.674   4.280  10.513 -0.3240  0.0937 -0.0227
   33TMC2    O5  525   0.708   4.084  10.628  0.0399 -0.3850  0.2675
   33TMC2    H5  526   0.751   3.996  10.625  1.4866  0.2884  1.3283
   34MPD2     C  527   1.626   3.745  10.561 -0.0482  0.8974  0.4159
   34MPD2    C1  528   1.494   3.705  10.549 -0.4446 -0.2145  0.2784
   34MPD2    C2  529   1.396   3.798  10.558 -0.1687  0.0349  0.1554
   34MPD2    C3  530   1.414   3.934  10.578 -0.4087 -0.4829  0.6489
   34MPD2    C4  531   1.549   3.975  10.583 -0.0330  0.0265  0.4219
   34MPD2    C5  532   1.649   3.879  10.566  0.5246  0.0289 -0.9207
   34MPD2     H  533   1.298   3.763  10.527  0.4038 -1.9864  0.6353
   34MPD2    H1  534   1.583   4.078  10.583 -2.0492  0.6867  2.1801
   34MPD2    H2  535   1.714   3.686  10.538 -0.6250 -1.1413  3.5326
   34MPD2    H3  536   1.753   3.911  10.566  0.2249  1.0020 -0.6075
   34MPD2     N  537   1.314   4.033  10.571  0.0179 -0.0027  0.1865
   34MPD2    H5  538   1.341   4.130  10.573 -0.5412  0.1321  1.3054
   34MPD2    N1  539   1.459   3.573  10.528  0.1094 -0.1582  0.1359
   34MPD2    H7  540   1.358   3.561  10.522  0.1057 -0.1332  0.1478
   35TMC2    C1  541   2.619   0.197  11.130 -0.0154  0.1793  0.4483
   35TMC2    C2  542   2.551   0.270  11.030 -0.7471  0.0246  0.2856
   35TMC2    C3  543   2.450   0.199  10.966  0.7804  0.7668  0.5474
   35TMC2    C4  544   2.591   0.068  11.165 -0.4966  0.0236 -0.1708
   35TMC2    C5  545   2.485   0.010  11.102 -0.0254  0.5303 -0.4977
   35TMC2    C6  546   2.410   0.075  11.011  0.2800 -0.3747  0.4159
   35TMC2     C  547   2.732   0.272  11.189 -0.2491 -0.1898  0.4154
   35TMC2     O  548   2.762   0.370  11.116  0.2789  0.1007  0.1074
   35TMC2     H  549   2.559   0.377  11.020 -0.1569 -0.2037 -1.6664
   35TMC2    H1  550   2.654   0.019  11.239 -0.4595  1.0349  0.4696
   35TMC2    H2  551   2.328   0.024  10.962  0.5143 -0.9912  0.6731
   35TMC2    C7  552   2.462   4.603  11.128  0.5820 -0.5073  0.2563
   35TMC2    C8  553   2.366   0.256  10.856 -0.2914  0.2454 -0.4083
   35TMC2    O1  554   2.348   4.559  11.117  0.0737 -0.7316 -0.1107
   35TMC2    O2  555   2.248   0.224  10.837  0.5249  0.1724 -0.0816
   35TMC2    O5  556   2.441   0.333  10.777  0.3100 -0.0415  0.2371
   35TMC2    H5  557   2.532   0.317  10.808 -0.8775 -1.1318  3.2092
   36MPD2     C  558   3.083   0.423  11.543 -0.8433 -0.3431  1.0525
   36MPD2    C1  559   3.041   0.294  11.574  0.3382 -0.0782  0.6740
   36MPD2    C2  560   2.933   0.246  11.500  0.6700 -0.6263 -0.4198
   36MPD2    C3  561   2.885   0.312  11.387 -0.6069 -0.2309  0.1827
   36MPD2    C4  562   2.945   0.434  11.350  0.4103  0.4969  1.0290
   36MPD2    C5  563   3.036   0.489  11.439 -0.0319  0.7050 -0.3123
   36MPD2     H  564   2.884   0.154  11.529 -2.3068  1.1232  0.0984
   36MPD2    H1  565   2.921   0.484  11.256 -0.0782 -0.6693  0.5375
   36MPD2    H2  566   3.151   0.482  11.603  1.5819 -1.9974 -0.0843
   36MPD2    H3  567   3.063   0.593  11.426  2.8092 -0.0445 -0.3541
   36MPD2     N  568   2.784   0.235  11.310  0.0496  0.4500  0.3136
   36MPD2    H5  569   2.759   0.145  11.348  3.7210 -1.2974 -1.3909
   36MPD2    N1  570   3.110   0.222  11.675 -0.6999 -0.3559  0.3812
   36MPD2    H7  571   3.172   0.280  11.731  0.2176 -1.1011  0.1387
   37TMC2    C1  572   0.108   0.168  11.840 -0.2108  0.0817  0.2761
   37TMC2    C2  573   0.027   0.075  11.799  0.6489 -0.2716  0.5998
   37TMC2    C3  574   0.012   0.052  11.667  0.3351  0.2755 -0.9001
   37TMC2    C4  575   0.201   0.231  11.754  0.1340  0.0069 -0.0364
   37TMC2    C5  576   0.194   0.188  11.624 -0.4807 -0.3414  0.1542
   37TMC2    C6  577   0.101   0.103  11.577  1.0332  0.6588  0.4275
   37TMC2     C  578   0.104   0.212  11.976 -0.0825  0.4790 -0.2995
   37TMC2     O  579   0.046   0.148  12.057 -0.1992 -0.1260  0.1613
   37TMC2     H  580   4.683   0.035  11.863  0.5294  0.5574  0.9758
   37TMC2    H1  581   0.286   0.288  11.792  1.9206 -1.5787 -1.6570
   37TMC2    H2  582   0.104   0.071  11.473 -1.1563  2.9173 -0.3196
   37TMC2    C7  583   0.301   0.231  11.531  0.0400  0.0663 -0.4621
   37TMC2    C8  584   4.655   4.691  11.617 -0.0471  0.1896 -0.5919
   37TMC2    O1  585   0.383   0.301  11.583  0.1612  0.6289  0.0611
   37TMC2    O2  586   4.660   4.646  11.503  0.2421  0.5643 -0.0294
   37TMC2    O5  587   4.536   4.718  11.674 -0.1073 -0.2523  0.1698
   37TMC2    H5  588   4.543   0.042  11.753 -0.6490 -0.4924  0.3974
   38MPD2     C  589   0.394   0.505  12.272 -0.2452  0.5963  0.7620
   38MPD2    C1  590   0.352   0.586  12.166  0.1244 -0.3139 -0.2023
   38MPD2    C2  591   0.264   0.526  12.076 -0.4538 -0.4760 -0.1620
   38MPD2    C3  592   0.207   0.404  12.090 -0.0151  0.5511 -1.0082
   38MPD2    C4  593   0.238   0.335  12.205 -0.3730 -0.0926  0.1066
   38MPD2    C5  594   0.341   0.382  12.286  0.2229  0.3285 -0.1684
   38MPD2     H  595   0.249   0.584  11.985 -1.1097 -0.7223 -0.2076
   38MPD2    H1  596   0.203   0.234  12.220 -3.0294  0.6439 -1.2885
   38MPD2    H2  597   0.476   0.534  12.337  0.8661 -0.5920 -0.1044
   38MPD2    H3  598   0.373   0.321  12.369 -0.6165  0.8519  0.5486
   38MPD2     N  599   0.149   0.341  11.978  0.0337  0.6524 -0.5015
   38MPD2    H5  600   0.164   0.388  11.890  1.9049  2.4921  0.7892
   38MPD2    N1  601   0.401   0.726  12.138 -0.5097  0.0128 -0.6952
   38MPD2    H7  602   0.368   0.770  12.052 -2.1010  1.5828  0.6995
   39TMC2    C1  603   3.847   2.300   1.528  0.2339 -0.5376  0.3619
   39TMC2    C2  604   3.968   2.293   1.461  0.4552  0.7189  0.4274
   39TMC2    C3  605   4.064   2.388   1.492 -0.7979 -0.1089  0.3301
   39TMC2    C4  606   3.812   2.397   1.615  0.3106  0.2423 -0.1733
   39TMC2    C5  607   3.908   2.492   1.631  0.3184  0.7283 -0.0067
   39TMC2    C6  608   4.032   2.490   1.570  0.0868 -0.0138  0.0670
   39TMC2     C  609   3.745   2.205   1.490 -0.2837 -0.3456 -0.2059
   39TMC2     O  610   3.633   2.238   1.488 -0.4791  0.6987  0.1757
   39TMC2     H  611   3.994   2.219   1.386  0.2676  3.7566 -2.6126
   39TMC2    H1  612   3.716   2.404   1.665  0.3707  0.6131 -0.1123
   39TMC2    H2  613   4.112   2.560   1.586 -0.7215 -0.0908  4.3912
   39TMC2    C7  614   3.878   2.601   1.720  0.1805  0.4986 -0.9117
   39TMC2    C8  615   4.163   2.415   1.386  0.0148  0.3877  0.4226
   39TMC2    O1  616   3.797   2.578   1.810  0.4924  0.1826 -0.0662
   39TMC2    O2  617   4.140   2.381   1.271 -0.1998  0.2954 -0.3375
   39TMC2    O5  618   4.281   2.397   1.456 -0.0196 -0.1758 -0.1019
   39TMC2    H5  619   4.274   2.413   1.553  1.9085 -2.5517  0.4278
   40MPD2     C  620   3.788   1.886   1.307  0.6770 -0.6715  0.9739
   40MPD2    C1  621   3.736   2.008   1.340  0.1526  0.3077  0.6920
   40MPD2    C2  622   3.614   2.038   1.282  0.4387 -0.4181  0.0352
   40MPD2    C3  623   3.565   1.961   1.180 -0.0333  0.8947 -0.2412
   40MPD2    C4  624   3.637   1.853   1.130 -0.1693  0.3409 -0.2210
   40MPD2    C5  625   3.739   1.812   1.207 -0.0561 -0.3684  0.2952
   40MPD2     H  626   3.569   2.135   1.300  0.8847 -0.3975  1.0259
   40MPD2    H1  627   3.589   1.793   1.053  0.0490 -2.3028  1.7082
   40MPD2    H2  628   3.875   1.854   1.363  0.3183 -0.0872  1.8639
   40MPD2    H3  629   3.783   1.715   1.190 -0.2550 -0.3324 -0.4012
   40MPD2     N  630   3.443   1.987   1.107  0.5088 -0.0994  0.8240
   40MPD2    H5  631   3.435   1.925   1.027 -0.0281 -0.3775  1.0940
   40MPD2    N1  632   3.799   2.089   1.438  0.4004  0.1517 -0.2679
   40MPD2    H7  633   3.886   2.050   1.474  0.8715  2.0265  0.5836
   41TMC2    C1  634   2.783   0.180  12.833 -0.0650 -0.0188 -0.4005
   41TMC2    C2  635   2.876   0.277  12.864 -0.0397  0.6330  0.2765
   41TMC2    C3  636   2.961   0.320  12.760  0.4743  0.2655  0.2766
   41TMC2    C4  637   2.780   0.120  12.710 -0.3416 -0.6025  0.4203
   41TMC2    C5  638   2.876   0.165  12.621 -0.0173  0.2840  0.9726
   41TMC2    C6  639   2.957   0.270  12.632 -0.5856 -0.3229 -0.0635
   41TMC2     C  640   2.698   0.131  12.934  0.8859 -0.6362  0.5723
   41TMC2     O  641   2.673   0.011  12.920  0.0344  0.0555 -0.8618
   41TMC2     H  642   2.885   0.325  12.961  1.4081 -0.4939  0.6961
   41TMC2    H1  643   2.723   0.029  12.697  0.9353 -1.4649  0.8543
   41TMC2    H2  644   3.023   0.298  12.551 -0.3291  1.6674  0.8294
   41TMC2    C7  645   2.903   0.081  12.505  0.7795 -0.3736 -0.7825
   41TMC2    C8  646   3.069   0.408  12.796  0.2033  0.2647 -0.4696
   41TMC2    O1  647   3.004   0.090  12.435  0.0252  0.1992 -0.2264
   41TMC2    O2  648   3.156   0.432  12.715  0.1170  0.1213  0.3274
   41TMC2    O5  649   3.014   0.507  12.866 -0.2052 -0.2296 -0.0517
   41TMC2    H5  650   2.934   0.482  12.917 -0.6695 -1.0615 -1.1936
   42MPD2     C  651   2.556   0.060  13.169  0.7679 -0.0221  0.1614
   42MPD2    C1  652   2.578   0.187  13.133 -0.3650  0.0866  0.2429
   42MPD2    C2  653   2.516   0.284  13.213 -0.3893  0.3137  0.0372
   42MPD2    C3  654   2.431   0.261  13.315 -0.4577 -0.2018  0.6821
   42MPD2    C4  655   2.410   0.131  13.347 -0.0442  0.6325 -0.0962
   42MPD2    C5  656   2.476   0.031  13.277 -0.2057 -0.7553 -0.2105
   42MPD2     H  657   2.530   0.386  13.181  0.3489  0.1540 -0.1452
   42MPD2    H1  658   2.344   0.107  13.429  0.5471 -1.2341 -0.1606
   42MPD2    H2  659   2.599   4.712  13.114 -4.0072 -1.0568 -1.9832
   42MPD2    H3  660   2.465   4.660  13.300  1.9664 -0.9540 -0.0887
   42MPD2     N  661   2.373   0.355  13.400 -0.5740  0.3165  0.7447
   42MPD2    H5  662   2.322   0.319  13.481  0.3465  1.5199  1.8550
   42MPD2    N1  663   2.650   0.218  13.026 -0.0096 -0.4181  0.9149
   42MPD2    H7  664   2.676   0.315  13.015  0.7563 -0.5623  1.4940
   43TMC2    C1  665   3.693   3.579   0.638  0.7947  0.4633  0.2701
   43TMC2    C2  666   3.577   3.598   0.705 -0.2609 -0.0752  0.0429
   43TMC2    C3  667   3.586   3.684   0.815  0.2682 -0.0726 -0.4699
   43TMC2    C4  668   3.807   3.642   0.676 -0.4511 -0.2402 -0.3553
   43TMC2    C5  669   3.804   3.716   0.795 -0.0785  0.1113 -0.6042
   43TMC2    C6  670   3.694   3.739   0.868 -0.0784  0.3275  0.3574
   43TMC2     C  671   3.693   3.516   0.502 -0.7642 -0.7188 -0.0219
   43TMC2     O  672   3.801   3.513   0.445  0.5769 -0.0179  0.1842
   43TMC2     H  673   3.482   3.555   0.674 -0.5470 -0.7170  1.8032
   43TMC2    H1  674   3.905   3.619   0.635  0.3498  2.5273  0.0366
   43TMC2    H2  675   3.691   3.792   0.962 -0.9401 -0.0684  0.5542
   43TMC2    C7  676   3.927   3.779   0.840 -0.0159  0.7279  0.4386
   43TMC2    C8  677   3.465   3.714   0.887 -0.2270  0.2260  0.3090
   43TMC2    O1  678   4.001   3.836   0.761  0.0823 -0.2826 -0.4337
   43TMC2    O2  679   3.437   3.674   0.996 -0.6479 -0.4474 -0.2665
   43TMC2    O5  680   3.377   3.742   0.788  0.1831 -0.5669 -0.3639
   43TMC2    H5  681   3.421   3.746   0.701  0.8589  0.5431  0.0290
   44MPD2     C  682   3.508   3.221   0.124 -0.1260 -0.0987  0.0270
   44MPD2    C1  683   3.627   3.296   0.128 -0.0576 -0.7510 -0.0958
   44MPD2    C2  684   3.637   3.383   0.232  0.0568 -0.0988 -0.4930
   44MPD2    C3  685   3.544   3.395   0.341 -0.2029  0.2201  0.3003
   44MPD2    C4  686   3.425   3.332   0.331  0.1077  0.5032 -0.0198
   44MPD2    C5  687   3.414   3.235   0.229 -0.3213 -0.4021  0.5078
   44MPD2     H  688   3.723   3.449   0.228 -2.7554  3.5959 -0.0406
   44MPD2    H1  689   3.342   3.343   0.401  1.7355 -0.5411  2.0576
   44MPD2    H2  690   3.483   3.154   0.043 -0.2141  1.0598 -0.9090
   44MPD2    H3  691   3.326   3.171   0.236 -0.3729 -0.3406  0.4207
   44MPD2     N  692   3.566   3.470   0.453 -1.1328 -0.7955  0.1344
   44MPD2    H5  693   3.494   3.467   0.525 -1.4256  1.4952 -0.0501
   44MPD2    N1  694   3.735   3.292   0.030 -0.1748  0.2671  0.1151
   44MPD2    H7  695   3.814   3.355   0.044  0.6836 -0.6118 -0.8303
   45TMC2    C1  696   4.001   0.573   9.256  0.3399  0.2503 -0.1156
   45TMC2    C2  697   3.871   0.593   9.223 -0.3795 -0.2691 -0.6646
   45TMC2    C3  698   3.837   0.729   9.232 -0.5804  0.0818 -0.9611
   45TMC2    C4  699   4.088   0.665   9.311  0.4263 -0.3233  0.2577
   45TMC2    C5  700   4.047   0.797   9.315 -0.4793 -0.0311  0.0908
   45TMC2    C6  701   3.921   0.831   9.274 -0.1232 -0.0783  0.0685
   45TMC2     C  702   4.053   0.436   9.245  0.2860 -0.2491 -0.3562
   45TMC2     O  703   4.176   0.422   9.230 -0.6580  0.0271  0.7840
   45TMC2     H  704   3.817   0.529   9.154 -0.9884 -0.0529 -0.3910
   45TMC2    H1  705   4.187   0.634   9.341  0.0195 -0.3585  1.5851
   45TMC2    H2  706   3.887   0.933   9.283  1.2456  0.2923  1.0899
   45TMC2    C7  707   4.131   0.899   9.377 -0.3924  0.7678 -0.5634
   45TMC2    C8  708   3.706   0.758   9.190  0.8547  0.0383 -0.2175
   45TMC2    O1  709   4.226   0.868   9.447 -0.3025 -0.0050  0.1864
   45TMC2    O2  710   3.676   0.865   9.140 -0.6597  0.6398  0.8450
   45TMC2    O5  711   3.629   0.646   9.202 -0.4070  0.0022  0.4974
   45TMC2    H5  712   3.656   0.578   9.267  2.1255 -1.1842 -1.7980
   46MPD2     C  713   4.085   0.145   9.257 -0.2441 -0.0948 -0.0203
   46MPD2    C1  714   3.964   0.206   9.246 -0.2391 -0.5262  0.2101
   46MPD2    C2  715   3.845   0.130   9.256  0.2750  0.2064  0.0052
   46MPD2    C3  716   3.852   4.724   9.272 -0.4956 -0.1720  0.0028
   46MPD2    C4  717   3.975   4.662   9.283 -0.3747 -0.6176 -0.6369
   46MPD2    C5  718   4.084   0.009   9.271 -0.1089 -0.6341  0.2931
   46MPD2     H  719   3.750   0.182   9.264  0.5391  0.6622  0.1439
   46MPD2    H1  720   3.986   4.559   9.314  1.2383  0.0660  1.0716
   46MPD2    H2  721   4.176   0.202   9.266  0.0636 -0.6575  0.4090
   46MPD2    H3  722   4.184   4.702   9.269 -0.3424 -1.1042 -2.4427
   46MPD2     N  723   3.727   4.657   9.281  0.0694  0.0038  0.4394
   46MPD2    H5  724   3.643   4.713   9.289 -1.3203 -1.9261 -1.0086
   46MPD2    N1  725   3.949   0.341   9.243  0.4392 -0.0827  0.1187
   46MPD2    H7  726   3.855   0.372   9.262  0.5481  1.0922 -1.2708
   47TMC2    C1  727   1.061   1.393   8.698  0.0317 -0.6210  0.4060
   47TMC2    C2  728   1.005   1.429   8.583  0.4835 -0.0568  0.0812
   47TMC2    C3  729   0.955   1.554   8.575  0.7153 -0.2857  0.0322
   47TMC2    C4  730   1.056   1.474   8.809 -0.1436 -0.7572 -0.2722
   47TMC2    C5  731   0.987   1.593   8.808 -0.0133 -0.4140  0.5028
   47TMC2    C6  732   0.946   1.634   8.689 -0.1931  0.2247  0.5919
   47TMC2     C  733   1.095   1.253   8.703  0.0275 -0.0931  0.3641
   47TMC2     O  734   1.046   1.183   8.617  0.0983 -0.1667 -0.0231
   47TMC2     H  735   1.010   1.365   8.495 -2.3633 -0.1062 -0.0544
   47TMC2    H1  736   1.085   1.426   8.902  1.3898 -1.5841 -1.1720
   47TMC2    H2  737   0.887   1.725   8.685 -1.1248 -0.4630 -0.9309
   47TMC2    C7  738   0.971   1.674   8.923  0.0557 -0.1831  0.7203
   47TMC2    C8  739   0.913   1.612   8.449  0.4769  0.2768  0.4759
   47TMC2    O1  740   0.941   1.791   8.906 -0.0109 -0.2573 -0.3243
   47TMC2    O2  741   0.926   1.555   8.342 -0.4178 -0.0900 -0.2601
   47TMC2    O5  742   0.803   1.695   8.477 -0.3940  0.6564 -0.0836
   47TMC2    H5  743   0.765   1.684   8.567 -3.3715 -0.5819 -1.5006
   48MPD2     C  744   1.217   0.983   8.748 -0.1356 -0.0046 -0.2701
   48MPD2    C1  745   1.265   1.108   8.806  0.8637 -0.1403 -0.7766
   48MPD2    C2  746   1.383   1.088   8.882 -0.2219 -0.0486  0.4239
   48MPD2    C3  747   1.453   0.966   8.898 -0.4003 -0.6796  0.4167
   48MPD2    C4  748   1.396   0.855   8.832 -0.2984  0.3509 -0.3102
   48MPD2    C5  749   1.277   0.865   8.767 -0.3845 -0.0021 -0.1429
   48MPD2     H  750   1.431   1.170   8.934  2.6725 -1.6602  0.3106
   48MPD2    H1  751   1.430   0.752   8.838 -1.2143  0.1300  1.0691
   48MPD2    H2  752   1.122   0.981   8.697  0.3499 -1.2315 -1.0930
   48MPD2    H3  753   1.235   0.770   8.735 -1.3955  0.3669  0.0956
   48MPD2     N  754   1.561   0.968   8.990 -0.1466 -0.5508  0.3201
   48MPD2    H5  755   1.571   1.050   9.049  0.2170  1.1473 -2.0990
   48MPD2    N1  756   1.197   1.233   8.788  0.4833  0.3403 -1.3198
   48MPD2    H7  757   1.230   1.317   8.834 -0.8232  0.9515 -1.5072
   49TMC2    C1  758   1.408   3.210  11.216  0.2130  0.4662  0.0949
   49TMC2    C2  759   1.465   3.261  11.102  0.3446 -0.6102 -0.1265
   49TMC2    C3  760   1.542   3.379  11.111 -0.2807  0.6943  0.0422
   49TMC2    C4  761   1.419   3.281  11.329  0.3233 -0.6108 -0.6974
   49TMC2    C5  762   1.483   3.407  11.327  0.3832  0.0783 -0.7485
   49TMC2    C6  763   1.546   3.462  11.218  0.4400  0.2408 -0.1977
   49TMC2     C  764   1.348   3.074  11.215 -0.4229 -0.5715  0.3075
   49TMC2     O  765   1.362   3.005  11.114 -0.3392 -0.0473 -0.0723
   49TMC2     H  766   1.457   3.207  11.008 -2.0759 -1.0778  0.3457
   49TMC2    H1  767   1.356   3.251  11.412  1.5116 -0.3561  0.2978
   49TMC2    H2  768   1.614   3.545  11.232 -1.4677  2.1395 -2.3330
   49TMC2    C7  769   1.490   3.478  11.454 -0.3841  0.4955  0.2614
   49TMC2    C8  770   1.612   3.425  10.994 -0.1900  0.0415  0.6165
   49TMC2    O1  771   1.464   3.408  11.550 -0.4530  0.3257  0.1983
   49TMC2    O2  772   1.635   3.356  10.899 -0.3605  0.1083  0.2175
   49TMC2    O5  773   1.647   3.554  11.008  0.1656 -0.2588  0.1711
   49TMC2    H5  774   1.593   3.612  11.066  2.0520  0.6408  0.9930
   50MPD2     C  775   1.234   2.809  11.310  0.2483  0.0824 -0.3372
   50MPD2    C1  776   1.265   2.914  11.394 -0.0452 -0.0601 -0.4432
   50MPD2    C2  777   1.257   2.905  11.529 -0.5087 -0.1453  0.1366
   50MPD2    C3  778   1.203   2.792  11.591  0.9458  0.7674 -0.2981
   50MPD2    C4  779   1.169   2.690  11.504  0.3586  0.1322 -0.2261
   50MPD2    C5  780   1.187   2.695  11.372  0.1064  0.2082 -0.1157
   50MPD2     H  781   1.286   2.994  11.584 -0.7857 -1.4477  2.3537
   50MPD2    H1  782   1.131   2.598  11.548  0.1984  0.3026 -0.0042
   50MPD2    H2  783   1.255   2.805  11.204 -2.3973 -1.8060 -0.7848
   50MPD2    H3  784   1.163   2.607  11.313  1.5478  1.6283 -2.8157
   50MPD2     N  785   1.181   2.783  11.728  0.0002  0.3363 -0.8958
   50MPD2    H5  786   1.161   2.690  11.765  0.4781 -0.4341 -2.5494
   50MPD2    N1  787   1.315   3.036  11.343  0.1412 -0.0319  0.5536
   50MPD2    H7  788   1.321   3.111  11.411  1.7411 -0.8638  1.3051
   51TMC2    C1  789   0.882   1.973   1.448 -0.2020  0.7290 -0.1409
   51TMC2    C2  790   0.768   2.053   1.450 -0.6357  0.8331  1.1680
   51TMC2    C3  791   0.782   2.185   1.425  0.4800 -0.9050 -0.2109
   51TMC2    C4  792   1.010   2.023   1.423 -0.3703 -1.2837  0.3284
   51TMC2    C5  793   1.011   2.153   1.386  0.8497 -0.4338  1.1542
   51TMC2    C6  794   0.904   2.237   1.405  0.1555 -0.4628  0.3541
   51TMC2     C  795   0.882   1.831   1.486 -0.1044  0.7687 -0.6547
   51TMC2     O  796   0.777   1.796   1.540 -0.0415  0.3572  0.4743
   51TMC2     H  797   0.673   2.008   1.476 -0.4378 -1.1255 -1.5111
   51TMC2    H1  798   1.100   1.963   1.427  1.4202  1.4310  0.7020
   51TMC2    H2  799   0.905   2.336   1.360 -0.4599 -0.8592 -0.5310
   51TMC2    C7  800   1.136   2.218   1.352  0.1173  0.5337 -0.0834
   51TMC2    C8  801   0.671   2.264   1.390  0.4428 -0.5105 -0.2540
   51TMC2    O1  802   1.134   2.320   1.284  0.1689 -0.2667  0.4848
   51TMC2    O2  803   0.657   2.370   1.442 -0.2097 -0.3081  0.2021
   51TMC2    O5  804   0.593   2.188   1.318  0.4682 -0.0598 -0.0482
   51TMC2    H5  805   0.641   2.110   1.285 -0.4371 -0.4529 -0.4399
   52MPD2     C  806   0.987   1.349   1.355 -0.0981 -0.6289  0.0222
   52MPD2    C1  807   1.085   1.431   1.302 -0.5514  0.6438 -0.1594
   52MPD2    C2  808   1.075   1.561   1.332  0.3570 -0.9191  0.6914
   52MPD2    C3  809   0.970   1.614   1.406 -0.2835 -0.9198  0.2774
   52MPD2    C4  810   0.884   1.532   1.468  0.2015  0.9835 -0.5229
   52MPD2    C5  811   0.900   1.396   1.450  0.4306  0.2750  0.1847
   52MPD2     H  812   1.145   1.633   1.290 -1.7961  0.8067  0.0415
   52MPD2    H1  813   0.809   1.573   1.534 -1.5781 -0.9282 -1.3864
   52MPD2    H2  814   1.000   1.242   1.347 -1.7277 -0.8970  1.0671
   52MPD2    H3  815   0.835   1.333   1.510  0.3855 -0.9142 -1.1060
   52MPD2     N  816   0.965   1.755   1.415 -0.0812  0.3584  0.3771
   52MPD2    H5  817   1.030   1.804   1.354 -0.4842  0.6822  0.2039
   52MPD2    N1  818   1.194   1.383   1.219 -0.0272  0.5466  0.0262
   52MPD2    H7  819   1.253   1.449   1.169  1.3884  0.6615  1.8227
   53TMC2    C1  820   0.854   0.597  11.191  0.1580  0.0175  0.4320
   53TMC2    C2  821   0.989   0.581  11.171  0.0895  0.3719 -0.4931
   53TMC2    C3  822   1.074   0.664  11.233 -0.6327  0.6041 -0.2390
   53TMC2    C4  823   0.808   0.677  11.290 -0.1752 -0.2189 -0.0395
   53TMC2    C5  824   0.894   0.763  11.356  0.3979  0.8067 -0.1064
   53TMC2    C6  825   1.027   0.747  11.328 -0.3724  0.7847  0.2407
   53TMC2     C  826   0.757   0.491  11.150 -0.6344 -0.3024  0.2274
   53TMC2     O  827   0.787   0.436  11.045  0.8085 -0.0849 -0.1684
   53TMC2     H  828   1.017   0.531  11.079 -1.8347 -2.5519  0.5084
   53TMC2    H1  829   0.702   0.690  11.309 -0.2388 -0.8000 -0.0134
   53TMC2    H2  830   1.100   0.797  11.390 -0.2789 -1.3205  1.8299
   53TMC2    C7  831   0.838   0.850  11.458  0.4998 -0.3122  0.2909
   53TMC2    C8  832   1.215   0.633  11.243  0.9541 -0.7434  0.2004
   53TMC2    O1  833   0.723   0.839  11.500  0.3877  0.4293  0.0658
   53TMC2    O2  834   1.301   0.710  11.283  0.4177  0.4623  0.2398
   53TMC2    O5  835   1.238   0.506  11.223  0.2695  0.2822  0.2024
   53TMC2    H5  836   1.153   0.457  11.226  1.1198 -1.0485  1.9992
   54MPD2     C  837   0.524   0.322  11.083 -0.4837 -0.1222 -0.1126
   54MPD2    C1  838   0.538   0.386  11.210 -0.4726 -0.6041  0.4603
   54MPD2    C2  839   0.462   0.342  11.316  0.4260 -0.1908 -0.0407
   54MPD2    C3  840   0.355   0.262  11.291 -0.0851 -0.2274  0.6898
   54MPD2    C4  841   0.336   0.209  11.164 -0.3927  0.4654 -0.0366
   54MPD2    C5  842   0.423   0.237  11.065  0.8008  0.0482 -0.2683
   54MPD2     H  843   0.490   0.380  11.413  0.5148 -1.3774  0.3945
   54MPD2    H1  844   0.255   0.138  11.155  0.9104 -0.9926 -0.2718
   54MPD2    H2  845   0.601   0.318  11.007  0.8420 -2.7727  1.4024
   54MPD2    H3  846   0.420   0.186  10.969  0.7903 -0.3113 -0.0782
   54MPD2     N  847   0.275   0.210  11.400 -0.0214 -0.3713 -0.3751
   54MPD2    H5  848   0.197   0.150  11.374  0.3368 -0.4965 -1.1797
   54MPD2    N1  849   0.655   0.467  11.241 -0.0537  0.2259  0.0113
   54MPD2    H7  850   0.665   0.512  11.332  0.7337  1.5667 -0.7411
   55TMC2    C1  851   2.057   3.633  17.474  0.5304  0.2369  0.0298
   55TMC2    C2  852   2.121   3.650  17.352 -0.2750  0.3467 -0.2486
   55TMC2    C3  853   2.142   3.542  17.276  0.1420 -0.1578  0.1904
   55TMC2    C4  854   2.017   3.509  17.515 -0.2043  0.0307  0.4501
   55TMC2    C5  855   2.065   3.401  17.440  0.6113 -0.9155 -0.2215
   55TMC2    C6  856   2.120   3.415  17.314 -0.1744  0.7572 -0.3163
   55TMC2     C  857   2.037   3.739  17.573 -0.2527 -0.2565  0.1174
   55TMC2     O  858   1.960   3.711  17.663  0.0461 -0.0228 -0.0742
   55TMC2     H  859   2.146   3.748  17.312  1.2729 -0.4222 -1.1698
   55TMC2    H1  860   1.973   3.495  17.613  1.1460  0.6598  1.1498
   55TMC2    H2  861   2.146   3.326  17.259  2.1497  1.9351 -1.1219
   55TMC2    C7  862   2.080   3.270  17.501  0.1713  0.9341 -0.0547
   55TMC2    C8  863   2.259   3.558  17.200  0.6120 -0.1032  0.5016
   55TMC2    O1  864   2.155   3.194  17.442  0.2695  0.0236 -0.0633
   55TMC2    O2  865   2.349   3.474  17.181  0.5767 -0.0692 -0.1054
   55TMC2    O5  866   2.207   3.632  17.098  0.1755 -0.2899 -0.1281
   55TMC2    H5  867   2.113   3.656  17.110  0.2422 -0.3596  0.4994
   56MPD2     C  868   2.175   4.087  17.583 -0.5396 -0.5716 -0.0518
   56MPD2    C1  869   2.098   3.977  17.617  0.2401 -0.2585 -0.7355
   56MPD2    C2  870   2.005   4.001  17.718  0.0444  0.1573 -0.2942
   56MPD2    C3  871   1.994   4.116   0.050 -0.2639 -0.3344  0.0149
   56MPD2    C4  872   2.070   4.228   0.017 -0.1198  0.2215 -0.3579
   56MPD2    C5  873   2.157   4.213  17.646 -0.1334  0.9551 -0.1566
   56MPD2     H  874   1.933   3.921  17.731 -2.0277  2.2398  1.2172
   56MPD2    H1  875   2.068   4.317   0.080  2.0320 -2.0708  2.9755
   56MPD2    H2  876   2.233   4.082  17.492  1.1869  0.3671  0.9720
   56MPD2    H3  877   2.220   4.298  17.622 -0.6175  1.5484  0.6686
   56MPD2     N  878   1.904   4.135   0.161  0.0107  0.0101 -0.2994
   56MPD2    H5  879   1.879   4.229   0.190  1.6140  0.3443  0.0303
   56MPD2    N1  880   2.107   3.854  17.541 -0.0169 -0.7761  0.1476
   56MPD2    H7  881   2.176   3.841  17.468 -1.6637 -1.1390 -1.3274
   57TMC2    C1  882   0.918   3.475  13.011  0.2677  0.4314  0.3819
   57TMC2    C2  883   0.904   3.338  13.001  0.6627 -0.5393  0.9552
   57TMC2    C3  884   1.010   3.267  12.952 -0.4420 -0.1035  0.3555
   57TMC2    C4  885   1.039   3.535  12.998  0.7056  0.0943  0.1162
   57TMC2    C5  886   1.145   3.454  12.982 -0.2332  0.1838 -0.4312
   57TMC2    C6  887   1.133   3.319  12.954 -0.0961  0.2140  0.5772
   57TMC2     C  888   0.818   3.560  13.065 -0.2611 -0.0066  0.0072
   57TMC2     O  889   0.813   3.673  13.016 -0.1982 -0.1353  0.3153
   57TMC2     H  890   0.801   3.307  13.008  0.2008  0.4495 -1.6423
   57TMC2    H1  891   1.049   3.632  13.045 -1.6257  0.8271 -0.8805
   57TMC2    H2  892   1.218   3.259  12.923  2.0867  3.1670  0.7530
   57TMC2    C7  893   1.266   3.525  12.937 -0.9565  0.5492 -0.3935
   57TMC2    C8  894   1.018   3.135  13.006 -0.0298  0.2003  0.8911
   57TMC2    O1  895   1.249   3.640  12.900  0.1209 -0.5456 -0.5466
   57TMC2    O2  896   1.095   3.113  13.094 -0.3400 -0.4955 -0.0101
   57TMC2    O5  897   0.892   3.097  13.006  0.3472 -0.3562  0.4131
   57TMC2    H5  898   0.837   3.124  12.930  0.8646  2.8543  1.1419
   58MPD2     C  899   0.529   3.670  13.465 -0.3641 -0.2611  0.5371
   58MPD2    C1  900   0.562   3.744  13.354 -0.0057 -0.3138  0.1608
   58MPD2    C2  901   0.627   3.686  13.248 -0.0588 -0.4564 -0.0096
   58MPD2    C3  902   0.669   3.559  13.253  0.5914 -0.0684  0.2509
   58MPD2    C4  903   0.642   3.485  13.368 -0.3375  0.0254 -0.4422
   58MPD2    C5  904   0.576   3.542  13.470 -0.3632 -0.8074  0.3885
   58MPD2     H  905   0.655   3.744  13.161  1.0649  0.1575  0.7679
   58MPD2    H1  906   0.675   3.382  13.380 -0.3549  0.1780  0.8362
   58MPD2    H2  907   0.467   3.703  13.548  0.3744  3.4030 -0.3710
   58MPD2    H3  908   0.537   3.477  13.548 -0.5583  1.2450  1.9993
   58MPD2     N  909   0.745   3.494  13.159 -0.0820 -0.3034  0.0788
   58MPD2    H5  910   0.757   3.398  13.190 -0.9632  0.1809  1.9242
   58MPD2    N1  911   0.524   3.877  13.350  0.2606 -0.2043  0.6062
   58MPD2    H7  912   0.515   3.920  13.258 -2.3112  1.6870  1.7645
   59TMC2    C1  913   3.250   4.020  12.715  0.1079 -0.1117 -0.1991
   59TMC2    C2  914   3.177   3.908  12.752 -0.0660  0.1920  0.2211
   59TMC2    C3  915   3.175   3.802  12.667 -0.6779 -0.3450 -0.3231
   59TMC2    C4  916   3.317   4.033  12.593  0.2121 -0.4653 -1.0121
   59TMC2    C5  917   3.296   3.923  12.510 -0.3930  0.1725  0.3372
   59TMC2    C6  918   3.231   3.808  12.546 -1.0555  0.7696  0.6358
   59TMC2     C  919   3.246   4.130  12.816 -0.2037  0.1630  0.8496
   59TMC2     O  920   3.144   4.132  12.886  0.6998 -0.3444  0.0985
   59TMC2     H  921   3.131   3.907  12.849 -1.2652 -1.9012 -0.3808
   59TMC2    H1  922   3.376   4.119  12.562  0.2360 -0.0803  0.0935
   59TMC2    H2  923   3.207   3.730  12.474  2.7309 -2.3950  2.8221
   59TMC2    C7  924   3.326   3.938  12.367  0.8359  0.4977 -0.3312
   59TMC2    C8  925   3.065   3.715  12.694  0.1631 -0.2947 -0.5101
   59TMC2    O1  926   3.352   3.841  12.299  0.0292 -0.0579  0.2805
   59TMC2    O2  927   2.989   3.675  12.606 -0.0216  0.4959 -0.1948
   59TMC2    O5  928   3.073   3.676  12.824 -0.7221 -0.3690  0.2918
   59TMC2    H5  929   3.153   3.717  12.862 -0.7983 -0.1231  0.1873
   60MPD2     C  930   3.257   4.386  12.956  0.3341 -0.0287 -0.5970
   60MPD2    C1  931   3.372   4.328  12.894 -0.4265  0.0510  0.5481
   60MPD2    C2  932   3.499   4.379  12.916 -0.0400 -0.2942 -0.2084
   60MPD2    C3  933   3.514   4.481  13.011 -0.3540 -0.1204 -0.1776
   60MPD2    C4  934   3.403   4.549  13.059  0.1213 -0.1212 -0.0982
   60MPD2    C5  935   3.285   4.494  13.029 -0.1776 -0.0857  0.1027
   60MPD2     H  936   3.579   4.327  12.865 -0.0566 -1.2502  0.7487
   60MPD2    H1  937   3.403   4.631  13.130 -0.4468  0.4380 -0.7491
   60MPD2    H2  938   3.162   4.333  12.956  1.0958 -1.3870 -3.4582
   60MPD2    H3  939   3.194   4.544  13.062  0.3520  0.3969  0.8348
   60MPD2     N  940   3.643   4.528  13.051 -0.0648 -0.2580 -0.0489
   60MPD2    H5  941   3.646   4.609  13.113 -0.4518  0.4397 -0.9496
   60MPD2    N1  942   3.357   4.209  12.816 -0.5636 -0.2391 -0.3427
   60MPD2    H7  943   3.437   4.171  12.767 -1.2182 -1.4815 -0.4486
   61TMC2    C1  944   2.617   0.766  15.053  0.2943  0.2910 -0.6598
   61TMC2    C2  945   2.583   0.677  15.150  0.6232 -0.4051 -0.4866
   61TMC2    C3  946   2.596   0.707  15.281  0.0025  0.0899 -0.0460
   61TMC2    C4  947   2.654   0.892  15.089 -0.4231  0.5398 -0.2531
   61TMC2    C5  948   2.656   0.928  15.220 -0.2669 -0.3389  0.7400
   61TMC2    C6  949   2.621   0.839  15.320  0.2609 -0.4839 -0.1039
   61TMC2     C  950   2.616   0.719  14.913  0.0574  0.0364  0.5793
   61TMC2     O  951   2.582   0.602  14.895 -0.1607  0.3635  0.2435
   61TMC2     H  952   2.585   0.572  15.123 -0.4093  0.0408 -2.2944
   61TMC2    H1  953   2.674   0.964  15.011  0.4536 -1.7608 -2.1278
   61TMC2    H2  954   2.607   0.870  15.423  1.8589 -2.0874  0.5864
   61TMC2    C7  955   2.708   1.057  15.250 -0.5172  0.0570  0.3044
   61TMC2    C8  956   2.542   0.614  15.377  0.7342 -0.6603  0.0422
   61TMC2    O1  957   2.730   1.132  15.157 -0.0774 -0.2134 -0.1619
   61TMC2    O2  958   2.470   0.522  15.349 -0.1008  0.6210  0.3643
   61TMC2    O5  959   2.630   0.609  15.478 -0.5192 -0.5970 -0.3724
   61TMC2    H5  960   2.699   0.678  15.472 -0.3861 -1.0666 -4.3680
   62MPD2     C  961   2.577   0.708  14.625 -0.1866 -0.5572 -0.9697
   62MPD2    C1  962   2.653   0.801  14.684 -0.7750 -0.2146 -1.3523
   62MPD2    C2  963   2.719   0.894  14.616 -0.6566  0.3084 -0.8187
   62MPD2    C3  964   2.721   0.900  14.480  0.2897 -0.1160  0.2849
   62MPD2    C4  965   2.650   0.798  14.419  0.3630  0.3701 -0.2940
   62MPD2    C5  966   2.570   0.713  14.490  0.1246  0.0947  0.3023
   62MPD2     H  967   2.781   0.961  14.673 -0.8877 -1.1293  1.1374
   62MPD2    H1  968   2.640   0.805  14.312  1.7279 -2.2004 -0.5932
   62MPD2    H2  969   2.512   0.635  14.673  1.2804 -2.6655 -2.2101
   62MPD2    H3  970   2.508   0.646  14.432  1.9159 -0.4082 -1.0407
   62MPD2     N  971   2.787   0.995  14.398  0.3428  0.5895 -0.0389
   62MPD2    H5  972   2.788   0.973  14.299  1.8890 -0.5522  0.2305
   62MPD2    N1  973   2.660   0.812  14.818  0.7092  0.1400 -0.2368
   62MPD2    H7  974   2.700   0.895  14.860  0.2123 -0.4420  1.3703
   63TMC2    C1  975   1.929   0.897  10.722 -0.1878  0.0979  0.6736
   63TMC2    C2  976   2.032   0.905  10.808 -0.0182  0.0132  0.3877
   63TMC2    C3  977   2.150   0.950  10.758 -0.0735 -0.5174 -0.4755
   63TMC2    C4  978   1.946   0.916  10.584  0.2812  0.0982  0.2424
   63TMC2    C5  979   2.068   0.959  10.547 -0.2819 -0.2315  0.6723
   63TMC2    C6  980   2.177   0.968  10.625 -0.6397  0.0485  0.3897
   63TMC2     C  981   1.806   0.832  10.775 -0.7204 -0.6986  0.4774
   63TMC2     O  982   1.763   0.848  10.886 -0.5427  0.1936 -0.5798
   63TMC2     H  983   2.018   0.886  10.913  0.5552 -2.0207  0.1037
   63TMC2    H1  984   1.857   0.908  10.523  0.6825 -2.3423 -0.0152
   63TMC2    H2  985   2.275   1.001  10.594 -0.6280  1.3314  1.8039
   63TMC2    C7  986   2.070   1.020  10.413  0.8737  0.3157 -0.2738
   63TMC2    C8  987   2.262   0.934  10.856  0.6200 -0.4447 -0.4658
   63TMC2    O1  988   1.962   1.043  10.363  0.4769 -0.5447  0.1808
   63TMC2    O2  989   2.372   0.904  10.817  0.2099  0.3372 -0.1874
   63TMC2    O5  990   2.247   1.005  10.964  0.2168 -0.0585  0.6665
   63TMC2    H5  991   2.160   1.050  10.972  0.3499  0.4767 -0.8518
   64MPD2     C  992   1.504   0.412  10.775  0.4036 -0.6497 -0.6114
   64MPD2    C1  993   1.629   0.378  10.723 -0.8145  0.0891 -0.1945
   64MPD2    C2  994   1.719   0.482  10.698 -0.3033 -0.3878  0.3284
   64MPD2    C3  995   1.692   0.613  10.738 -0.1519 -0.5804  0.5183
   64MPD2    C4  996   1.564   0.636  10.774  0.1552 -0.8766 -0.5123
   64MPD2    C5  997   1.474   0.541  10.802 -0.0521 -0.5437  0.1579
   64MPD2     H  998   1.815   0.464  10.651 -0.2444 -0.9402  0.6685
   64MPD2    H1  999   1.542   0.737  10.803 -0.5186 -1.3180  0.5044
   64MPD2    H2 1000   1.419   0.345  10.771 -0.0005 -0.2716  1.6227
   64MPD2    H3 1001   1.376   0.570  10.838  0.9700  0.7584  1.8735
   64MPD2     N 1002   1.798   0.708  10.711 -0.0607 -0.4341  0.1363
   64MPD2    H5 1003   1.884   0.685  10.662  0.3649  0.0535  0.6565
   64MPD2    N1 1004   1.664   0.245  10.706 -0.1592 -0.0198  0.5305
   64MPD2    H7 1005   1.749   0.226  10.655 -0.1378  0.8112  0.2443
   65TMC2    C1 1006   3.558   0.362  15.634 -0.2278  0.6038  0.3590
   65TMC2    C2 1007   3.596   0.341  15.505 -0.1158  0.6666  0.8718
   65TMC2    C3 1008   3.572   0.428  15.406  0.3628  0.1408  0.1890
   65TMC2    C4 1009   3.464   0.465  15.657 -0.1415 -0.2054  0.2170
   65TMC2    C5 1010   3.434   0.533  15.551  0.2218 -0.1601  0.2812
   65TMC2    C6 1011   3.485   0.521  15.427  0.2900 -0.1722 -0.1124
   65TMC2     C 1012   3.585   0.267  15.724  0.1761  0.6317  0.3572
   65TMC2     O 1013   3.582   0.301  15.844 -0.1546 -0.2285 -0.3203
   65TMC2     H 1014   3.667   0.270  15.465 -2.7544  0.3599 -3.3315
   65TMC2    H1 1015   3.414   0.490  15.750  1.9662  1.7884  0.8463
   65TMC2    H2 1016   3.466   0.597  15.353 -1.2433 -1.2276 -0.7882
   65TMC2    C7 1017   3.346   0.645  15.557  0.3421  0.0740  0.7380
   65TMC2    C8 1018   3.657   0.445  15.295  1.2036  0.0964  0.0560
   65TMC2    O1 1019   3.278   0.662  15.456 -0.2684 -0.4123 -0.2057
   65TMC2    O2 1020   3.709   0.345  15.246 -0.2184 -0.0790  0.1198
   65TMC2    O5 1021   3.674   0.575  15.262 -0.5891  0.6010  0.2545
   65TMC2    H5 1022   3.645   0.640  15.330 -0.5648  1.8457 -0.9220
   66MPD2     C 1023   3.597   0.002  15.865 -0.1394 -1.3288  0.0243
   66MPD2    C1 1024   3.579   0.020  15.733 -1.1694 -0.0758 -0.9112
   66MPD2    C2 1025   3.573   4.646  15.648  0.1317  0.1836 -0.1996
   66MPD2    C3 1026   3.593   4.516  15.703 -0.1163  0.9219  0.1239
   66MPD2    C4 1027   3.598   4.503  15.839  0.1140  0.2421  0.3390
   66MPD2    C5 1028   3.601   4.611  15.918  0.1271  0.9892  0.0433
   66MPD2     H 1029   3.553   4.660  15.542  0.0895 -1.0025 -0.3459
   66MPD2    H1 1030   3.598   4.405  15.885 -1.2613 -1.3853 -3.1289
   66MPD2    H2 1031   3.599   0.086  15.933  1.7168  0.3828 -2.1619
   66MPD2    H3 1032   3.621   4.599  16.024  2.0686  1.1684 -0.2993
   66MPD2     N 1033   3.581   4.399  15.621  0.1533 -0.5136 -0.1383
   66MPD2    H5 1034   3.559   4.310  15.663  0.2724  0.5352  2.1310
   66MPD2    N1 1035   3.572   0.143  15.665 -0.0631 -0.0261  0.1837
   66MPD2    H7 1036   3.567   0.134  15.564 -0.0010 -0.0967  0.1868
   67TMC2    C1 1037   3.637   4.283  14.426 -0.3821  0.5346 -0.1603
   67TMC2    C2 1038   3.549   4.369  14.487 -0.9995  0.0922  0.4855
   67TMC2    C3 1039   3.601   4.463  14.569 -1.0231  0.1912  0.8056
   67TMC2    C4 1040   3.773   4.294  14.439  0.5540 -0.3032  0.4405
   67TMC2    C5 1041   3.821   4.402  14.509 -0.0952 -0.0880  0.4798
   67TMC2    C6 1042   3.739   4.489  14.584  0.0947  1.3929  0.1961
   67TMC2     C 1043   3.586   4.196  14.322  0.7033  1.0037 -0.3264
   67TMC2     O 1044   3.668   4.117  14.275 -0.0732  0.1157 -0.0024
   67TMC2     H 1045   3.441   4.359  14.486 -0.8474 -1.4871  0.3096
   67TMC2    H1 1046   3.839   4.229  14.382 -0.8170 -0.5840 -0.8291
   67TMC2    H2 1047   3.780   4.573  14.640  1.7030 -1.2320  2.9559
   67TMC2    C7 1048   3.955   4.382  14.560 -0.3336 -0.5246  0.4273
   67TMC2    C8 1049   3.505   4.563  14.604  0.8480  0.6574  0.3263
   67TMC2    O1 1050   4.049   4.364  14.484 -0.0280 -0.1174  0.0583
   67TMC2    O2 1051   3.400   4.580  14.539 -0.1999  0.3323 -0.0127
   67TMC2    O5 1052   3.573   4.664  14.674  0.0029  0.1631 -0.3978
   67TMC2    H5 1053   3.523   0.014  14.681 -0.1198  0.1827 -1.6384
   68MPD2     C 1054   3.454   4.119  14.057 -0.9099  0.3844 -0.1682
   68MPD2    C1 1055   3.397   4.185  14.166  0.1227 -0.8214  0.3835
   68MPD2    C2 1056   3.263   4.216  14.148  0.1191 -0.4772  0.5887
   68MPD2    C3 1057   3.187   4.181  14.029 -0.2837 -0.3467  0.9097
   68MPD2    C4 1058   3.256   4.122  13.932  0.0887  0.3326  0.3673
   68MPD2    C5 1059   3.386   4.098  13.941 -0.2501 -0.3887 -0.1785
   68MPD2     H 1060   3.213   4.251  14.237 -0.4520  1.0334 -0.3383
   68MPD2    H1 1061   3.213   4.114  13.833  0.0414 -0.9636  0.5043
   68MPD2    H2 1062   3.557   4.087  14.058 -0.8168  0.7666  1.9649
   68MPD2    H3 1063   3.440   4.054  13.857 -0.5736 -2.9753  0.9523
   68MPD2     N 1064   3.053   4.216  14.010 -0.7412  0.0483  0.0932
   68MPD2    H5 1065   3.024   4.204  13.913 -1.0650 -2.1990  0.4630
   68MPD2    N1 1066   3.457   4.220  14.286  0.4131 -0.2056 -0.2683
   68MPD2    H7 1067   3.406   4.281  14.349  1.0857  0.4031 -0.3083
   69TMC2    C1 1068   0.923   1.503  12.243 -0.1994  0.4471 -0.0867
   69TMC2    C2 1069   0.846   1.623  12.221  0.2998  0.3007  0.3717
   69TMC2    C3 1070   0.872   1.695  12.104 -0.2542  0.5763 -0.3696
   69TMC2    C4 1071   1.031   1.471  12.175  0.1845 -0.2763  0.6674
   69TMC2    C5 1072   1.062   1.554  12.074  0.6302 -0.5229 -0.0101
   69TMC2    C6 1073   0.985   1.659  12.032  0.5649  0.3901 -0.0157
   69TMC2     C 1074   0.878   1.407  12.345 -0.0650 -0.0708  0.3539
   69TMC2     O 1075   0.960   1.332  12.396  0.1085  0.0824 -0.4390
   69TMC2     H 1076   0.773   1.658  12.293 -1.3151  0.8373 -1.5371
   69TMC2    H1 1077   1.088   1.384  12.206  2.3869  0.4998 -1.2197
   69TMC2    H2 1078   1.010   1.707  11.938 -0.2562  1.8335  0.4897
   69TMC2    C7 1079   1.185   1.513  11.999 -0.1195 -0.8228 -0.6227
   69TMC2    C8 1080   0.833   1.834  12.095  1.0054  0.2454  0.3889
   69TMC2    O1 1081   1.196   1.391  11.983  0.3672 -0.2503 -0.0227
   69TMC2    O2 1082   0.787   1.899  12.189 -0.6220 -0.2925 -0.0685
   69TMC2    O5 1083   0.838   1.867  11.964 -0.3860  0.4056  0.3639
   69TMC2    H5 1084   0.848   1.806  11.888 -0.9271  1.3249 -0.4359
   70MPD2     C 1085   0.537   1.391  12.498  0.0644  0.0944  0.3951
   70MPD2    C1 1086   0.665   1.353  12.469 -0.1394 -0.6282 -0.3238
   70MPD2    C2 1087   0.702   1.230  12.523  0.3479 -0.2238  0.4923
   70MPD2    C3 1088   0.619   1.156  12.605  0.1345 -0.3530 -0.0326
   70MPD2    C4 1089   0.491   1.208  12.643 -0.3727 -0.2111 -0.3331
   70MPD2    C5 1090   0.450   1.323  12.582 -0.1009  0.1490  0.9864
   70MPD2     H 1091   0.798   1.189  12.495  0.2638 -0.8066  1.0481
   70MPD2    H1 1092   0.418   1.155  12.703 -2.3464  0.7693 -1.8558
   70MPD2    H2 1093   0.496   1.476  12.445 -0.8965 -0.4387  0.2881
   70MPD2    H3 1094   0.346   1.353  12.590 -0.5467 -1.3017  0.5720
   70MPD2     N 1095   0.647   1.029  12.654  0.5469  0.3428  0.3456
   70MPD2    H5 1096   0.567   0.973  12.683  0.9315  0.0376  0.8054
   70MPD2    N1 1097   0.741   1.427  12.378 -0.4661 -0.6788 -0.2437
   70MPD2    H7 1098   0.690   1.506  12.341 -1.3493 -1.1526 -0.0278
   71TMC2    C1 1099   3.303   1.537   1.115 -0.1913 -0.0456  0.0391
   71TMC2    C2 1100   3.407   1.572   1.194  0.6486  0.5299  0.3160
   71TMC2    C3 1101   3.418   1.498   1.316 -0.1286  0.0864 -0.5705
   71TMC2    C4 1102   3.212   1.441   1.147 -0.7199 -0.0173  0.3016
   71TMC2    C5 1103   3.220   1.385   1.271  0.0092  0.3953 -0.4653
   71TMC2    C6 1104   3.324   1.407   1.352  0.3428 -0.1047 -0.7420
   71TMC2     C 1105   3.298   1.612   0.996 -0.7245 -0.5427  0.5662
   71TMC2     O 1106   3.358   1.716   0.997 -0.0041 -0.3789  0.5201
   71TMC2     H 1107   3.491   1.634   1.164  1.5360 -1.0156 -0.4345
   71TMC2    H1 1108   3.135   1.407   1.079 -1.2432 -0.5291  1.1523
   71TMC2    H2 1109   3.328   1.354   1.446 -1.4347  4.0740  1.6933
   71TMC2    C7 1110   3.127   1.283   1.319  0.0783  0.0925  0.7315
   71TMC2    C8 1111   3.534   1.499   1.399  0.2035 -0.1214  0.0470
   71TMC2    O1 1112   3.163   1.224   1.423  0.2508 -0.4015 -0.4666
   71TMC2    O2 1113   3.643   1.447   1.369  0.2287  0.8811 -0.0117
   71TMC2    O5 1114   3.491   1.507   1.527 -0.4993 -0.1216 -0.4220
   71TMC2    H5 1115   3.401   1.545   1.526 -1.2586 -1.9748 -1.4563
   72MPD2     C 1116   3.330   1.563   0.492 -0.3430 -0.2706 -0.0878
   72MPD2    C1 1117   3.332   1.683   0.570 -0.1706 -0.5463  0.2237
   72MPD2    C2 1118   3.312   1.678   0.708  0.1585 -0.0544  0.6730
   72MPD2    C3 1119   3.280   1.552   0.765 -0.3497 -0.0147 -0.3430
   72MPD2    C4 1120   3.266   1.441   0.684  0.1942  0.1937  0.3927
   72MPD2    C5 1121   3.297   1.444   0.551  0.1777  0.3170 -1.1971
   72MPD2     H 1122   3.316   1.771   0.764  0.8421  0.2904  0.0375
   72MPD2    H1 1123   3.247   1.341   0.721 -0.3588 -0.5448 -1.9193
   72MPD2    H2 1124   3.354   1.565   0.387 -0.0380 -0.5055 -0.0231
   72MPD2    H3 1125   3.299   1.353   0.492  2.6710 -1.0389  0.9577
   72MPD2     N 1126   3.250   1.538   0.897 -0.7365 -0.2668 -0.7390
   72MPD2    H5 1127   3.214   1.446   0.920 -1.0827  0.1622  0.4066
   72MPD2    N1 1128   3.360   1.808   0.510 -0.2861 -0.2060  0.1422
   72MPD2    H7 1129   3.366   1.889   0.572 -0.1434  1.4221 -2.0003
   73TMC2    C1 1130   2.823   3.239  13.843 -0.0213 -0.2036  0.0456
   73TMC2    C2 1131   2.809   3.305  13.959  0.1960  0.6354  0.6928
   73TMC2    C3 1132   2.878   3.245  14.068 -0.1538 -0.2817 -0.0994
   73TMC2    C4 1133   2.890   3.122  13.819  0.6148 -0.5854  0.2261
   73TMC2    C5 1134   2.966   3.076  13.923 -0.2472  0.1770 -0.1075
   73TMC2    C6 1135   2.960   3.135  14.047 -0.1421 -0.5279  0.9558
   73TMC2     C 1136   2.840   3.329  13.729 -0.0812  0.1024  0.1978
   73TMC2     O 1137   2.930   3.294  13.655 -0.6639 -0.1784 -0.5254
   73TMC2     H 1138   2.747   3.394  13.963 -1.4297 -0.5582  1.7214
   73TMC2    H1 1139   2.904   3.072  13.723  1.0282 -1.0100  0.5041
   73TMC2    H2 1140   3.019   3.087  14.124 -0.4190 -1.0871  0.8218
   73TMC2    C7 1141   3.101   3.049  13.881  0.1373  0.3496  0.6935
   73TMC2    C8 1142   2.888   3.312  14.199 -0.1381 -0.6254 -0.0261
   73TMC2    O1 1143   3.164   2.970  13.946  0.0865 -0.2587  0.1756
   73TMC2    O2 1144   2.956   3.259  14.289  0.3130 -0.0736 -0.1128
   73TMC2    O5 1145   2.857   3.444  14.196 -0.1123 -0.3965 -0.4374
   73TMC2    H5 1146   2.789   3.469  14.130  0.0411  0.6447 -0.1866
   74MPD2     C 1147   2.771   3.741  13.454 -0.6622  0.5966 -0.3215
   74MPD2    C1 1148   2.887   3.670  13.480 -0.6627 -0.1640 -0.1254
   74MPD2    C2 1149   2.875   3.568  13.576  0.8822 -0.3239  0.1272
   74MPD2    C3 1150   2.758   3.544  13.641  0.5995  0.0164  0.6840
   74MPD2    C4 1151   2.656   3.633  13.640  0.2704 -0.3519 -0.4691
   74MPD2    C5 1152   2.661   3.723  13.533  0.3548  0.2723  0.2022
   74MPD2     H 1153   2.957   3.500  13.592 -0.5821 -1.2788  3.5790
   74MPD2    H1 1154   2.569   3.620  13.702 -0.8366  1.7861 -1.5760
   74MPD2    H2 1155   2.767   3.819  13.379  0.0030  1.0688  0.1375
   74MPD2    H3 1156   2.583   3.798  13.522 -0.1145 -0.1533  0.6324
   74MPD2     N 1157   2.747   3.428  13.719  0.0780 -0.1250 -0.0776
   74MPD2    H5 1158   2.668   3.417  13.782 -0.4545  0.8413 -0.5795
   74MPD2    N1 1159   3.006   3.703  13.408 -0.8382 -0.2404  0.0934
   74MPD2    H7 1160   2.993   3.789  13.356 -1.1486  0.1146  0.7525
   75TMC2    C1 1161   2.824   4.284  14.076  0.4650  0.5118 -0.0783
   75TMC2    C2 1162   2.726   4.244  14.154  0.4735  0.2945 -0.8854
   75TMC2    C3 1163   2.601   4.295  14.135 -0.2020  0.6121 -0.2074
   75TMC2    C4 1164   2.806   4.358  13.969  0.1910 -0.0727 -0.4537
   75TMC2    C5 1165   2.678   4.404  13.946  0.1955  0.3185 -1.0016
   75TMC2    C6 1166   2.573   4.368  14.027  0.6325 -0.2493 -0.4025
   75TMC2     C 1167   2.965   4.247  14.112  0.5686  0.2533  0.6345
   75TMC2     O 1168   2.984   4.240  14.231  1.0154 -0.1989 -0.1966
   75TMC2     H 1169   2.760   4.185  14.238 -0.3591 -0.6093 -1.1826
   75TMC2    H1 1170   2.889   4.365  13.900 -0.0118 -1.2071 -0.8147
   75TMC2    H2 1171   2.474   4.409  14.012 -0.0498 -0.9821  2.0303
   75TMC2    C7 1172   2.643   4.430  13.804 -0.0060  0.4652  0.0435
   75TMC2    C8 1173   2.485   4.259  14.211 -0.1604  0.3812  0.1965
   75TMC2    O1 1174   2.532   4.398  13.767 -0.2272 -0.1200  0.1895
   75TMC2    O2 1175   2.369   4.235  14.174 -0.4727  0.1988  0.2498
   75TMC2    O5 1176   2.531   4.208  14.328 -0.3393 -0.3555 -0.1546
   75TMC2    H5 1177   2.627   4.221  14.338  0.1964 -3.6742 -1.2064
   76TMC2    C1 1178   1.659   0.504  12.131 -0.4390  0.0430 -0.0802
   76TMC2    C2 1179   1.612   0.560  12.247  0.3903  0.3014 -0.1243
   76TMC2    C3 1180   1.546   0.493  12.345  0.4171 -1.1105 -0.3229
   76TMC2    C4 1181   1.657   0.371  12.122  0.1177  0.0236 -0.4369
   76TMC2    C5 1182   1.592   0.301  12.217  0.2318 -0.0390 -0.4463
   76TMC2    C6 1183   1.529   0.354  12.325  0.0334 -0.0604 -0.2333
   76TMC2     C 1184   1.708   0.589  12.019 -0.1907  1.0130  0.1623
   76TMC2     O 1185   1.699   0.715  12.038  0.6724 -0.6512 -0.3418
   76TMC2     H 1186   1.617   0.668  12.251 -1.2022  0.3710 -0.0926
   76TMC2    H1 1187   1.684   0.327  12.027 -0.8735 -0.1962 -0.6185
   76TMC2    H2 1188   1.461   0.303  12.392  0.7734 -0.2599  0.3707
   76TMC2    C7 1189   1.562   0.160  12.189 -0.0272  0.0670  0.2408
   76TMC2    C8 1190   1.520   0.554  12.470  0.1404 -0.1604 -0.4720
   76TMC2    O1 1191   1.457   0.117  12.226  0.2545  0.0655 -0.4883
   76TMC2    O2 1192   1.487   0.667  12.479  0.2530  0.4354  0.2804
   76TMC2    O5 1193   1.554   0.467  12.563 -0.2488 -0.5527  0.4842
   76TMC2    H5 1194   1.586   0.379  12.535 -1.2878 -0.5640 -0.6790
   77MPD2     C 1195   1.817   0.630  11.519 -0.4792 -0.6258  0.2761
   77MPD2    C1 1196   1.743   0.720  11.599  0.1804  0.5151 -0.5335
   77MPD2    C2 1197   1.729   0.685  11.733  0.1814  0.7516 -0.2520
   77MPD2    C3 1198   1.776   0.566  11.778  0.0487 -0.4169  0.1441
   77MPD2    C4 1199   1.832   0.473  11.695 -0.0798 -0.6880  0.3591
   77MPD2    C5 1200   1.854   0.505  11.564  0.2081 -0.2096 -0.0099
   77MPD2     H 1201   1.672   0.739  11.807  0.1455 -2.0216  1.7246
   77MPD2    H1 1202   1.859   0.375  11.732  0.0173 -0.9556 -0.4100
   77MPD2    H2 1203   1.837   0.640  11.413 -1.3995 -1.2503  0.0409
   77MPD2    H3 1204   1.894   0.431  11.496  1.5472 -0.8690  1.5154
   77MPD2     N 1205   1.754   0.519  11.911 -1.0595 -0.4269  0.4303
   77MPD2    H5 1206   1.773   0.420  11.927  0.4401 -0.0631  0.8865
   77MPD2    N1 1207   1.679   0.839  11.553  0.3123  0.1036  0.5272
   77MPD2    H7 1208   1.636   0.896  11.625  1.3818 -2.3560  3.1360
   78TMC2    C1 1209   2.691   1.167   0.651  0.1514 -0.0646  0.3772
   78TMC2    C2 1210   2.715   1.250   0.548  0.2419 -0.1556 -0.2490
   78TMC2    C3 1211   2.821   1.325   0.556 -0.2666 -0.4138 -0.5013
   78TMC2    C4 1212   2.769   1.162   0.765  0.8134 -0.4569 -0.4244
   78TMC2    C5 1213   2.877   1.244   0.773  0.1623  0.1539  0.2038
   78TMC2    C6 1214   2.905   1.324   0.664 -0.3104 -1.0315  0.0875
   78TMC2     C 1215   2.572   1.080   0.646  0.2802  0.1271  0.1930
   78TMC2     O 1216   2.515   1.049   0.751  0.2777  0.1133  0.1630
   78TMC2     H 1217   2.644   1.249   0.466  1.3128  2.1947 -1.2072
   78TMC2    H1 1218   2.742   1.096   0.847  0.7035  0.3088  0.1477
   78TMC2    H2 1219   2.991   1.390   0.672 -2.8524  2.4933 -1.9960
   78TMC2    C7 1220   2.988   1.219   0.863  0.1594 -0.8451 -0.0289
   78TMC2    C8 1221   2.865   1.392   0.447  0.8706  0.3761 -0.0774
   78TMC2    O1 1222   3.070   1.307   0.870  0.5583 -1.0914  0.4656
   78TMC2    O2 1223   2.850   1.345   0.334  0.6946 -0.6402 -0.1778
   78TMC2    O5 1224   2.910   1.517   0.482 -0.1910  0.2872  0.2947
   78TMC2    H5 1225   2.910   1.527   0.580  1.3904 -2.2178  0.5495
   79MPD1     C 1226   2.197   0.808   0.427  0.2522 -0.5754  0.1266
   79MPD1    C1 1227   2.205   0.873   0.546 -0.3519  0.9451 -0.0745
   79MPD1    C2 1228   2.318   0.946   0.577 -0.0756  0.2870 -0.5569
   79MPD1    C3 1229   2.424   0.953   0.492  0.0910 -0.0351  0.2309
   79MPD1    C4 1230   2.417   0.901   0.368 -0.3159  0.3593 -0.5323
   79MPD1    C5 1231   2.305   0.822   0.339  0.0271 -0.3155 -0.5764
   79MPD1     H 1232   2.326   0.988   0.677 -1.8483 -1.0873  0.1671
   79MPD1    H1 1233   2.507   0.904   0.308 -0.5946  1.4757 -0.8893
   79MPD1    H2 1234   2.121   0.738   0.395 -0.1475 -1.3163  2.7247
   79MPD1    H3 1235   2.293   0.777   0.241 -1.9994 -0.4635 -0.2641
   79MPD1     N 1236   2.549   1.012   0.532 -0.5545 -0.0649 -0.1818
   79MPD1    H5 1237   2.628   1.016   0.468 -0.5183  0.6204 -0.0974
   79MPD1    N1 1238   2.109   0.850   0.654 -0.8031  0.6326 -0.6380
   79MPD1    H6 1239   2.016   0.836   0.613 -0.8816  0.5978 -0.4475
   79MPD1    H7 1240   2.099   0.933   0.711 -0.5649 -0.1870  0.5903
   80TMC2    C1 1241   0.832   0.205  11.396  0.5105  0.0409  0.0055
   80TMC2    C2 1242   0.836   0.168  11.262  0.1540  0.4762 -0.4980
   80TMC2    C3 1243   0.773   0.053  11.221 -0.2429 -0.2853  0.0747
   80TMC2    C4 1244   0.759   0.133  11.486 -0.2106 -0.0480  0.2515
   80TMC2    C5 1245   0.689   0.025  11.435  0.2472  0.4763  0.4210
   80TMC2    C6 1246   0.703   4.712  11.309  0.0259 -0.1620 -0.0561
   80TMC2     C 1247   0.924   0.314  11.428  0.3694 -0.6159 -0.5041
   80TMC2     O 1248   1.010   0.329  11.340 -0.4886  0.1832  0.1757
   80TMC2     H 1249   0.894   0.221  11.187  1.1391  1.2555  0.8330
   80TMC2    H1 1250   0.767   0.147  11.593  2.5077  3.0836 -0.3828
   80TMC2    H2 1251   0.656   4.621  11.276  1.1391 -0.0309 -1.9865
   80TMC2    C7 1252   0.583   4.697  11.510 -0.2440 -0.4010  0.2383
   80TMC2    C8 1253   0.746   0.034  11.080  0.1292 -0.1480 -0.1108
   80TMC2    O1 1254   0.532   4.599  11.459 -0.0231 -0.2980  0.1461
   80TMC2    O2 1255   0.634   0.002  11.047  0.2866 -0.3813 -0.1355
   80TMC2    O5 1256   0.845   0.072  10.999 -0.2086  0.4518  0.2392
   80TMC2    H5 1257   0.929   0.090  11.047  0.1164 -3.0601  0.9597
   81MPD2     C 1258   1.088   0.524  11.565 -0.0827 -0.0963 -0.1790
   81MPD2    C1 1259   0.964   0.486  11.598  0.7023  0.3123 -0.1773
   81MPD2    C2 1260   0.901   0.566  11.691 -0.1873 -0.1552  0.3198
   81MPD2    C3 1261   0.962   0.676  11.748  0.5191 -0.1282 -0.5047
   81MPD2    C4 1262   1.089   0.711  11.708  0.0767 -0.2346  0.3422
   81MPD2    C5 1263   1.153   0.633  11.619 -0.5246  0.1211 -0.0530
   81MPD2     H 1264   0.799   0.537  11.715  0.6299 -4.1625 -0.9258
   81MPD2    H1 1265   1.137   0.802  11.742 -1.1716  0.3374  0.5543
   81MPD2    H2 1266   1.134   0.461  11.489 -2.1014 -1.1342 -0.5388
   81MPD2    H3 1267   1.255   0.660  11.595  0.5639 -2.0130  2.2013
   81MPD2     N 1268   0.901   0.758  11.844 -0.3977 -0.2593 -0.1479
   81MPD2    H5 1269   0.958   0.827  11.891 -0.4392 -1.3778  1.5536
   81MPD2    N1 1270   0.892   0.377  11.544 -0.5414 -0.3569  0.4807
   81MPD2    H7 1271   0.794   0.366  11.569 -0.3966 -1.9255  0.4044
   82TMC2    C1 1272   3.948   3.775  10.563  0.2953  0.4368  0.1463
   82TMC2    C2 1273   4.032   3.872  10.616 -0.1972  0.6413 -0.0969
   82TMC2    C3 1274   4.024   3.879  10.748  0.0105  0.2151 -0.3537
   82TMC2    C4 1275   3.871   3.685  10.630 -0.3210  0.2018 -0.2362
   82TMC2    C5 1276   3.885   3.690  10.771  0.3800  0.9853  0.1722
   82TMC2    C6 1277   3.952   3.797  10.825  0.1224  0.0787 -1.0794
   82TMC2     C 1278   3.889   3.817  10.434 -0.1439  0.2211 -0.3438
   82TMC2     O 1279   3.768   3.783  10.439 -0.0445 -0.1214  0.1605
   82TMC2     H 1280   4.091   3.936  10.552  3.6032 -3.4239 -0.7296
   82TMC2    H1 1281   3.812   3.605  10.588  1.4643  0.0842 -2.5322
   82TMC2    H2 1282   3.961   3.810  10.932 -0.4828  0.2934 -1.0568
   82TMC2    C7 1283   3.805   3.609  10.869 -0.5940  0.1434 -0.1314
   82TMC2    C8 1284   4.120   3.968  10.816 -0.6796  0.8600  0.6400
   82TMC2    O1 1285   3.802   3.647  10.984 -0.5869 -0.1504  0.4034
   82TMC2    O2 1286   4.165   4.071  10.769  0.3403  0.0330  0.6328
   82TMC2    O5 1287   4.170   3.900  10.919  0.1023  0.6808  1.0876
   82TMC2    H5 1288   4.157   3.803  10.927  0.4859  0.4247 -1.6587
   83MPD2     C 1289   3.866   4.187  10.084 -0.3036  0.2583 -0.8358
   83MPD2    C1 1290   3.771   4.137  10.171  0.1398  0.3733 -0.0495
   83MPD2    C2 1291   3.796   4.022  10.248 -0.3308 -0.0188 -0.1383
   83MPD2    C3 1292   3.925   3.968  10.251  1.3641  0.1400  0.1124
   83MPD2    C4 1293   4.028   4.028  10.170  0.4518 -0.5375 -0.1596
   83MPD2    C5 1294   3.991   4.137  10.091  0.2310  0.0912  0.3814
   83MPD2     H 1295   3.715   3.978  10.305  0.0237 -1.2440 -0.5748
   83MPD2    H1 1296   4.130   3.994  10.164  1.2672  2.3258 -2.5778
   83MPD2    H2 1297   3.855   4.277  10.024  1.0511  0.7199 -0.3906
   83MPD2    H3 1298   4.057   4.178  10.015 -1.7231 -0.3947 -1.5862
   83MPD2     N 1299   3.964   3.880  10.352  0.1415 -0.9541 -0.5205
   83MPD2    H5 1300   4.061   3.860  10.373  1.0454  0.8313 -3.0004
   83MPD2    N1 1301   3.648   4.195  10.170  0.4886 -0.1744  0.0231
   83MPD2    H7 1302   3.627   4.271  10.106 -1.1858 -1.1717 -0.6317
   84TMC2    C1 1303   1.044   2.927  12.155  0.1042  0.3542 -0.0536
   84TMC2    C2 1304   1.056   2.798  12.207 -0.2364  1.1473 -0.1629
   84TMC2    C3 1305   1.138   2.713  12.127 -0.2653  0.4247  0.6742
   84TMC2    C4 1306   1.088   2.962  12.030  0.2287  0.5233 -0.0820
   84TMC2    C5 1307   1.166   2.874  11.961 -1.2234 -0.1164 -0.0102
   84TMC2    C6 1308   1.192   2.749  12.010 -0.3322 -0.4431 -0.1060
   84TMC2     C 1309   0.924   2.994  12.188 -0.5398  0.5582  0.5813
   84TMC2     O 1310   0.819   2.935  12.166  0.2361  0.0474 -0.7004
   84TMC2     H 1311   1.018   2.765  12.303 -0.1977  1.2119 -0.1262
   84TMC2    H1 1312   1.032   3.044  11.986  1.9927  1.0085 -1.4256
   84TMC2    H2 1313   1.258   2.680  11.958 -0.4441 -0.9290  0.3928
   84TMC2    C7 1314   1.173   2.890  11.819 -0.3060 -0.0936  0.1776
   84TMC2    C8 1315   1.208   2.596  12.190 -0.0964 -0.2601  0.1126
   84TMC2    O1 1316   1.172   3.010  11.789  0.6095  0.6232  0.0586
   84TMC2    O2 1317   1.310   2.548  12.147 -0.5357  0.0393 -0.2148
   84TMC2    O5 1318   1.162   2.587  12.318  0.2154  0.6997  1.1316
   84TMC2    H5 1319   1.066   2.605  12.319 -0.0145 -0.5356  0.7922
   85TMC2    C1 1320   1.072   1.788  16.035 -0.0054  0.3425 -0.0106
   85TMC2    C2 1321   1.077   1.914  16.082  0.5718 -0.5619 -1.6459
   85TMC2    C3 1322   1.143   2.001  16.013  0.2002 -0.3381  0.3128
   85TMC2    C4 1323   1.131   1.740  15.923 -0.3337  0.0362 -0.2964
   85TMC2    C5 1324   1.191   1.835  15.850  0.1423 -1.0240  0.4945
   85TMC2    C6 1325   1.203   1.966  15.889  0.5684  0.1802  0.0352
   85TMC2     C 1326   1.071   1.693  16.145  0.3039  0.6546 -0.0150
   85TMC2     O 1327   1.094   1.731  16.259  0.6155 -0.6817  0.5263
   85TMC2     H 1328   1.042   1.935  16.183  1.8215 -0.8903 -1.1416
   85TMC2    H1 1329   1.166   1.638  15.913  3.3370  1.1796  1.0819
   85TMC2    H2 1330   1.257   2.048  15.844  0.3914  1.5929  2.4057
   85TMC2    C7 1331   1.303   1.787  15.768 -0.5801 -0.0765  0.0633
   85TMC2    C8 1332   1.147   2.142  16.055  0.8587 -0.0670 -0.4442
   85TMC2    O1 1333   1.369   1.701  15.817 -0.9540  0.3637 -0.3289
   85TMC2    O2 1334   1.229   2.222  16.009 -0.3720  0.2274  0.0286
   85TMC2    O5 1335   1.019   2.172  16.083  0.2134  0.1166 -0.2305
   85TMC2    H5 1336   0.968   2.097  16.121 -2.3856  1.4488 -1.0971
   86MPD2     C 1337   1.016   1.214  16.324  0.0425 -0.5804  0.9768
   86MPD2    C1 1338   0.945   1.229  16.206  0.4556  0.2963  0.0430
   86MPD2    C2 1339   0.948   1.351  16.131 -0.4265 -0.1225 -0.4832
   86MPD2    C3 1340   1.030   1.452  16.176 -0.6970  0.7043 -0.5035
   86MPD2    C4 1341   1.120   1.430  16.279 -0.5870  0.8174  0.8245
   86MPD2    C5 1342   1.100   1.321  16.358 -0.1525 -0.7839  0.2161
   86MPD2     H 1343   0.892   1.369  16.040 -1.2326  0.1530  0.0749
   86MPD2    H1 1344   1.194   1.506  16.301 -0.3861  0.7782  0.3020
   86MPD2    H2 1345   1.020   1.125  16.386  1.7045 -0.9325  0.3567
   86MPD2    H3 1346   1.174   1.311  16.436  0.2524  2.1760  0.2285
   86MPD2     N 1347   1.022   1.571  16.097  0.1063 -0.0733  0.4150
   86MPD2    H5 1348   0.980   1.577  16.005 -1.8810  2.1270  1.4607
   86MPD2    N1 1349   0.852   1.129  16.158  0.1568 -0.0935 -0.3706
   86MPD2    H7 1350   0.797   1.151  16.075  2.9892 -0.1885 -2.2588
   87TMC2    C1 1351   3.776   4.680   0.954  0.3547  0.3396  0.0728
   87TMC2    C2 1352   3.835   4.645   1.070  0.1200 -0.5992  0.2272
   87TMC2    C3 1353   3.825   4.722   1.181 -0.3107  0.2215 -0.1094
   87TMC2    C4 1354   3.695   0.055   0.954 -0.2171 -0.0440 -0.4783
   87TMC2    C5 1355   3.679   0.130   1.065 -0.2317 -0.4965 -0.1599
   87TMC2    C6 1356   3.746   0.102   1.181  0.3013  0.4955 -0.0334
   87TMC2     C 1357   3.763   4.585   0.843 -0.2430  0.3376  0.3259
   87TMC2     O 1358   3.729   4.638   0.739  0.5520 -0.5262  0.0736
   87TMC2     H 1359   3.922   4.580   1.066 -0.1109 -0.9326  0.5576
   87TMC2    H1 1360   3.637   0.066   0.863  1.7907  2.8874 -1.4065
   87TMC2    H2 1361   3.743   0.171   1.265  0.9682 -0.8534  1.0785
   87TMC2    C7 1362   3.561   0.215   1.067 -0.7607 -0.4617 -0.3355
   87TMC2    C8 1363   3.928   4.703   1.289 -0.0374 -0.2037  0.0992
   87TMC2    O1 1364   3.522   0.245   0.953  0.6130  0.3924  0.1082
   87TMC2    O2 1365   4.045   4.671   1.266 -0.9695  0.1268 -0.6011
   87TMC2    O5 1366   3.872   4.729   1.407 -0.2311 -0.2307 -0.3195
   87TMC2    H5 1367   3.779   0.024   1.397  0.4484  2.2223  0.4381
   88MPD2     C 1368   3.302   0.256   1.312 -0.0054  0.5605 -0.2555
   88MPD2    C1 1369   3.383   0.288   1.205 -0.0948  0.3620  0.2920
   88MPD2    C2 1370   3.354   0.396   1.130  0.0517  0.0210  0.0431
   88MPD2    C3 1371   3.228   0.458   1.140 -0.5678  0.3826  0.0384
   88MPD2    C4 1372   3.140   0.418   1.241 -0.3631 -0.2329  0.4126
   88MPD2    C5 1373   3.185   0.328   1.332  0.4868 -0.0174  0.8681
   88MPD2     H 1374   3.423   0.430   1.053 -1.8044  1.8573 -0.8315
   88MPD2    H1 1375   3.039   0.458   1.246 -0.3012 -0.4430  3.3260
   88MPD2    H2 1376   3.330   0.172   1.374  0.7966  0.2744 -0.9883
   88MPD2    H3 1377   3.119   0.283   1.407 -0.0369  3.0387  2.2230
   88MPD2     N 1378   3.175   0.551   1.045  0.3021  0.1025  0.0374
   88MPD2    H5 1379   3.076   0.573   1.045  0.5599  1.2450  0.3929
   88MPD2    N1 1380   3.503   0.218   1.191  0.3305 -0.4312 -0.4358
   88MPD2    H7 1381   3.529   0.153   1.264 -0.2260 -0.8822 -0.6469
   89TMC2    C1 1382   4.041   3.425   1.612 -0.0476 -0.0152  0.5353
   89TMC2    C2 1383   4.105   3.541   1.648 -0.1255 -0.4982 -0.0091
   89TMC2    C3 1384   4.153   3.629   1.552  0.6203  0.4036  0.0948
   89TMC2    C4 1385   4.023   3.402   1.477  0.2519 -0.0798 -0.4739
   89TMC2    C5 1386   4.069   3.489   1.379 -0.0786  0.0560  0.1774
   89TMC2    C6 1387   4.137   3.603   1.418 -0.0906  0.2683  0.7576
   89TMC2     C 1388   3.994   3.327   1.716 -0.6046 -0.4938 -0.0067
   89TMC2     O 1389   3.989   3.360   1.836  0.1127 -0.4054  0.2473
   89TMC2     H 1390   4.125   3.566   1.752 -0.3531 -1.1308  0.1874
   89TMC2    H1 1391   3.950   3.330   1.441 -0.1424  0.8488 -1.5407
   89TMC2    H2 1392   4.171   3.677   1.346  1.7655  0.3451  1.7122
   89TMC2    C7 1393   4.042   3.456   1.237  0.3296  0.2698  0.7527
   89TMC2    C8 1394   4.264   3.715   1.580 -0.5831  0.2108  0.1002
   89TMC2    O1 1395   3.931   3.406   1.226 -0.2050  0.1796 -0.6161
   89TMC2    O2 1396   4.340   3.750   1.495 -0.0554  0.5013  0.0457
   89TMC2    O5 1397   4.252   3.770   1.696  0.0975  0.4129 -0.0709
   89TMC2    H5 1398   4.174   3.765   1.754  0.7808 -0.2620  0.7885
   90MPD2     C 1399   3.806   2.867   1.850 -0.4242  0.1077  0.5102
   90MPD2    C1 1400   3.892   2.848   1.748  0.0530  0.7063  0.3329
   90MPD2    C2 1401   3.952   2.961   1.688 -0.2239 -0.5779  0.4560
   90MPD2    C3 1402   3.930   3.089   1.745  0.3146  0.3831  0.4748
   90MPD2    C4 1403   3.855   3.107   1.857  0.4052  0.0938 -0.0272
   90MPD2    C5 1404   3.786   2.995   1.898  0.0734  0.2874 -0.5829
   90MPD2     H 1405   4.019   2.946   1.604 -0.1662  0.9570  0.2116
   90MPD2    H1 1406   3.833   3.206   1.894  1.4348  0.9476 -1.6692
   90MPD2    H2 1407   3.743   2.786   1.887  0.1151 -0.9061 -0.8162
   90MPD2    H3 1408   3.703   3.011   1.967 -1.5026  2.4715 -2.9528
   90MPD2     N 1409   3.978   3.200   1.669  0.2230 -0.4196  0.1504
   90MPD2    H5 1410   3.996   3.185   1.570  1.1426  0.7400  0.1505
   90MPD2    N1 1411   3.925   2.719   1.686  0.1269 -0.0902  0.1391
   90MPD2    H7 1412   3.985   2.725   1.604  2.3346 -0.6060  1.7361
   91TMC2    C1 1413   0.909   2.359  16.368  0.7159 -0.4359 -0.5394
   91TMC2    C2 1414   0.928   2.427  16.250  0.6093  0.6450 -0.1838
   91TMC2    C3 1415   0.824   2.442  16.168  0.7985  0.0687  0.7036
   91TMC2    C4 1416   0.787   2.300  16.390 -0.5354  0.2150  0.0415
   91TMC2    C5 1417   0.680   2.328  16.309  0.1253  0.0775 -0.0526
   91TMC2    C6 1418   0.694   2.397  16.193  0.3830 -0.3543  0.4899
   91TMC2     C 1419   1.019   2.284  16.428 -0.8202 -1.0373 -0.3279
   91TMC2     O 1420   0.985   2.185  16.491  0.4256 -0.1011  0.1969
   91TMC2     H 1421   1.022   2.446  16.200 -0.9135  2.5585 -2.3349
   91TMC2    H1 1422   0.765   2.243  16.480  0.2225 -0.2376 -0.0571
   91TMC2    H2 1423   0.611   2.421  16.127 -1.6225 -1.3256  2.6682
   91TMC2    C7 1424   0.561   2.247  16.316 -0.1301  0.2714 -0.3648
   91TMC2    C8 1425   0.841   2.518  16.045  0.1481  0.1367 -0.8136
   91TMC2    O1 1426   0.532   2.204  16.428 -0.4114 -0.1595 -0.5981
   91TMC2    O2 1427   0.761   2.517  15.953 -0.1288 -0.0584 -0.3585
   91TMC2    O5 1428   0.900   2.631  16.096 -0.1651 -0.0264  0.3004
   91TMC2    H5 1429   0.925   2.616  16.190 -0.8073  1.2219  0.6679
   92MPD2     C 1430   1.279   2.137  16.454 -0.2225  0.2944 -0.3644
   92MPD2    C1 1431   1.255   2.245  16.376  0.2387  0.5418 -0.3814
   92MPD2    C2 1432   1.364   2.302  16.310  0.2870 -0.1096  0.5484
   92MPD2    C3 1433   1.483   2.245  16.301  0.4503  0.4784 -0.5534
   92MPD2    C4 1434   1.498   2.129  16.369  0.1515 -0.5466 -0.4394
   92MPD2    C5 1435   1.407   2.087  16.461  0.4205  0.2534 -0.4427
   92MPD2     H 1436   1.349   2.397  16.259  0.3169 -1.1850 -1.4509
   92MPD2    H1 1437   1.585   2.064  16.360  0.7724  0.1559  0.4174
   92MPD2    H2 1438   1.206   2.093  16.521 -0.0718 -0.6812 -0.8468
   92MPD2    H3 1439   1.426   2.003  16.527 -1.8540  1.0207  1.2027
   92MPD2     N 1440   1.581   2.307  16.220 -0.1702  0.8651 -0.2859
   92MPD2    H5 1441   1.554   2.396  16.180 -0.0405  0.9945 -0.0911
   92MPD2    N1 1442   1.139   2.322  16.373  0.4763  0.0107 -0.1334
   92MPD2    H7 1443   1.139   2.407  16.317 -3.9438  1.6586  2.4060
   93TMC2    C1 1444   2.910   2.601  13.894 -0.0408 -0.0941  0.3474
   93TMC2    C2 1445   2.855   2.491  13.834 -0.0578 -0.4732  0.1300
   93TMC2    C3 1446   2.927   2.437  13.731  0.3877 -0.1708  0.6474
   93TMC2    C4 1447   3.032   2.650  13.869  0.1509  0.2911 -0.2665
   93TMC2    C5 1448   3.100   2.587  13.773 -0.0038 -0.3010 -0.0002
   93TMC2    C6 1449   3.044   2.482  13.698  0.6636 -0.3625  0.7902
   93TMC2     C 1450   2.816   2.693  13.961 -0.9420  0.2005  0.6933
   93TMC2     O 1451   2.866   2.783  14.024  0.6088  0.1081  0.2442
   93TMC2     H 1452   2.760   2.443  13.858  1.2987 -2.5919  1.2372
   93TMC2    H1 1453   3.079   2.731  13.923 -0.0174 -0.0478  0.3864
   93TMC2    H2 1454   3.108   2.444  13.620 -0.7426  0.1845 -0.6174
   93TMC2    C7 1455   3.245   2.601  13.756 -0.5077  0.2142  0.5741
   93TMC2    C8 1456   2.859   2.348  13.646 -0.1465 -0.8963 -0.5276
   93TMC2    O1 1457   3.291   2.522  13.680  0.0856  0.5661 -0.6797
   93TMC2    O2 1458   2.776   2.272  13.688 -0.8158  0.1275  0.0215
   93TMC2    O5 1459   2.868   2.396  13.520  0.2404  0.6254 -0.1165
   93TMC2    H5 1460   2.933   2.468  13.510 -0.5625  1.0340 -2.4953
   94MPD2     C 1461   2.614   2.915  13.938 -0.3133 -0.1057 -0.3469
   94MPD2    C1 1462   2.585   2.784  13.912 -0.0436 -0.5771 -0.4697
   94MPD2    C2 1463   2.465   2.752  13.862  0.0729 -0.2835  0.0519
   94MPD2    C3 1464   2.372   2.855  13.839  0.0801  0.5076 -0.3552
   94MPD2    C4 1465   2.397   2.981  13.880 -0.2921  0.0806  0.2040
   94MPD2    C5 1466   2.525   3.019  13.922 -0.3266  0.0202 -0.6248
   94MPD2     H 1467   2.443   2.648  13.841 -0.7513 -0.3990  1.4361
   94MPD2    H1 1468   2.321   3.054  13.853 -1.0510 -0.0829  1.9131
   94MPD2    H2 1469   2.718   2.935  13.963 -1.0840  0.0102  2.7096
   94MPD2    H3 1470   2.542   3.123  13.944  1.5969  0.1140 -2.4632
   94MPD2     N 1471   2.241   2.833  13.786 -0.2210 -0.5965  0.1848
   94MPD2    H5 1472   2.167   2.901  13.774 -1.2233 -1.1347  3.2623
   94MPD2    N1 1473   2.680   2.681  13.916  0.5686 -0.3613 -0.1629
   94MPD2    H7 1474   2.642   2.591  13.889 -0.8269  0.2419 -0.2563
   95TMC2    C1 1475   2.824   3.960  16.043 -0.0866  0.3783  0.4394
   95TMC2    C2 1476   2.847   3.848  16.114 -0.4798 -0.1210  0.1967
   95TMC2    C3 1477   2.780   3.850  16.233  0.4771 -0.1652 -0.4301
   95TMC2    C4 1478   2.732   4.059  16.072  0.0894  0.4567  0.4531
   95TMC2    C5 1479   2.671   4.053  16.197 -0.1277  0.1574 -0.1157
   95TMC2    C6 1480   2.696   3.948  16.282  0.0948 -0.6487 -0.4766
   95TMC2     C 1481   2.884   3.974  15.909 -0.2518  0.3081 -0.3293
   95TMC2     O 1482   2.911   4.090  15.874  0.0158 -0.1340 -0.5101
   95TMC2     H 1483   2.915   3.774  16.074 -0.0559  0.8305 -0.8501
   95TMC2    H1 1484   2.730   4.149  16.011 -1.0406 -0.4918 -0.8990
   95TMC2    H2 1485   2.641   3.935  16.375  1.1579  3.6041  0.7682
   95TMC2    C7 1486   2.592   4.172  16.244  0.0899  0.6135 -0.3628
   95TMC2    C8 1487   2.753   3.721  16.300  0.4267 -0.0626  0.1407
   95TMC2    O1 1488   2.560   4.251  16.157  0.1920 -0.1539 -0.7896
   95TMC2    O2 1489   2.703   3.702  16.409  0.0902 -0.6974  0.0841
   95TMC2    O5 1490   2.767   3.624  16.208  0.0604 -0.3883  0.2691
   95TMC2    H5 1491   2.778   3.654  16.115  1.1552  0.6083  0.7103
   96MPD2     C 1492   3.100   3.774  15.488 -0.0181  0.6033 -0.0402
   96MPD2    C1 1493   3.107   3.902  15.541 -0.0027  0.2154 -0.3689
   96MPD2    C2 1494   3.054   3.928  15.662  0.4789  0.0584 -0.1196
   96MPD2    C3 1495   2.979   3.832  15.726 -0.1589 -0.6152  0.2474
   96MPD2    C4 1496   2.957   3.708  15.668  0.2683 -0.3879 -0.2200
   96MPD2    C5 1497   3.014   3.682  15.547  0.2192  0.4003 -0.3624
   96MPD2     H 1498   3.077   4.020  15.714  1.5293  0.5547 -1.4752
   96MPD2    H1 1499   2.891   3.637  15.715 -0.6415 -0.0552 -1.0074
   96MPD2    H2 1500   3.141   3.738  15.395  0.2365 -0.2266  0.3870
   96MPD2    H3 1501   2.985   3.594  15.491 -0.7857  0.1285  0.5849
   96MPD2     N 1502   2.909   3.851  15.848  0.0254  0.0682 -0.4168
   96MPD2    H5 1503   2.858   3.775  15.893  0.9098 -0.6731 -0.6867
   96MPD2    N1 1504   3.184   3.995  15.468 -0.4209  0.5412  0.6153
   96MPD2    H7 1505   3.213   3.958  15.378  1.5652  1.7952  0.7425
   97TMC2    C1 1506   0.309   2.938  16.846  0.1879 -0.3320 -0.2374
   97TMC2    C2 1507   0.227   3.046  16.806 -0.0172 -0.1008 -0.7581
   97TMC2    C3 1508   0.288   3.170  16.786  0.3224 -0.5399 -0.1541
   97TMC2    C4 1509   0.438   2.948  16.869  0.1464 -0.4426 -0.0205
   97TMC2    C5 1510   0.495   3.075  16.870 -0.1185  0.4736  0.0651
   97TMC2    C6 1511   0.423   3.184  16.826  0.2631  0.4763  0.0689
   97TMC2     C 1512   0.241   2.867  16.958  0.1040 -0.6316  0.6489
   97TMC2     O 1513   0.320   2.808  17.029  0.0562 -0.0131 -0.4283
   97TMC2     H 1514   0.122   3.032  16.779 -0.2656  1.4488 -0.5531
   97TMC2    H1 1515   0.496   2.856  16.869 -3.8219 -2.8967  1.5905
   97TMC2    H2 1516   0.462   3.285  16.833 -0.5759  0.6026  2.7273
   97TMC2    C7 1517   0.582   3.086  16.981 -0.4234  0.5702  0.0742
   97TMC2    C8 1518   0.204   3.278  16.822 -0.1991 -0.0684 -0.3437
   97TMC2    O1 1519   0.670   3.166  16.989  0.4558 -0.1278 -0.1492
   97TMC2    O2 1520   0.098   3.259  16.879  0.8107 -0.0331 -0.4394
   97TMC2    O5 1521   0.240   3.388  16.748 -0.2478 -0.6721  0.2968
   97TMC2    H5 1522   0.317   3.367  16.691 -1.8083  1.9986 -2.7956
   98MPD2     C 1523   4.626   2.847  17.339  0.7164  0.1479  0.2692
   98MPD2    C1 1524   0.024   2.804  17.332 -0.3151 -0.2748  0.3464
   98MPD2    C2 1525   0.094   2.827  17.215 -0.0869  0.0628  0.5983
   98MPD2    C3 1526   0.041   2.892  17.106  0.2839 -0.5836  0.0171
   98MPD2    C4 1527   4.641   2.928  17.108  0.3537  0.7674  0.0260
   98MPD2    C5 1528   4.569   2.908  17.223 -0.0400  0.2244 -0.2808
   98MPD2     H 1529   0.197   2.794  17.211  0.1539  0.7262  1.2743
   98MPD2    H1 1530   4.590   2.944  17.014  0.0658  1.9248  0.3867
   98MPD2    H2 1531   4.561   2.810  17.418 -1.5555  2.1770 -0.6345
   98MPD2    H3 1532   4.464   2.926  17.246 -1.0366 -3.8417 -1.6064
   98MPD2     N 1533   0.108   2.903  16.980 -0.2631  0.5543  0.2289
   98MPD2    H5 1534   0.048   2.943  16.909 -0.6610 -1.0985 -0.3862
   98MPD2    N1 1535   0.068   2.731  17.452  0.1535  0.0157 -0.5476
   98MPD2    H7 1536   0.004   2.733  17.531  1.4162  0.2352  0.4525
   99TMC2    C1 1537   4.008   4.057   1.626 -0.4514  0.2691  0.4698
   99TMC2    C2 1538   4.082   4.086   1.739  0.1525  0.2119  0.0593
   99TMC2    C3 1539   4.009   4.125   1.850 -0.5515 -0.1962 -1.3181
   99TMC2    C4 1540   3.871   4.072   1.622  0.2683  0.3444 -0.5283
   99TMC2    C5 1541   3.805   4.103   1.743  0.5368  0.4520 -0.1945
   99TMC2    C6 1542   3.875   4.136   1.858 -0.0004 -0.5406  0.1804
   99TMC2     C 1543   4.081   4.030   1.501 -0.1776 -0.1365 -0.0555
   99TMC2     O 1544   4.199   4.050   1.512  0.0315  0.4811  0.1276
   99TMC2     H 1545   4.191   4.087   1.735  0.1497 -0.5460 -0.1854
   99TMC2    H1 1546   3.819   4.085   1.528  0.7784  0.6510 -0.7637
   99TMC2    H2 1547   3.818   4.159   1.947 -1.3400 -0.0232 -0.8047
   99TMC2    C7 1548   3.663   4.119   1.751  0.2798 -0.5077  0.2104
   99TMC2    C8 1549   4.089   4.151   1.968 -0.0737  0.1147 -0.8336
   99TMC2    O1 1550   3.622   4.200   1.832  0.3098 -0.1036 -0.4091
   99TMC2    O2 1551   4.209   4.174   1.976  0.0049  0.4339  0.7327
   99TMC2    O5 1552   4.018   4.124   2.085  0.0076  0.2983  0.5979
   99TMC2    H5 1553   3.927   4.088   2.070  0.2694  0.1150 -0.5652
  100MPD2     C 1554   4.185   3.982   1.224 -0.0383 -0.1512 -0.6061
  100MPD2    C1 1555   4.059   3.939   1.271 -0.7802 -0.8954  0.3791
  100MPD2    C2 1556   3.984   3.854   1.192 -0.0752  0.0141  0.5083
  100MPD2    C3 1557   4.029   3.830   1.056 -1.3130 -0.1191  0.8163
  100MPD2    C4 1558   4.144   3.881   1.009  0.1285 -0.2472  0.2718
  100MPD2    C5 1559   4.223   3.949   1.097  0.1749 -0.4372  0.6498
  100MPD2     H 1560   3.891   3.815   1.231  1.1403 -0.5824  2.8279
  100MPD2    H1 1561   4.190   3.866   0.912 -0.0507 -0.9025  0.2844
  100MPD2    H2 1562   4.245   4.053   1.279 -2.8541  2.5902 -1.0891
  100MPD2    H3 1563   4.321   3.985   1.068 -0.4613  1.3967  0.7961
  100MPD2     N 1564   3.933   3.772   0.976  0.5329 -0.2824  0.2554
  100MPD2    H5 1565   3.862   3.726   1.032  0.8463  0.1644  1.0115
  100MPD2    N1 1566   4.006   3.975   1.401 -0.5178 -0.2196  0.4016
  100MPD2    H7 1567   3.915   3.942   1.432 -0.5477  1.1379  1.7680
  101TMC2    C1 1568   4.523   0.683  12.853 -0.1743  1.3321 -1.0190
  101TMC2    C2 1569   4.489   0.776  12.946  0.1152  0.1225 -0.0460
  101TMC2    C3 1570   4.536   0.900  12.928  0.0125  0.4215 -0.3206
  101TMC2    C4 1571   4.594   0.707  12.741 -0.0051  0.1433 -0.2155
  101TMC2    C5 1572   4.637   0.840  12.725 -0.4898 -0.6701 -0.2483
  101TMC2    C6 1573   4.601   0.938  12.816 -0.0243  0.1307 -0.1483
  101TMC2     C 1574   4.463   0.554  12.873 -0.1128 -0.6110 -0.5000
  101TMC2     O 1575   4.400   0.544  12.978  0.1599  0.4658  0.2818
  101TMC2     H 1576   4.407   0.762  13.016  0.8665  1.1752  1.0415
  101TMC2    H1 1577   4.631   0.629  12.676 -2.3246  0.3849 -1.8167
  101TMC2    H2 1578   4.644   1.038  12.812  2.4955 -0.8529  2.3403
  101TMC2    C7 1579   4.714   0.880  12.607 -0.1615 -0.2409 -0.3409
  101TMC2    C8 1580   4.447   0.999  12.981 -0.0674  0.0886  0.0806
  101TMC2    O1 1581   0.032   0.989  12.606  0.3666  0.0654  0.3219
  101TMC2    O2 1582   4.332   0.976  13.018 -0.0024  0.1055 -0.1793
  101TMC2    O5 1583   4.504   1.125  12.994  0.2202 -0.5703  0.1236
  101TMC2    H5 1584   4.601   1.131  12.982  0.4081 -1.6533  1.1070
  102MPD2     C 1585   4.476   0.265  12.649 -0.1024  0.0043  0.0661
  102MPD2    C1 1586   4.441   0.336  12.763 -0.8297 -0.4480  0.5543
  102MPD2    C2 1587   4.356   0.277  12.858  0.5978 -0.1210 -0.2582
  102MPD2    C3 1588   4.314   0.145  12.837 -0.5445 -0.4044  0.1005
  102MPD2    C4 1589   4.353   0.076  12.723  0.0172  0.2119  0.4447
  102MPD2    C5 1590   4.425   0.137  12.627 -0.4745  0.5389 -0.6976
  102MPD2     H 1591   4.332   0.321  12.954 -2.3978  0.2798 -1.1811
  102MPD2    H1 1592   4.318   4.711  12.697 -0.6784  0.1756  1.5159
  102MPD2    H2 1593   4.545   0.308  12.577 -2.7664  1.5818 -1.5449
  102MPD2    H3 1594   4.452   0.089  12.534 -1.0038 -0.5139 -0.2998
  102MPD2     N 1595   4.235   0.084  12.936 -0.2553 -0.4120 -0.3161
  102MPD2    H5 1596   4.219   0.145  13.016  0.6493 -0.9908  0.3087
  102MPD2    N1 1597   4.497   0.469  12.772  0.2987  0.2647 -0.0189
  102MPD2    H7 1598   4.561   0.497  12.699 -0.2820 -1.7880 -1.3108
  103TMC2    C1 1599   2.144   4.347  12.143  0.6007 -0.1042  0.3162
  103TMC2    C2 1600   2.088   4.225  12.158 -0.1605 -0.6330 -0.6518
  103TMC2    C3 1601   2.170   4.117  12.180 -0.7955  0.8086 -0.3343
  103TMC2    C4 1602   2.276   4.373  12.155 -0.6493 -0.3294  0.1065
  103TMC2    C5 1603   2.349   4.261  12.178 -0.1854  0.6390 -0.2746
  103TMC2    C6 1604   2.303   4.135  12.176  0.0223 -0.3522  0.0435
  103TMC2     C 1605   2.051   4.459  12.149 -0.1326 -0.2761 -0.1938
  103TMC2     O 1606   2.094   4.574  12.184  0.0798  0.0487  0.6325
  103TMC2     H 1607   1.982   4.204  12.165 -0.0489 -1.0020 -0.0844
  103TMC2    H1 1608   2.318   4.471  12.135  1.0399 -1.2421 -0.8682
  103TMC2    H2 1609   2.367   4.047  12.176  0.1564 -0.2380 -4.4960
  103TMC2    C7 1610   2.483   4.264  12.232  0.2456  0.0279  0.2315
  103TMC2    C8 1611   2.130   3.975  12.169  0.0008 -0.7519 -0.6624
  103TMC2    O1 1612   2.554   4.163  12.233  0.1922  0.0102 -0.1326
  103TMC2    O2 1613   2.210   3.883  12.163  0.3082 -0.2673  0.3262
  103TMC2    O5 1614   1.995   3.966  12.169 -0.0648  0.4004 -0.1240
  103TMC2    H5 1615   1.952   4.049  12.199 -3.4004 -1.4450  0.2201
  104MPD2     C 1616   1.699   4.430  12.065  0.8137 -1.0020 -0.3481
  104MPD2    C1 1617   1.815   4.500  12.096  0.1379  0.0475 -1.1433
  104MPD2    C2 1618   1.803   4.635  12.118  0.1925  0.2001  0.4594
  104MPD2    C3 1619   1.684   4.696  12.120  0.0469 -0.1112  0.4619
  104MPD2    C4 1620   1.571   4.630  12.073 -0.5521 -0.1407  0.3447
  104MPD2    C5 1621   1.580   4.498  12.044  0.2188 -0.2833  0.0021
  104MPD2     H 1622   1.889   4.692  12.149 -1.0580  3.6074 -2.3569
  104MPD2    H1 1623   1.471   4.671  12.062  1.4112  4.1705 -1.3750
  104MPD2    H2 1624   1.700   4.325  12.038 -1.7253 -1.2721  0.6149
  104MPD2    H3 1625   1.492   4.443  12.010  0.6915  1.1322 -3.5080
  104MPD2     N 1626   1.681   0.100  12.156 -0.3573 -0.6079 -0.3453
  104MPD2    H5 1627   1.762   0.160  12.163 -1.7065  1.2120 -0.2171
  104MPD2    N1 1628   1.929   4.424  12.100 -0.6545 -0.4420 -0.3003
  104MPD2    H7 1629   1.923   4.330  12.061  2.3185 -0.9183  0.4003
  105TMC2    C1 1630   3.590   4.147   0.004 -0.3048  0.6966 -0.3370
  105TMC2    C2 1631   3.562   4.274  17.705  0.1663 -0.5169 -0.3431
  105TMC2    C3 1632   3.534   4.356   0.078 -0.9996  0.2695  0.1442
  105TMC2    C4 1633   3.598   4.106   0.133  0.4500  0.4098 -0.9159
  105TMC2    C5 1634   3.566   4.192   0.232  1.1847  0.0933  0.1609
  105TMC2    C6 1635   3.537   4.325   0.211 -0.1072  0.0377  0.7070
  105TMC2     C 1636   3.637   4.058  17.637 -0.9701  0.7988  0.0669
  105TMC2     O 1637   3.657   3.942  17.685  0.1976 -0.1232 -0.0547
  105TMC2     H 1638   3.536   4.310  17.606  0.5247  1.1932  0.1721
  105TMC2    H1 1639   3.644   4.009   0.152  0.8489  0.5886 -0.9693
  105TMC2    H2 1640   3.519   4.400   0.287  2.5644 -0.6104  1.9846
  105TMC2    C7 1641   3.609   4.150   0.364  0.2126 -0.5408 -0.0527
  105TMC2    C8 1642   3.472   4.485   0.059 -0.5336 -0.4625  0.0483
  105TMC2    O1 1643   3.595   4.029   0.386 -0.3278 -0.9470  0.2712
  105TMC2    O2 1644   3.409   4.535   0.150 -0.1997 -0.1961 -0.4591
  105TMC2    O5 1645   3.523   4.552  17.692  0.2632 -0.3450  0.5992
  105TMC2    H5 1646   3.602   4.510  17.651  1.1674 -0.0611  2.0540
  106MPD2     C 1647   3.979   3.956  17.279  0.4171  0.2190 -0.1905
  106MPD2    C1 1648   3.962   4.091  17.291 -0.3394  0.0746  0.1195
  106MPD2    C2 1649   3.869   4.135  17.376 -0.3955  0.7373  0.3744
  106MPD2    C3 1650   3.790   4.055  17.455 -0.2257 -0.2216  0.5194
  106MPD2    C4 1651   3.793   3.917  17.427  0.5208  0.3259 -0.1812
  106MPD2    C5 1652   3.896   3.864  17.346  0.3814  0.1558 -0.3804
  106MPD2     H 1653   3.867   4.243  17.389  1.5673  0.7860  0.2931
  106MPD2    H1 1654   3.735   3.849  17.488  2.8124 -2.4144 -1.0501
  106MPD2    H2 1655   4.034   3.907  17.199  0.6272  2.1676 -1.2412
  106MPD2    H3 1656   3.896   3.759  17.320 -0.8675 -0.0286  0.3778
  106MPD2     N 1657   3.701   4.123  17.536 -0.3570  0.1089 -0.1433
  106MPD2    H5 1658   3.704   4.225  17.535  0.7917  0.1150  2.8638
  106MPD2    N1 1659   4.045   4.184  17.223 -0.8484  0.5959 -0.0896
  106MPD2    H7 1660   4.016   4.281  17.233  1.0844  1.1625  0.1264
  107TMC2    C1 1661   0.307   3.382  11.659 -0.0623  0.0755 -0.2931
  107TMC2    C2 1662   0.335   3.332  11.536  0.4574  0.0541  0.6054
  107TMC2    C3 1663   0.449   3.260  11.510 -0.8080 -0.0899  0.1757
  107TMC2    C4 1664   0.379   3.343  11.769 -0.3125 -0.5336 -0.0156
  107TMC2    C5 1665   0.492   3.263  11.743  0.3150  0.0710 -0.3225
  107TMC2    C6 1666   0.528   3.227  11.617 -0.2666  0.5572  0.1605
  107TMC2     C 1667   0.187   3.468  11.671 -0.4931  0.5709  0.4666
  107TMC2     O 1668   0.143   3.448  11.784  0.0756  0.3290  0.0590
  107TMC2     H 1669   0.269   3.347  11.452  2.1552  2.2882 -0.3335
  107TMC2    H1 1670   0.359   3.360  11.874  2.3989  1.5668  0.1392
  107TMC2    H2 1671   0.626   3.185  11.598 -0.2989  0.8991 -0.7745
  107TMC2    C7 1672   0.595   3.232  11.842 -0.1375 -0.1009 -0.1733
  107TMC2    C8 1673   0.502   3.225  11.380  0.0115 -0.6727 -0.2506
  107TMC2    O1 1674   0.675   3.144  11.817 -0.7587 -0.1029 -0.1108
  107TMC2    O2 1675   0.617   3.182  11.367 -0.0904 -0.1328 -0.0209
  107TMC2    O5 1676   0.438   3.280  11.280 -0.1588 -0.1904  0.2032
  107TMC2    H5 1677   0.362   3.335  11.308  0.2773  0.3492  0.3215
  108MPD2     C 1678   0.045   3.738  11.477 -0.3070  0.5613  0.2828
  108MPD2    C1 1679   0.050   3.641  11.580 -0.5148 -0.4011  0.0162
  108MPD2    C2 1680   4.684   3.641  11.673  0.3745  0.0312 -0.2135
  108MPD2    C3 1681   4.592   3.744  11.682  1.0098  0.0909  0.1725
  108MPD2    C4 1682   4.584   3.843  11.579 -0.3595 -0.3299 -0.2812
  108MPD2    C5 1683   4.681   3.838  11.478  0.3457  0.4071 -0.2190
  108MPD2     H 1684   4.678   3.556  11.740 -0.1745 -2.4314 -3.3411
  108MPD2    H1 1685   4.513   3.925  11.583  1.7907  1.5589 -0.6326
  108MPD2    H2 1686   0.126   3.738  11.405 -3.3393  1.4241 -3.0971
  108MPD2    H3 1687   4.679   3.909  11.396 -1.8043  1.3746  0.6702
  108MPD2     N 1688   4.503   3.755  11.791  0.2065  0.2646 -0.2161
  108MPD2    H5 1689   4.429   3.823  11.779  1.2671  2.1041  3.4095
  108MPD2    N1 1690   0.158   3.555  11.569 -0.8537  0.0247 -0.3484
  108MPD2    H7 1691   0.222   3.562  11.491 -0.3989 -0.7568 -0.0478
  109TMC2    C1 1692   4.245   2.118   0.783  0.0682 -0.2181  0.2271
  109TMC2    C2 1693   4.325   2.061   0.879 -0.2513  0.8815  0.3266
  109TMC2    C3 1694   4.465   2.071   0.864 -0.1805 -0.2913 -0.2678
  109TMC2    C4 1695   4.302   2.166   0.669 -0.7595  0.0724 -0.5324
  109TMC2    C5 1696   4.442   2.181   0.657  0.3316  0.4285  0.2979
  109TMC2    C6 1697   4.522   2.135   0.757  0.2838  0.1277  0.3397
  109TMC2     C 1698   4.104   2.074   0.772  0.6269 -0.9611 -0.0984
  109TMC2     O 1699   4.032   2.147   0.703  0.0607  0.4623  0.7920
  109TMC2     H 1700   4.286   2.034   0.976 -2.6186  0.1203 -0.8311
  109TMC2    H1 1701   4.233   2.200   0.592 -2.8257 -0.3358  1.1498
  109TMC2    H2 1702   4.629   2.147   0.745 -0.1762  1.5088 -2.3831
  109TMC2    C7 1703   4.492   2.248   0.548  0.6587 -0.4173  0.1025
  109TMC2    C8 1704   4.559   2.032   0.973 -0.1723 -0.4233 -0.2261
  109TMC2    O1 1705   4.609   2.231   0.512 -0.2640 -1.4429  0.5209
  109TMC2    O2 1706   4.672   2.073   0.980  0.3156 -0.0725  0.0419
  109TMC2    O5 1707   4.498   1.949   1.061 -0.1320 -0.2480  0.7237
  109TMC2    H5 1708   4.421   1.902   1.022  0.2272  0.1048 -0.4130
  110MPD2     C 1709   3.709   1.756   0.821 -0.2146  0.0532 -0.5444
  110MPD2    C1 1710   3.812   1.697   0.887  0.6716 -0.4651 -0.1683
  110MPD2    C2 1711   3.940   1.752   0.884  0.1416 -0.0091 -0.2719
  110MPD2    C3 1712   3.958   1.876   0.812 -1.1541 -0.1851  0.0979
  110MPD2    C4 1713   3.846   1.929   0.747  0.3538 -0.2012  0.4599
  110MPD2    C5 1714   3.727   1.867   0.749  0.1210 -0.5204  0.0187
  110MPD2     H 1715   4.014   1.712   0.953  4.6169  3.2716 -3.2206
  110MPD2    H1 1716   3.851   2.022   0.692 -2.0402 -0.6657 -0.5734
  110MPD2    H2 1717   3.608   1.717   0.818  0.2063 -0.8544 -3.3649
  110MPD2    H3 1718   3.644   1.900   0.688 -0.8745 -0.9331  1.1496
  110MPD2     N 1719   4.079   1.948   0.827 -0.0177 -0.4166  0.2453
  110MPD2    H5 1720   4.152   1.896   0.875  0.1135 -0.8016 -0.3722
  110MPD2    N1 1721   3.781   1.574   0.952  0.1998  0.5562  0.1050
  110MPD2    H7 1722   3.698   1.525   0.920  0.5716 -0.7172  1.0888
  111TMC2    C1 1723   4.506   0.636  11.433 -0.8599 -0.0521 -0.1941
  111TMC2    C2 1724   4.459   0.564  11.537 -0.1141 -0.3241 -0.2556
  111TMC2    C3 1725   4.515   0.585  11.660  0.7644 -0.4781  0.0352
  111TMC2    C4 1726   4.609   0.732  11.443 -0.2311  0.6370 -0.3993
  111TMC2    C5 1727   4.670   0.736  11.568 -0.5793 -0.4760  0.0088
  111TMC2    C6 1728   4.623   0.665  11.679  0.0731  0.7644 -0.2944
  111TMC2     C 1729   4.425   0.643  11.313  0.0259 -1.0040 -0.2593
  111TMC2     O 1730   4.488   0.672  11.207 -0.2776  0.0110 -0.4658
  111TMC2     H 1731   4.376   0.494  11.531 -0.3192 -0.0326 -0.8513
  111TMC2    H1 1732   4.630   0.791  11.355 -1.6560 -1.0593 -1.8862
  111TMC2    H2 1733   4.680   0.674  11.771  0.4044  1.0316 -0.5284
  111TMC2    C7 1734   0.019   0.851  11.605 -0.3769 -0.0947  0.0237
  111TMC2    C8 1735   4.472   0.507  11.771 -0.2042  0.5544  0.3448
  111TMC2    O1 1736   0.080   0.851  11.713 -0.1403 -0.3249  0.0773
  111TMC2    O2 1737   4.419   0.400  11.747 -0.0698 -0.0353  0.7327
  111TMC2    O5 1738   4.464   0.583  11.891 -0.0199 -0.4106 -0.4448
  111TMC2    H5 1739   4.485   0.677  11.872  0.0986 -0.6995 -1.7491
  112MPD2     C 1740   4.017   0.590  11.022  0.3760 -0.1330  0.2949
  112MPD2    C1 1741   4.150   0.576  10.986 -0.3355 -0.2262  0.3209
  112MPD2    C2 1742   4.238   0.570  11.090 -0.9370  0.2342 -0.1511
  112MPD2    C3 1743   4.200   0.585  11.224  0.9489  0.4985  0.4983
  112MPD2    C4 1744   4.066   0.577  11.252  0.2678  0.1539 -0.8785
  112MPD2    C5 1745   3.970   0.584  11.155 -0.6185 -0.4265  0.4553
  112MPD2     H 1746   4.341   0.562  11.058 -0.9340  0.6326 -0.2411
  112MPD2    H1 1747   4.040   0.581  11.356 -0.8977  1.7586 -1.2394
  112MPD2    H2 1748   3.944   0.604  10.943 -0.9942 -1.1375  1.3805
  112MPD2    H3 1749   3.864   0.594  11.174 -0.5074  0.9513  0.3175
  112MPD2     N 1750   4.294   0.597  11.328 -0.2387  0.5790  0.0411
  112MPD2    H5 1751   4.261   0.587  11.424 -0.1335  0.6509  0.0848
  112MPD2    N1 1752   4.204   0.588  10.853  0.4528  1.1261 -0.4914
  112MPD2    H7 1753   4.305   0.593  10.843  0.7200 -0.6108  1.1994
  113TMC2    C1 1754   2.557   4.162   0.977  0.0574 -0.2013 -0.0047
  113TMC2    C2 1755   2.466   4.236   1.045  0.5877 -0.2055 -0.2299
  113TMC2    C3 1756   2.337   4.238   1.008  0.2030 -0.4713 -0.1839
  113TMC2    C4 1757   2.516   4.074   0.878 -0.3250  0.2377  0.2797
  113TMC2    C5 1758   2.383   4.071   0.858 -0.0713 -0.1989  0.0008
  113TMC2    C6 1759   2.283   4.156   0.912  0.8474 -0.0703 -0.1889
  113TMC2     C 1760   2.698   4.166   1.005  0.7897 -0.1104 -0.1372
  113TMC2     O 1761   2.725   4.252   1.088  0.4127 -0.4044  0.0102
  113TMC2     H 1762   2.506   4.286   1.133 -2.7706  0.9948  0.6447
  113TMC2    H1 1763   2.580   4.028   0.804  1.2821  0.2766  1.6292
  113TMC2    H2 1764   2.179   4.141   0.886  0.6614  1.2776 -0.2502
  113TMC2    C7 1765   2.341   3.980   0.757  0.6969 -1.0414  0.1943
  113TMC2    C8 1766   2.261   4.352   1.055 -0.1187 -0.5560 -0.2471
  113TMC2    O1 1767   2.237   4.010   0.695  0.4161 -0.0976 -0.6199
  113TMC2    O2 1768   2.301   4.424   1.143  0.1847 -0.5738 -0.0280
  113TMC2    O5 1769   2.181   4.390   0.952  0.0850 -0.1123  0.1414
  113TMC2    H5 1770   2.179   4.325   0.878 -2.4987  0.4742 -0.3035
  114MPD2     C 1771   3.172   3.976   1.036  0.0211  0.2263  0.4521
  114MPD2    C1 1772   3.108   4.078   1.108  0.1489  0.0424  0.4671
  114MPD2    C2 1773   2.971   4.094   1.096 -0.5490  0.3142  0.2880
  114MPD2    C3 1774   2.896   4.017   1.006 -0.6193 -0.8447  0.5452
  114MPD2    C4 1775   2.957   3.925   0.938  0.4454 -0.0946  0.7596
  114MPD2    C5 1776   3.092   3.900   0.958  0.3820  0.1964 -0.0740
  114MPD2     H 1777   2.922   4.171   1.153  1.2681  1.8289 -0.2098
  114MPD2    H1 1778   2.903   3.856   0.874  1.6470  2.0247 -2.5873
  114MPD2    H2 1779   3.278   3.954   1.042 -0.0574 -0.6233 -1.2447
  114MPD2    H3 1780   3.131   3.812   0.909  3.2913  2.3758 -1.6103
  114MPD2     N 1781   2.763   4.054   0.972 -0.1973 -0.4933  0.0500
  114MPD2    H5 1782   2.724   3.980   0.913  0.5968 -0.3792 -0.6259
  114MPD2    N1 1783   3.166   4.161   1.209 -0.4519  0.5031 -0.2156
  114MPD2    H7 1784   3.110   4.234   1.252 -0.5850  1.1919 -1.5519
  115TMC2    C1 1785   3.855   1.778  17.393 -0.1217  0.3763 -0.2203
  115TMC2    C2 1786   3.906   1.787  17.522  0.3647  0.3902 -0.5557
  115TMC2    C3 1787   3.989   1.889  17.553  0.0052 -1.0357  0.6738
  115TMC2    C4 1788   3.885   1.873  17.301 -1.1093 -0.3746 -0.2576
  115TMC2    C5 1789   3.955   1.983  17.347  0.0558  0.8192 -0.6637
  115TMC2    C6 1790   4.013   1.995  17.469  0.5799 -0.0028 -0.1223
  115TMC2     C 1791   3.743   1.684  17.364  0.6484  0.3364  0.3190
  115TMC2     O 1792   3.733   1.581  17.431  0.4096  0.2836 -0.0694
  115TMC2     H 1793   3.891   1.704  17.590  0.9351  0.7384 -0.0038
  115TMC2    H1 1794   3.842   1.877  17.201  0.8056 -2.3278 -1.1476
  115TMC2    H2 1795   4.067   2.082  17.504  0.8012 -0.9473  1.8813
  115TMC2    C7 1796   3.968   2.096  17.257  0.2660  0.3805 -0.6821
  115TMC2    C8 1797   4.020   1.906  17.691  0.0978  0.0157  0.2235
  115TMC2    O1 1798   3.942   2.077  17.142 -0.1699  0.5531 -0.0657
  115TMC2    O2 1799   3.978   1.824   0.034 -0.1892 -0.5281 -0.1047
  115TMC2    O5 1800   4.141   1.959  17.692  0.3315 -0.1620  0.3471
  115TMC2    H5 1801   4.183   1.989  17.608  1.9508 -1.8363  0.5668
  116MPD2     C 1802   3.362   1.539  17.057 -0.6249 -0.2476 -0.9056
  116MPD2    C1 1803   3.425   1.465  17.153  0.2191 -0.2048 -0.0491
  116MPD2    C2 1804   3.527   1.536  17.219  0.3134 -0.1740 -0.2258
  116MPD2    C3 1805   3.552   1.672  17.197 -0.0521 -0.7643 -0.2389
  116MPD2    C4 1806   3.493   1.738  17.096 -0.6686  0.1039  0.2147
  116MPD2    C5 1807   3.391   1.671  17.031 -0.4648  0.6466  0.3182
  116MPD2     H 1808   3.593   1.483  17.287 -0.4118  0.0007  0.6143
  116MPD2    H1 1809   3.526   1.838  17.068 -0.0177 -0.4423 -0.9780
  116MPD2    H2 1810   3.290   1.495  16.989 -0.4077 -0.3034 -1.0994
  116MPD2    H3 1811   3.327   1.715  16.955  1.2593 -0.1175 -1.5920
  116MPD2     N 1812   3.657   1.743  17.268  0.0791  0.7790  0.5996
  116MPD2    H5 1813   3.672   1.840  17.240  2.2254  1.1947  3.1224
  116MPD2    N1 1814   3.381   1.332  17.164 -0.2071 -0.2060 -0.4637
  116MPD2    H7 1815   3.295   1.313  17.114 -1.8914 -1.4996  2.9733
  117TMC2    C1 1816   2.584   2.785  14.273 -1.2717 -0.3777 -0.6018
  117TMC2    C2 1817   2.693   2.793  14.354  0.2946  0.2588  0.0903
  117TMC2    C3 1818   2.718   2.911  14.416  0.1724 -0.3100  0.1179
  117TMC2    C4 1819   2.512   2.892  14.248  0.5552  0.2237 -0.1706
  117TMC2    C5 1820   2.545   3.010  14.311 -0.4896 -0.2669 -0.6681
  117TMC2    C6 1821   2.644   3.025  14.399 -1.0662 -0.5682  0.1257
  117TMC2     C 1822   2.534   2.656  14.240  0.0751  0.0194  0.6775
  117TMC2     O 1823   2.589   2.553  14.272  0.1380 -0.5282 -0.3400
  117TMC2     H 1824   2.761   2.711  14.373 -1.0512 -0.5293  1.5007
  117TMC2    H1 1825   2.425   2.891  14.183 -0.5778 -2.1729  1.3934
  117TMC2    H2 1826   2.673   3.115  14.452 -0.0596 -0.9627  0.2421
  117TMC2    C7 1827   2.518   3.136  14.243 -0.0956 -0.2956  0.0815
  117TMC2    C8 1828   2.820   2.915  14.523 -0.6735 -0.0443 -0.3083
  117TMC2    O1 1829   2.615   3.217  14.249  0.3310 -1.0745  0.4889
  117TMC2    O2 1830   2.856   3.018  14.577  0.3486  0.1329  0.1708
  117TMC2    O5 1831   2.824   2.791  14.576  0.0179 -0.7588  0.1337
  117TMC2    H5 1832   2.771   2.714  14.548  1.8272 -0.9569 -2.7272
  118MPD2     C 1833   2.220   3.247  14.053  0.9138  0.1160 -0.4271
  118MPD2    C1 1834   2.342   3.253  14.115 -0.3101 -0.0869  0.6056
  118MPD2    C2 1835   2.420   3.369  14.105 -0.4520 -0.7766  0.1607
  118MPD2    C3 1836   2.364   3.476  14.035  1.2505  0.4935 -0.6641
  118MPD2    C4 1837   2.230   3.470  13.990 -0.6978  0.0182  0.4235
  118MPD2    C5 1838   2.156   3.352  14.002 -0.7757  0.0255  0.1775
  118MPD2     H 1839   2.513   3.385  14.158 -0.7936 -0.8662  0.7857
  118MPD2    H1 1840   2.181   3.546  13.931  0.4567  1.7838  1.7201
  118MPD2    H2 1841   2.171   3.150  14.055  0.6480  0.2418 -0.7381
  118MPD2    H3 1842   2.055   3.336  13.964 -0.5357  0.2032 -0.5369
  118MPD2     N 1843   2.433   3.599  14.002  0.4067  0.6171  0.1144
  118MPD2    H5 1844   2.379   3.667  13.950 -2.7290 -2.5308 -0.7808
  118MPD2    N1 1845   2.394   3.145  14.190 -0.0348  0.0501  0.4683
  118MPD2    H7 1846   2.330   3.068  14.205  1.1416 -1.1491 -0.6816
  119TMC2    C1 1847   0.020   4.018  12.624  0.6231  0.2873  0.1803
  119TMC2    C2 1848   0.003   4.128  12.536 -0.4930 -0.7103  0.1521
  119TMC2    C3 1849   4.616   4.193  12.530  0.2421 -0.5843  0.1170
  119TMC2    C4 1850   4.648   3.979  12.705 -0.8414  0.3505  0.1111
  119TMC2    C5 1851   4.533   4.054  12.703  0.1499  0.3675  0.4926
  119TMC2    C6 1852   4.521   4.156  12.617 -0.5049 -0.4559 -0.7895
  119TMC2     C 1853   0.141   4.026  12.698 -0.6430 -0.0292 -0.2410
  119TMC2     O 1854   0.142   3.981  12.812 -0.0658  0.1381 -0.2123
  119TMC2     H 1855   0.082   4.161  12.470 -1.2994 -1.9912 -1.4528
  119TMC2    H1 1856   4.653   3.894  12.772  2.0501 -1.2507 -2.1172
  119TMC2    H2 1857   4.425   4.207  12.613 -0.4097 -0.0902  1.5627
  119TMC2    C7 1858   4.464   4.075  12.831 -0.5979 -0.2587  0.2739
  119TMC2    C8 1859   4.616   4.311  12.440  0.0272  0.4260 -0.5093
  119TMC2    O1 1860   4.401   4.184  12.837  0.3991 -0.2310 -0.9886
  119TMC2    O2 1861   4.660   4.316  12.326  0.5443  0.7349 -0.2214
  119TMC2    O5 1862   4.525   4.397  12.490 -0.5550 -0.4824 -0.3745
  119TMC2    H5 1863   4.504   4.383  12.585 -2.2831  0.3336 -0.6362
  120MPD2     C 1864   0.502   4.347  12.884 -0.3411 -0.5491  0.4238
  120MPD2    C1 1865   0.403   4.279  12.951  0.8400  0.2136  0.1735
  120MPD2    C2 1866   0.311   4.202  12.871  0.2139 -0.1206 -0.3526
  120MPD2    C3 1867   0.326   4.190  12.733  0.3040 -0.0980 -0.2337
  120MPD2    C4 1868   0.432   4.249  12.673  0.3760 -0.1490 -0.0763
  120MPD2    C5 1869   0.513   4.330  12.747  0.2824 -0.3962  0.4828
  120MPD2     H 1870   0.222   4.158  12.914 -0.1976  0.7620 -0.2940
  120MPD2    H1 1871   0.451   4.229  12.568 -0.3734  2.1941 -0.6540
  120MPD2    H2 1872   0.583   4.395  12.938 -1.5292  0.0847  1.6287
  120MPD2    H3 1873   0.608   4.353  12.699 -0.0062 -0.2066  0.0036
  120MPD2     N 1874   0.231   4.123  12.653  0.1208 -0.1253  0.1418
  120MPD2    H5 1875   0.230   4.146  12.554  1.9710  0.6632  0.3183
  120MPD2    N1 1876   0.386   4.297  13.091 -0.2079  0.5066  0.3473
  120MPD2    H7 1877   0.458   4.335  13.151 -0.0539 -2.4545  2.0462
  121TMC2    C1 1878   1.902   1.123  14.187  0.0202 -0.4391  0.5037
  121TMC2    C2 1879   1.873   1.061  14.307  1.0665  0.1232  0.5128
  121TMC2    C3 1880   1.756   0.994  14.320 -0.2495  0.1350 -0.1748
  121TMC2    C4 1881   1.800   1.146  14.097 -0.4816 -0.6003  0.0939
  121TMC2    C5 1882   1.678   1.085  14.120 -0.2150  1.0374  0.7328
  121TMC2    C6 1883   1.654   1.010  14.229  0.2493  0.0518  0.0645
  121TMC2     C 1884   2.016   1.197  14.180  0.4302  0.5279 -0.2149
  121TMC2     O 1885   2.070   1.228  14.287 -0.0392  0.0238  0.6898
  121TMC2     H 1886   1.955   1.046  14.376  1.9039  1.7412 -0.1296
  121TMC2    H1 1887   1.818   1.213  14.014 -1.3617 -0.0322  0.3657
  121TMC2    H2 1888   1.560   0.958  14.245 -0.7391  2.1840  1.2792
  121TMC2    C7 1889   1.576   1.108  14.015  1.0148 -0.0030  0.3465
  121TMC2    C8 1890   1.724   0.944  14.452 -0.4491 -0.4698  0.0992
  121TMC2    O1 1891   1.619   1.172  13.922  0.8024  0.0064  0.3319
  121TMC2    O2 1892   1.807   0.904  14.535  0.8246  0.3671 -0.3936
  121TMC2    O5 1893   1.588   0.959  14.470 -0.5806  0.3809  0.0586
  121TMC2    H5 1894   1.547   1.015  14.401  0.1445  0.9970  0.1216
  122MPD2     C 1895   2.274   1.319  14.097 -0.0551  0.0392  0.2232
  122MPD2    C1 1896   2.172   1.283  14.007 -0.0621  0.1446 -0.0336
  122MPD2    C2 1897   2.188   1.296  13.871 -0.2005  0.0045 -0.1915
  122MPD2    C3 1898   2.307   1.353  13.821  0.1312  0.1387 -0.2700
  122MPD2    C4 1899   2.407   1.396  13.902 -0.4561 -0.4150  0.4102
  122MPD2    C5 1900   2.390   1.375  14.042 -0.5584 -0.0217 -0.0120
  122MPD2     H 1901   2.110   1.261  13.805 -1.1724 -0.7773  1.3737
  122MPD2    H1 1902   2.504   1.431  13.869 -1.2845  3.3768  1.9775
  122MPD2    H2 1903   2.266   1.307  14.205 -0.8662 -1.7141 -0.0253
  122MPD2    H3 1904   2.472   1.399  14.109 -0.5078 -0.6160  0.1369
  122MPD2     N 1905   2.325   1.369  13.678 -0.1115 -0.0563  0.1163
  122MPD2    H5 1906   2.407   1.418  13.644 -1.1776  0.2951 -1.9446
  122MPD2    N1 1907   2.055   1.221  14.052  0.1119  0.3031  0.0375
  122MPD2    H7 1908   2.001   1.179  13.977 -0.1853  0.0296  0.3972
  123TMC2    C1 1909   0.055   4.606   9.564  0.4834  0.1214 -0.1798
  123TMC2    C2 1910   0.043   4.509   9.469  0.0063 -0.8049 -0.1791
  123TMC2    C3 1911   0.107   4.388   9.500 -0.8099 -0.5067 -0.2124
  123TMC2    C4 1912   0.129   4.591   9.682  0.9475 -0.1538 -0.3888
  123TMC2    C5 1913   0.183   4.466   9.706  0.1686  0.2623 -0.0843
  123TMC2    C6 1914   0.162   4.363   9.619 -0.0091 -0.7047  0.0563
  123TMC2     C 1915   0.019   0.009   9.531  0.1920 -0.2922 -0.1337
  123TMC2     O 1916   0.055   0.096   9.612  0.3327 -0.0097  0.3273
  123TMC2     H 1917   4.727   4.515   9.373 -1.8059 -2.5185  0.6685
  123TMC2    H1 1918   0.138   4.679   9.746  2.0537 -0.6648  0.1542
  123TMC2    H2 1919   0.214   4.269   9.636  0.4882 -0.8942 -2.5652
  123TMC2    C7 1920   0.219   4.430   9.842 -0.0463 -0.1727  0.6520
  123TMC2    C8 1921   0.021   4.281   9.448 -0.1611  0.8334 -0.1793
  123TMC2    O1 1922   0.255   4.318   9.863  0.5231 -0.1988  0.2800
  123TMC2    O2 1923   4.733   4.267   9.328  0.6066 -0.0375 -0.2510
  123TMC2    O5 1924   4.682   4.232   9.549  0.4590 -0.8879  0.3622
  123TMC2    H5 1925   4.702   4.271   9.637 -0.2122 -0.3784  0.2841
  124MPD2     C 1926   4.537   0.370   9.254 -0.5448  0.4344 -0.6270
  124MPD2    C1 1927   4.489   0.246   9.208 -0.0126  0.0985 -0.2872
  124MPD2    C2 1928   4.536   0.128   9.271 -0.7683 -0.6617 -0.5588
  124MPD2    C3 1929   4.629   0.145   9.371 -0.1104  0.5153 -0.1843
  124MPD2    C4 1930   4.696   0.264   9.396  0.8698 -0.0517 -0.0737
  124MPD2    C5 1931   4.654   0.376   9.334  0.0258  0.5389  0.2756
  124MPD2     H 1932   4.507   0.026   9.249 -0.0380 -0.6337 -1.6566
  124MPD2    H1 1933   0.043   0.278   9.467  0.3455 -3.6950  1.2725
  124MPD2    H2 1934   4.498   0.461   9.209  2.6806  1.4405 -1.3907
  124MPD2    H3 1935   4.706   0.468   9.359  1.3923  0.4537 -2.2330
  124MPD2     N 1936   4.662   0.022   9.431 -0.2692 -0.2614 -0.0324
  124MPD2    H5 1937   4.625   4.672   9.388  1.6792 -0.1399 -1.9739
  124MPD2    N1 1938   4.395   0.250   9.109 -0.3091  0.0687 -0.4277
  124MPD2    H7 1939   4.357   0.342   9.093 -3.0897 -0.9104  0.5289
  125TMC2    C1 1940   0.612   1.329   9.869 -0.7525  0.4107  0.2980
  125TMC2    C2 1941   0.538   1.231   9.805 -0.2514  0.4827  0.5168
  125TMC2    C3 1942   0.526   1.249   9.666 -0.1070  0.3195 -0.1884
  125TMC2    C4 1943   0.676   1.428   9.796 -0.2383 -0.4487  0.7751
  125TMC2    C5 1944   0.678   1.413   9.661 -0.3606 -0.4262 -0.2461
  125TMC2    C6 1945   0.609   1.322   9.587  0.1481 -0.5626  0.2232
  125TMC2     C 1946   0.579   1.360  10.010 -0.3780 -0.1671 -0.0999
  125TMC2     O 1947   0.536   1.270  10.076 -0.1780 -0.1277  0.6708
  125TMC2     H 1948   0.464   1.170   9.856 -0.5918  1.8603  1.6726
  125TMC2    H1 1949   0.737   1.505   9.842  1.6646 -3.0226  2.6122
  125TMC2    H2 1950   0.594   1.315   9.480 -1.9376  0.3041  0.4657
  125TMC2    C7 1951   0.731   1.527   9.586 -0.1756 -0.5994  0.1209
  125TMC2    C8 1952   0.404   1.205   9.597  0.2348 -0.3645 -0.1256
  125TMC2    O1 1953   0.760   1.624   9.651  0.2363  0.0014 -0.3160
  125TMC2    O2 1954   0.360   1.262   9.497  0.6471 -0.0676 -0.6453
  125TMC2    O5 1955   0.356   1.093   9.658  0.2663 -0.2864 -0.1502
  125TMC2    H5 1956   0.414   1.064   9.731  1.7814  1.8845 -0.4720
  126MPD1     C 1957   0.633   1.614  10.454 -0.3132 -0.1974 -0.2382
  126MPD1    C1 1958   0.677   1.696  10.347 -0.3888  0.4462 -0.1847
  126MPD1    C2 1959   0.644   1.655  10.215  0.3948 -0.8158 -0.0063
  126MPD1    C3 1960   0.594   1.530  10.191 -0.1723 -0.3261 -0.1360
  126MPD1    C4 1961   0.560   1.450  10.305 -0.0397 -0.0659  0.1039
  126MPD1    C5 1962   0.570   1.498  10.430 -0.3739  0.2475 -0.4857
  126MPD1     H 1963   0.674   1.717  10.132  1.1039 -1.0766  0.0515
  126MPD1    H1 1964   0.504   1.359  10.296 -1.3405  0.8744 -1.1989
  126MPD1    H2 1965   0.657   1.653  10.552  2.0355 -0.4304 -0.7239
  126MPD1    H3 1966   0.539   1.437  10.514  0.1111  0.9966  0.2351
  126MPD1     N 1967   0.603   1.487  10.055  0.2971  0.1038  0.1564
  126MPD1    H5 1968   0.624   1.558   9.986 -1.4217  0.5232  0.0731
  126MPD1    N1 1969   0.736   1.825  10.363 -0.9560 -0.0194  0.1549
  126MPD1    H6 1970   0.762   1.871  10.275  0.8375  0.7885  1.1104
  126MPD1    H7 1971   0.802   1.839  10.439 -3.1795 -0.6755  2.2234
  127TMC2    C1 1972   1.556   0.446  10.140 -0.1615 -0.1034  1.2994
  127TMC2    C2 1973   1.669   0.373  10.171  0.1831 -0.2490  0.0733
  127TMC2    C3 1974   1.670   0.294  10.281  0.3134  0.7604 -0.0079
  127TMC2    C4 1975   1.437   0.439  10.208  0.0779 -0.6054  0.2524
  127TMC2    C5 1976   1.446   0.351  10.324 -0.7041  0.2758  0.5278
  127TMC2    C6 1977   1.560   0.278  10.360  0.3034 -0.5315 -0.7587
  127TMC2     C 1978   1.581   0.557  10.045 -0.4267  0.0399 -0.2740
  127TMC2     O 1979   1.696   0.579  10.000 -0.0095 -0.7590  0.1627
  127TMC2     H 1980   1.751   0.379  10.100  1.0471  1.1571  1.1824
  127TMC2    H1 1981   1.351   0.503  10.189  0.6346 -0.0055 -0.2298
  127TMC2    H2 1982   1.575   0.238  10.460 -0.7031 -0.5149 -0.6040
  127TMC2    C7 1983   1.337   0.345  10.411 -0.8224  0.1970  0.0089
  127TMC2    C8 1984   1.795   0.251  10.344 -0.0515 -0.3935 -0.4899
  127TMC2    O1 1985   1.260   0.443  10.411  0.3996 -0.1703  0.1645
  127TMC2    O2 1986   1.793   0.157  10.419  0.0674 -0.1613 -0.2853
  127TMC2    O5 1987   1.872   0.364  10.365 -0.1487  0.0554  0.5386
  127TMC2    H5 1988   1.855   0.442  10.308  1.2124 -0.0701 -0.0498
  128MPD2     C 1989   1.339   0.791   9.895  0.5665 -0.5921 -1.0436
  128MPD2    C1 1990   1.452   0.712   9.894 -0.1985  0.1615  0.2867
  128MPD2    C2 1991   1.549   0.723   9.796  0.6890 -0.5788 -0.6376
  128MPD2    C3 1992   1.534   0.821   9.702  0.0699  0.3035 -0.0787
  128MPD2    C4 1993   1.416   0.905   9.707 -1.1376 -0.1488  0.5714
  128MPD2    C5 1994   1.328   0.894   9.808 -0.0932 -0.0149  0.3105
  128MPD2     H 1995   1.635   0.657   9.800  0.0286 -1.3346  1.3836
  128MPD2    H1 1996   1.383   0.975   9.631  1.2643 -0.3238 -0.6110
  128MPD2    H2 1997   1.276   0.788   9.984 -0.5312  0.4465 -1.7665
  128MPD2    H3 1998   1.243   0.960   9.822 -0.3339  0.0121 -1.2448
  128MPD2     N 1999   1.623   0.829   9.595  0.1547 -0.1629 -0.6828
  128MPD2    H5 2000   1.697   0.760   9.585  1.2797  0.8237  0.7497
  128MPD2    N1 2001   1.466   0.628  10.005 -0.5448 -0.2464 -0.2472
  128MPD2    H7 2002   1.384   0.625  10.063  1.6063  1.9363  2.8844
  129TMC2    C1 2003   1.396   0.293   1.548 -0.1873 -0.1090 -0.4618
  129TMC2    C2 2004   1.335   0.387   1.628 -0.3079 -0.1399 -0.5342
  129TMC2    C3 2005   1.272   0.343   1.737 -0.2712  0.9978  0.8402
  129TMC2    C4 2006   1.386   0.158   1.570  0.2912  0.1218 -0.7199
  129TMC2    C5 2007   1.319   0.118   1.681 -0.0623 -0.4932 -0.0248
  129TMC2    C6 2008   1.253   0.205   1.764  0.4270  0.1062  0.8760
  129TMC2     C 2009   1.459   0.334   1.419  0.2304  0.3106  0.1316
  129TMC2     O 2010   1.482   0.239   1.345  0.0267  0.5012 -0.2350
  129TMC2     H 2011   1.341   0.491   1.600 -1.2984 -1.1268 -4.4062
  129TMC2    H1 2012   1.420   0.089   1.495  1.6415 -1.8377  1.6991
  129TMC2    H2 2013   1.176   0.174   1.833 -0.9020 -1.1701 -1.1721
  129TMC2    C7 2014   1.232   0.002   1.646 -0.0860 -0.1619 -0.7493
  129TMC2    C8 2015   1.216   0.453   1.817 -0.5285 -0.0152 -0.4691
  129TMC2    O1 2016   1.113   0.020   1.663  0.2144  0.8235  0.2632
  129TMC2    O2 2017   1.191   0.564   1.767 -0.2240 -0.2973  0.1110
  129TMC2    O5 2018   1.133   0.399   1.902 -0.0181 -0.4752 -0.1573
  129TMC2    H5 2019   1.188   0.353   1.969  1.4484 -1.2949 -1.9191
  130MPD2     C 2020   1.604   0.472   1.202  0.4675 -0.2189  0.3308
  130MPD2    C1 2021   1.518   0.535   1.284 -0.3215  0.0921  0.4369
  130MPD2    C2 2022   1.501   0.667   1.266 -0.7971 -0.4249  0.3602
  130MPD2    C3 2023   1.566   0.745   1.174 -0.1871  0.4070 -0.1825
  130MPD2    C4 2024   1.658   0.680   1.098 -0.4075  1.1460  0.1955
  130MPD2    C5 2025   1.671   0.546   1.106 -0.4198  0.7616  0.3405
  130MPD2     H 2026   1.441   0.714   1.343  2.2766  0.8033  2.0261
  130MPD2    H1 2027   1.718   0.731   1.024  3.3870 -5.3226 -1.1682
  130MPD2    H2 2028   1.635   0.370   1.219  1.1722 -0.2507 -1.1689
  130MPD2    H3 2029   1.744   0.492   1.047  0.1921  0.2558  1.5561
  130MPD2     N 2030   1.532   0.878   1.155 -0.1620 -0.5908 -0.5982
  130MPD2    H5 2031   1.472   0.911   1.230  0.0686 -2.0243  0.2178
  130MPD2    N1 2032   1.460   0.467   1.399 -0.4784  0.5317 -0.0101
  130MPD2    H7 2033   1.435   0.528   1.476 -0.3105 -1.3327  1.5246
  131TMC2    C1 2034   4.578   0.953   9.361 -0.4435 -0.4950  0.4435
  131TMC2    C2 2035   4.681   0.883   9.420  0.4869  0.3309 -0.2081
  131TMC2    C3 2036   0.016   0.954   9.511  0.5282  0.0430 -0.1890
  131TMC2    C4 2037   4.554   1.085   9.383  0.7696  0.6846 -0.0014
  131TMC2    C5 2038   4.645   1.152   9.462  0.7861  0.3116  0.3887
  131TMC2    C6 2039   0.006   1.086   9.539  0.0230  0.8969  0.7230
  131TMC2     C 2040   4.520   0.886   9.241  0.5717 -0.3470  0.0227
  131TMC2     O 2041   4.567   0.775   9.212 -0.7863 -0.4757  0.3209
  131TMC2     H 2042   4.692   0.776   9.409 -0.9505  0.2324 -0.6664
  131TMC2    H1 2043   4.469   1.136   9.339  0.6626 -0.2726 -0.9264
  131TMC2    H2 2044   0.082   1.133   9.600 -1.1092  2.2644  1.0974
  131TMC2    C7 2045   4.648   1.294   9.450  0.0649  0.2323 -0.7251
  131TMC2    C8 2046   0.116   0.878   9.586  0.1399  0.2505 -0.4322
  131TMC2    O1 2047   4.604   1.334   9.345 -0.4528 -0.1402  0.8343
  131TMC2    O2 2048   0.130   0.760   9.574  0.3898 -0.6098  0.1806
  131TMC2    O5 2049   0.099   0.939   9.704 -0.2065 -0.0248  0.1085
  131TMC2    H5 2050   0.036   1.014   9.707 -1.1583 -0.7572 -1.4976
  132MPD2     C 2051   4.281   0.998   8.977  0.3102 -0.2483 -0.8820
  132MPD2    C1 2052   4.346   0.913   9.061 -0.4634  0.3637  0.4915
  132MPD2    C2 2053   4.303   0.786   9.062 -0.4947 -0.4748 -0.1693
  132MPD2    C3 2054   4.220   0.736   8.967  0.1077 -0.9619  0.8804
  132MPD2    C4 2055   4.159   0.820   8.878  0.4051 -0.2632 -0.1888
  132MPD2    C5 2056   4.194   0.952   8.880  0.3954  0.6774 -0.3474
  132MPD2     H 2057   4.360   0.726   9.133  0.8413  0.8747 -0.1061
  132MPD2    H1 2058   4.104   0.793   8.789  0.7323 -1.8883  0.1021
  132MPD2    H2 2059   4.309   1.102   8.963  0.5091 -0.2782 -0.7207
  132MPD2    H3 2060   4.159   1.025   8.808 -1.5722 -1.2124 -1.3033
  132MPD2     N 2061   4.201   0.596   8.950  0.3690 -0.3718 -0.1157
  132MPD2    H5 2062   4.256   0.539   9.013 -2.0056 -1.6903  0.7608
  132MPD2    N1 2063   4.433   0.963   9.162  0.5778 -0.1301  0.0168
  132MPD2    H7 2064   4.438   1.062   9.184  0.1830  0.4758 -2.6301
  133TMC2    C1 2065   3.563   3.520   9.584  0.5334  0.5884  0.0575
  133TMC2    C2 2066   3.688   3.505   9.625 -0.0664 -0.1677 -0.0392
  133TMC2    C3 2067   3.733   3.384   9.667 -0.6478 -0.6755  0.8918
  133TMC2    C4 2068   3.474   3.420   9.586 -0.0705  0.0843 -0.4766
  133TMC2    C5 2069   3.523   3.291   9.616  0.2617 -0.5069  0.1338
  133TMC2    C6 2070   3.651   3.272   9.661  0.3223 -0.7983  0.3677
  133TMC2     C 2071   3.515   3.653   9.552 -0.6636  0.2068 -0.2669
  133TMC2     O 2072   3.598   3.741   9.524  0.0095 -0.9382 -0.1217
  133TMC2     H 2073   3.742   3.598   9.617  0.6385 -0.6268 -0.6001
  133TMC2    H1 2074   3.371   3.438   9.554 -0.6739 -0.8517  0.9691
  133TMC2    H2 2075   3.686   3.170   9.674 -0.5830 -0.7791  3.0944
  133TMC2    C7 2076   3.428   3.187   9.614 -0.0110  0.6637 -0.6204
  133TMC2    C8 2077   3.870   3.346   9.701 -0.2324 -0.0276  0.0581
  133TMC2    O1 2078   3.320   3.202   9.556  0.0779 -0.1763 -0.5029
  133TMC2    O2 2079   3.912   3.231   9.712  0.5508 -0.3225 -0.0744
  133TMC2    O5 2080   3.953   3.452   9.669 -0.1439 -0.1522 -0.2059
  133TMC2    H5 2081   3.917   3.533   9.711  3.4224  1.2662  0.1087
  134MPD2     C 2082   3.187   3.779   9.644 -0.0039 -0.5003  0.1859
  134MPD2    C1 2083   3.310   3.784   9.582 -0.0351 -0.5833 -0.8640
  134MPD2    C2 2084   3.351   3.906   9.528 -0.1761 -0.0652 -0.3806
  134MPD2    C3 2085   3.263   4.011   9.513  0.0709 -0.2288  0.3023
  134MPD2    C4 2086   3.134   3.988   9.552  0.1377 -0.7639  0.4838
  134MPD2    C5 2087   3.098   3.873   9.613 -0.4939 -0.4861 -0.2426
  134MPD2     H 2088   3.454   3.912   9.495 -0.0887  0.2377 -0.0530
  134MPD2    H1 2089   3.054   4.061   9.537  2.2230  1.0485 -1.9104
  134MPD2    H2 2090   3.168   3.693   9.707  1.9887  1.3028  3.2714
  134MPD2    H3 2091   2.995   3.873   9.648 -0.0036 -2.0611  1.2184
  134MPD2     N 2092   3.300   4.130   9.447 -0.0203 -0.7368 -0.0328
  134MPD2    H5 2093   3.228   4.199   9.424 -0.3135 -0.5211  1.5500
  134MPD2    N1 2094   3.385   3.669   9.592 -0.8741  0.3187  0.0523
  134MPD2    H7 2095   3.340   3.590   9.637 -1.9434 -0.3015 -2.1169
  135TMC2    C1 2096   1.069   1.612  10.389 -0.1516 -0.0955 -0.2676
  135TMC2    C2 2097   0.998   1.539  10.292 -0.6749 -0.1802 -0.2210
  135TMC2    C3 2098   0.931   1.434  10.340  0.1438 -0.5211 -1.0015
  135TMC2    C4 2099   1.061   1.584  10.523 -0.6093  0.2274  0.7360
  135TMC2    C5 2100   0.979   1.489  10.570  0.4578 -0.5617 -0.2523
  135TMC2    C6 2101   0.916   1.408  10.476 -0.4312  1.0076  0.2980
  135TMC2     C 2102   1.112   1.739  10.352 -0.0059 -1.3399  0.2923
  135TMC2     O 2103   1.103   1.821  10.443 -0.1316  0.0722  0.6936
  135TMC2     H 2104   0.983   1.579  10.192 -0.1810  1.2676  0.2778
  135TMC2    H1 2105   1.115   1.649  10.590 -0.3367 -1.4480  2.1566
  135TMC2    H2 2106   0.852   1.323  10.500  0.5281  0.2816  0.3095
  135TMC2    C7 2107   0.913   1.527  10.695 -0.0546  0.2918 -0.9602
  135TMC2    C8 2108   0.904   1.328  10.244  0.1632  0.4682 -0.0038
  135TMC2    O1 2109   0.939   1.644  10.722 -0.4495 -0.0631 -0.3676
  135TMC2    O2 2110   0.840   1.229  10.280 -0.4302 -0.0563  0.2541
  135TMC2    O5 2111   1.010   1.316  10.163 -0.2758  0.2253  0.2492
  135TMC2    H5 2112   1.078   1.385  10.180 -0.7776  0.5984  0.7112
  136MPD2     C 2113   1.264   1.989  10.265 -0.5520 -0.3603  0.0515
  136MPD2    C1 2114   1.267   1.864  10.201  0.2015  0.4258  0.4588
  136MPD2    C2 2115   1.343   1.853  10.080  0.4102  0.3835 -0.1311
  136MPD2    C3 2116   1.414   1.969  10.043  0.4852 -0.1438 -0.5014
  136MPD2    C4 2117   1.410   2.090  10.105 -0.2183 -0.1447  0.0474
  136MPD2    C5 2118   1.345   2.094  10.226  0.2144 -0.2411 -0.3071
  136MPD2     H 2119   1.350   1.764  10.019  0.8783 -1.0386  2.0172
  136MPD2    H1 2120   1.464   2.178  10.072 -1.0903  1.1228  1.9878
  136MPD2    H2 2121   1.196   2.007  10.348  0.8143 -0.4782  1.1868
  136MPD2    H3 2122   1.341   2.185  10.286 -0.0752 -1.5609  1.6789
  136MPD2     N 2123   1.509   1.968   9.935 -0.1943 -0.4810 -0.1214
  136MPD2    H5 2124   1.558   2.054   9.910  0.6708 -0.9620 -0.1046
  136MPD2    N1 2125   1.186   1.751  10.239  0.3992 -0.2308 -0.1571
  136MPD2    H7 2126   1.187   1.664  10.187  1.8145  0.0827 -0.6596
  137TMC2    C1 2127   1.125   1.711   9.746 -0.1105  0.1041  0.1885
  137TMC2    C2 2128   1.183   1.739   9.624 -0.1390  0.0359  0.5596
  137TMC2    C3 2129   1.212   1.872   9.606  0.0367  0.3792  0.9749
  137TMC2    C4 2130   1.089   1.804   9.835 -0.4171  0.5730 -0.0364
  137TMC2    C5 2131   1.117   1.933   9.802 -0.3870  0.4748 -0.0262
  137TMC2    C6 2132   1.187   1.970   9.690  0.0151 -0.1340  0.8269
  137TMC2     C 2133   1.103   1.576   9.791 -0.2751 -0.0754 -0.3259
  137TMC2     O 2134   1.086   1.554   9.909 -0.7525  0.5070  0.1287
  137TMC2     H 2135   1.230   1.669   9.556 -0.4932 -0.2769  0.6376
  137TMC2    H1 2136   1.036   1.779   9.926 -0.8161  0.2122 -0.3629
  137TMC2    H2 2137   1.206   2.074   9.669  0.5550  0.1962  2.9975
  137TMC2    C7 2138   1.075   2.032   9.893  1.0778  1.0391  0.3582
  137TMC2    C8 2139   1.296   1.914   9.498 -0.9960 -0.3090 -0.6782
  137TMC2    O1 2140   1.132   2.135   9.919  0.5981 -1.0745  0.4385
  137TMC2    O2 2141   1.365   1.837   9.433 -1.2545 -0.5088 -0.1988
  137TMC2    O5 2142   1.223   2.015   9.449 -0.1367 -0.4117 -0.0721
  137TMC2    H5 2143   1.148   2.041   9.506  0.7687  1.3765  0.3018
  138MPD2     C 2144   1.065   1.270   9.590 -0.2563 -0.4224  0.2174
  138MPD2    C1 2145   1.074   1.345   9.702 -0.0874 -0.5908 -0.4926
  138MPD2    C2 2146   1.057   1.279   9.822  0.7392 -1.0918 -0.1227
  138MPD2    C3 2147   1.019   1.141   9.830  0.6983  0.1449 -0.6132
  138MPD2    C4 2148   1.014   1.076   9.705 -0.2500 -0.0060  0.0747
  138MPD2    C5 2149   1.042   1.139   9.589 -0.6279  0.5490  0.5513
  138MPD2     H 2150   1.071   1.331   9.916 -0.5864 -0.4011 -0.3170
  138MPD2    H1 2151   0.984   0.972   9.699  1.2339 -0.4339  0.2265
  138MPD2    H2 2152   1.081   1.313   9.492 -2.7425 -1.3773 -0.6084
  138MPD2    H3 2153   1.050   1.082   9.497 -0.2339  1.4128  0.0551
  138MPD2     N 2154   1.003   1.073   9.953  0.1207  0.2244 -0.1575
  138MPD2    H5 2155   1.020   1.130  10.035 -0.7708  1.3241 -0.7215
  138MPD2    N1 2156   1.114   1.482   9.689 -0.2328 -0.0412  0.2728
  138MPD2    H7 2157   1.120   1.514   9.593  0.9512  1.2214  0.7753
  139TMC2    C1 2158   1.840   3.725  13.150 -0.0001 -0.4138 -0.1714
  139TMC2    C2 2159   1.850   3.811  13.048 -0.1940 -0.0464  0.0753
  139TMC2    C3 2160   1.738   3.878  13.012 -0.1471  0.6180 -0.4064
  139TMC2    C4 2161   1.720   3.717  13.215 -0.6934 -0.8685  0.4707
  139TMC2    C5 2162   1.612   3.779  13.180 -0.5609  0.2099 -0.3407
  139TMC2    C6 2163   1.615   3.865  13.077 -0.3002  0.2599 -0.3925
  139TMC2     C 2164   1.967   3.676  13.216 -0.0683 -0.0017  0.5949
  139TMC2     O 2165   2.066   3.729  13.170  0.6226  0.3576  0.2428
  139TMC2     H 2166   1.946   3.820  12.999 -0.3934  0.6666 -0.1918
  139TMC2    H1 2167   1.709   3.653  13.301  1.4207  0.3508  1.6425
  139TMC2    H2 2168   1.526   3.909  13.034  0.0532  0.8254 -0.5506
  139TMC2    C7 2169   1.485   3.747  13.232  0.3557  0.3833 -0.1218
  139TMC2    C8 2170   1.775   3.992  12.935 -0.8242  0.1788 -0.2378
  139TMC2    O1 2171   1.419   3.843  13.241  0.0897 -0.6038  0.4943
  139TMC2    O2 2172   1.835   3.993  12.826 -0.9169  0.0559  0.0828
  139TMC2    O5 2173   1.703   4.095  12.992  0.4685  0.2337 -0.1296
  139TMC2    H5 2174   1.692   4.085  13.089 -2.8980 -0.1629 -0.5533
  140MPD2     C 2175   1.983   3.476  13.524  0.0017  0.0124  0.4168
  140MPD2    C1 2176   2.034   3.526  13.409  0.6440 -0.1388  0.2581
  140MPD2    C2 2177   2.172   3.532  13.383  0.2792  0.0081  0.1951
  140MPD2    C3 2178   2.254   3.476  13.476  0.6634  0.1713 -0.1825
  140MPD2    C4 2179   2.201   3.443  13.598  0.6113  0.4230  0.0375
  140MPD2    C5 2180   2.064   3.443  13.620  0.0446  0.3849 -0.6385
  140MPD2     H 2181   2.211   3.561  13.286 -0.2487 -2.1567 -0.6564
  140MPD2    H1 2182   2.265   3.412  13.680 -0.5733 -0.3926  0.6488
  140MPD2    H2 2183   1.876   3.467  13.542 -0.3894 -0.9231 -2.3574
  140MPD2    H3 2184   2.031   3.399  13.714 -1.7641 -1.4205 -2.1066
  140MPD2     N 2185   2.395   3.453  13.456  0.0939 -0.0471  0.1862
  140MPD2    H5 2186   2.438   3.390  13.523  2.6131  2.4386  0.9200
  140MPD2    N1 2187   1.941   3.585  13.323  0.1533  0.1773 -0.4431
  140MPD2    H7 2188   1.843   3.560  13.335  0.3496 -0.3754  0.0027
  141TMC2    C1 2189   2.373   0.559  13.516 -0.3663  0.2520 -0.0462
  141TMC2    C2 2190   2.398   0.492  13.631  0.0791 -0.9902 -0.8488
  141TMC2    C3 2191   2.402   0.557  13.748  0.3804  0.0099  0.4127
  141TMC2    C4 2192   2.361   0.693  13.512  0.4029  0.9364 -0.2069
  141TMC2    C5 2193   2.398   0.757  13.627 -0.3447 -0.1642  0.7277
  141TMC2    C6 2194   2.414   0.691  13.746 -0.5857 -0.5034 -0.2254
  141TMC2     C 2195   2.394   0.490  13.392  0.4385 -0.5719  1.0050
  141TMC2     O 2196   2.428   0.560  13.301 -0.4190 -0.5608  0.0654
  141TMC2     H 2197   2.405   0.384  13.640  0.0933 -0.7978  1.4483
  141TMC2    H1 2198   2.345   0.758  13.427 -0.3309 -0.0348 -0.8169
  141TMC2    H2 2199   2.405   0.739  13.843  0.7741 -0.1234 -0.2886
  141TMC2    C7 2200   2.464   0.891  13.607  0.5465 -0.5018  0.3251
  141TMC2    C8 2201   2.372   0.491  13.873 -0.3853 -0.6302  0.1031
  141TMC2    O1 2202   2.455   0.945  13.498 -0.6063 -0.1401 -0.3538
  141TMC2    O2 2203   2.413   0.522  13.985 -0.2332  0.0264 -0.0642
  141TMC2    O5 2204   2.281   0.398  13.840  0.0548 -0.2356  0.2512
  141TMC2    H5 2205   2.237   0.415  13.754 -0.4254  1.3848  0.8007
  142TMC2    C1 2206   0.333   3.815  10.429  0.3491  0.1567 -0.2087
  142TMC2    C2 2207   0.347   3.833  10.569  0.3565  0.4700 -0.4137
  142TMC2    C3 2208   0.379   3.964  10.606 -0.1262 -0.0339 -0.5897
  142TMC2    C4 2209   0.336   3.916  10.340  0.1725 -0.9869 -0.6062
  142TMC2    C5 2210   0.352   4.045  10.388 -0.0483 -0.5556 -0.4524
  142TMC2    C6 2211   0.374   4.073  10.521 -0.4282  0.5957  1.0277
  142TMC2     C 2212   0.278   3.688  10.375  0.8111 -0.6913 -0.0101
  142TMC2     O 2213   0.226   3.677  10.264  0.1561 -0.2017 -0.0713
  142TMC2     H 2214   0.333   3.753  10.641 -2.2996  2.6840  1.5136
  142TMC2    H1 2215   0.306   3.899  10.237 -1.0530 -1.2843 -0.2055
  142TMC2    H2 2216   0.418   4.167  10.552 -0.0308  1.0633 -0.9257
  142TMC2    C7 2217   0.321   4.155  10.291  1.1889  0.6668  0.2502
  142TMC2    C8 2218   0.393   3.999  10.742 -0.1406  0.8311  0.0239
  142TMC2    O1 2219   0.306   4.128  10.172  0.3460  0.0122 -0.1001
  142TMC2    O2 2220   0.336   4.101  10.772  1.0431 -0.3258 -0.0012
  142TMC2    O5 2221   0.389   3.886  10.816  0.3832  0.4634 -0.0047
  142TMC2    H5 2222   0.462   3.830  10.781  0.1201  0.2484 -0.2032
  143MPD2     C 2223   0.231   3.183  10.435  0.1674  0.3694 -0.4687
  143MPD2    C1 2224   0.170   3.265  10.343 -0.3678 -0.1436 -0.4472
  143MPD2    C2 2225   0.210   3.394  10.341 -0.0806 -0.3434 -0.0674
  143MPD2    C3 2226   0.302   3.450  10.435  0.5834 -0.4704 -0.1532
  143MPD2    C4 2227   0.367   3.363  10.519 -0.4893  0.8471  0.1189
  143MPD2    C5 2228   0.328   3.231  10.515  0.4924  0.0312 -0.1984
  143MPD2     H 2229   0.150   3.465  10.286 -0.0328 -1.2197 -1.2395
  143MPD2    H1 2230   0.437   3.397  10.594  2.3861  0.1460 -2.2502
  143MPD2    H2 2231   0.203   3.078  10.442 -0.6676  0.7895  2.5042
  143MPD2    H3 2232   0.372   3.167  10.591 -0.9800 -0.7158  0.0383
  143MPD2     N 2233   0.327   3.584  10.457 -0.7044  0.1985  0.2118
  143MPD2    H5 2234   0.397   3.618  10.522 -0.3106  1.4867 -0.8789
  143MPD2    N1 2235   0.062   3.216  10.275 -0.4257  0.3296  0.3779
  143MPD2    H7 2236   0.040   3.119  10.296  1.3875 -0.1486  0.1268
  144TMC2    C1 2237   3.045   2.670   0.731  0.6490  0.5442  0.5277
  144TMC2    C2 2238   3.104   2.547   0.718 -0.5723  0.9108  0.5613
  144TMC2    C3 2239   3.239   2.531   0.714 -1.1085  0.4475 -0.3594
  144TMC2    C4 2240   3.127   2.780   0.738  0.2314  0.0374  0.0486
  144TMC2    C5 2241   3.263   2.760   0.749 -0.8211 -0.1125  0.5423
  144TMC2    C6 2242   3.322   2.636   0.722 -0.2925 -0.7090 -0.4091
  144TMC2     C 2243   2.906   2.682   0.702 -0.2748 -0.1220 -0.5127
  144TMC2     O 2244   2.850   2.583   0.661  0.3315  0.0597  0.5126
  144TMC2     H 2245   3.047   2.461   0.684  1.3648  0.3060 -1.1442
  144TMC2    H1 2246   3.086   2.880   0.727 -0.6030 -0.1668  1.3725
  144TMC2    H2 2247   3.429   2.621   0.718 -0.1373  0.3097 -0.0188
  144TMC2    C7 2248   3.354   2.873   0.745 -0.5862 -0.4319  0.4121
  144TMC2    C8 2249   3.288   2.401   0.669  0.3071  0.4227  0.0826
  144TMC2    O1 2250   3.467   2.857   0.696  0.3872 -0.1161 -0.0869
  144TMC2    O2 2251   3.231   2.298   0.710  0.4942  0.4573 -0.4073
  144TMC2    O5 2252   3.370   2.416   0.565 -0.4467 -0.1956 -0.2741
  144TMC2    H5 2253   3.386   2.509   0.539  0.6435 -0.2170  0.3339
  145MPD2     C 2254   2.649   2.943   0.342  0.4161  0.2084  0.1201
  145MPD2    C1 2255   2.650   2.809   0.361 -0.1014  0.3957  0.6572
  145MPD2    C2 2256   2.728   2.761   0.468 -0.0635 -0.1210  0.0443
  145MPD2    C3 2257   2.787   2.845   0.564 -0.4728  0.0944  1.0925
  145MPD2    C4 2258   2.777   2.987   0.539 -0.5109 -0.2038 -0.4585
  145MPD2    C5 2259   2.709   3.025   0.433 -0.1319  0.0839 -0.0619
  145MPD2     H 2260   2.737   2.654   0.482 -1.8526 -0.4160 -1.0731
  145MPD2    H1 2261   2.819   3.067   0.599 -1.7264 -0.2356  0.4527
  145MPD2    H2 2262   2.609   2.995   0.256  1.3058  0.4806 -0.1215
  145MPD2    H3 2263   2.700   3.132   0.417 -0.6674 -0.3804 -2.7452
  145MPD2     N 2264   2.869   2.811   0.674 -0.2091 -0.3190 -0.0474
  145MPD2    H5 2265   2.912   2.890   0.720 -1.1947  0.2243 -0.0398
  145MPD2    N1 2266   2.586   2.718   0.273 -0.3256 -0.4041 -0.6532
  145MPD2    H7 2267   2.593   2.618   0.290  2.9836  0.4406  2.7223
  146TMC2    C1 2268   4.449   1.168  12.377  0.2334 -0.4186 -1.3987
  146TMC2    C2 2269   4.442   1.171  12.241  0.2119 -0.3479  0.5893
  146TMC2    C3 2270   4.561   1.210  12.181  0.3063 -0.4032  0.2281
  146TMC2    C4 2271   4.559   1.193  12.450 -0.0422  0.8521  0.7924
  146TMC2    C5 2272   4.671   1.228  12.383  0.1395  0.1374  0.1738
  146TMC2    C6 2273   4.676   1.241  12.250  0.1299  0.0375  0.0975
  146TMC2     C 2274   4.320   1.166  12.442  0.4294 -1.2132 -0.1928
  146TMC2     O 2275   4.227   1.124  12.376  0.1868  0.1588  0.1592
  146TMC2     H 2276   4.354   1.165  12.178  0.1169  1.5088  0.5352
  146TMC2    H1 2277   4.557   1.191  12.558  3.0624  0.7442  0.8503
  146TMC2    H2 2278   0.020   1.293  12.195 -0.0405 -0.7467 -0.8958
  146TMC2    C7 2279   0.020   1.321  12.455 -0.4559 -0.7702  0.1518
  146TMC2    C8 2280   4.570   1.188  12.038 -0.4902 -0.0041  0.6914
  146TMC2    O1 2281   0.061   1.423  12.399 -0.2027  0.8429  0.1936
  146TMC2    O2 2282   4.493   1.117  11.977  0.2445 -0.7091  0.2941
  146TMC2    O5 2283   4.612   1.304  11.997  0.7898 -0.2480  0.2252
  146TMC2    H5 2284   4.624   1.368  12.070  0.5366  0.8768 -0.7222
  147MPD2     C 2285   0.207   1.445  12.920 -0.2577  0.1008 -0.0851
  147MPD2    C1 2286   0.171   1.315  12.917 -0.4917  0.5286 -0.0734
  147MPD2    C2 2287   0.118   1.263  12.798  0.4069 -0.6753 -0.2748
  147MPD2    C3 2288   0.098   1.345  12.691  0.0628 -0.3580 -0.0583
  147MPD2    C4 2289   0.128   1.480  12.699  0.7778 -0.2444  0.0180
  147MPD2    C5 2290   0.187   1.531  12.813 -0.4649  0.6033 -0.4590
  147MPD2     H 2291   0.093   1.157  12.795 -0.7207 -0.3147 -3.5362
  147MPD2    H1 2292   0.112   1.551  12.619  1.4361 -1.1736 -0.9293
  147MPD2    H2 2293   0.251   1.483  13.012  0.6860  0.6452 -0.7482
  147MPD2    H3 2294   0.196   1.639  12.814 -0.9436  0.6488 -1.1159
  147MPD2     N 2295   0.043   1.273  12.586  0.1666  0.2455  0.2814
  147MPD2    H5 2296   0.012   1.179  12.604  0.9193  0.7084  3.8818
  147MPD2    N1 2297   0.200   1.238  13.031  0.2081  0.3757  0.2828
  147MPD2    H7 2298   0.264   1.277  13.100 -0.0213  2.4973 -0.7172
  148TMC2    C1 2299   4.348   0.210  10.525  0.1780  0.2130 -0.2370
  148TMC2    C2 2300   4.386   0.302  10.620 -0.5014 -0.5128 -0.0670
  148TMC2    C3 2301   4.379   0.270  10.750  0.8123 -0.3913  0.3592
  148TMC2    C4 2302   4.284   0.098  10.567  0.4975 -0.4947  0.1993
  148TMC2    C5 2303   4.257   0.080  10.698 -0.0280  0.2228  0.5593
  148TMC2    C6 2304   4.311   0.162  10.796  0.0578 -0.0195 -0.0488
  148TMC2     C 2305   4.297   0.255  10.399  0.1693  0.5045 -0.1921
  148TMC2     O 2306   4.286   0.376  10.396 -0.2255  0.9985  0.1142
  148TMC2     H 2307   4.439   0.391  10.588 -1.7414  0.6100  0.9718
  148TMC2    H1 2308   4.238   0.033  10.493  2.9865 -3.2324  1.0887
  148TMC2    H2 2309   4.301   0.151  10.903 -1.6112  1.3322 -0.0694
  148TMC2    C7 2310   4.244   4.680  10.742 -0.4710  0.4372 -0.2319
  148TMC2    C8 2311   4.453   0.358  10.837  0.2965  0.1142 -0.1878
  148TMC2    O1 2312   4.275   4.589  10.669  0.4410 -0.3412  0.2857
  148TMC2    O2 2313   4.467   0.472  10.802  0.3885 -0.2736 -0.6218
  148TMC2    O5 2314   4.488   0.297  10.951 -0.2782 -0.3622 -0.2304
  148TMC2    H5 2315   4.475   0.200  10.945 -0.4351 -0.2965 -1.0519
  149MPD2     C 2316   4.187   0.301  10.135  0.8863 -0.2113 -0.3090
  149MPD2    C1 2317   4.232   0.179  10.166 -0.1254 -0.5529  0.9620
  149MPD2    C2 2318   4.209   0.076  10.079  0.0696  0.1639  0.1081
  149MPD2    C3 2319   4.136   0.088   9.956  0.4154  0.3360 -0.2694
  149MPD2    C4 2320   4.088   0.215   9.928  0.2797  0.1383 -0.6164
  149MPD2    C5 2321   4.119   0.322  10.010  0.1106 -0.2447  0.8327
  149MPD2     H 2322   4.234   4.709  10.108 -1.8511 -0.3800 -0.1628
  149MPD2    H1 2323   4.026   0.231   9.841 -1.2805  0.2453  0.5088
  149MPD2    H2 2324   4.206   0.391  10.192  1.0852 -0.4172 -0.0524
  149MPD2    H3 2325   4.074   0.417   9.985  0.2728 -0.4240 -0.1516
  149MPD2     N 2326   4.077   4.712   9.889 -0.8110  0.0573  0.2501
  149MPD2    H5 2327   4.009   0.007   9.819  0.3732 -0.4277 -1.1151
  149MPD2    N1 2328   4.283   0.154  10.301  0.1815 -0.4323 -0.5206
  149MPD2    H7 2329   4.316   0.060  10.322 -0.4687 -0.5535 -0.0554
  150TMC2    C1 2330   1.614   4.483  12.441 -1.3906 -0.3951  0.4010
  150TMC2    C2 2331   1.534   4.577  12.503  0.3082  0.1946  0.2575
  150TMC2    C3 2332   1.597   4.690  12.534 -0.3306 -0.1690 -0.6721
  150TMC2    C4 2333   1.746   4.492  12.429 -0.2606 -0.7210  0.6320
  150TMC2    C5 2334   1.800   4.611  12.469 -0.2035 -0.6463 -0.4391
  150TMC2    C6 2335   1.727   4.720  12.518  0.2569  0.9948 -0.5770
  150TMC2     C 2336   1.555   4.359  12.400  1.0140  0.2162  0.6203
  150TMC2     O 2337   1.644   4.274  12.395 -0.4127  0.8664  0.2077
  150TMC2     H 2338   1.430   4.554  12.523  0.3997 -0.9734 -0.6327
  150TMC2    H1 2339   1.798   4.421  12.366  1.2173 -0.2434  1.3143
  150TMC2    H2 2340   1.762   0.087  12.534  1.7074  0.1287  1.7527
  150TMC2    C7 2341   1.943   4.628  12.488 -0.4802 -0.5226  0.1447
  150TMC2    C8 2342   1.522   0.056  12.613 -0.3934  0.2603  0.4301
  150TMC2    O1 2343   1.994   0.007  12.483 -0.0624  0.5747 -0.7450
  150TMC2    O2 2344   1.502   0.167  12.570 -0.3858  0.2094  0.0730
  150TMC2    O5 2345   1.442   4.719  12.694  0.0939 -0.2215 -0.4670
  150TMC2    H5 2346   1.484   4.630  12.701  1.8048  0.5062 -1.3075
  151MPD2     C 2347   1.222   3.982  12.299  0.1388 -0.4248  0.3003
  151MPD2    C1 2348   1.159   4.110  12.280 -0.0438 -0.0283 -0.5517
  151MPD2    C2 2349   1.232   4.224  12.324  0.4295 -0.0998 -0.2547
  151MPD2    C3 2350   1.359   4.219  12.373 -0.1310  0.3196 -0.5112
  151MPD2    C4 2351   1.422   4.095  12.382  0.2850  0.4521 -0.2027
  151MPD2    C5 2352   1.354   3.978  12.350  0.8399 -0.1754  0.6204
  151MPD2     H 2353   1.181   4.320  12.311  1.6904  1.0729  3.5055
  151MPD2    H1 2354   1.522   4.080  12.421 -0.4061 -0.0410  1.4059
  151MPD2    H2 2355   1.175   3.891  12.262  1.4140 -1.4518  1.2056
  151MPD2    H3 2356   1.412   3.887  12.357 -0.3605 -0.9729  0.3399
  151MPD2     N 2357   1.419   4.347  12.386 -0.2645  0.3392 -0.8667
  151MPD2    H5 2358   1.363   4.430  12.364 -0.3423  0.0971 -1.5878
  151MPD2    N1 2359   1.028   4.102  12.225 -0.4969  0.1074  0.0021
  151MPD2    H7 2360   0.998   4.006  12.208 -1.4306 -0.2615  3.5452
  152TMC2    C1 2361   1.299   4.223  12.721 -0.0062 -0.0717 -0.1318
  152TMC2    C2 2362   1.351   4.099  12.684 -0.2082 -0.1026 -0.0958
  152TMC2    C3 2363   1.483   4.089  12.693  0.1440  0.3466 -0.0913
  152TMC2    C4 2364   1.380   4.322  12.765  0.0777  0.0636  0.0711
  152TMC2    C5 2365   1.513   4.301  12.786  0.7472  0.2201  1.0461
  152TMC2    C6 2366   1.561   4.187  12.735  0.3332 -0.3250  0.6232
  152TMC2     C 2367   1.166   4.265  12.690  0.2885 -0.1260  0.1114
  152TMC2     O 2368   1.141   4.386  12.709  0.2318  0.3107  0.6400
  152TMC2     H 2369   1.291   4.024  12.633  2.0624 -2.1290  0.2276
  152TMC2    H1 2370   1.350   4.423  12.790 -0.5563 -0.1365  0.1033
  152TMC2    H2 2371   1.668   4.171  12.744  0.2661 -0.4758  1.2235
  152TMC2    C7 2372   1.607   4.408  12.805 -0.7960  0.0566 -0.6479
  152TMC2    C8 2373   1.538   3.961  12.667  0.3187  0.0250  0.1580
  152TMC2    O1 2374   1.565   4.520  12.789 -0.0723 -0.4936 -0.2375
  152TMC2    O2 2375   1.458   3.868  12.651 -0.6088  0.2880 -0.5965
  152TMC2    O5 2376   1.660   3.978  12.598 -0.3817 -0.6197 -0.3944
  152TMC2    H5 2377   1.716   4.050  12.634 -0.8390  0.1559 -1.2247
  153MPD2     C 2378   0.898   4.058  12.547 -0.3991 -0.2909 -0.2368
  153MPD2    C1 2379   0.964   4.172  12.580 -0.1115  0.4587 -0.4572
  153MPD2    C2 2380   0.899   4.288  12.560  0.2625 -0.3387 -0.4378
  153MPD2    C3 2381   0.773   4.292  12.501 -0.0055  0.2101  0.3177
  153MPD2    C4 2382   0.707   4.178  12.470 -0.3907 -0.3851  0.4798
  153MPD2    C5 2383   0.772   4.058  12.497 -0.4459 -0.0014  0.6473
  153MPD2     H 2384   0.938   4.382  12.594 -0.7538 -0.8957  2.2672
  153MPD2    H1 2385   0.605   4.179  12.433  0.3153 -1.9009 -1.5485
  153MPD2    H2 2386   0.942   3.960  12.561 -2.0745 -0.8551  1.2152
  153MPD2    H3 2387   0.732   3.959  12.475 -1.1265  0.8136 -1.7720
  153MPD2     N 2388   0.723   4.423  12.482 -0.1032 -0.1742 -0.5322
  153MPD2    H5 2389   0.790   4.495  12.508  0.2558 -0.0980 -1.6729
  153MPD2    N1 2390   1.092   4.161  12.642  0.1686 -0.0862 -0.2463
  153MPD2    H7 2391   1.136   4.069  12.650  2.3563  0.9914  0.1788
  154TMC2    C1 2392   2.728   3.788   0.496 -0.0783 -0.4747 -0.3525
  154TMC2    C2 2393   2.855   3.753   0.540  0.4891  0.7036  0.4561
  154TMC2    C3 2394   2.890   3.620   0.552 -0.4879  0.3889 -0.3150
  154TMC2    C4 2395   2.650   3.701   0.438  0.0050 -0.2395  0.0778
  154TMC2    C5 2396   2.689   3.569   0.443 -0.1204 -0.1140  0.4760
  154TMC2    C6 2397   2.804   3.527   0.508  0.1568  0.2558  0.2000
  154TMC2     C 2398   2.682   3.921   0.540  0.6705  0.1128  0.3121
  154TMC2     O 2399   2.735   3.989   0.624 -0.4247 -0.1920 -0.0595
  154TMC2     H 2400   2.923   3.825   0.584  1.7373 -0.0485 -0.2145
  154TMC2    H1 2401   2.548   3.727   0.415 -0.7903 -1.5610  2.1314
  154TMC2    H2 2402   2.829   3.422   0.504  2.2767  0.7969 -1.0099
  154TMC2    C7 2403   2.635   3.478   0.352 -0.1761 -0.2584 -0.4099
  154TMC2    C8 2404   3.013   3.579   0.613 -0.3190  0.4230 -0.0876
  154TMC2    O1 2405   2.669   3.364   0.355  0.7222 -0.0084  0.3148
  154TMC2    O2 2406   3.024   3.487   0.694  0.0196 -0.1186 -0.8821
  154TMC2    O5 2407   3.119   3.662   0.582 -0.3533  0.0735  0.1398
  154TMC2    H5 2408   3.101   3.725   0.508  3.3105  1.3119  0.3446
  155MPD2     C 2409   2.416   4.103   0.369  0.1502 -0.6992  0.7655
  155MPD2    C1 2410   2.510   4.086   0.469 -0.4873 -0.2152  0.0408
  155MPD2    C2 2411   2.531   4.186   0.566  0.3682  0.4403 -0.4858
  155MPD2    C3 2412   2.446   4.297   0.561 -0.0837  0.1692  0.0562
  155MPD2    C4 2413   2.358   4.321   0.456 -0.1201 -0.1000 -0.6907
  155MPD2    C5 2414   2.343   4.220   0.361 -0.6342  0.1548  0.1396
  155MPD2     H 2415   2.591   4.181   0.656 -1.2172  1.0996  0.5988
  155MPD2    H1 2416   2.300   4.412   0.443  0.2127  0.0858 -0.8653
  155MPD2    H2 2417   2.388   4.028   0.296 -1.8749 -0.2620  1.1113
  155MPD2    H3 2418   2.269   4.225   0.282 -2.3060  2.4470  1.8490
  155MPD2     N 2419   2.472   4.404   0.650 -0.1411  0.2939 -0.2597
  155MPD2    H5 2420   2.556   4.392   0.706  0.2914  1.7366 -0.5925
  155MPD2    N1 2421   2.576   3.960   0.466 -0.2440  0.3800  0.3172
  155MPD2    H7 2422   2.541   3.897   0.394  1.7167 -0.0443 -0.2432
  156TMC2    C1 2423   1.541   1.439  11.054  0.0049  0.2582  0.8373
  156TMC2    C2 2424   1.666   1.411  10.997 -0.2249  0.5276  1.1464
  156TMC2    C3 2425   1.702   1.491  10.891  0.0423  0.0823 -0.6429
  156TMC2    C4 2426   1.448   1.528  11.001 -0.1696 -0.4218 -0.2552
  156TMC2    C5 2427   1.495   1.607  10.897  0.8959 -0.8681  0.1956
  156TMC2    C6 2428   1.614   1.583  10.834 -0.4578 -0.2118 -0.5497
  156TMC2     C 2429   1.524   1.394  11.195 -0.0607  0.7244 -0.2282
  156TMC2     O 2430   1.417   1.420  11.246 -0.2888  0.1926 -0.3963
  156TMC2     H 2431   1.722   1.323  11.027  1.8871  1.2436 -0.7368
  156TMC2    H1 2432   1.354   1.550  11.050  0.3159  0.8483  0.1152
  156TMC2    H2 2433   1.648   1.639  10.748 -2.2212  0.2449 -0.9403
  156TMC2    C7 2434   1.453   1.740  10.884  0.1931 -0.5913  0.3992
  156TMC2    C8 2435   1.818   1.453  10.825 -0.4578 -0.0704 -0.2251
  156TMC2    O1 2436   1.538   1.823  10.850 -0.0953 -0.0530  0.1369
  156TMC2    O2 2437   1.828   1.464  10.701 -0.2487  0.0814 -0.0469
  156TMC2    O5 2438   1.917   1.414  10.911 -0.8281 -0.9958  0.2331
  156TMC2    H5 2439   1.895   1.448  11.000 -2.0964 -1.9632  0.2825
  157MPD2     C 2440   1.771   1.260  11.428 -1.2278  0.1637  0.0306
  157MPD2    C1 2441   1.677   1.346  11.368 -0.2815  0.2241 -0.1205
  157MPD2    C2 2442   1.643   1.459  11.440  0.0374 -0.5976  0.3941
  157MPD2    C3 2443   1.704   1.485  11.557  0.4704 -0.2332  0.1198
  157MPD2    C4 2444   1.803   1.406  11.607 -0.7208 -0.5539  0.3158
  157MPD2    C5 2445   1.831   1.288  11.540  0.2616  0.4286  0.5456
  157MPD2     H 2446   1.581   1.540  11.404 -0.2979 -1.0389 -0.0235
  157MPD2    H1 2447   1.861   1.433  11.694  0.3583  1.6377 -1.0748
  157MPD2    H2 2448   1.795   1.173  11.369  1.2629 -0.5720  2.1323
  157MPD2    H3 2449   1.910   1.219  11.567 -0.0808 -0.0642  0.2924
  157MPD2     N 2450   1.658   1.610  11.613 -0.2305 -1.1485 -0.1662
  157MPD2    H5 2451   1.588   1.661  11.560 -0.2561 -1.4439 -0.4102
  157MPD2    N1 2452   1.629   1.323  11.242  0.6475 -0.1468  0.1414
  157MPD2    H7 2453   1.673   1.248  11.189 -1.8098 -0.5815 -1.2574
  158TMC2    C1 2454   1.552   0.190  13.321 -0.6647 -0.3402 -0.0755
  158TMC2    C2 2455   1.565   0.322  13.276 -0.4041  0.5126 -1.2604
  158TMC2    C3 2456   1.452   0.392  13.262 -0.0211 -0.6389 -0.6719
  158TMC2    C4 2457   1.431   0.126  13.322  0.0205 -0.3771 -0.9287
  158TMC2    C5 2458   1.321   0.197  13.283 -0.0808  0.2396 -0.6615
  158TMC2    C6 2459   1.328   0.336  13.257  0.5990 -1.0227 -0.3232
  158TMC2     C 2460   1.677   0.145  13.377  0.8855 -0.9162  0.3917
  158TMC2     O 2461   1.772   0.221  13.367  0.0256  0.4190 -0.7578
  158TMC2     H 2462   1.660   0.374  13.270  0.1967 -0.3911  0.3522
  158TMC2    H1 2463   1.425   0.023  13.356 -4.3209  0.6507  1.4345
  158TMC2    H2 2464   1.246   0.400  13.227  1.6099 -0.0834 -1.1001
  158TMC2    C7 2465   1.189   0.142  13.273  0.7507 -0.1466 -0.5347
  158TMC2    C8 2466   1.463   0.536  13.256 -0.7253  0.4780 -0.1731
  158TMC2    O1 2467   1.101   0.215  13.243  0.3321  0.3045  0.2974
  158TMC2    O2 2468   1.575   0.585  13.242 -0.2946 -0.1213 -0.7460
  158TMC2    O5 2469   1.380   0.574  13.353 -0.3582  0.5514  0.5186
  158TMC2    H5 2470   1.310   0.511  13.381  1.0969 -1.3985 -0.2425
  159MPD2     C 2471   1.999   4.567  13.629  0.7329 -0.8980  0.0239
  159MPD2    C1 2472   1.871   4.518  13.642  0.5387  0.5944  0.1833
  159MPD2    C2 2473   1.770   4.582  13.580 -0.5443  0.0160  0.1036
  159MPD2    C3 2474   1.785   4.703  13.509 -0.6684  0.1927 -0.2719
  159MPD2    C4 2475   1.907   0.027  13.509 -0.9102  0.4121 -0.5679
  159MPD2    C5 2476   2.012   4.687  13.562 -0.2358  0.5768  0.1974
  159MPD2     H 2477   1.671   4.538  13.591 -1.0055  1.0015 -0.1500
  159MPD2    H1 2478   1.947   0.110  13.452  1.4332  2.0956  3.5273
  159MPD2    H2 2479   2.085   4.524  13.679 -0.0459 -0.4492  1.7565
  159MPD2    H3 2480   2.109   4.728  13.540  0.7430 -1.7151  0.2125
  159MPD2     N 2481   1.675   0.024  13.441  0.0138  0.3983  0.0313
  159MPD2    H5 2482   1.585   4.713  13.447  0.8430 -1.2633  0.0641
  159MPD2    N1 2483   1.854   4.406  13.731  0.3062  0.0961 -0.4875
  159MPD2    H7 2484   1.939   4.370  13.772 -0.3886 -1.8799 -0.7632
  160TMC2    C1 2485   1.527   2.947   1.093  0.2356 -0.5191  0.3480
  160TMC2    C2 2486   1.512   2.814   1.127  0.4502  0.3008  0.2476
  160TMC2    C3 2487   1.608   2.722   1.085 -0.0279  0.8851 -0.0512
  160TMC2    C4 2488   1.641   2.986   1.032  0.0857 -0.1293  0.0620
  160TMC2    C5 2489   1.745   2.899   1.015 -0.0883  0.3522  0.7236
  160TMC2    C6 2490   1.729   2.767   1.038  0.0192  0.3572 -0.7625
  160TMC2     C 2491   1.425   3.035   1.122 -0.3928 -0.2133 -0.1051
  160TMC2     O 2492   1.349   3.012   1.218  0.6715  0.1315 -0.4779
  160TMC2     H 2493   1.422   2.785   1.181  0.2394  1.5535  0.5740
  160TMC2    H1 2494   1.656   3.091   1.008  1.7287 -0.2909  0.3986
  160TMC2    H2 2495   1.800   2.692   1.002 -1.6645 -1.4347 -0.3318
  160TMC2    C7 2496   1.856   2.946   0.934 -0.7020 -0.0657 -0.1875
  160TMC2    C8 2497   1.599   2.584   1.136 -0.0877 -0.1865  0.4790
  160TMC2    O1 2498   1.925   2.863   0.879 -0.1359  0.2421  0.5808
  160TMC2    O2 2499   1.705   2.524   1.153 -0.2091  0.0902  0.4919
  160TMC2    O5 2500   1.474   2.529   1.155  0.1768 -0.1265  0.3775
  160TMC2    H5 2501   1.402   2.584   1.117  2.7557  1.9364 -1.5164
  161MPD2     C 2502   1.217   3.242   1.131 -0.3124  0.0151 -0.0585
  161MPD2    C1 2503   1.317   3.232   1.032 -0.0939  0.5359 -0.0547
  161MPD2    C2 2504   1.316   3.323   0.929 -0.1753 -0.2254  0.5059
  161MPD2    C3 2505   1.225   3.425   0.925  0.0257 -0.6256 -0.1236
  161MPD2    C4 2506   1.142   3.445   1.031 -0.4768 -0.5722  0.5257
  161MPD2    C5 2507   1.136   3.351   1.137 -0.4333 -0.2389 -0.3123
  161MPD2     H 2508   1.376   3.306   0.841 -0.7936 -0.7066  0.1769
  161MPD2    H1 2509   1.069   3.524   1.020 -0.6622 -0.8140  0.0300
  161MPD2    H2 2510   1.217   3.173   1.214  0.2800 -1.4083 -1.2341
  161MPD2    H3 2511   1.081   3.378   1.226  0.3138 -0.3340  0.1816
  161MPD2     N 2512   1.208   3.507   0.816  0.4457  0.1992 -0.1753
  161MPD2    H5 2513   1.158   3.594   0.830 -1.6589 -1.2699  1.3571
  161MPD2    N1 2514   1.411   3.130   1.031 -0.1175  0.0202  0.4866
  161MPD2    H7 2515   1.480   3.140   0.957  1.9022  0.5467  2.4451
  162TMC2    C1 2516   4.564   0.464   1.302  0.9879 -0.5203  0.0441
  162TMC2    C2 2517   4.477   0.514   1.398 -0.1337 -0.1880 -0.1229
  162TMC2    C3 2518   4.522   0.515   1.520 -0.5749 -0.3136 -0.0041
  162TMC2    C4 2519   4.693   0.424   1.330 -0.7400  0.0422  0.7953
  162TMC2    C5 2520   4.731   0.438   1.456 -0.6788  1.2862  0.1839
  162TMC2    C6 2521   4.646   0.479   1.557 -0.3411  0.0277 -0.6471
  162TMC2     C 2522   4.526   0.469   1.159 -0.2746  0.4865  0.5746
  162TMC2     O 2523   4.598   0.406   1.079  0.5280  0.0168 -0.1605
  162TMC2     H 2524   4.372   0.537   1.384  0.5601  3.5138  0.7593
  162TMC2    H1 2525   0.022   0.394   1.247  1.2983  2.5964  1.4394
  162TMC2    H2 2526   4.670   0.484   1.662  0.9059 -0.0932 -0.9213
  162TMC2    C7 2527   0.134   0.416   1.506  0.1885  0.1860 -0.0282
  162TMC2    C8 2528   4.434   0.562   1.623 -0.2551 -0.5446 -0.1299
  162TMC2    O1 2529   0.174   0.488   1.596 -0.2886  0.5127 -0.7594
  162TMC2    O2 2530   4.477   0.613   1.728  0.0876 -0.0198  0.6123
  162TMC2    O5 2531   4.329   0.479   1.618 -0.0992 -0.5117  0.7215
  162TMC2    H5 2532   4.342   0.403   1.557  0.3963  0.8470 -0.8560
  163MPD2     C 2533   4.304   0.683   0.757 -0.0264 -0.3511  0.2390
  163MPD2    C1 2534   4.389   0.574   0.757 -0.3798 -0.2220 -0.7508
  163MPD2    C2 2535   4.440   0.535   0.882 -0.6317  0.2902 -0.0854
  163MPD2    C3 2536   4.385   0.588   1.002 -0.0790 -0.3322  0.6033
  163MPD2    C4 2537   4.291   0.685   0.995  0.3303  0.8173 -1.1968
  163MPD2    C5 2538   4.250   0.734   0.876 -0.1505  0.4272 -0.1857
  163MPD2     H 2539   4.518   0.460   0.879 -0.1822  0.7701 -0.4137
  163MPD2    H1 2540   4.256   0.734   1.085 -1.4082 -0.6778 -1.0653
  163MPD2    H2 2541   4.265   0.727   0.666  0.4553  1.4262  0.9002
  163MPD2    H3 2542   4.181   0.817   0.863 -0.9784 -0.4300 -1.2852
  163MPD2     N 2543   4.421   0.553   1.133 -0.2067  0.2868 -0.4633
  163MPD2    H5 2544   4.376   0.598   1.212  0.9902  0.1727  0.2837
  163MPD2    N1 2545   4.435   0.527   0.634 -0.4310 -0.4957  0.7114
  163MPD2    H7 2546   4.373   0.549   0.557  0.8186 -0.6740 -0.3414
  164TMC2    C1 2547   4.661   4.370  11.201  0.7348  0.0974 -0.5335
  164TMC2    C2 2548   0.009   4.369  11.091 -0.3920  0.0756 -0.3067
  164TMC2    C3 2549   0.003   4.466  11.000 -0.0514  0.2021 -0.2704
  164TMC2    C4 2550   4.582   4.483  11.219 -0.3345 -0.5559 -0.4544
  164TMC2    C5 2551   4.573   4.579  11.120 -0.6693 -0.2337 -0.3161
  164TMC2    C6 2552   4.648   4.569  11.008  0.3745 -0.3270  0.1570
  164TMC2     C 2553   4.588   4.256  11.249  0.4007  0.9433 -0.2235
  164TMC2     O 2554   4.507   4.268  11.338  0.2356  0.0434  0.0327
  164TMC2     H 2555   0.086   4.295  11.073  1.1897  1.4285  0.8738
  164TMC2    H1 2556   4.531   4.499  11.313  0.0136 -0.7433 -0.2375
  164TMC2    H2 2557   4.632   4.643  10.931 -0.9192  0.4087  1.1258
  164TMC2    C7 2558   4.498   4.704  11.132 -0.9797 -1.0514  0.7311
  164TMC2    C8 2559   0.110   4.474  10.904 -0.6846 -0.3875  0.0148
  164TMC2    O1 2560   4.473   0.035  11.031 -0.2266 -0.3941 -0.1353
  164TMC2    O2 2561   0.191   4.383  10.884 -0.3028 -0.5164 -0.4492
  164TMC2    O5 2562   0.153   4.603  10.918 -0.5628 -0.3782 -0.6121
  164TMC2    H5 2563   0.094   4.666  10.964  2.7634  1.0579  1.7009
  165TMC2    C1 2564   1.520   2.302   0.827  0.1075  0.0191 -0.5396
  165TMC2    C2 2565   1.444   2.280   0.713 -0.0009  0.0948 -0.3222
  165TMC2    C3 2566   1.504   2.305   0.593  0.4338 -0.1757  0.2027
  165TMC2    C4 2567   1.647   2.361   0.824 -0.1450 -0.5005 -0.4155
  165TMC2    C5 2568   1.704   2.377   0.701  0.3914  0.5056 -0.6118
  165TMC2    C6 2569   1.629   2.356   0.583 -0.3270  0.4045  0.8427
  165TMC2     C 2570   1.459   2.277   0.958  0.8665 -0.5738  0.7220
  165TMC2     O 2571   1.336   2.254   0.956 -1.1588  0.2212 -0.8716
  165TMC2     H 2572   1.344   2.239   0.721  0.3263 -0.7134 -0.3212
  165TMC2    H1 2573   1.697   2.401   0.911 -0.0583  0.6030 -0.9747
  165TMC2    H2 2574   1.667   2.371   0.483  2.2425  0.4407  1.8266
  165TMC2    C7 2575   1.818   2.474   0.700  0.5356 -0.3365 -0.2615
  165TMC2    C8 2576   1.410   2.312   0.478  0.1645  0.6831 -0.1714
  165TMC2    O1 2577   1.847   2.515   0.808  0.0358  0.7412 -0.1418
  165TMC2    O2 2578   1.328   2.224   0.452 -0.0480  0.2588 -0.1591
  165TMC2    O5 2579   1.419   2.440   0.432  0.2603  0.4951  0.8298
  165TMC2    H5 2580   1.467   2.495   0.498  0.4535  0.9814  0.2891
  166MPD2     C 2581   1.489   2.163   1.466  0.1145 -0.3303  0.5637
  166MPD2    C1 2582   1.377   2.194   1.384  0.0099  0.3944  0.7699
  166MPD2    C2 2583   1.394   2.224   1.248  1.0538  0.2581 -0.7094
  166MPD2    C3 2584   1.524   2.224   1.190  0.3621 -0.1508  0.3862
  166MPD2    C4 2585   1.625   2.183   1.275  0.7966  0.0869 -0.2493
  166MPD2    C5 2586   1.609   2.165   1.413 -0.3263  0.1264  0.7323
  166MPD2     H 2587   1.308   2.238   1.184  1.1031 -0.1312 -0.8602
  166MPD2    H1 2588   1.728   2.163   1.247  0.1745 -0.1917 -2.3494
  166MPD2    H2 2589   1.468   2.132   1.567  2.4571  0.7035  1.3629
  166MPD2    H3 2590   1.698   2.142   1.471  0.4209  1.1969  0.0221
  166MPD2     N 2591   1.549   2.240   1.055  0.0232  0.1797 -0.1115
  166MPD2    H5 2592   1.642   2.214   1.023  0.1421  1.5898 -0.9562
  166MPD2    N1 2593   1.242   2.180   1.431 -0.2368  0.0691 -0.2134
  166MPD2    H7 2594   1.230   2.126   1.516  1.4149  0.5136  0.3014
  167TMC2    C1 2595   4.110   0.619  12.804  0.1506 -0.3284  0.8387
  167TMC2    C2 2596   4.134   0.656  12.933 -0.4665  0.2191  0.0483
  167TMC2    C3 2597   4.097   0.577  13.040  0.1134  0.3372 -0.9233
  167TMC2    C4 2598   4.048   0.501  12.786  0.0263 -0.6512  0.3444
  167TMC2    C5 2599   4.001   0.427  12.895  0.3358 -0.5721  0.4585
  167TMC2    C6 2600   4.013   0.471  13.022  0.3805 -0.2241 -0.4326
  167TMC2     C 2601   4.187   0.688  12.701  0.2416  0.2418  0.7524
  167TMC2     O 2602   4.250   0.792  12.727  0.1788  0.3561  0.4540
  167TMC2     H 2603   4.172   0.757  12.946 -1.2794  0.9866 -3.6593
  167TMC2    H1 2604   4.007   0.481  12.688 -1.3171  1.5305  0.4577
  167TMC2    H2 2605   3.977   0.413  13.106 -1.6785  1.5789 -0.0726
  167TMC2    C7 2606   3.884   0.348  12.866  0.3173  0.4700 -0.4088
  167TMC2    C8 2607   4.142   0.607  13.177 -0.4334  0.2828  0.1516
  167TMC2    O1 2608   3.798   0.355  12.953 -0.3876  0.0700 -0.0577
  167TMC2    O2 2609   4.064   0.637  13.267  0.5836  0.4264  0.6911
  167TMC2    O5 2610   4.274   0.605  13.184 -0.0253  0.2201 -0.0841
  167TMC2    H5 2611   4.319   0.579  13.100 -1.6585  0.7224 -1.1241
  168MPD2     C 2612   4.341   0.756  12.464  0.9019 -0.0265  0.4026
  168MPD2    C1 2613   4.247   0.650  12.466 -0.0310 -0.3853 -0.2075
  168MPD2    C2 2614   4.219   0.579  12.351  0.4136 -0.0031 -0.3502
  168MPD2    C3 2615   4.290   0.594  12.233  0.4484  0.0332  0.1182
  168MPD2    C4 2616   4.380   0.698  12.227  0.0324 -0.4686 -1.0218
  168MPD2    C5 2617   4.399   0.779  12.337  0.0470  0.1381  0.3120
  168MPD2     H 2618   4.134   0.511  12.355  0.3235  0.0696 -1.0900
  168MPD2    H1 2619   4.428   0.729  12.135  0.5456  0.0801 -0.5681
  168MPD2    H2 2620   4.352   0.836  12.536 -0.9383  0.7834 -0.2108
  168MPD2    H3 2621   4.459   0.869  12.330  1.1374 -0.6327 -0.4095
  168MPD2     N 2622   4.262   0.516  12.116 -0.0566 -0.0052  0.1634
  168MPD2    H5 2623   4.302   0.555  12.031 -0.5837  0.7923  0.2834
  168MPD2    N1 2624   4.179   0.619  12.583 -0.4197  0.6280  0.4170
  168MPD2    H7 2625   4.120   0.538  12.570  0.1576  0.6177 -2.2826
  169MPD1     C 2626   0.986   0.930   9.216 -0.7883 -0.0188 -0.0381
  169MPD1    C1 2627   0.951   0.882   9.340  0.0032  0.2719  0.0563
  169MPD1    C2 2628   1.036   0.824   9.431  0.4449  0.8401  1.4126
  169MPD1    C3 2629   1.161   0.785   9.385 -0.1801  0.2133 -0.1388
  169MPD1    C4 2630   1.205   0.829   9.260 -0.2599  0.0662  0.0878
  169MPD1    C5 2631   1.114   0.895   9.176 -0.3657 -0.5991  0.8140
  169MPD1     H 2632   0.993   0.781   9.521 -1.3975  0.5396  0.3869
  169MPD1    H1 2633   1.302   0.803   9.219  0.4835  0.4633  1.5905
  169MPD1    H2 2634   0.914   0.985   9.156  1.7395  1.7828 -1.3713
  169MPD1    H3 2635   1.150   0.924   9.078 -1.5188 -0.1346  0.5260
  169MPD1     N 2636   1.236   0.691   9.466 -0.3421 -0.3872 -0.4792
  169MPD1    H5 2637   1.191   0.683   9.556 -0.5465  2.6602 -0.3064
  169MPD1    N1 2638   0.821   0.921   9.387 -0.6924  0.0289  0.1015
  169MPD1    H6 2639   0.762   0.888   9.311  3.4633 -1.3825 -2.5223
  169MPD1    H7 2640   0.788   0.881   9.475 -0.9910  2.6602  1.1981
  170MPD1     C 2641   1.133   2.377  12.836 -0.1594 -0.1658 -0.4372
  170MPD1    C1 2642   0.997   2.401  12.821 -0.1777  0.7718 -0.3027
  170MPD1    C2 2643   0.912   2.392  12.929  0.2504 -0.1781 -0.1423
  170MPD1    C3 2644   0.959   2.365  13.052 -0.3289 -0.2000 -0.5947
  170MPD1    C4 2645   1.098   2.333  13.073 -0.2532 -0.8084 -0.1357
  170MPD1    C5 2646   1.181   2.352  12.965  0.1870  0.2369  0.2630
  170MPD1     H 2647   0.817   2.438  12.904  0.3124  0.1647  0.2664
  170MPD1    H1 2648   1.144   2.308  13.168 -2.0842  0.3015  1.0460
  170MPD1    H2 2649   1.188   2.389  12.744  1.5953  0.3686  0.6715
  170MPD1    H3 2650   1.289   2.348  12.968  0.2944  2.5342 -0.8752
  170MPD1     N 2651   0.865   2.357  13.154  0.1403  0.5366  0.0371
  170MPD1    H5 2652   0.769   2.375  13.126 -0.5817 -0.0457  2.1208
  170MPD1    N1 2653   0.956   2.435  12.690  0.0762 -0.0568 -0.1393
  170MPD1    H6 2654   0.888   2.510  12.691 -0.0973 -0.2189  0.4160
  170MPD1    H7 2655   1.033   2.476  12.637  0.1714 -0.3626 -0.2378
  171MPD1     C 2656   3.506   3.208  15.279  0.2388 -0.4905 -0.6621
  171MPD1    C1 2657   3.485   3.075  15.315  0.5791 -0.1689 -0.2066
  171MPD1    C2 2658   3.590   3.005  15.373  0.1626  0.0730  0.0284
  171MPD1    C3 2659   3.714   3.058  15.399  0.4007 -0.6575 -0.0093
  171MPD1    C4 2660   3.725   3.196  15.386 -0.2810  0.3710 -0.0816
  171MPD1    C5 2661   3.624   3.262  15.317 -0.1282 -0.5607 -0.2282
  171MPD1     H 2662   3.563   2.915  15.428  0.4603 -0.3994 -0.5929
  171MPD1    H1 2663   3.807   3.254  15.427 -0.7357  1.7053 -1.0531
  171MPD1    H2 2664   3.441   3.278  15.228 -0.3184 -0.7895 -0.3618
  171MPD1    H3 2665   3.633   3.369  15.300  0.6199 -0.8020 -1.3288
  171MPD1     N 2666   3.811   2.989  15.473  0.3191  0.7396  0.1563
  171MPD1    H5 2667   3.875   3.047  15.527 -0.3623 -0.4517  2.2688
  171MPD1    N1 2668   3.357   3.022  15.313  0.2500 -0.0126  0.0147
  171MPD1    H6 2669   3.359   2.920  15.308  1.0857 -0.0398  0.9357
  171MPD1    H7 2670   3.312   3.059  15.229  0.9022  2.0676  0.5892
  172MPD1     C 2671   2.687   2.114   0.056 -0.7645  0.2425  0.1025
  172MPD1    C1 2672   2.672   2.169   0.180  0.2707 -0.6789 -0.2598
  172MPD1    C2 2673   2.755   2.273   0.213 -0.2277  0.3611 -0.1425
  172MPD1    C3 2674   2.854   2.318   0.129  0.2805 -0.1099  0.3275
  172MPD1    C4 2675   2.877   2.248   0.012 -0.4647  0.1834  0.1233
  172MPD1    C5 2676   2.796   2.141  17.710  0.5013  0.9831 -0.3428
  172MPD1     H 2677   2.748   2.309   0.315  1.2113 -1.2599  0.5152
  172MPD1    H1 2678   2.958   2.276  17.682  0.1950 -0.9015  0.4757
  172MPD1    H2 2679   2.610   2.047   0.019  0.0201 -1.1271  0.9215
  172MPD1    H3 2680   2.804   2.090  17.616 -0.3536 -2.2872  1.3659
  172MPD1     N 2681   2.935   2.432   0.157  0.0680  0.0966  0.7721
  172MPD1    H5 2682   2.992   2.453   0.076 -2.2774  0.2818 -0.8505
  172MPD1    N1 2683   2.564   2.140   0.259  0.1030 -0.4709 -0.6437
  172MPD1    H6 2684   2.589   2.150   0.357 -0.2582 -1.0061 -0.4966
  172MPD1    H7 2685   2.540   2.042   0.244  0.4802 -0.6072 -0.3244
  173MPD1     C 2686   4.303   1.738  14.016  1.0339  0.5342 -0.3366
  173MPD1    C1 2687   4.308   1.730  14.153  0.2796 -0.2647 -0.8176
  173MPD1    C2 2688   4.355   1.839  14.222  0.1070  0.0910  0.1239
  173MPD1    C3 2689   4.390   1.958  14.161  0.4067 -0.4216 -0.1451
  173MPD1    C4 2690   4.372   1.966  14.023 -0.1556 -0.1509  0.1119
  173MPD1    C5 2691   4.327   1.858  13.955  0.8567  0.0228 -0.0336
  173MPD1     H 2692   4.365   1.822  14.329 -0.3730 -1.9813 -0.1661
  173MPD1    H1 2693   4.381   2.054  13.961 -2.1540 -0.6930 -0.9453
  173MPD1    H2 2694   4.283   1.656  13.947  0.8267  1.0736 -0.9274
  173MPD1    H3 2695   4.310   1.873  13.849  1.7633 -0.7380 -0.2885
  173MPD1     N 2696   4.434   2.066  14.242 -0.3120 -0.1078  1.0347
  173MPD1    H5 2697   4.446   2.047  14.341 -2.4461 -1.6562  0.9843
  173MPD1    N1 2698   4.307   1.599  14.211 -0.4039 -0.3861 -0.1363
  173MPD1    H6 2699   4.298   1.598  14.312  1.1930 -1.0266 -0.0037
  173MPD1    H7 2700   4.231   1.542  14.174 -1.6403  0.8570  0.4716
  174MPD1     C 2701   0.178   3.056  14.175 -0.0798 -0.1666 -0.5380
  174MPD1    C1 2702   0.114   2.981  14.085 -0.1442  0.6020 -0.0187
  174MPD1    C2 2703   0.048   2.869  14.130  0.6017  0.1865  0.4838
  174MPD1    C3 2704   0.041   2.828  14.259  0.1372  0.4432  0.1986
  174MPD1    C4 2705   0.110   2.906  14.352  0.0809  0.4295  0.5531
  174MPD1    C5 2706   0.178   3.024  14.304  0.0781  0.2169  0.5337
  174MPD1     H 2707   0.004   2.806  14.054 -1.1328 -0.1170  1.7672
  174MPD1    H1 2708   0.099   2.896  14.459  1.0727  0.9542  0.7025
  174MPD1    H2 2709   0.231   3.147  14.151 -2.2893  0.9626 -1.1296
  174MPD1    H3 2710   0.215   3.093  14.379 -2.5220  0.5016  1.5589
  174MPD1     N 2711   4.699   2.717  14.312  0.1638 -0.2350 -0.0458
  174MPD1    H5 2712   4.713   2.693  14.409 -1.1708  0.1788  0.2565
  174MPD1    N1 2713   0.127   3.018  13.950  0.6854  0.3246  0.0258
  174MPD1    H6 2714   0.058   2.966  13.896  1.7813 -0.9722 -0.1347
  174MPD1    H7 2715   0.123   3.116  13.926 -0.6159  0.2009 -0.2284
  175MPD1     C 2716   3.012   3.304  15.297 -0.1844  0.1125  0.0632
  175MPD1    C1 2717   2.880   3.321  15.341  0.0798 -0.8704  0.1903
  175MPD1    C2 2718   2.860   3.325  15.475  0.2748  0.0225  0.4526
  175MPD1    C3 2719   2.962   3.319  15.570  0.8135  0.1063  1.2105
  175MPD1    C4 2720   3.091   3.307  15.529 -0.4652  0.1877  0.0833
  175MPD1    C5 2721   3.113   3.299  15.391  0.4500  0.5033  0.3569
  175MPD1     H 2722   2.758   3.342  15.505  0.1049 -0.0800 -0.0645
  175MPD1    H1 2723   3.173   3.301  15.599  0.7591  1.0752 -1.2826
  175MPD1    H2 2724   3.034   3.283  15.193 -3.3777  0.1744 -0.6112
  175MPD1    H3 2725   3.219   3.293  15.369  0.1277 -2.1700 -0.4794
  175MPD1     N 2726   2.943   3.331  15.710 -0.1437 -0.0161  0.2941
  175MPD1    H5 2727   3.024   3.307  15.767  1.2735  0.6527 -1.4377
  175MPD1    N1 2728   2.777   3.313  15.251  0.1815  0.1590  0.4046
  175MPD1    H6 2729   2.802   3.327  15.153  1.9804 -0.6655  0.7508
  175MPD1    H7 2730   2.693   3.366  15.276  0.9497  0.2893  2.6115
  176MPD1     C 2731   0.450   0.958   0.095 -0.0522 -0.3292 -0.0357
  176MPD1    C1 2732   0.386   1.046   0.181  0.5074  0.2319 -0.0235
  176MPD1    C2 2733   0.303   1.138   0.127  0.5360  0.0068  0.1972
  176MPD1    C3 2734   0.266   1.144  17.733  0.5232  0.4153 -0.2887
  176MPD1    C4 2735   0.341   1.064  17.648 -0.5351 -0.7591  0.2718
  176MPD1    C5 2736   0.425   0.974  17.698 -0.2661 -0.3466  0.6893
  176MPD1     H 2737   0.261   1.209   0.198  1.3133  0.8557 -0.2021
  176MPD1    H1 2738   0.319   1.060  17.542 -1.8405 -3.4071  0.6455
  176MPD1    H2 2739   0.524   0.887   0.133  1.2228  0.3430 -1.2896
  176MPD1    H3 2740   0.479   0.914  17.626  0.4357 -0.7536  1.5563
  176MPD1     N 2741   0.177   1.245  17.697 -0.0307  0.0437 -0.7939
  176MPD1    H5 2742   0.135   1.291   0.042 -0.5940 -1.0329 -0.4747
  176MPD1    N1 2743   0.418   1.045   0.313  0.0420  0.0382 -0.0101
  176MPD1    H6 2744   0.345   1.089   0.369 -0.7830  0.3528 -1.3299
  176MPD1    H7 2745   0.439   0.950   0.341 -1.2059 -1.1734 -3.1869
  177MPD1     C 2746   2.374   0.484   9.555 -0.2795  0.2793  0.7066
  177MPD1    C1 2747   2.259   0.474   9.629  0.2188  0.1024 -0.3982
  177MPD1    C2 2748   2.144   0.526   9.568 -0.7290  0.5957  0.0618
  177MPD1    C3 2749   2.156   0.615   9.461 -0.8785  0.4397 -0.6230
  177MPD1    C4 2750   2.278   0.642   9.407 -0.9697 -0.1883 -0.1706
  177MPD1    C5 2751   2.386   0.570   9.446  0.0452 -0.0008 -0.1171
  177MPD1     H 2752   2.047   0.504   9.612 -2.0094  3.2077 -1.4252
  177MPD1    H1 2753   2.286   0.705   9.318  0.2617 -0.3288 -0.1635
  177MPD1    H2 2754   2.460   0.425   9.583 -0.8062 -0.0470  1.6421
  177MPD1    H3 2755   2.479   0.587   9.393 -1.3116 -2.2243 -3.2125
  177MPD1     N 2756   2.034   0.675   9.422 -0.2869  0.1025  0.2945
  177MPD1    H5 2757   1.958   0.658   9.487 -1.0686  0.6837 -0.4861
  177MPD1    N1 2758   2.250   0.385   9.730 -0.4229 -0.2076 -0.0299
  177MPD1    H6 2759   2.174   0.409   9.794  0.9467 -0.2937  1.6336
  177MPD1    H7 2760   2.343   0.365   9.768 -0.2494  0.1538 -0.2713
  178MPD1     C 2761   0.270   1.723   0.354  0.1321 -0.5891  0.2879
  178MPD1    C1 2762   0.320   1.596   0.304  0.4915 -0.8195  0.2063
  178MPD1    C2 2763   0.341   1.584   0.168  0.0951  0.2860 -0.9123
  178MPD1    C3 2764   0.337   1.698   0.088  0.5482 -0.4023  0.0846
  178MPD1    C4 2765   0.305   1.819   0.141  0.0698 -0.5215 -0.2084
  178MPD1    C5 2766   0.260   1.829   0.269 -0.4714 -0.4480  0.0704
  178MPD1     H 2767   0.372   1.494   0.117 -0.8176 -0.8873  0.6312
  178MPD1    H1 2768   0.308   1.914   0.088  0.9007 -0.0937  0.6056
  178MPD1    H2 2769   0.239   1.749   0.454  0.9453  2.4925 -0.2718
  178MPD1    H3 2770   0.231   1.926   0.307 -0.6697  0.2605 -1.9348
  178MPD1     N 2771   0.377   1.702  17.686  0.8517  0.0748  0.6214
  178MPD1    H5 2772   0.388   1.794  17.645 -1.1782 -0.1801 -0.4533
  178MPD1    N1 2773   0.306   1.474   0.383 -0.3829 -0.7168 -0.4407
  178MPD1    H6 2774   0.321   1.500   0.480  0.7199  0.5950 -0.9627
  178MPD1    H7 2775   0.379   1.409   0.355 -1.1541 -2.1247  0.8327
  179MPD1     C 2776   0.378   4.676  15.482 -0.5408  1.1079 -0.0835
  179MPD1    C1 2777   0.330   4.598  15.380 -0.9552  0.4438  0.3735
  179MPD1    C2 2778   0.294   4.466  15.395  0.2354  0.2815  0.6131
  179MPD1    C3 2779   0.302   4.409  15.519  0.3652 -0.5866  0.2298
  179MPD1    C4 2780   0.350   4.484  15.624  0.4424 -0.1845  0.2338
  179MPD1    C5 2781   0.399   4.614  15.601  0.1368 -0.2962  0.0759
  179MPD1     H 2782   0.278   4.407  15.306 -0.3879  1.0791  0.2000
  179MPD1    H1 2783   0.366   4.457  15.727  0.4560  0.2962  0.3574
  179MPD1    H2 2784   0.404   0.047  15.472  0.1800  0.9821  0.4393
  179MPD1    H3 2785   0.441   4.678  15.677 -0.5688 -1.7742  1.7208
  179MPD1     N 2786   0.251   4.280  15.539 -0.1095  0.6555  0.2772
  179MPD1    H5 2787   0.261   4.240  15.632 -0.3621  0.2421  0.1245
  179MPD1    N1 2788   0.329   4.643  15.249  0.5365 -0.1089 -0.0451
  179MPD1    H6 2789   0.402   4.599  15.195 -0.1905 -0.0516 -1.0707
  179MPD1    H7 2790   0.369   0.003  15.249  2.2346 -0.8257  2.9347
  180MPD1     C 2791   4.515   0.446  15.284  0.3267  1.1819  0.6335
  180MPD1    C1 2792   4.393   0.404  15.249 -0.4267 -0.2421 -0.2513
  180MPD1    C2 2793   4.340   0.442  15.130  0.4080 -0.4276 -0.3994
  180MPD1    C3 2794   4.420   0.498  15.031 -0.7304  0.4073  0.5139
  180MPD1    C4 2795   4.547   0.531  15.060  0.1520  0.1284  0.3176
  180MPD1    C5 2796   4.588   0.507  15.191  0.3623  0.4153 -0.0020
  180MPD1     H 2797   4.238   0.423  15.096  0.2456 -1.1516  0.5136
  180MPD1    H1 2798   4.603   0.580  14.981  0.7232 -0.8255  0.1347
  180MPD1    H2 2799   4.556   0.425  15.382  1.4416 -0.8654 -0.2981
  180MPD1    H3 2800   4.690   0.530  15.220  0.8309 -0.9753 -0.5906
  180MPD1     N 2801   4.360   0.504  14.903  0.1491  0.0931 -0.8786
  180MPD1    H5 2802   4.262   0.478  14.897  0.3747 -0.9316 -0.2048
  180MPD1    N1 2803   4.313   0.349  15.347  0.2228 -0.7179 -0.4658
  180MPD1    H6 2804   4.358   0.294  15.419  0.1549  0.2235  0.2922
  180MPD1    H7 2805   4.247   0.287  15.300 -2.8653  0.8825  1.8085
  181MPD1     C 2806   3.374   3.848   8.705  0.0151 -0.7099  0.5827
  181MPD1    C1 2807   3.458   3.755   8.760  0.0044  0.0311  0.0795
  181MPD1    C2 2808   3.402   3.642   8.815 -0.7941  0.3804 -0.6121
  181MPD1    C3 2809   3.267   3.633   8.827  0.4421  0.8724 -0.0589
  181MPD1    C4 2810   3.179   3.732   8.784 -0.0656 -0.0802 -0.4758
  181MPD1    C5 2811   3.232   3.838   8.716 -1.3956 -0.4501 -0.8894
  181MPD1     H 2812   3.479   3.567   8.833  1.1451  2.0539 -1.8307
  181MPD1    H1 2813   3.072   3.728   8.793 -0.2402  0.1110 -2.4351
  181MPD1    H2 2814   3.411   3.938   8.657 -0.8120 -1.3261 -1.1865
  181MPD1    H3 2815   3.172   3.916   8.670 -1.8404  0.3851  1.0955
  181MPD1     N 2816   3.207   3.527   8.891 -0.8082  0.3473 -0.3134
  181MPD1    H5 2817   3.106   3.516   8.894 -0.9543  1.7022 -0.3210
  181MPD1    N1 2818   3.598   3.765   8.742  0.1951  0.3749  0.6051
  181MPD1    H6 2819   3.655   3.704   8.800  0.6086  1.5310  1.3959
  181MPD1    H7 2820   3.633   3.860   8.742  0.4903  0.2724 -1.1527
  182MPD1     C 2821   2.810   1.893   1.156  0.0713 -0.0242 -0.3232
  182MPD1    C1 2822   2.855   1.844   1.031  0.6735  0.1811  1.0402
  182MPD1    C2 2823   2.772   1.838   0.923  0.6166  0.5305 -0.4242
  182MPD1    C3 2824   2.644   1.896   0.931  0.4721 -0.7170 -0.6055
  182MPD1    C4 2825   2.599   1.948   1.046  0.0261 -0.5769 -0.3051
  182MPD1    C5 2826   2.684   1.951   1.158  0.0081  0.0636 -0.0360
  182MPD1     H 2827   2.796   1.774   0.839  2.5571  0.3117  0.2762
  182MPD1    H1 2828   2.498   1.988   1.055  0.7607  1.5447 -1.3169
  182MPD1    H2 2829   2.882   1.900   1.236 -1.2989  1.2931  0.8009
  182MPD1    H3 2830   2.658   2.007   1.246  2.7906 -0.2312  0.9467
  182MPD1     N 2831   2.543   1.885   0.832  0.2575  0.2102 -0.6286
  182MPD1    H5 2832   2.450   1.920   0.852  0.1811 -1.2467  1.6077
  182MPD1    N1 2833   2.979   1.781   1.021  0.1217 -0.3492 -0.5447
  182MPD1    H6 2834   3.041   1.812   1.096 -0.1551  2.8653 -1.6413
  182MPD1    H7 2835   3.020   1.799   0.930  0.6840 -2.0446 -0.6165
  183MPD1     C 2836   2.694   2.632   9.254  0.1518 -0.2237  0.3361
  183MPD1    C1 2837   2.748   2.749   9.218  0.1813 -0.0392 -0.4646
  183MPD1    C2 2838   2.882   2.767   9.230 -0.9626  0.3259 -0.8008
  183MPD1    C3 2839   2.961   2.670   9.291  0.9826 -0.2389  0.7419
  183MPD1    C4 2840   2.901   2.546   9.324 -0.4102 -0.1969  0.4511
  183MPD1    C5 2841   2.768   2.530   9.309  0.3619 -0.3738  0.1608
  183MPD1     H 2842   2.923   2.862   9.199  1.9742 -0.7644 -0.1979
  183MPD1    H1 2843   2.951   2.461   9.368  0.2238  0.7839  1.6028
  183MPD1    H2 2844   2.589   2.612   9.236  0.0176 -0.0065  0.8770
  183MPD1    H3 2845   2.719   2.441   9.346 -0.8447  0.1212 -0.2511
  183MPD1     N 2846   3.094   2.697   9.320 -0.0093  0.4613  0.2882
  183MPD1    H5 2847   3.129   2.785   9.282  1.3014 -0.5758 -0.9268
  183MPD1    N1 2848   2.665   2.849   9.155  0.1393  0.3086  0.4493
  183MPD1    H6 2849   2.569   2.835   9.126  0.0316  0.5499  0.6966
  183MPD1    H7 2850   2.709   2.896   9.076 -1.3270  2.4275  0.9128
  184MPD1     C 2851   1.478   0.748  10.427  0.1694  0.0786  0.1931
  184MPD1    C1 2852   1.393   0.763  10.322 -0.0713  0.6825 -0.0392
  184MPD1    C2 2853   1.413   0.860  10.231  0.0312 -0.3791 -0.9678
  184MPD1    C3 2854   1.533   0.933  10.229 -0.0440  0.0136  0.3000
  184MPD1    C4 2855   1.624   0.896  10.324 -0.1616  0.3184  0.4743
  184MPD1    C5 2856   1.598   0.813  10.425  0.5261  0.0081  0.1079
  184MPD1     H 2857   1.330   0.884  10.166 -0.8287 -0.8461 -0.0334
  184MPD1    H1 2858   1.727   0.931  10.321 -0.2617  0.5379 -0.4133
  184MPD1    H2 2859   1.457   0.672  10.502  1.1591 -0.6523 -0.2638
  184MPD1    H3 2860   1.676   0.787  10.496 -1.7419 -2.3204  1.7305
  184MPD1     N 2861   1.562   1.032  10.133  0.3732 -0.4916  0.3960
  184MPD1    H5 2862   1.655   1.071  10.134  0.4616 -0.7003  0.2085
  184MPD1    N1 2863   1.265   0.704  10.338 -0.0038 -0.6303 -0.4690
  184MPD1    H6 2864   1.218   0.688  10.249 -1.1632 -2.5100  0.4898
  184MPD1    H7 2865   1.273   0.614  10.384 -1.5208 -0.4453  0.1335
  185MPD1     C 2866   1.234   1.403   9.190 -0.0605 -0.4714  0.4302
  185MPD1    C1 2867   1.272   1.492   9.285 -0.2928 -0.9932  0.4241
  185MPD1    C2 2868   1.349   1.455   9.393 -0.2888  0.2647 -0.5872
  185MPD1    C3 2869   1.371   1.316   9.418  0.6285  0.0007 -0.6335
  185MPD1    C4 2870   1.327   1.229   9.321 -0.1097  0.1946 -0.3649
  185MPD1    C5 2871   1.258   1.268   9.210  0.0539 -0.0408 -0.6701
  185MPD1     H 2872   1.393   1.528   9.461 -0.1957 -0.4258  0.0981
  185MPD1    H1 2873   1.349   1.124   9.339 -0.6780  0.0633 -0.4258
  185MPD1    H2 2874   1.183   1.432   9.099 -1.8852 -0.3086  1.5039
  185MPD1    H3 2875   1.217   1.189   9.148  1.5328 -1.1148 -0.2676
  185MPD1     N 2876   1.448   1.275   9.528 -0.7945 -0.0491  0.0463
  185MPD1    H5 2877   1.478   1.179   9.513 -0.3259  0.1070  0.0049
  185MPD1    N1 2878   1.255   1.623   9.262 -0.2082 -0.0152  0.0523
  185MPD1    H6 2879   1.263   1.677   9.348 -1.4900  0.3064 -0.0303
  185MPD1    H7 2880   1.162   1.639   9.224  0.2401  0.0076 -1.0303
  186MPD1     C 2881   0.696   4.243  15.728  0.5845  0.5039 -0.0091
  186MPD1    C1 2882   0.588   4.210  15.814 -1.0537  0.0267  0.0710
  186MPD1    C2 2883   0.550   4.310  15.906 -0.3021  0.4945 -0.0014
  186MPD1    C3 2884   0.590   4.438  15.896 -0.2068 -0.1113  0.2804
  186MPD1    C4 2885   0.681   4.469  15.794  0.3388  0.1954 -0.2200
  186MPD1    C5 2886   0.729   4.375  15.706  0.5526 -0.0515 -0.1476
  186MPD1     H 2887   0.486   4.283  15.988 -1.2667 -2.2181 -1.6411
  186MPD1    H1 2888   0.713   4.572  15.785 -0.3111  0.3798 -0.4410
  186MPD1    H2 2889   0.750   4.163  15.679 -0.8215  0.6097 -1.7357
  186MPD1    H3 2890   0.809   4.402  15.638 -3.0033  3.4038 -2.9796
  186MPD1     N 2891   0.549   4.549  15.972  1.0023  0.2468 -0.7174
  186MPD1    H5 2892   0.569   4.641  15.936 -0.6409  1.5383  1.6283
  186MPD1    N1 2893   0.554   4.078  15.843 -0.3302 -0.8843 -0.6218
  186MPD1    H6 2894   0.452   4.072  15.850 -0.3517 -1.2794 -1.3440
  186MPD1    H7 2895   0.587   4.030  15.760  0.8348 -0.4542 -0.4052
  187MPD1     C 2896   0.415   2.322  17.569  0.0721  0.2697  0.5099
  187MPD1    C1 2897   0.292   2.273  17.603 -0.9771  0.2538 -0.4029
  187MPD1    C2 2898   0.192   2.266  17.510  0.1496 -0.0271 -0.2591
  187MPD1    C3 2899   0.211   2.326  17.382  0.3276 -0.5056 -0.4963
  187MPD1    C4 2900   0.326   2.387  17.351  0.0423 -0.0878 -0.8041
  187MPD1    C5 2901   0.432   2.379  17.441  0.2280  0.2226  0.0453
  187MPD1     H 2902   0.098   2.221  17.539 -0.3119  1.7084  0.9981
  187MPD1    H1 2903   0.342   2.441  17.258 -1.8270  1.3720 -0.2857
  187MPD1    H2 2904   0.502   2.310  17.632 -0.2425 -0.6226  0.7744
  187MPD1    H3 2905   0.524   2.426  17.410  0.7891 -0.5470  0.5349
  187MPD1     N 2906   0.120   2.314  17.275  0.2448 -0.2306  0.9544
  187MPD1    H5 2907   0.142   2.371  17.194 -0.5624  0.3185  1.1183
  187MPD1    N1 2908   0.282   2.203  17.718 -0.1647 -0.1018  0.6760
  187MPD1    H6 2909   0.187   2.198   0.017 -0.5967 -0.9073 -0.6360
  187MPD1    H7 2910   0.334   2.244   0.060  0.8662 -1.0974  0.5185
  188MPD1     C 2911   3.849   1.509   9.621  0.8878  0.3364  1.1550
  188MPD1    C1 2912   3.981   1.493   9.677  0.5437 -0.2221  1.0059
  188MPD1    C2 2913   4.022   1.367   9.725 -0.4411 -0.2055  0.1106
  188MPD1    C3 2914   3.945   1.257   9.686  0.0617  0.4953 -0.8865
  188MPD1    C4 2915   3.823   1.269   9.620  0.5535  0.3537 -0.0437
  188MPD1    C5 2916   3.773   1.392   9.595  0.7659 -0.0382  0.5369
  188MPD1     H 2917   4.114   1.356   9.781 -0.6890 -2.7733  0.0141
  188MPD1    H1 2918   3.763   1.178   9.614 -0.9079  1.3161  0.1368
  188MPD1    H2 2919   3.827   1.601   9.569  1.0546 -0.7268 -0.8202
  188MPD1    H3 2920   3.684   1.403   9.535  0.5555 -0.2627  0.8072
  188MPD1     N 2921   3.982   1.125   9.716 -0.7038  0.2387  0.0715
  188MPD1    H5 2922   3.915   1.054   9.690  0.9943 -1.0718 -0.7231
  188MPD1    N1 2923   4.036   1.615   9.724 -0.1781  0.7142  1.0969
  188MPD1    H6 2924   4.135   1.610   9.749  0.6172  2.8876 -1.6287
  188MPD1    H7 2925   4.022   1.690   9.657 -1.6774 -0.2167  0.3792
  189MPD1     C 2926   1.461   2.892   0.258  1.1168  0.9157 -0.4972
  189MPD1    C1 2927   1.360   2.826   0.201  0.5903  1.0318  0.2063
  189MPD1    C2 2928   1.257   2.899   0.132 -0.6833  0.1863 -0.1243
  189MPD1    C3 2929   1.245   3.035   0.150 -0.2168 -0.6004 -0.6702
  189MPD1    C4 2930   1.346   3.097   0.226  0.1379 -0.4386  0.3383
  189MPD1    C5 2931   1.456   3.028   0.279 -0.3472 -0.4271  0.0441
  189MPD1     H 2932   1.182   2.847   0.074 -0.4783 -0.6364  0.3576
  189MPD1    H1 2933   1.347   3.202   0.255 -2.9331  0.4862 -2.9095
  189MPD1    H2 2934   1.550   2.840   0.292  0.8527  0.9451  0.2549
  189MPD1    H3 2935   1.537   3.091   0.314 -0.2489  0.0174 -0.9851
  189MPD1     N 2936   1.146   3.109   0.086  0.1223  0.2013  0.2761
  189MPD1    H5 2937   1.087   3.058   0.021 -1.3733 -0.1793  1.9518
  189MPD1    N1 2938   1.387   2.689   0.177 -0.6493  0.3671  0.1438
  189MPD1    H6 2939   1.301   2.639   0.153  1.1856 -1.7272 -1.9578
  189MPD1    H7 2940   1.441   2.646   0.251  0.4740  2.4707  0.5641
  190MPD1     C 2941   0.123   1.588  15.154 -0.1755 -0.1466  0.2193
  190MPD1    C1 2942   0.257   1.582  15.123  0.7650 -0.4439 -0.7692
  190MPD1    C2 2943   0.338   1.502  15.200  0.2648  1.1818 -0.1747
  190MPD1    C3 2944   0.289   1.443  15.318  0.2925 -0.7295  0.4277
  190MPD1    C4 2945   0.156   1.457  15.347  0.1285  0.3723  0.2167
  190MPD1    C5 2946   0.069   1.524  15.263  0.1820 -0.8843  0.1110
  190MPD1     H 2947   0.442   1.488  15.172  0.7324  0.2507  2.0631
  190MPD1    H1 2948   0.101   1.407  15.426 -1.2004 -1.3370 -1.7806
  190MPD1    H2 2949   0.052   1.636  15.088 -0.9822  1.4800  2.2438
  190MPD1    H3 2950   4.699   1.513  15.290  0.2410 -0.7173  0.4121
  190MPD1     N 2951   0.378   1.374  15.403 -0.3461 -0.4977  0.4598
  190MPD1    H5 2952   0.476   1.398  15.393 -0.8254  2.3100  2.6749
  190MPD1    N1 2953   0.300   1.636  14.997 -0.0879 -0.4442 -0.5673
  190MPD1    H6 2954   0.383   1.695  15.005 -0.7632  0.7688 -2.4728
  190MPD1    H7 2955   0.229   1.700  14.963  0.8582  0.7410 -0.3148
  191MPD1     C 2956   3.755   2.867  12.363 -0.2888  0.7562  0.3580
  191MPD1    C1 2957   3.732   2.999  12.336  0.2634  0.2190 -0.9342
  191MPD1    C2 2958   3.842   3.076  12.293  0.1980  0.4738 -0.3653
  191MPD1    C3 2959   3.967   3.017  12.264  0.1562 -0.0014 -0.1048
  191MPD1    C4 2960   3.987   2.891  12.301  0.6836  0.0709  0.2365
  191MPD1    C5 2961   3.880   2.816  12.353  0.3079  0.7219  0.2026
  191MPD1     H 2962   3.839   3.183  12.282 -2.2679  0.1776 -2.7286
  191MPD1    H1 2963   4.078   2.833  12.289 -0.4055 -1.3746 -1.0254
  191MPD1    H2 2964   3.683   2.811  12.421 -0.4194 -0.0866 -0.6421
  191MPD1    H3 2965   3.886   2.709  12.372 -1.6828  0.5792 -0.0344
  191MPD1     N 2966   4.072   3.101  12.206  0.1452  0.4120  0.5876
  191MPD1    H5 2967   4.046   3.196  12.181 -0.0429  0.1312 -0.2927
  191MPD1    N1 2968   3.615   3.069  12.376 -0.0873  0.1921 -0.5914
  191MPD1    H6 2969   3.531   3.010  12.372  0.0009  0.1250 -1.4789
  191MPD1    H7 2970   3.611   3.162  12.336  1.8039  0.3055 -0.4911
  192MPD1     C 2971   4.098   3.768  11.534 -0.3237  0.3829  0.2052
  192MPD1    C1 2972   4.075   3.771  11.669 -0.1336  0.3362  0.5455
  192MPD1    C2 2973   4.131   3.666  11.742  0.1292 -0.2265  0.1031
  192MPD1    C3 2974   4.198   3.559  11.687 -0.0713 -0.6897 -0.1436
  192MPD1    C4 2975   4.215   3.556  11.549 -0.4345  0.0585  0.8427
  192MPD1    C5 2976   4.167   3.665  11.481  0.0658 -0.2783  0.1048
  192MPD1     H 2977   4.107   3.653  11.848 -0.8730 -0.3711 -0.1375
  192MPD1    H1 2978   4.268   3.476  11.499 -2.0733  0.2097 -1.1326
  192MPD1    H2 2979   4.070   3.852  11.471 -2.1271  0.0384  0.5487
  192MPD1    H3 2980   4.170   3.668  11.372  2.6707 -2.7421  0.1173
  192MPD1     N 2981   4.246   3.452  11.762 -0.4866  0.1660  0.2518
  192MPD1    H5 2982   4.289   3.373  11.715 -0.8282  0.8912 -1.2696
  192MPD1    N1 2983   4.027   3.892  11.720 -0.2114 -0.3944  0.3386
  192MPD1    H6 2984   3.949   3.918  11.660  0.7732 -0.2269 -0.8941
  192MPD1    H7 2985   3.983   3.871  11.809  0.0633 -0.8258  0.3736
  193MPD1     C 2986   3.536   3.115  15.927  0.0960  0.0952  0.4946
  193MPD1    C1 2987   3.499   3.177  16.049 -0.1238  0.8146 -0.2569
  193MPD1    C2 2988   3.598   3.259  16.114  0.2168  0.4313  0.2274
  193MPD1    C3 2989   3.717   3.282  16.054  0.0519 -0.0810  0.3367
  193MPD1    C4 2990   3.742   3.233  15.927 -0.1851 -0.2358  0.1221
  193MPD1    C5 2991   3.654   3.148  15.867 -0.3310  0.7520 -0.7505
  193MPD1     H 2992   3.573   3.294  16.214  0.7012 -1.8675  1.1713
  193MPD1    H1 2993   3.837   3.255  15.879 -0.6077  1.0037 -0.1628
  193MPD1    H2 2994   3.470   3.054  15.868  1.8345 -1.7666  0.4668
  193MPD1    H3 2995   3.686   3.093  15.779  1.2860  1.4522 -0.6071
  193MPD1     N 2996   3.826   3.336  16.125 -0.1813  0.2080  0.0704
  193MPD1    H5 2997   3.912   3.354  16.073  0.6848 -2.4866  0.6028
  193MPD1    N1 2998   3.373   3.147  16.110  0.5536 -0.2770  0.2419
  193MPD1    H6 2999   3.353   3.205  16.192 -3.1789 -1.8665  0.4460
  193MPD1    H7 3000   3.304   3.162  16.037  2.6051  0.3758 -1.5631
  194MPD1     C 3001   2.805   0.498  16.335  0.6116  0.1997 -0.0092
  194MPD1    C1 3002   2.781   0.572  16.452  0.1457  0.2580 -0.0916
  194MPD1    C2 3003   2.704   0.517  16.553  0.0424  0.0909  0.0395
  194MPD1    C3 3004   2.644   0.395  16.538 -0.2282 -0.3047 -0.3792
  194MPD1    C4 3005   2.659   0.322  16.423  0.4271 -0.1015  0.5657
  194MPD1    C5 3006   2.741   0.378  16.322  0.6989  0.1971  0.2428
  194MPD1     H 3007   2.695   0.568  16.648 -0.9257  1.0479 -0.5680
  194MPD1    H1 3008   2.620   0.223  16.403 -1.6498  1.5706 -3.6733
  194MPD1    H2 3009   2.872   0.525  16.254  1.3342  2.2275  1.2637
  194MPD1    H3 3010   2.766   0.327  16.230  0.0183  1.6553 -0.7523
  194MPD1     N 3011   2.558   0.340  16.641 -0.2868 -0.1897  1.9059
  194MPD1    H5 3012   2.533   0.242  16.627 -0.5736  0.3227 -1.1733
  194MPD1    N1 3013   2.859   0.681  16.484  0.2529  0.5085  0.2620
  194MPD1    H6 3014   2.826   0.729  16.567 -1.2094 -1.0941  0.6155
  194MPD1    H7 3015   2.843   0.751  16.412  2.3654  3.4999  2.7693
  195MPD1     C 3016   4.475   2.494  17.359  0.4005 -0.2442 -0.0064
  195MPD1    C1 3017   4.342   2.472  17.350  0.2695 -0.7409 -0.2176
  195MPD1    C2 3018   4.280   2.424  17.462 -0.1069 -0.2063  0.5247
  195MPD1    C3 3019   4.358   2.379  17.570  0.3861  0.1867 -0.3378
  195MPD1    C4 3020   4.495   2.388  17.571  0.6767  0.2027  0.7232
  195MPD1    C5 3021   4.553   2.455  17.468 -0.0879  0.0541  0.7907
  195MPD1     H 3022   4.172   2.432  17.473  0.1128  0.0893  2.5942
  195MPD1    H1 3023   4.558   2.360  17.654  0.3400 -0.8553  0.6205
  195MPD1    H2 3024   4.523   2.547  17.277  0.3112  1.6482  1.1811
  195MPD1    H3 3025   4.660   2.470  17.456  0.0364 -0.3069  1.4804
  195MPD1     N 3026   4.303   2.316  17.679  0.2471 -0.0803 -0.0918
  195MPD1    H5 3027   4.364   2.276   0.013  1.4890  2.0416  0.0181
  195MPD1    N1 3028   4.274   2.538  17.248 -0.6176  0.2345 -0.3782
  195MPD1    H6 3029   4.338   2.558  17.172  1.9491 -0.4303  1.5851
  195MPD1    H7 3030   4.193   2.485  17.219 -1.0849  1.2954 -0.9910
  196MPD1     C 3031   3.027   2.167  17.381  0.1577 -0.7273 -0.1029
  196MPD1    C1 3032   3.096   2.273  17.437  0.4070  0.0131  0.1645
  196MPD1    C2 3033   3.173   2.255  17.552  0.1905  0.2164  0.0946
  196MPD1    C3 3034   3.179   2.129  17.609 -0.0797  0.1383 -0.3373
  196MPD1    C4 3035   3.110   2.028  17.548 -0.0104 -0.1189 -0.0450
  196MPD1    C5 3036   3.037   2.042  17.437  0.2799  0.1483  0.2738
  196MPD1     H 3037   3.231   2.339  17.587  1.3514 -0.5639  0.0599
  196MPD1    H1 3038   3.130   1.927  17.582  1.8618  0.0216 -0.6929
  196MPD1    H2 3039   2.965   2.178  17.293 -1.6086  1.9232  1.4643
  196MPD1    H3 3040   2.982   1.958  17.396 -1.0970  2.1401 -1.9635
  196MPD1     N 3041   3.251   2.105  17.727  0.4399  0.5137 -0.3229
  196MPD1    H5 3042   3.271   2.008   0.013 -1.3568  1.1933  4.2175
  196MPD1    N1 3043   3.102   2.394  17.365  0.0319 -0.1761 -0.2430
  196MPD1    H6 3044   3.101   2.476  17.426  2.7015 -0.0280 -0.3957
  196MPD1    H7 3045   3.014   2.406  17.315  1.1597 -1.4657 -2.5684
  197MPD1     C 3046   2.792   4.155   0.039  0.0787 -0.9622  0.8312
  197MPD1    C1 3047   2.834   4.026   0.019 -0.2207 -0.0563 -0.3556
  197MPD1    C2 3048   2.877   3.996  17.620 -0.0748 -0.1223 -0.4044
  197MPD1    C3 3049   2.900   4.103  17.529  0.0403  0.1816 -0.4916
  197MPD1    C4 3050   2.879   4.234  17.573 -0.5999 -1.0874 -0.4567
  197MPD1    C5 3051   2.818   4.255  17.697 -0.0509 -0.1235  0.1834
  197MPD1     H 3052   2.904   3.897  17.586  1.5327  0.4489 -0.8282
  197MPD1    H1 3053   2.906   4.326  17.523 -2.7792  0.2961  0.9641
  197MPD1    H2 3054   2.741   4.168   0.133  1.6358 -1.4676  1.7519
  197MPD1    H3 3055   2.803   4.357  17.730 -0.6104 -0.9529  2.5428
  197MPD1     N 3056   2.964   4.092  17.411  0.0326  0.3873 -0.0772
  197MPD1    H5 3057   2.985   4.176  17.358  0.6013 -0.9306 -1.9473
  197MPD1    N1 3058   2.810   3.931   0.114  0.1016 -0.3307  0.2542
  197MPD1    H6 3059   2.813   3.984   0.201 -1.1707 -1.3189  0.8978
  197MPD1    H7 3060   2.874   3.852   0.111 -0.0476 -0.4823  1.1021
  198MPD1     C 3061   4.292   1.591  15.101  0.2917  0.1901 -0.5272
  198MPD1    C1 3062   4.407   1.625  15.034  0.1302  0.6319 -0.5488
  198MPD1    C2 3063   4.502   1.701  15.099  0.0513  0.6921  0.7821
  198MPD1    C3 3064   4.484   1.733  15.235  0.6110  0.0745  0.4797
  198MPD1    C4 3065   4.370   1.684  15.308  0.2930 -1.1163  0.9166
  198MPD1    C5 3066   4.273   1.611  15.234 -0.6376 -0.1110 -0.9040
  198MPD1     H 3067   4.593   1.739  15.053  0.6680 -1.2266  0.4260
  198MPD1    H1 3068   4.345   1.705  15.411 -0.3237  1.1076  0.3117
  198MPD1    H2 3069   4.219   1.525  15.057 -0.7958 -0.0258  1.5647
  198MPD1    H3 3070   4.179   1.580  15.277  0.0273 -0.9444 -0.0577
  198MPD1     N 3071   4.585   1.816  15.291  0.4521  0.6501 -0.3733
  198MPD1    H5 3072   4.673   1.828  15.241  0.6489  1.3706  0.1476
  198MPD1    N1 3073   4.408   1.597  14.897 -0.0254 -0.1721 -0.2278
  198MPD1    H6 3074   4.363   1.509  14.872  1.7256 -0.8243 -1.1429
  198MPD1    H7 3075   4.498   1.607  14.850  0.6704 -0.1985  1.0993
  199MPD1     C 3076   1.498   3.620   9.700 -0.4357  0.3781 -0.2471
  199MPD1    C1 3077   1.476   3.746   9.641 -0.3605  0.2776 -0.1779
  199MPD1    C2 3078   1.447   3.856   9.722  0.4209  0.8585 -0.0122
  199MPD1    C3 3079   1.439   3.840   9.861 -0.5861  0.7298  0.1554
  199MPD1    C4 3080   1.446   3.713   9.917 -0.3505 -0.9031  0.2208
  199MPD1    C5 3081   1.467   3.606   9.835  0.6103 -0.1410  0.2405
  199MPD1     H 3082   1.435   3.950   9.671 -0.4079 -0.2181 -1.8040
  199MPD1    H1 3083   1.440   3.704  10.025 -0.3506 -2.3741  0.0964
  199MPD1    H2 3084   1.539   3.531   9.654  1.5797  1.4878 -0.5980
  199MPD1    H3 3085   1.485   3.504   9.867  1.3097 -0.4266 -1.0322
  199MPD1     N 3086   1.406   3.950   9.950  0.1937 -0.3304  0.0766
  199MPD1    H5 3087   1.405   3.929  10.049 -1.7110  0.7812  0.2960
  199MPD1    N1 3088   1.512   3.765   9.510  0.2565 -0.5245  0.3291
  199MPD1    H6 3089   1.459   3.845   9.477 -0.6311 -0.7559  1.2003
  199MPD1    H7 3090   1.499   3.687   9.446 -3.3010  0.9773 -0.7857
  200MPD1     C 3091   1.096   3.098  14.499 -0.0760 -0.2334  0.8505
  200MPD1    C1 3092   1.026   3.165  14.402  0.0868  1.1385  0.5497
  200MPD1    C2 3093   1.100   3.232  14.308  0.2088 -0.2953 -0.5374
  200MPD1    C3 3094   1.233   3.234  14.308 -0.4081 -0.0855  0.4147
  200MPD1    C4 3095   1.300   3.165  14.399  0.2366  0.8104 -0.3307
  200MPD1    C5 3096   1.231   3.097  14.500 -0.0910  0.2351  0.3760
  200MPD1     H 3097   1.055   3.270  14.217 -0.9788 -0.8820 -0.1919
  200MPD1    H1 3098   1.407   3.145  14.402 -0.0576 -0.8194 -0.4802
  200MPD1    H2 3099   1.056   3.044  14.584 -0.2962  1.5497  1.8740
  200MPD1    H3 3100   1.290   3.041  14.572  2.2403  1.2105 -0.7873
  200MPD1     N 3101   1.305   3.299  14.196 -0.4499  0.1451 -1.0672
  200MPD1    H5 3102   1.252   3.316  14.112 -2.5930  0.7707  0.4027
  200MPD1    N1 3103   0.890   3.143  14.389 -0.0557 -0.6715 -0.3842
  200MPD1    H6 3104   0.832   3.205  14.333 -1.8495 -2.0536 -0.0472
  200MPD1    H7 3105   0.840   3.123  14.475  1.4316 -0.7918  0.4658
  201MPD1     C 3106   3.073   2.540  13.034 -0.3463  0.4547 -0.3350
  201MPD1    C1 3107   2.973   2.477  13.107 -0.2430  0.6095 -0.4605
  201MPD1    C2 3108   2.975   2.343  13.129  0.0037 -0.3436  0.3912
  201MPD1    C3 3109   3.062   2.256  13.061 -0.4194 -0.2367  0.1367
  201MPD1    C4 3110   3.161   2.319  12.992  0.3657  0.1381 -0.6515
  201MPD1    C5 3111   3.162   2.452  12.969 -0.0571  0.1150  0.1010
  201MPD1     H 3112   2.903   2.296  13.195 -1.1529 -1.5548 -1.7408
  201MPD1    H1 3113   3.232   2.259  12.936 -0.8700  0.9983 -3.1808
  201MPD1    H2 3114   3.089   2.647  13.028  0.4844  0.5440  3.2461
  201MPD1    H3 3115   3.240   2.499  12.911  1.3216 -1.9336  0.3070
  201MPD1     N 3116   3.070   2.116  13.094  0.2651 -0.0203  0.0098
  201MPD1    H5 3117   3.010   2.078  13.167 -1.6879  1.1243 -0.9918
  201MPD1    N1 3118   2.887   2.563  13.181 -0.9997 -0.3767  0.3169
  201MPD1    H6 3119   2.794   2.524  13.198 -1.7200  1.2182  0.0506
  201MPD1    H7 3120   2.875   2.651  13.131 -0.7181 -1.4978 -1.7208
  202MPD1     C 3121   2.827   1.480   9.374  0.0690 -0.0868  0.1121
  202MPD1    C1 3122   2.828   1.585   9.465 -0.4255  0.1399 -0.0670
  202MPD1    C2 3123   2.939   1.584   9.543 -0.0949 -1.1264 -0.7823
  202MPD1    C3 3124   3.056   1.518   9.510 -0.0975  0.3151 -0.1242
  202MPD1    C4 3125   3.055   1.430   9.408 -0.4687  0.3073 -0.0757
  202MPD1    C5 3126   2.931   1.402   9.346 -0.1979 -0.2346  0.2251
  202MPD1     H 3127   2.938   1.652   9.627  2.5904 -0.9069 -0.9343
  202MPD1    H1 3128   3.143   1.382   9.366  0.1664  0.6764  0.8342
  202MPD1    H2 3129   2.737   1.455   9.319 -1.8348 -0.1607  3.2605
  202MPD1    H3 3130   2.930   1.319   9.276  0.0782  0.5223 -0.6844
  202MPD1     N 3131   3.173   1.541   9.584 -0.1227 -0.2536  0.2867
  202MPD1    H5 3132   3.250   1.479   9.561 -0.7093 -1.0897  0.5565
  202MPD1    N1 3133   2.699   1.618   9.516 -0.3571 -0.1776  0.2691
  202MPD1    H6 3134   2.617   1.629   9.455 -0.1535  1.0764  0.2190
  202MPD1    H7 3135   2.698   1.711   9.556  0.1633 -1.0554  2.3079
  203MPD1     C 3136   2.288   2.784  12.229 -0.0087 -0.7431  0.8194
  203MPD1    C1 3137   2.365   2.691  12.164 -1.7923 -0.0874 -0.0128
  203MPD1    C2 3138   2.356   2.562  12.199 -0.3089  0.1948 -0.2234
  203MPD1    C3 3139   2.297   2.530  12.315 -0.1520 -0.2361  0.6639
  203MPD1    C4 3140   2.210   2.614  12.380 -0.1782  0.7085 -0.0702
  203MPD1    C5 3141   2.203   2.741  12.330  0.6056  0.8233 -0.2134
  203MPD1     H 3142   2.420   2.493  12.145  0.0834 -1.3894  2.2939
  203MPD1    H1 3143   2.142   2.582  12.458  0.5076  0.5902  0.4743
  203MPD1    H2 3144   2.292   2.885  12.191  0.4093 -0.9328  0.3599
  203MPD1    H3 3145   2.133   2.811  12.374  2.6705  3.3872 -0.9704
  203MPD1     N 3146   2.315   2.394  12.359  0.4858 -0.3756 -0.1744
  203MPD1    H5 3147   2.360   2.334  12.291  0.6623 -2.9792  2.2591
  203MPD1    N1 3148   2.430   2.736  12.050 -0.0448  0.3905 -0.1376
  203MPD1    H6 3149   2.450   2.835  12.059  1.1577  0.3302 -2.3281
  203MPD1    H7 3150   2.516   2.684  12.036 -1.1644 -0.8225 -2.7325
  204MPD1     C 3151   1.770   4.483  17.642  0.5188 -0.2944  0.4016
  204MPD1    C1 3152   1.867   4.457  17.542 -0.2279  0.3228  0.4861
  204MPD1    C2 3153   1.871   4.335  17.495 -0.1683 -0.3082 -0.5801
  204MPD1    C3 3154   1.789   4.235  17.532  0.3101 -0.1839  0.1281
  204MPD1    C4 3155   1.694   4.253  17.629 -0.0154 -0.3774 -0.2298
  204MPD1    C5 3156   1.685   4.377  17.679 -0.2929 -0.0543 -0.5686
  204MPD1     H 3157   1.955   4.302  17.434  1.1033 -0.8425  1.4548
  204MPD1    H1 3158   1.623   4.180  17.666 -2.4336  0.5989 -2.9370
  204MPD1    H2 3159   1.751   4.581  17.684 -1.0695  0.1247 -1.3110
  204MPD1    H3 3160   1.609   4.390   0.019 -1.8842  2.2172 -2.5217
  204MPD1     N 3161   1.803   4.112  17.467 -0.4222  0.0215  0.1925
  204MPD1    H5 3162   1.867   4.110  17.388 -0.3455 -2.7335  0.3107
  204MPD1    N1 3163   1.968   4.548  17.516 -0.3205  0.0162 -0.2497
  204MPD1    H6 3164   2.017   4.536  17.428  0.2740 -0.7284  0.1786
  204MPD1    H7 3165   1.932   4.643  17.514 -1.5349 -0.4182  0.8800
  205MPD1     C 3166   1.604   2.209   0.124 -0.3656 -0.1848 -1.0050
  205MPD1    C1 3167   1.733   2.204   0.072 -0.4951 -0.5271  0.4238
  205MPD1    C2 3168   1.789   2.319   0.020  0.6131 -0.2525 -0.3849
  205MPD1    C3 3169   1.704   2.431  17.735  0.6372  0.1846 -0.1953
  205MPD1    C4 3170   1.573   2.430   0.050 -0.0770  0.4477  0.6032
  205MPD1    C5 3171   1.530   2.321   0.113 -0.2437 -0.9249 -0.4233
  205MPD1     H 3172   1.893   2.327  17.727  1.1400  0.2754  1.6024
  205MPD1    H1 3173   1.521   2.525   0.053 -0.7458  0.1480 -1.2510
  205MPD1    H2 3174   1.556   2.121   0.164  1.7735 -0.4384  1.0121
  205MPD1    H3 3175   1.434   2.335   0.160  0.1900  2.0513 -0.4253
  205MPD1     N 3176   1.752   2.552  17.686  0.6369  0.6501 -0.1268
  205MPD1    H5 3177   1.681   2.623  17.674  1.2978  1.5136  1.0866
  205MPD1    N1 3178   1.815   2.089   0.094  0.4653  0.1393  0.5046
  205MPD1    H6 3179   1.746   2.014   0.100  1.2246 -0.6248 -0.2435
  205MPD1    H7 3180   1.871   2.079   0.010 -4.5141 -0.7140 -2.7453
  206MPD1     C 3181   2.228   0.197  14.908 -0.4960 -0.3399  0.1174
  206MPD1    C1 3182   2.302   0.115  14.991 -0.3092  0.2570  0.2387
  206MPD1    C2 3183   2.247   0.067  15.114  0.8386 -0.0686 -0.5239
  206MPD1    C3 3184   2.116   0.108  15.150  0.3095  0.3361 -0.7612
  206MPD1    C4 3185   2.050   0.202  15.071 -0.1244  0.1732 -0.5654
  206MPD1    C5 3186   2.100   0.238  14.944  0.3514 -0.9442  0.8257
  206MPD1     H 3187   2.309   0.021  15.190  0.0284  0.3091  0.3790
  206MPD1    H1 3188   1.949   0.236  15.093 -0.6839 -2.2299  0.6304
  206MPD1    H2 3189   2.268   0.237  14.815 -2.6474  0.9165 -0.2690
  206MPD1    H3 3190   2.040   0.301  14.879  0.7421 -0.1161  1.2589
  206MPD1     N 3191   2.064   0.071  15.273 -0.3682  0.5820 -0.4164
  206MPD1    H5 3192   1.975   0.114  15.297  0.1507  2.2012 -1.4343
  206MPD1    N1 3193   2.442   0.087  14.967  0.3344  0.4286 -0.0034
  206MPD1    H6 3194   2.466   0.098  14.868  1.8220  1.1777  0.4390
  206MPD1    H7 3195   2.469   4.727  14.994  2.9757  1.6480  1.6021
  207MPD1     C 3196   4.038   3.760   9.900  1.0775 -1.0873  0.1840
  207MPD1    C1 3197   3.982   3.637   9.922  0.1788  0.0301  0.6757
  207MPD1    C2 3198   4.058   3.525   9.954 -0.1143  0.3017  0.6929
  207MPD1    C3 3199   4.190   3.541   9.990 -0.0226 -0.1272  0.0875
  207MPD1    C4 3200   4.241   3.667   9.985 -0.6009  0.3161  0.2501
  207MPD1    C5 3201   4.165   3.770   9.939  0.1091  0.4077  0.4742
  207MPD1     H 3202   4.009   3.428   9.958 -0.3317  0.3867  0.0913
  207MPD1    H1 3203   4.345   3.677  10.014 -0.1106 -0.9116 -1.1016
  207MPD1    H2 3204   3.981   3.842   9.856  1.0341 -1.3285 -0.2083
  207MPD1    H3 3205   4.219   3.865   9.938 -0.3698  0.6790  0.5744
  207MPD1     N 3206   4.274   3.434  10.035 -0.9758  0.3135 -0.0587
  207MPD1    H5 3207   4.362   3.460  10.078 -0.1875 -0.0585 -1.4219
  207MPD1    N1 3208   3.852   3.621   9.869  0.1282  0.1613  0.4200
  207MPD1    H6 3209   3.798   3.705   9.891  2.0055  1.6333 -0.6219
  207MPD1    H7 3210   3.803   3.545   9.917 -1.6717  0.4593 -0.9289
  208MPD1     C 3211   2.767   1.385  16.637  0.6677  0.2598  0.2282
  208MPD1    C1 3212   2.741   1.513  16.604  0.0836 -1.1032  0.8402
  208MPD1    C2 3213   2.670   1.594  16.692  0.1940  0.5531 -0.4567
  208MPD1    C3 3214   2.634   1.554  16.819 -0.4901 -0.3279  0.0378
  208MPD1    C4 3215   2.658   1.423  16.848 -0.4979  1.2718 -0.9414
  208MPD1    C5 3216   2.722   1.342  16.757 -0.4302  0.2378 -1.1879
  208MPD1     H 3217   2.646   1.688  16.642  0.9288  0.1439 -1.5644
  208MPD1    H1 3218   2.622   1.371  16.936  0.1185 -0.1547 -1.5243
  208MPD1    H2 3219   2.811   1.313  16.569  0.8541 -0.7908  1.4453
  208MPD1    H3 3220   2.743   1.238  16.781 -1.9442  0.4066  0.7547
  208MPD1     N 3221   2.568   1.641  16.911  0.1934 -0.4722 -0.4033
  208MPD1    H5 3222   2.554   1.739  16.888 -0.5730 -0.6217 -0.5686
  208MPD1    N1 3223   2.760   1.549  16.467 -0.6551 -0.0391 -0.1432
  208MPD1    H6 3224   2.783   1.648  16.468  1.4290 -0.5208 -0.3987
  208MPD1    H7 3225   2.846   1.509  16.430 -0.7460  0.8650 -1.3292
  209MPD1     C 3226   4.260   1.374  10.247 -0.4041 -0.2606  0.7404
  209MPD1    C1 3227   4.347   1.394  10.349 -0.0684  0.3181 -0.6381
  209MPD1    C2 3228   4.365   1.525  10.397 -0.7571 -0.0220  0.2495
  209MPD1    C3 3229   4.287   1.627  10.346 -0.0302 -0.4415  0.5252
  209MPD1    C4 3230   4.191   1.605  10.254  0.7426 -0.4135  0.6775
  209MPD1    C5 3231   4.179   1.479  10.203 -0.0874 -0.1935 -0.0651
  209MPD1     H 3232   4.433   1.550  10.478 -0.7450 -1.3696  0.6552
  209MPD1    H1 3233   4.146   1.684  10.196 -0.2497 -0.2316  1.7002
  209MPD1    H2 3234   4.247   1.274  10.208  1.5895 -0.6064  0.9349
  209MPD1    H3 3235   4.096   1.457  10.137  0.1713 -0.7659 -0.2010
  209MPD1     N 3236   4.311   1.756  10.401 -0.0842  0.0698  0.6035
  209MPD1    H5 3237   4.378   1.759  10.478 -0.2874  0.4157  0.7701
  209MPD1    N1 3238   4.402   1.284  10.416  0.7270 -0.0432 -0.1233
  209MPD1    H6 3239   4.428   1.206  10.355  0.5410  0.4512 -0.8317
  209MPD1    H7 3240   4.483   1.306  10.473  1.4022  1.0113 -1.4771
  210MPD1     C 3241   0.040   2.253  11.147  0.1505 -0.0740  0.5176
  210MPD1    C1 3242   4.696   2.140  11.118 -0.2714 -0.3279  0.2519
  210MPD1    C2 3243   4.635   2.122  11.000 -0.1730  0.3232  0.1835
  210MPD1    C3 3244   4.644   2.211  10.900 -0.4574  0.2948 -0.7567
  210MPD1    C4 3245   4.717   2.322  10.925  0.6747  0.2261 -0.5643
  210MPD1    C5 3246   0.038   2.348  11.047  0.7538  0.2131  1.1496
  210MPD1     H 3247   4.573   2.034  10.992 -1.6086  1.3703 -0.1413
  210MPD1    H1 3248   0.004   2.396  10.849  0.1551  1.5119  0.5413
  210MPD1    H2 3249   0.092   2.279  11.239  0.5138 -0.2637  0.3645
  210MPD1    H3 3250   0.080   2.445  11.072 -1.6245  1.1511  1.4838
  210MPD1     N 3251   4.586   2.186  10.775  0.5827  0.2151 -0.3365
  210MPD1    H5 3252   4.590   2.257  10.702  1.1501 -0.3459 -0.8516
  210MPD1    N1 3253   4.687   2.040  11.217 -0.4940 -0.2952 -0.2231
  210MPD1    H6 3254   4.696   2.087  11.308 -0.5797  0.7599 -0.7574
  210MPD1    H7 3255   4.603   1.984  11.207  0.2485 -1.2826 -0.8637
  211MPD1     C 3256   2.565   2.095  15.748  0.6741  0.1770  0.2015
  211MPD1    C1 3257   2.543   2.231  15.724 -0.1482 -0.1719 -0.6148
  211MPD1    C2 3258   2.432   2.293  15.785  0.4666  0.1206 -0.2971
  211MPD1    C3 3259   2.338   2.216  15.847 -0.3518  0.7782 -0.5204
  211MPD1    C4 3260   2.351   2.072  15.855  1.1079 -0.3124 -0.4531
  211MPD1    C5 3261   2.467   2.019  15.808 -0.2675  0.7956  0.3534
  211MPD1     H 3262   2.426   2.401  15.784 -1.4810  0.0308  1.1757
  211MPD1    H1 3263   2.278   2.004  15.897 -0.9493  0.3375 -2.9780
  211MPD1    H2 3264   2.659   2.050  15.720 -0.0989 -0.3780 -1.4786
  211MPD1    H3 3265   2.492   1.914  15.819 -0.7247  0.5004 -1.3061
  211MPD1     N 3266   2.212   2.276  15.893  0.4660  0.1564  0.1415
  211MPD1    H5 3267   2.189   2.366  15.851  1.6301 -0.1986 -1.2597
  211MPD1    N1 3268   2.646   2.312  15.680  0.4410 -0.2369 -0.3971
  211MPD1    H6 3269   2.699   2.262  15.609  0.0623 -1.2083  0.0146
  211MPD1    H7 3270   2.610   2.395  15.633 -0.8839 -0.8219 -0.4026
  212MPD1     C 3271   1.457   0.832  16.367 -0.6710 -0.5198 -0.9273
  212MPD1    C1 3272   1.323   0.856  16.369  0.3764 -0.3270 -0.6302
  212MPD1    C2 3273   1.237   0.770  16.440  0.0451  0.0673 -0.4256
  212MPD1    C3 3274   1.276   0.677  16.526 -0.4030  0.5966  0.1866
  212MPD1    C4 3275   1.414   0.656  16.528  0.0967 -0.3474 -0.6269
  212MPD1    C5 3276   1.502   0.727  16.452  0.2219  0.3024  0.1066
  212MPD1     H 3277   1.133   0.797  16.426  0.0386  0.5192  0.5181
  212MPD1    H1 3278   1.457   0.581  16.594  0.4766  0.1744 -0.2811
  212MPD1    H2 3279   1.532   0.894  16.319  0.7571 -1.7942 -0.3429
  212MPD1    H3 3280   1.609   0.710  16.453 -0.0092 -1.1881 -1.4249
  212MPD1     N 3281   1.194   0.595  16.607  0.0806  0.2907  0.2571
  212MPD1    H5 3282   1.243   0.517  16.650 -0.7534  0.4663  1.4992
  212MPD1    N1 3283   1.273   0.952  16.276 -0.2378  0.0758 -0.0957
  212MPD1    H6 3284   1.341   1.020  16.243  0.7549 -0.6616  0.4527
  212MPD1    H7 3285   1.184   0.995  16.301 -0.3561 -0.0997 -0.2200
  213MPD1     C 3286   4.082   1.099  15.837  0.0833  0.3781  0.2119
  213MPD1    C1 3287   3.996   1.206  15.858  0.0600  0.2246 -0.3241
  213MPD1    C2 3288   3.896   1.220  15.758 -0.4065 -0.2249  0.4089
  213MPD1    C3 3289   3.921   1.177  15.633  0.5110  0.0679 -0.2939
  213MPD1    C4 3290   4.031   1.097  15.603  0.0430 -0.0333 -0.4071
  213MPD1    C5 3291   4.100   1.053  15.713 -0.1646 -0.0836 -0.2536
  213MPD1     H 3292   3.803   1.270  15.781 -0.0482  0.9712 -0.7442
  213MPD1    H1 3293   4.056   1.056  15.506  0.8539 -0.1587 -0.1477
  213MPD1    H2 3294   4.154   1.064  15.910  0.7628  0.7949 -0.2576
  213MPD1    H3 3295   4.175   0.977  15.699  0.5547 -0.0371  3.3228
  213MPD1     N 3296   3.826   1.204  15.532  0.3145 -0.5250 -0.7598
  213MPD1    H5 3297   3.749   1.267  15.551 -0.2542 -1.4960  0.1632
  213MPD1    N1 3298   3.964   1.232  15.990  0.0326  0.4409 -0.0873
  213MPD1    H6 3299   4.045   1.241  16.052 -0.9316  0.8098  1.1096
  213MPD1    H7 3300   3.908   1.317  16.000 -1.7478 -0.5336 -1.9742
  214MPD1     C 3301   2.997   0.816  15.075  0.1736 -0.2494  0.2652
  214MPD1    C1 3302   3.079   0.805  15.186  0.2797  0.2628  0.6474
  214MPD1    C2 3303   3.185   0.895  15.205  0.0237  0.3092 -0.2257
  214MPD1    C3 3304   3.220   0.986  15.106  0.2046 -0.5075  0.3323
  214MPD1    C4 3305   3.131   0.992  14.992 -0.3039  0.3636  0.3791
  214MPD1    C5 3306   3.028   0.905  14.979  0.3580 -0.0023  0.3048
  214MPD1     H 3307   3.236   0.884  15.300  2.6015  1.9836 -1.3855
  214MPD1    H1 3308   3.151   1.057  14.908 -0.4178 -0.7512 -0.5211
  214MPD1    H2 3309   2.912   0.750  15.066 -1.2038  1.2870  1.8575
  214MPD1    H3 3310   2.961   0.910  14.894  0.6660 -0.9858  0.0058
  214MPD1     N 3311   3.335   1.069  15.123 -0.2656  0.3953 -0.0556
  214MPD1    H5 3312   3.353   1.137  15.050 -1.2562  0.0704 -0.5959
  214MPD1    N1 3313   3.039   0.718  15.288  0.2709  0.2506  0.2530
  214MPD1    H6 3314   2.987   0.641  15.247  0.7294  1.2788 -2.2553
  214MPD1    H7 3315   3.123   0.686  15.336  1.3032  1.9811 -0.3831
  215MPD1     C 3316   3.968   1.788  11.025  0.3135 -0.2813  0.0294
  215MPD1    C1 3317   4.046   1.813  11.135 -0.2025 -0.4820  0.6418
  215MPD1    C2 3318   4.122   1.924  11.129  0.2084  0.1056  0.3496
  215MPD1    C3 3319   4.112   2.010  11.027 -1.0837 -0.4402 -0.0008
  215MPD1    C4 3320   4.026   1.988  10.919 -0.0995  0.4480 -0.3281
  215MPD1    C5 3321   3.963   1.869  10.913 -0.0534  0.4529  0.0663
  215MPD1     H 3322   4.179   1.953  11.216 -0.0367  0.1211  0.5033
  215MPD1    H1 3323   4.037   2.049  10.830  0.6796  0.5617 -0.1513
  215MPD1    H2 3324   3.896   1.707  11.031 -1.6762  1.3939 -1.4480
  215MPD1    H3 3325   3.899   1.847  10.828 -1.0749 -2.7640  1.6378
  215MPD1     N 3326   4.190   2.124  11.041 -0.0074  0.1206  0.3815
  215MPD1    H5 3327   4.249   2.135  11.122 -1.5114 -0.4239  1.5435
  215MPD1    N1 3328   4.030   1.755  11.257 -1.1455  0.2826 -0.0674
  215MPD1    H6 3329   3.963   1.679  11.262 -0.1647 -0.7086 -2.3043
  215MPD1    H7 3330   4.111   1.753  11.318 -0.5546  3.0481 -0.7682
  216MPD1     C 3331   0.764   1.112  17.644 -0.0470 -0.0789  0.8530
  216MPD1    C1 3332   0.800   1.039  17.537  0.6486  0.1737  0.3797
  216MPD1    C2 3333   0.924   0.976  17.539 -0.0112 -0.1235  0.3091
  216MPD1    C3 3334   1.010   0.993  17.639 -0.8487  0.2589 -0.1908
  216MPD1    C4 3335   0.965   1.048   0.017 -0.4945  0.6317  0.0475
  216MPD1    C5 3336   0.843   1.110   0.021 -0.0167 -0.4937 -0.5894
  216MPD1     H 3337   0.960   0.936  17.445 -0.4516 -0.2564  0.1966
  216MPD1    H1 3338   1.020   1.051   0.111  0.7444 -1.7994 -0.6026
  216MPD1    H2 3339   0.664   1.153  17.650 -0.7387 -1.6488 -0.1350
  216MPD1    H3 3340   0.816   1.158   0.115  1.6080  2.9357 -1.8613
  216MPD1     N 3341   1.150   0.959  17.619 -0.2545 -0.2007 -0.1822
  216MPD1    H5 3342   1.167   0.904  17.535  1.1391  2.0184 -1.3640
  216MPD1    N1 3343   0.708   1.026  17.433 -0.2426 -0.1368 -0.8160
  216MPD1    H6 3344   0.760   1.014  17.346  0.2471 -0.2900 -0.4987
  216MPD1    H7 3345   0.650   1.109  17.426  1.0288  0.8811  0.8690
  217MPD1     C 3346   2.082   2.657   9.633  0.5029  0.4345 -0.0094
  217MPD1    C1 3347   1.957   2.619   9.579  1.0134  0.1991  0.2144
  217MPD1    C2 3348   1.915   2.492   9.600  0.2493  0.1895 -0.4261
  217MPD1    C3 3349   1.988   2.396   9.672 -0.7404 -0.1789  0.3872
  217MPD1    C4 3350   2.110   2.435   9.720 -0.5376  0.4663 -0.6978
  217MPD1    C5 3351   2.148   2.565   9.709  0.2614  0.5190 -0.0639
  217MPD1     H 3352   1.825   2.461   9.547 -0.6758 -0.3822  1.4844
  217MPD1    H1 3353   2.178   2.371   9.776 -1.7760  0.6231  0.9959
  217MPD1    H2 3354   2.114   2.758   9.613 -0.2040  0.6632  0.0276
  217MPD1    H3 3355   2.230   2.605   9.767  0.2620  1.5029 -0.7432
  217MPD1     N 3356   1.945   2.263   9.693 -0.4830 -0.0583 -0.3091
  217MPD1    H5 3357   2.012   2.200   9.736  1.3342  0.4422 -2.3956
  217MPD1    N1 3358   1.898   2.701   9.479  0.1970  0.0422  0.1104
  217MPD1    H6 3359   1.805   2.666   9.457  0.7095 -0.9381 -0.4972
  217MPD1    H7 3360   1.883   2.799   9.504 -0.1111  0.3349 -1.1977
  218MPD1     C 3361   3.271   2.928  13.054  0.3956  0.2805  0.4653
  218MPD1    C1 3362   3.315   2.827  13.137  0.4152  1.2289 -0.0839
  218MPD1    C2 3363   3.402   2.745  13.076  0.3738  0.0753  0.2333
  218MPD1    C3 3364   3.442   2.758  12.947 -0.9616  0.0737  0.2068
  218MPD1    C4 3365   3.393   2.856  12.867  0.0443 -0.4625 -0.0728
  218MPD1    C5 3366   3.304   2.939  12.926 -0.1014 -0.1862 -0.3283
  218MPD1     H 3367   3.433   2.661  13.137  1.6653  1.0167  0.8741
  218MPD1    H1 3368   3.416   2.872  12.762  2.6354 -1.8225  0.2876
  218MPD1    H2 3369   3.205   3.003  13.096  0.0411 -0.1132  0.6211
  218MPD1    H3 3370   3.257   3.020  12.871 -0.3405  0.5151  0.9117
  218MPD1     N 3371   3.541   2.670  12.896  0.1989  0.6341  0.2340
  218MPD1    H5 3372   3.584   2.604  12.961  0.8256 -0.1225 -0.9602
  218MPD1    N1 3373   3.246   2.806  13.265 -0.1101 -0.3944  0.4540
  218MPD1    H6 3374   3.216   2.895  13.306  2.9716  1.6421 -1.7505
  218MPD1    H7 3375   3.301   2.756  13.334 -0.5051 -1.4239  0.0245
  219MPD1     C 3376   4.358   2.406  12.233  0.0639 -0.2435  0.5131
  219MPD1    C1 3377   4.317   2.533  12.266  0.1746 -0.2546 -0.4471
  219MPD1    C2 3378   4.212   2.542  12.359  0.1635 -0.0566  0.3206
  219MPD1    C3 3379   4.163   2.430  12.423 -0.2367  0.7029 -0.1307
  219MPD1    C4 3380   4.209   2.305  12.387 -0.8066  0.4620  0.2529
  219MPD1    C5 3381   4.298   2.295  12.285  0.2607  0.0736  1.1366
  219MPD1     H 3382   4.168   2.639  12.376 -0.7812 -0.7718  1.9000
  219MPD1    H1 3383   4.165   2.214  12.427  2.1680 -0.4567  1.3981
  219MPD1    H2 3384   4.441   2.391  12.165 -0.0838 -0.4341  0.3761
  219MPD1    H3 3385   4.332   2.198  12.252  0.6410  0.7955 -0.5613
  219MPD1     N 3386   4.058   2.436  12.519  0.9916 -0.6815  0.0098
  219MPD1    H5 3387   4.014   2.352  12.555 -0.4440  0.4513  0.8991
  219MPD1    N1 3388   4.361   2.645  12.192  0.1559 -0.1928  0.2304
  219MPD1    H6 3389   4.327   2.732  12.233 -0.5197 -0.1463 -0.4272
  219MPD1    H7 3390   4.461   2.639  12.175 -0.0211 -1.2625 -0.4105
  220MPD1     C 3391   3.566   3.609  10.005  0.3247  0.3149  0.2444
  220MPD1    C1 3392   3.653   3.611  10.108 -0.5558 -1.2099 -0.0754
  220MPD1    C2 3393   3.705   3.489  10.156  0.1443 -0.1713  0.2051
  220MPD1    C3 3394   3.683   3.376  10.082  0.5273 -0.0241 -0.1313
  220MPD1    C4 3395   3.591   3.379   9.973 -0.8721 -0.0270 -0.2767
  220MPD1    C5 3396   3.530   3.495   9.940 -0.8072 -0.0593  0.5092
  220MPD1     H 3397   3.757   3.473  10.249 -1.6303 -0.3621  1.1636
  220MPD1    H1 3398   3.566   3.289   9.918 -0.1972 -2.7677  3.8364
  220MPD1    H2 3399   3.515   3.704   9.987  0.5613  0.0827 -1.7137
  220MPD1    H3 3400   3.456   3.494   9.861  0.3397  3.1084 -0.5972
  220MPD1     N 3401   3.756   3.262  10.114  0.3074 -0.4575 -0.5335
  220MPD1    H5 3402   3.818   3.273  10.193 -0.9610  1.6389  0.1535
  220MPD1    N1 3403   3.654   3.729  10.184  0.1298  0.4626 -0.2251
  220MPD1    H6 3404   3.653   3.814  10.128  1.9240  0.8090  0.2841
  220MPD1    H7 3405   3.716   3.744  10.263  3.1574 -2.0040 -2.1628
  221MPD1     C 3406   1.052   2.530  16.707  0.3739  1.0442 -0.1725
  221MPD1    C1 3407   1.133   2.631  16.659  0.6158  0.4685  0.1962
  221MPD1    C2 3408   1.267   2.608  16.633 -0.1448  0.4550  0.4247
  221MPD1    C3 3409   1.321   2.492  16.666  0.0301  0.4965  0.1214
  221MPD1    C4 3410   1.244   2.392  16.728 -0.3590  0.4956 -0.0005
  221MPD1    C5 3411   1.110   2.412  16.750  0.4882 -0.2870  0.6803
  221MPD1     H 3412   1.324   2.690  16.591  2.0975 -0.7429  1.1323
  221MPD1    H1 3413   1.280   2.294  16.756 -2.9028 -0.0298  1.4865
  221MPD1    H2 3414   0.946   2.552  16.717 -0.0338 -2.3263  2.9942
  221MPD1    H3 3415   1.047   2.337  16.797  0.0050 -1.2772 -1.5468
  221MPD1     N 3416   1.455   2.460  16.648  0.5792  0.2523  0.4613
  221MPD1    H5 3417   1.472   2.361  16.662  0.2921  0.3600  1.5615
  221MPD1    N1 3418   1.072   2.751  16.615 -0.2370  0.0229  0.1122
  221MPD1    H6 3419   1.130   2.834  16.625  0.9595 -0.7023 -0.7752
  221MPD1    H7 3420   0.981   2.762  16.658  0.3312  0.6982  1.1410
  222MPD1     C 3421   0.773   1.869   0.408  0.2835 -0.6767  0.2112
  222MPD1    C1 3422   0.671   1.826   0.326  0.0940  0.4661 -0.2937
  222MPD1    C2 3423   0.706   1.741   0.220  0.2351  1.1778 -0.3063
  222MPD1    C3 3424   0.838   1.691   0.210 -0.0485 -0.4090 -0.3502
  222MPD1    C4 3425   0.935   1.723   0.308 -0.5384 -0.2278  0.1220
  222MPD1    C5 3426   0.898   1.815   0.402  0.7187  0.5809  0.2112
  222MPD1     H 3427   0.630   1.719   0.146  0.4231  0.3848 -0.2654
  222MPD1    H1 3428   1.035   1.683   0.309 -0.9555 -1.3016 -2.0027
  222MPD1    H2 3429   0.752   1.950   0.478 -0.2105  0.9318 -1.7971
  222MPD1    H3 3430   0.972   1.837   0.479  1.0825  0.5457 -0.1325
  222MPD1     N 3431   0.880   1.604   0.107  0.0681  0.5730  0.1239
  222MPD1    H5 3432   0.972   1.563   0.117  0.8654  2.3898  0.1534
  222MPD1    N1 3433   0.549   1.888   0.329 -0.3208 -0.4876 -0.6800
  222MPD1    H6 3434   0.519   1.915   0.423 -0.8705  1.3848 -1.3857
  222MPD1    H7 3435   0.472   1.837   0.287 -1.8142  1.6679 -0.6084
  223MPD1     C 3436   0.785   1.169  16.851  0.6187  0.6859 -0.6498
  223MPD1    C1 3437   0.913   1.201  16.877 -0.4416 -0.2500  0.3823
  223MPD1    C2 3438   0.942   1.263  17.000  0.8567  0.4593 -0.2146
  223MPD1    C3 3439   0.838   1.285  17.091 -0.2675  0.2566 -0.0049
  223MPD1    C4 3440   0.712   1.241  17.066 -0.8692  0.1701 -0.3126
  223MPD1    C5 3441   0.684   1.190  16.944 -0.6348  0.5340  0.1214
  223MPD1     H 3442   1.042   1.300  17.021  0.4449  0.4846  1.6511
  223MPD1    H1 3443   0.627   1.262  17.129 -0.1122  2.1966  0.0702
  223MPD1    H2 3444   0.755   1.133  16.754 -0.9046  1.9733 -0.6546
  223MPD1    H3 3445   0.586   1.153  16.915 -0.9489  2.1077 -0.8242
  223MPD1     N 3446   0.878   1.351  17.213 -0.2094  0.1879  0.3667
  223MPD1    H5 3447   0.971   1.391  17.207 -0.3567  0.1786 -2.1964
  223MPD1    N1 3448   0.993   1.213  16.763 -0.5895 -0.7438 -0.2818
  223MPD1    H6 3449   1.088   1.184  16.789 -0.8649 -2.1056 -0.7559
  223MPD1    H7 3450   0.964   1.141  16.697 -0.4011 -1.9629  0.9502
  224MPD1     C 3451   4.060   1.756   9.307  0.0682 -0.0345 -0.4575
  224MPD1    C1 3452   4.060   1.885   9.261  0.3614  0.1763  0.3797
  224MPD1    C2 3453   3.943   1.956   9.249  0.3362  0.4763 -0.2588
  224MPD1    C3 3454   3.819   1.902   9.286 -0.4761 -0.2099 -0.1732
  224MPD1    C4 3455   3.815   1.776   9.336 -0.6284 -0.6306 -0.6137
  224MPD1    C5 3456   3.932   1.706   9.350 -0.0594 -1.1362  0.7579
  224MPD1     H 3457   3.959   2.058   9.215  0.5289 -0.7196 -3.7262
  224MPD1    H1 3458   3.722   1.729   9.366 -1.3074 -0.1003 -1.9037
  224MPD1    H2 3459   4.147   1.691   9.297 -0.0063 -0.1973 -0.0275
  224MPD1    H3 3460   3.924   1.603   9.380  1.3004 -1.6140 -0.4980
  224MPD1     N 3461   3.697   1.971   9.285  0.3625  0.0326  0.4569
  224MPD1    H5 3462   3.617   1.915   9.314 -0.1336 -0.0128 -1.0275
  224MPD1    N1 3463   4.177   1.932   9.199 -0.8368 -0.0105 -0.2244
  224MPD1    H6 3464   4.177   2.034   9.202 -1.6942  0.0223 -1.2618
  224MPD1    H7 3465   4.266   1.905   9.239 -0.2264 -0.8773 -2.1670
  225MPD1     C 3466   3.904   3.890  12.490  0.3240  0.3252 -0.5290
  225MPD1    C1 3467   3.937   3.758  12.465  0.0507  0.1928  0.2327
  225MPD1    C2 3468   3.840   3.686  12.390  0.4921  0.6753  1.0571
  225MPD1    C3 3469   3.725   3.745  12.343 -1.1347  0.7336 -0.3749
  225MPD1    C4 3470   3.705   3.878  12.368  0.0936  0.3607 -0.6289
  225MPD1    C5 3471   3.787   3.950  12.443  1.1425 -0.3933 -0.7947
  225MPD1     H 3472   3.859   3.581  12.371 -1.8900  0.3830  0.2857
  225MPD1    H1 3473   3.627   3.938  12.320  0.5724  0.8405 -0.8105
  225MPD1    H2 3474   3.958   3.951  12.560  1.3380  2.6306 -3.3144
  225MPD1    H3 3475   3.766   4.055  12.461  0.3457 -0.4067 -1.6465
  225MPD1     N 3476   3.626   3.673  12.267  0.1947 -0.1740  0.3495
  225MPD1    H5 3477   3.544   3.727  12.240  0.2241 -0.5168 -0.4157
  225MPD1    N1 3478   4.043   3.690  12.528  0.0816  0.6506  0.0856
  225MPD1    H6 3479   4.086   3.622  12.466  0.9230  1.4650 -0.2228
  225MPD1    H7 3480   4.119   3.750  12.560  0.6804 -0.1404  0.1394
  226MPD1     C 3481   3.743   4.384   8.835 -0.6661  0.4305 -0.1661
  226MPD1    C1 3482   3.801   4.360   8.958 -0.2048  0.6170 -0.3383
  226MPD1    C2 3483   3.751   4.247   9.024  0.1595  0.1368  0.2649
  226MPD1    C3 3484   3.636   4.184   8.983  0.1551 -0.7476  0.0993
  226MPD1    C4 3485   3.576   4.214   8.865 -0.8321 -0.2821 -0.3133
  226MPD1    C5 3486   3.627   4.313   8.795  0.3249 -0.5444  0.1887
  226MPD1     H 3487   3.797   4.227   9.120  4.3629  0.7532 -1.6376
  226MPD1    H1 3488   3.487   4.165   8.827 -0.4975 -0.6474 -0.6205
  226MPD1    H2 3489   3.770   4.463   8.766  0.6530  1.0034  1.0056
  226MPD1    H3 3490   3.575   4.337   8.703  1.6850  2.1251  0.1136
  226MPD1     N 3491   3.579   4.087   9.067  0.1207  0.2471 -0.0255
  226MPD1    H5 3492   3.634   4.062   9.148 -0.6284 -0.0932  0.3783
  226MPD1    N1 3493   3.914   4.422   8.998  0.6075  0.6596  0.6740
  226MPD1    H6 3494   3.930   4.413   9.098 -0.2699  1.5896  0.8967
  226MPD1    H7 3495   3.923   4.518   8.967  0.4384  1.0866  1.9404
  227MPD1     C 3496   2.681   3.558   9.070 -0.0355  0.0547 -0.2310
  227MPD1    C1 3497   2.738   3.641   8.979  0.3014  0.8360  0.6301
  227MPD1    C2 3498   2.862   3.706   9.003 -0.4194 -0.1670 -0.4373
  227MPD1    C3 3499   2.932   3.670   9.116 -0.2896  0.4195  0.5890
  227MPD1    C4 3500   2.886   3.569   9.201 -1.0011  0.7149  0.5043
  227MPD1    C5 3501   2.759   3.524   9.181  0.7358  0.2791 -0.1122
  227MPD1     H 3502   2.905   3.777   8.933 -1.1001  0.4293 -0.2629
  227MPD1    H1 3503   2.938   3.524   9.285 -0.1453 -1.6913 -1.3309
  227MPD1    H2 3504   2.579   3.524   9.060  0.5377 -1.3419 -1.3237
  227MPD1    H3 3505   2.719   3.454   9.254 -0.0804  0.6807 -0.1685
  227MPD1     N 3506   3.059   3.725   9.132  0.8695  0.1011  0.1550
  227MPD1    H5 3507   3.080   3.797   9.063  0.6121 -1.3335 -1.4256
  227MPD1    N1 3508   2.656   3.693   8.875 -0.5510  0.0533  0.7633
  227MPD1    H6 3509   2.603   3.620   8.827 -0.2381  1.3382 -1.5817
  227MPD1    H7 3510   2.723   3.726   8.805  2.5732 -1.8847  2.8707
  228MPD1     C 3511   0.920   1.214  12.948  0.3540 -0.2454 -0.5751
  228MPD1    C1 3512   0.808   1.268  12.892 -0.0020 -0.6521  0.1088
  228MPD1    C2 3513   0.682   1.214  12.941  0.0802  0.3115 -0.1259
  228MPD1    C3 3514   0.682   1.092  13.007  0.5335 -0.2883  0.4747
  228MPD1    C4 3515   0.800   1.026  13.034 -0.0077 -0.3961 -0.2223
  228MPD1    C5 3516   0.916   1.091  13.011  0.1896 -0.3397 -0.6772
  228MPD1     H 3517   0.590   1.265  12.918 -0.6073 -0.3429  1.2108
  228MPD1    H1 3518   0.801   0.934  13.092  2.8289 -0.5535 -0.5403
  228MPD1    H2 3519   1.018   1.253  12.924  1.2271 -1.6885  0.5840
  228MPD1    H3 3520   1.010   1.041  13.033  0.5245  2.1225  3.4198
  228MPD1     N 3521   0.561   1.042  13.051 -0.1928  0.2198 -0.4213
  228MPD1    H5 3522   0.481   1.104  13.056 -0.9899 -0.9720  1.4647
  228MPD1    N1 3523   0.817   1.392  12.822 -0.9326  0.0319 -0.4604
  228MPD1    H6 3524   0.746   1.395  12.749 -0.3881  2.8027 -0.8572
  228MPD1    H7 3525   0.907   1.411  12.778  0.5454 -2.2837  1.5748
  229MPD1     C 3526   4.441   4.387  14.449 -0.1704 -0.1194  0.0305
  229MPD1    C1 3527   4.493   4.476  14.544 -0.3223  0.2053  0.4927
  229MPD1    C2 3528   4.623   4.478  14.582  0.2322  0.0305  0.0602
  229MPD1    C3 3529   4.699   4.363  14.543 -0.4871  0.1791 -0.0897
  229MPD1    C4 3530   4.648   4.269  14.454  0.2330  0.2534  0.2711
  229MPD1    C5 3531   4.523   4.286  14.401 -0.2698  0.0149 -0.0009
  229MPD1     H 3532   4.657   4.552  14.653 -1.4880 -0.0752  0.9766
  229MPD1    H1 3533   4.707   4.184  14.423  2.1798  1.0219  1.8534
  229MPD1    H2 3534   4.337   4.379  14.422 -0.1502 -3.0457  0.8118
  229MPD1    H3 3535   4.475   4.214  14.336  0.4162 -2.3391  2.0977
  229MPD1     N 3536   0.096   4.345  14.595  0.3194 -0.3954  0.8870
  229MPD1    H5 3537   0.139   4.257  14.568  0.0260 -0.3008  0.1134
  229MPD1    N1 3538   4.420   4.590  14.583  0.0876  0.3959  0.0894
  229MPD1    H6 3539   4.460   4.636  14.665  1.0490 -1.3608  0.6054
  229MPD1    H7 3540   4.323   4.577  14.611  0.5537  1.4545  2.2032
  230MPD1     C 3541   0.846   4.526  15.391  0.3493 -0.3904  0.2235
  230MPD1    C1 3542   0.866   4.396  15.335  0.7112 -0.2115  0.4056
  230MPD1    C2 3543   0.777   4.354  15.250 -0.2845 -0.0065 -1.1110
  230MPD1    C3 3544   0.675   4.432  15.196 -0.5360  0.0778  0.0628
  230MPD1    C4 3545   0.657   4.558  15.244  0.6620  0.3941 -0.1462
  230MPD1    C5 3546   0.746   4.604  15.343 -0.8842 -1.0659 -0.1957
  230MPD1     H 3547   0.787   4.254  15.210  1.2137 -0.7337  1.0393
  230MPD1    H1 3548   0.582   4.631  15.213  1.7281  1.6470  0.2245
  230MPD1    H2 3549   0.912   4.563  15.468 -0.3376 -1.2750  1.2351
  230MPD1    H3 3550   0.717   4.697  15.391 -2.0538 -0.6920 -1.6258
  230MPD1     N 3551   0.582   4.373  15.093  0.3320 -0.1548 -0.1133
  230MPD1    H5 3552   0.603   4.278  15.066  2.8325 -0.2028  1.9911
  230MPD1    N1 3553   0.958   4.314  15.401  0.3733 -0.3003 -0.3900
  230MPD1    H6 3554   1.033   4.362  15.451 -0.0398 -0.7850  0.6972
  230MPD1    H7 3555   1.004   4.246  15.342  0.0890 -0.6216 -0.2405
  231MPD1     C 3556   3.214   1.459  15.291 -0.1498  0.0127  0.5201
  231MPD1    C1 3557   3.222   1.418  15.161  0.2008 -0.1991  0.2036
  231MPD1    C2 3558   3.308   1.481  15.076  0.0716  0.5387  0.0662
  231MPD1    C3 3559   3.404   1.566  15.128  0.3505 -0.1321 -0.1446
  231MPD1    C4 3560   3.396   1.614  15.260 -0.6535  0.5569 -0.7347
  231MPD1    C5 3561   3.301   1.558  15.336 -0.6578 -0.1748 -0.0003
  231MPD1     H 3562   3.316   1.464  14.969  0.3766 -0.6275  0.2685
  231MPD1    H1 3563   3.452   1.695  15.305 -0.4443  0.8475 -1.5116
  231MPD1    H2 3564   3.142   1.410  15.355 -0.1645 -1.2951 -0.4797
  231MPD1    H3 3565   3.287   1.595  15.437  0.3101 -1.7800  0.7171
  231MPD1     N 3566   3.492   1.625  15.043  0.3616  0.2905  0.2461
  231MPD1    H5 3567   3.478   1.607  14.944  1.3230 -1.2664  0.3914
  231MPD1    N1 3568   3.115   1.343  15.110 -0.5969  0.2292  0.2731
  231MPD1    H6 3569   3.145   1.302  15.022  2.1219  0.9367  0.8662
  231MPD1    H7 3570   3.076   1.274  15.174  0.5196  1.7402  2.5973
  232MPD1     C 3571   0.788   4.065  16.889  0.4662 -1.3221  0.1804
  232MPD1    C1 3572   0.770   3.983  17.001  0.3289 -0.7129  0.0652
  232MPD1    C2 3573   0.640   3.965  17.047  0.0457  0.4083  0.4639
  232MPD1    C3 3574   0.537   4.044  17.001  0.1736  0.1323  0.0725
  232MPD1    C4 3575   0.558   4.129  16.907 -0.2578 -0.6270 -0.0959
  232MPD1    C5 3576   0.682   4.144  16.848  0.8714 -0.0215 -0.6362
  232MPD1     H 3577   0.622   3.880  17.112  0.4097  0.0065  0.0363
  232MPD1    H1 3578   0.479   4.197  16.875 -0.9800 -2.0209 -1.3009
  232MPD1    H2 3579   0.884   4.068  16.838 -0.0952 -0.9092 -0.8686
  232MPD1    H3 3580   0.699   4.213  16.766  1.6953  0.3443 -0.1619
  232MPD1     N 3581   0.404   4.013  17.047 -0.0376  0.0743  0.6706
  232MPD1    H5 3582   0.391   3.949  17.125  1.7684 -0.6216  0.3900
  232MPD1    N1 3583   0.869   3.890  17.035 -0.9198 -0.8337  0.2938
  232MPD1    H6 3584   0.961   3.928  17.013 -1.4581  0.0843 -0.3671
  232MPD1    H7 3585   0.857   3.858  17.131 -0.6527  0.8867  0.8882
  233MPD1     C 3586   0.784   2.181   1.045  0.0733 -0.3033 -0.3376
  233MPD1    C1 3587   0.795   2.051   1.092 -0.0579 -0.5757 -0.3357
  233MPD1    C2 3588   0.921   1.998   1.109  0.2354 -0.5336  0.0754
  233MPD1    C3 3589   1.027   2.062   1.048  0.3211  0.3412  0.6368
  233MPD1    C4 3590   1.014   2.181   0.986 -0.1439  0.3086  0.5850
  233MPD1    C5 3591   0.895   2.243   0.995 -0.1010  1.2041 -0.2644
  233MPD1     H 3592   0.936   1.905   1.164 -0.2212 -1.9958 -2.2559
  233MPD1    H1 3593   1.093   2.248   0.954  2.1007 -2.9323 -0.6077
  233MPD1    H2 3594   0.689   2.230   1.024 -0.4126 -0.4380  1.5406
  233MPD1    H3 3595   0.887   2.337   0.941 -2.8296  0.4984 -1.1290
  233MPD1     N 3596   1.161   2.023   1.072 -0.0654 -0.2040  0.0755
  233MPD1    H5 3597   1.229   2.088   1.034  0.3419 -0.6251  0.0759
  233MPD1    N1 3598   0.688   1.983   1.145  0.3929 -0.4549  0.8774
  233MPD1    H6 3599   0.684   1.881   1.144  0.8300 -0.4493 -1.7487
  233MPD1    H7 3600   0.598   2.008   1.104  1.3289  0.3390 -0.6882
  234MPD1     C 3601   3.133   1.004   9.674  0.2482 -0.0013 -0.1720
  234MPD1    C1 3602   3.006   1.022   9.626  0.5968 -0.7440 -0.3110
  234MPD1    C2 3603   2.946   1.145   9.665  0.0479 -0.2643  0.5340
  234MPD1    C3 3604   3.000   1.223   9.770  0.0748 -0.4471  0.2185
  234MPD1    C4 3605   3.127   1.187   9.817 -0.2303 -0.1289  0.3472
  234MPD1    C5 3606   3.190   1.080   9.762  0.0046 -0.2110  0.5170
  234MPD1     H 3607   2.855   1.178   9.617  0.4489 -0.0174 -0.0648
  234MPD1    H1 3608   3.170   1.249   9.895 -0.8353  0.7905 -0.0529
  234MPD1    H2 3609   3.184   0.914   9.640  2.9422  1.4270  0.0322
  234MPD1    H3 3610   3.287   1.056   9.805  0.4041 -0.9261 -0.7877
  234MPD1     N 3611   2.923   1.334   9.812 -0.1903 -0.2333  0.7753
  234MPD1    H5 3612   2.836   1.347   9.762  0.8306  0.0938 -0.9273
  234MPD1    N1 3613   2.943   0.931   9.537 -0.1522  0.3713  0.9889
  234MPD1    H6 3614   2.987   0.839   9.535 -1.0252 -0.0172 -0.8447
  234MPD1    H7 3615   2.846   0.919   9.562 -0.1963 -3.2459 -0.9514
  235MPD1     C 3616   3.426   4.717   9.029  0.3011 -0.1843  0.3320
  235MPD1    C1 3617   3.447   0.116   9.036 -0.3045 -0.1984  0.2163
  235MPD1    C2 3618   3.574   0.162   9.002  1.2089 -0.3432 -0.4173
  235MPD1    C3 3619   3.673   0.084   8.949 -0.3736 -0.2646  0.2033
  235MPD1    C4 3620   3.655   4.685   8.947  0.3667 -0.3618  0.2383
  235MPD1    C5 3621   3.531   4.639   8.985  0.7463 -0.3086 -0.1814
  235MPD1     H 3622   3.588   0.269   8.989 -0.0070 -0.1482 -0.0980
  235MPD1    H1 3623   3.725   4.616   8.901  0.3865 -1.3201  1.6972
  235MPD1    H2 3624   3.329   4.680   9.060 -0.9581  1.8805 -1.1687
  235MPD1    H3 3625   3.513   4.535   8.960  3.0134  0.0523 -3.3620
  235MPD1     N 3626   3.799   0.143   8.917 -0.2120  0.1246 -0.0181
  235MPD1    H5 3627   3.806   0.241   8.942 -0.5850  0.3309 -0.7254
  235MPD1    N1 3628   3.357   0.205   9.094  0.5468  0.2093  0.0537
  235MPD1    H6 3629   3.363   0.304   9.068  0.7654  0.2147  0.1304
  235MPD1    H7 3630   3.265   0.172   9.064  1.1052  0.0364 -1.4838
  236MPD1     C 3631   4.150   3.698   9.495  0.1663  0.5705  0.4954
  236MPD1    C1 3632   4.232   3.757   9.583 -0.1084 -0.0450 -0.0562
  236MPD1    C2 3633   4.194   3.883   9.631 -0.3158 -0.0213 -0.4370
  236MPD1    C3 3634   4.065   3.935   9.609 -0.4491  0.4721  0.1870
  236MPD1    C4 3635   3.979   3.866   9.532  0.5126  0.3201  0.7066
  236MPD1    C5 3636   4.023   3.745   9.484  0.5190 -0.0089  0.1706
  236MPD1     H 3637   4.261   3.923   9.706 -2.3389  2.3456  0.1444
  236MPD1    H1 3638   3.879   3.898   9.505  1.1145 -1.2088 -3.3818
  236MPD1    H2 3639   4.182   3.601   9.459 -2.1962  1.4187 -3.9014
  236MPD1    H3 3640   3.967   3.681   9.417 -0.7372 -1.3315  2.4722
  236MPD1     N 3641   4.028   4.055   9.655  0.9508  0.7218 -0.2843
  236MPD1    H5 3642   3.933   4.091   9.653  0.5573 -0.3166 -0.1188
  236MPD1    N1 3643   4.363   3.708   9.606 -0.7642 -0.0137  0.6115
  236MPD1    H6 3644   4.377   3.608   9.593 -0.7524  0.0823 -0.0871
  236MPD1    H7 3645   4.405   3.732   9.696  0.5965  0.7985 -0.2504
  237MPD1     C 3646   3.939   2.890  14.953 -0.5007  0.0204 -0.6075
  237MPD1    C1 3647   3.875   2.849  15.075 -0.1974  0.2036 -0.1775
  237MPD1    C2 3648   3.738   2.819  15.081 -0.4989 -0.0555 -1.0435
  237MPD1    C3 3649   3.661   2.835  14.965  0.5807 -0.5519 -0.9582
  237MPD1    C4 3650   3.723   2.876  14.848  0.6579  0.4655 -0.2546
  237MPD1    C5 3651   3.860   2.902  14.845  0.4482  0.6010 -0.3988
  237MPD1     H 3652   3.698   2.767  15.167  3.4679  0.4357  1.0870
  237MPD1    H1 3653   3.662   2.891  14.760 -1.2522  0.1203  1.0036
  237MPD1    H2 3654   4.047   2.901  14.943  0.0590 -3.3847  1.7973
  237MPD1    H3 3655   3.896   2.925  14.745  3.1156 -0.2811  0.3472
  237MPD1     N 3656   3.526   2.792  14.951  0.4963 -0.0418 -0.0839
  237MPD1    H5 3657   3.488   2.787  14.857  2.4289 -0.6030 -0.8394
  237MPD1    N1 3658   3.957   2.802  15.182 -0.0917  0.2268  0.6783
  237MPD1    H6 3659   4.038   2.862  15.198  0.0816  0.1203  0.1998
  237MPD1    H7 3660   3.904   2.807  15.269  0.6172 -0.5486  1.1534
  238MPD1     C 3661   0.295   1.557  14.144 -0.1358 -0.3870  0.6248
  238MPD1    C1 3662   0.361   1.507  14.255  0.5211 -0.6836  0.1114
  238MPD1    C2 3663   0.297   1.406  14.327 -0.2449 -0.3026  0.2831
  238MPD1    C3 3664   0.192   1.338  14.272 -0.5679 -0.5314 -0.2272
  238MPD1    C4 3665   0.146   1.371  14.149  0.0807  0.2616  0.1937
  238MPD1    C5 3666   0.191   1.484  14.093  0.3412  0.0334 -0.0004
  238MPD1     H 3667   0.343   1.364  14.416  2.6679  0.6209 -0.7848
  238MPD1    H1 3668   0.071   1.313  14.096  0.7507 -0.3255 -0.1182
  238MPD1    H2 3669   0.340   1.648  14.104  1.2874  0.1401  3.4076
  238MPD1    H3 3670   0.142   1.520  14.003 -1.0802 -0.4939  0.5499
  238MPD1     N 3671   0.118   1.230  14.332  0.5921 -0.4155  0.1228
  238MPD1    H5 3672   0.056   1.183  14.268  0.2419  3.5465 -2.4552
  238MPD1    N1 3673   0.465   1.586  14.309 -0.5155 -0.4958 -0.0257
  238MPD1    H6 3674   0.523   1.530  14.372 -1.7279 -1.6836  0.0189
  238MPD1    H7 3675   0.525   1.634  14.243 -0.2179  0.0408  0.6248
  239MPD1     C 3676   0.629   1.773  13.795  0.4741 -0.0694 -0.4368
  239MPD1    C1 3677   0.674   1.845  13.898  0.1717  0.5392 -0.4571
  239MPD1    C2 3678   0.593   1.951  13.938 -0.0427 -0.5751 -0.4146
  239MPD1    C3 3679   0.476   1.984  13.872 -0.0730 -0.5477 -0.2398
  239MPD1    C4 3680   0.450   1.926  13.750 -0.1267  0.0610 -0.4746
  239MPD1    C5 3681   0.525   1.818  13.721  0.2206  0.9529 -0.1340
  239MPD1     H 3682   0.627   2.006  14.025  0.3903 -1.0392 -0.2932
  239MPD1    H1 3683   0.381   1.961  13.675  0.4411 -0.7617 -1.3747
  239MPD1    H2 3684   0.675   1.679  13.768  2.5789  0.5142  1.1483
  239MPD1    H3 3685   0.496   1.759  13.635 -1.2160  0.0916  0.9445
  239MPD1     N 3686   0.401   2.098  13.898  0.4923 -0.7395  0.2648
  239MPD1    H5 3687   0.316   2.116  13.844  0.9447 -0.6356 -0.4189
  239MPD1    N1 3688   0.773   1.791  13.981 -0.0105  0.8001 -0.0733
  239MPD1    H6 3689   0.825   1.862  14.032  0.9503 -0.0195  0.0809
  239MPD1    H7 3690   0.835   1.725  13.934 -1.2924 -0.0640 -0.5644
  240MPD1     C 3691   0.683   1.524  14.589  0.2094 -0.4693 -0.3716
  240MPD1    C1 3692   0.594   1.617  14.638 -0.0271  0.7041 -0.2653
  240MPD1    C2 3693   0.494   1.562  14.728  0.7357  0.7546  0.1877
  240MPD1    C3 3694   0.487   1.430  14.760  0.0576  0.4875 -0.4129
  240MPD1    C4 3695   0.568   1.340  14.693 -0.8928 -0.3442 -0.0071
  240MPD1    C5 3696   0.675   1.392  14.625  0.8312  0.1401  0.3002
  240MPD1     H 3697   0.428   1.636  14.771  1.4993  1.5700 -0.0262
  240MPD1    H1 3698   0.569   1.233  14.704  1.1440 -0.1711  1.5111
  240MPD1    H2 3699   0.767   1.547  14.524  0.1649  1.6752  0.3155
  240MPD1    H3 3700   0.747   1.331  14.572  0.7070  0.6029 -0.3965
  240MPD1     N 3701   0.393   1.384  14.850  0.5022 -0.3617 -0.9688
  240MPD1    H5 3702   0.327   1.455  14.882 -1.1289 -1.9872 -0.7324
  240MPD1    N1 3703   0.612   1.755  14.622  0.0515 -0.0439 -0.7097
  240MPD1    H6 3704   0.529   1.809  14.643  1.1830  2.3017 -2.2713
  240MPD1    H7 3705   0.662   1.787  14.539  0.6326  1.4185  0.2063
  241MPD1     C 3706   0.467   0.749  15.570  0.4650 -0.8759 -0.4711
  241MPD1    C1 3707   0.350   0.804  15.596  0.0891  0.0513 -0.1690
  241MPD1    C2 3708   0.318   0.911  15.512 -0.7389 -0.2626 -0.5217
  241MPD1    C3 3709   0.387   0.930  15.396  0.0309  0.3183 -0.2669
  241MPD1    C4 3710   0.502   0.853  15.364  0.1290 -0.6701  0.1447
  241MPD1    C5 3711   0.544   0.761  15.454 -0.1502 -0.7403  0.0563
  241MPD1     H 3712   0.229   0.963  15.545  0.2438 -0.5538  2.6447
  241MPD1    H1 3713   0.557   0.867  15.272  0.6945 -3.0595  0.1082
  241MPD1    H2 3714   0.508   0.687  15.648  0.3989  0.3486  0.5457
  241MPD1    H3 3715   0.639   0.713  15.435  1.0501  1.3024  0.8523
  241MPD1     N 3716   0.331   1.003  15.292 -0.4813  0.0266  0.6821
  241MPD1    H5 3717   0.376   0.999  15.202  0.2057  0.3844  1.0158
  241MPD1    N1 3718   0.298   0.807  15.725  0.6305  0.0739 -0.6582
  241MPD1    H6 3719   0.201   0.830  15.706  0.8146  2.6207  1.5947
  241MPD1    H7 3720   0.295   0.716  15.770 -1.2053  1.0100  1.0901
  242MPD1     C 3721   4.663   4.543  15.832 -0.1927  0.3350  0.2933
  242MPD1    C1 3722   4.541   4.602  15.812 -0.5265 -0.3214  0.3079
  242MPD1    C2 3723   4.529   4.677  15.697 -0.3119 -0.1283  0.5091
  242MPD1    C3 3724   4.625   4.661  15.592  0.2527 -0.6332  0.0557
  242MPD1    C4 3725   0.005   4.593  15.607 -0.3834  0.5638 -0.3885
  242MPD1    C5 3726   0.027   4.534  15.733 -0.1840  1.0283  0.0540
  242MPD1     H 3727   4.447   0.013  15.684 -0.7024 -0.7200 -0.2286
  242MPD1    H1 3728   0.073   4.581  15.524 -1.9126 -0.2655 -1.5267
  242MPD1    H2 3729   4.684   4.485  15.920 -1.7335  0.5058  0.7580
  242MPD1    H3 3730   0.122   4.492  15.763 -0.6656  0.8784  1.3845
  242MPD1     N 3731   4.619   4.727  15.465 -0.3036  1.0752 -0.1543
  242MPD1    H5 3732   4.696   4.709  15.402 -0.5647 -2.1749  0.4665
  242MPD1    N1 3733   4.455   4.600  15.919 -0.0251  0.0330 -0.2641
  242MPD1    H6 3734   4.456   4.519  15.980  1.7764  0.1082 -0.2112
  242MPD1    H7 3735   4.357   4.620  15.896  0.5778  2.8813 -0.3913
  243MPD1     C 3736   1.913   0.904  17.369  0.1093  0.5844  0.7684
  243MPD1    C1 3737   1.940   0.786  17.442  0.5020 -1.1680 -0.1007
  243MPD1    C2 3738   1.932   0.663  17.381 -0.0537 -0.0787  0.6992
  243MPD1    C3 3739   1.896   0.655  17.246 -0.5743 -0.0547  0.4572
  243MPD1    C4 3740   1.867   0.771  17.174  0.1044  0.4138 -0.1722
  243MPD1    C5 3741   1.877   0.890  17.234 -0.7052  0.2688 -0.5744
  243MPD1     H 3742   1.971   0.583  17.443 -0.6089 -1.0773 -0.2351
  243MPD1    H1 3743   1.840   0.770  17.069 -0.0978  1.8607 -0.1317
  243MPD1    H2 3744   1.932   1.006  17.402 -2.0182  0.6581  1.7398
  243MPD1    H3 3745   1.866   0.983  17.179  0.4706  0.8397  0.1535
  243MPD1     N 3746   1.912   0.524  17.182 -0.7555 -0.1296  0.8537
  243MPD1    H5 3747   1.927   0.447  17.247 -2.0066 -0.0527  1.2308
  243MPD1    N1 3748   1.998   0.798  17.575  0.4967  0.0406  0.5388
  243MPD1    H6 3749   1.962   0.884  17.617 -1.1088 -1.7416  2.8907
  243MPD1    H7 3750   1.968   0.716  17.628  2.0855 -1.8775 -1.5393
  244MPD1     C 3751   2.202   4.321  17.282 -0.0569 -0.0820  0.2951
  244MPD1    C1 3752   2.093   4.300  17.194  0.6395 -0.1625  0.3084
  244MPD1    C2 3753   2.020   4.409  17.144 -0.2904 -0.0633 -0.5988
  244MPD1    C3 3754   2.072   4.536  17.179  0.2282  0.7104  0.4677
  244MPD1    C4 3755   2.191   4.551  17.258 -0.4515 -0.2248  0.2622
  244MPD1    C5 3756   2.248   4.442  17.313 -0.3588 -0.4054 -0.4589
  244MPD1     H 3757   1.931   4.407  17.084 -0.6505 -0.5069 -0.0508
  244MPD1    H1 3758   2.226   4.651  17.282 -1.9753  0.3992 -0.1127
  244MPD1    H2 3759   2.260   4.233  17.307 -1.0902 -0.4939  1.2304
  244MPD1    H3 3760   2.338   4.445  17.374  1.0360 -2.1491 -2.4135
  244MPD1     N 3761   1.999   4.649  17.131 -0.1901  0.2896 -0.5773
  244MPD1    H5 3762   1.910   4.631  17.086 -1.5415  0.6457  1.9335
  244MPD1    N1 3763   2.038   4.172  17.170  0.5048 -0.1005 -0.2062
  244MPD1    H6 3764   2.114   4.104  17.163 -0.2570 -0.8237 -1.4107
  244MPD1    H7 3765   1.973   4.172  17.092  2.0314  1.4332 -1.4856
  245MPD1     C 3766   3.663   4.343  13.368 -0.0956 -0.0262  0.1675
  245MPD1    C1 3767   3.751   4.315  13.473  0.3432 -0.0134 -0.2379
  245MPD1    C2 3768   3.707   4.329  13.605 -0.5187 -0.2533  0.4156
  245MPD1    C3 3769   3.588   4.384  13.629 -0.5694 -0.3156 -0.5243
  245MPD1    C4 3770   3.513   4.439  13.529  0.3499  0.0031 -0.2571
  245MPD1    C5 3771   3.550   4.413  13.399  0.1795 -0.8143  0.3299
  245MPD1     H 3772   3.763   4.292  13.691  2.1708  0.5924 -0.9771
  245MPD1    H1 3773   3.424   4.499  13.546 -0.1056 -0.4948 -0.8948
  245MPD1    H2 3774   3.684   4.325  13.264  0.3500  1.3704  0.0161
  245MPD1    H3 3775   3.478   4.445  13.325 -1.4257 -0.2797  2.1292
  245MPD1     N 3776   3.544   4.383  13.767  0.2938 -0.3557  0.1347
  245MPD1    H5 3777   3.602   4.346  13.842  0.5172  2.5882  1.3827
  245MPD1    N1 3778   3.866   4.244  13.441 -0.1950  0.2448 -0.5559
  245MPD1    H6 3779   3.933   4.258  13.516  0.0655  0.6958 -0.8789
  245MPD1    H7 3780   3.915   4.268  13.355 -2.0620  0.8687 -1.4622
  246MPD1     C 3781   3.300   2.712   9.742 -0.0129 -0.2673 -0.3257
  246MPD1    C1 3782   3.434   2.732   9.771 -0.4521  0.3719 -0.7337
  246MPD1    C2 3783   3.489   2.853   9.745 -0.4331 -0.0030 -0.8438
  246MPD1    C3 3784   3.415   2.954   9.695  0.5990  0.1407  0.7364
  246MPD1    C4 3785   3.285   2.933   9.663 -0.2200 -0.5446  0.2204
  246MPD1    C5 3786   3.224   2.811   9.694  0.5739 -0.4447  0.0094
  246MPD1     H 3787   3.593   2.874   9.767 -0.4031  0.6394 -1.5872
  246MPD1    H1 3788   3.240   3.001   9.592 -1.7089 -0.5633  1.1396
  246MPD1    H2 3789   3.254   2.613   9.740  1.1150 -0.7626 -1.3821
  246MPD1    H3 3790   3.126   2.785   9.656  1.6688 -0.9597 -2.4781
  246MPD1     N 3791   3.479   3.077   9.676 -0.3599  0.8257 -0.2392
  246MPD1    H5 3792   3.558   3.090   9.739 -0.7166 -0.6401  0.5096
  246MPD1    N1 3793   3.514   2.627   9.818  0.4737 -0.4047  0.4735
  246MPD1    H6 3794   3.610   2.655   9.840 -0.2353  3.1779 -0.9150
  246MPD1    H7 3795   3.477   2.578   9.899  0.8557  0.0731  0.9488
  247MPD1     C 3796   2.445   4.464  16.622 -0.3280 -0.0548  0.7864
  247MPD1    C1 3797   2.406   4.468  16.496  1.1172  0.5264 -0.4608
  247MPD1    C2 3798   2.458   4.367  16.415  0.0726  0.5381  0.1330
  247MPD1    C3 3799   2.547   4.269  16.460 -0.0836 -0.1798 -0.5844
  247MPD1    C4 3800   2.581   4.269  16.596  0.2143  0.8465  0.4638
  247MPD1    C5 3801   2.525   4.370  16.679 -0.5177 -0.1122 -0.4827
  247MPD1     H 3802   2.430   4.371  16.311 -1.1242  0.6357  0.4656
  247MPD1    H1 3803   2.645   4.192  16.638 -2.0480 -0.2858  1.8245
  247MPD1    H2 3804   2.415   4.543  16.690 -2.5849  0.1668 -0.4701
  247MPD1    H3 3805   2.562   4.368  16.781 -1.1088 -0.2867 -0.2756
  247MPD1     N 3806   2.591   4.167  16.383  0.2874  0.3111 -0.3426
  247MPD1    H5 3807   2.647   4.094  16.426  0.4892  0.1644 -0.8629
  247MPD1    N1 3808   2.338   4.578  16.441 -0.2141  0.3380  0.1511
  247MPD1    H6 3809   2.260   4.613  16.495 -1.3857  1.6865 -2.4385
  247MPD1    H7 3810   2.304   4.551  16.348  0.2918 -0.6879  0.2622
  248MPD1     C 3811   2.395   3.378  17.630 -0.1102  0.6341 -0.1398
  248MPD1    C1 3812   2.423   3.511  17.648 -0.2922  0.3038  0.5741
  248MPD1    C2 3813   2.475   3.566   0.028 -0.5938  0.4982 -0.9997
  248MPD1    C3 3814   2.525   3.483   0.126  0.6626 -0.1659  0.5268
  248MPD1    C4 3815   2.510   3.351   0.097 -0.2466 -0.3419  0.0755
  248MPD1    C5 3816   2.448   3.296  17.722  0.2165 -0.4200  0.0108
  248MPD1     H 3817   2.488   3.674   0.027 -0.3231  0.4941  2.0099
  248MPD1    H1 3818   2.541   3.287   0.179 -2.1660 -0.6081  0.5925
  248MPD1    H2 3819   2.342   3.347  17.540 -3.7149  3.2055  1.1075
  248MPD1    H3 3820   2.432   3.189  17.714  1.1773 -0.4533 -1.5234
  248MPD1     N 3821   2.579   3.544   0.241  0.3403 -0.0338  0.0044
  248MPD1    H5 3822   2.575   3.645   0.236  0.7248 -0.0766 -1.2227
  248MPD1    N1 3823   2.373   3.611  17.560 -0.4553  0.6814 -0.5231
  248MPD1    H6 3824   2.417   3.703  17.564  1.9741 -0.3623 -2.9960
  248MPD1    H7 3825   2.373   3.565  17.469  0.2448  0.1245 -0.2410
  249MPD1     C 3826   1.442   3.921  11.695  0.3710  0.5999 -0.3911
  249MPD1    C1 3827   1.435   3.947  11.559  0.6342  0.5375 -0.4137
  249MPD1    C2 3828   1.462   3.844  11.470 -0.3197  0.1983 -0.5239
  249MPD1    C3 3829   1.470   3.717  11.525  0.6776 -0.2201 -0.3029
  249MPD1    C4 3830   1.471   3.690  11.661 -0.5451 -0.1493 -0.1002
  249MPD1    C5 3831   1.460   3.797  11.748  0.1407  0.0196 -0.6911
  249MPD1     H 3832   1.458   3.845  11.362  1.3710  1.7359 -0.5690
  249MPD1    H1 3833   1.477   3.595  11.711  0.7213  0.4950  0.9605
  249MPD1    H2 3834   1.438   3.998  11.771 -0.3733  2.2812 -2.1383
  249MPD1    H3 3835   1.476   3.785  11.854 -0.9643  1.3215 -0.3825
  249MPD1     N 3836   1.488   3.616  11.431 -0.3048  0.0343  0.2403
  249MPD1    H5 3837   1.507   3.639  11.334  0.3930  2.6100  1.0038
  249MPD1    N1 3838   1.434   4.086  11.524 -0.5755 -0.0685 -0.1064
  249MPD1    H6 3839   1.395   4.102  11.431 -1.5470  0.9722  0.4737
  249MPD1    H7 3840   1.369   4.138  11.583 -1.8690  0.0053 -1.5811
  250MPD2     C 3841   2.314   2.614  13.032  0.0082  0.0931 -0.2475
  250MPD2    C1 3842   2.199   2.688  13.021 -0.0467  0.2020 -0.4215
  250MPD2    C2 3843   2.084   2.627  12.987 -0.4846  0.2167 -0.1443
  250MPD2    C3 3844   2.078   2.494  12.957 -0.5602  0.6729  0.2330
  250MPD2    C4 3845   2.191   2.425  12.953 -0.2056  0.8250  0.1598
  250MPD2    C5 3846   2.303   2.486  13.001  0.6078  0.3751  0.4911
  250MPD2     H 3847   1.995   2.682  12.956 -0.7029 -1.1925 -2.0382
  250MPD2    H1 3848   2.201   2.319  12.931 -3.3965  0.9579 -1.9081
  250MPD2    H2 3849   2.409   2.653  13.067 -1.4653  1.7129  1.9710
  250MPD2    H3 3850   2.393   2.428  13.021  0.1831  0.0454  1.4522
  250MPD2     N 3851   1.959   2.421  12.921  0.0679 -0.3026 -0.2129
  250MPD2    H5 3852   1.980   2.325  12.894 -2.4757 -0.6612 -0.9580
  250MPD2    N1 3853   2.208   2.825  13.043  0.1457 -0.4157  0.6588
  250MPD2    H7 3854   2.303   2.860  13.051 -0.2867  1.1724 -1.1918
  251TMC3    C1 3855   2.136   3.058  13.057 -0.5474 -0.1921 -0.2218
  251TMC3    C2 3856   2.025   3.132  13.092  0.5622  0.1429 -0.1098
  251TMC3    C3 3857   2.012   3.265  13.054 -0.1341 -0.6231 -0.3129
  251TMC3    C4 3858   2.235   3.118  12.982  0.0786  0.1267 -0.1389
  251TMC3    C5 3859   2.230   3.249  12.957  0.3050 -0.4201 -0.5401
  251TMC3    C6 3860   2.120   3.331  12.988  0.0310  0.0799 -0.0587
  251TMC3     C 3861   2.103   2.913  13.062 -0.3084 -0.1341 -0.1124
  251TMC3     O 3862   1.990   2.885  13.105 -0.2896 -0.1361  0.4135
  251TMC3     H 3863   1.945   3.091  13.152  1.1776 -0.2499  0.4510
  251TMC3    H1 3864   2.318   3.061  12.941  0.7470  1.7702 -1.0833
  251TMC3    H2 3865   2.124   3.439  12.994  1.1207 -0.0478  1.4657
  251TMC3    C7 3866   2.361   3.308  12.959 -0.9575 -0.5135  0.0110
  251TMC3    C8 3867   1.872   3.306  13.029 -1.2295 -0.6426 -0.1227
  251TMC3    O1 3868   2.449   3.230  13.001 -0.4990 -0.0254  0.0135
  251TMC3    O2 3869   1.780   3.230  13.062  0.1498 -0.3925 -0.0641
  252TMC3    C1 3870   1.412   0.541   9.525 -0.1706  0.2473 -0.0987
  252TMC3    C2 3871   1.549   0.523   9.525  0.3790  0.4838 -0.1243
  252TMC3    C3 3872   1.596   0.439   9.619  0.0581 -0.6581 -0.2259
  252TMC3    C4 3873   1.327   0.488   9.617  0.5726  0.2746 -0.1474
  252TMC3    C5 3874   1.386   0.411   9.713  1.0642  0.1209 -0.3036
  252TMC3    C6 3875   1.520   0.394   9.727 -0.2325  0.1817 -0.2496
  252TMC3     C 3876   1.362   0.640   9.433  0.0894 -0.1368 -0.5738
  252TMC3     O 3877   1.433   0.643   9.332  0.3762  0.2655  0.3566
  252TMC3     H 3878   1.615   0.575   9.456  0.7913  1.4411  0.9996
  252TMC3    H1 3879   1.219   0.502   9.616  0.8551  2.5729  2.8617
  252TMC3    H2 3880   1.558   0.357   9.822 -1.5798  0.1661  0.2802
  252TMC3    C7 3881   1.307   0.367   9.826  0.4547  0.3087  0.7138
  252TMC3    C8 3882   1.736   0.468   9.647 -0.3887 -0.6000 -0.0893
  252TMC3    O1 3883   1.220   0.443   9.867 -0.1856  0.0392  0.2022
  252TMC3    O2 3884   1.791   0.571   9.609 -0.3733 -0.4507 -0.4418
  253MPD2     C 3885   2.589   2.742  14.824 -0.3319  0.8983 -0.3350
  253MPD2    C1 3886   2.461   2.745  14.873 -0.8212 -0.6570 -0.1249
  253MPD2    C2 3887   2.449   2.805  14.996  0.6496  0.7641 -0.3554
  253MPD2    C3 3888   2.567   2.834  15.067  0.1039  0.4557  0.4117
  253MPD2    C4 3889   2.694   2.815  15.015 -0.1940 -0.1035  0.7949
  253MPD2    C5 3890   2.706   2.768  14.886 -0.0162 -0.1399  0.1831
  253MPD2     H 3891   2.351   2.812  15.041  0.4238  0.8669 -0.8653
  253MPD2    H1 3892   2.784   2.836  15.072 -1.5012  5.1100  0.9935
  253MPD2    H2 3893   2.606   2.687  14.732 -3.6427  0.4260 -0.6683
  253MPD2    H3 3894   2.800   2.765  14.833 -1.7433  1.1918 -2.9535
  253MPD2     N 3895   2.552   2.887  15.199 -0.2707 -0.4180 -0.0259
  253MPD2    H5 3896   2.639   2.903  15.249  0.1112 -0.2192 -0.7675
  253MPD2    N1 3897   2.353   2.699  14.797 -0.2874  0.2761 -0.5229
  253MPD2    H7 3898   2.263   2.713  14.842 -0.1280  0.9770 -0.4296
  254TMC3    C1 3899   2.465   2.985  15.405 -0.7712 -0.1799 -0.7613
  254TMC3    C2 3900   2.367   3.068  15.459 -0.0068  0.1459  0.6535
  254TMC3    C3 3901   2.414   3.153  15.553  0.7298  0.3755 -0.2840
  254TMC3    C4 3902   2.593   2.971  15.454 -0.0707 -0.1691  0.3671
  254TMC3    C5 3903   2.634   3.066  15.547  0.0036 -0.2388  0.5601
  254TMC3    C6 3904   2.545   3.150  15.605 -0.5188  0.1225 -0.4955
  254TMC3     C 3905   2.439   2.922  15.277  0.2031 -0.4550 -0.7382
  254TMC3     O 3906   2.322   2.909  15.246  0.3005  0.3168  0.9216
  254TMC3     H 3907   2.269   3.072  15.413  1.1484 -3.0479 -2.0499
  254TMC3    H1 3908   2.660   2.892  15.422 -1.6452 -1.0114 -0.8435
  254TMC3    H2 3909   2.576   3.231  15.669 -1.2957 -0.3635  0.4971
  254TMC3    C7 3910   2.740   3.028  15.631 -0.9464 -0.2996 -0.4356
  254TMC3    C8 3911   2.324   3.224  15.640  0.1668 -0.3205 -0.0115
  254TMC3    O1 3912   2.714   3.027  15.752 -0.1559  0.3284  0.1312
  254TMC3    O2 3913   2.367   3.273  15.745 -0.2291  0.0228  0.3137
  255MPD2     C 3914   0.309   0.746  10.583  0.1891  0.2663 -0.5393
  255MPD2    C1 3915   0.378   0.846  10.633  0.0048  0.2759 -0.0171
  255MPD2    C2 3916   0.512   0.872  10.594 -0.5870  0.4003  0.2171
  255MPD2    C3 3917   0.559   0.794  10.483  0.7782 -0.4334 -0.3498
  255MPD2    C4 3918   0.479   0.688  10.433 -0.1754 -0.4241  0.2183
  255MPD2    C5 3919   0.355   0.662  10.484  0.3695 -0.4151  0.4705
  255MPD2     H 3920   0.576   0.946  10.642  1.5368 -1.1467 -0.2145
  255MPD2    H1 3921   0.499   0.628  10.345 -0.0591  2.3561 -1.6637
  255MPD2    H2 3922   0.210   0.729  10.624  1.4259 -0.9363  1.9100
  255MPD2    H3 3923   0.281   0.598  10.439 -1.1032  0.6072  1.4113
  255MPD2     N 3924   0.690   0.826  10.433 -0.1360 -0.1655  0.7707
  255MPD2    H5 3925   0.735   0.908  10.473  0.7372 -0.8260  1.1639
  255MPD2    N1 3926   0.312   0.910  10.743 -0.4133 -0.2290 -0.3874
  255MPD2    H7 3927   0.219   0.883  10.772  0.2499  0.2431  2.1295
  256TMC3    C1 3928   0.275   1.057  10.922 -0.1266  0.5844  0.1277
  256TMC3    C2 3929   0.335   1.092  11.035  0.1373  0.1792  0.5034
  256TMC3    C3 3930   0.290   1.200  11.108 -0.1776  0.8821 -0.3141
  256TMC3    C4 3931   0.168   1.126  10.873 -0.5627 -0.6139  0.3182
  256TMC3    C5 3932   0.137   1.245  10.937  0.3549 -0.6651 -0.2211
  256TMC3    C6 3933   0.189   1.273  11.060 -0.3360 -0.3805  0.1528
  256TMC3     C 3934   0.370   1.002  10.826  0.1516  0.6189 -1.1624
  256TMC3     O 3935   0.482   1.051  10.828 -0.0876  0.2566  0.0673
  256TMC3     H 3936   0.425   1.039  11.065 -0.0672 -0.2857  0.3028
  256TMC3    H1 3937   0.130   1.100  10.776  0.2648 -0.2858 -0.0967
  256TMC3    H2 3938   0.160   1.369  11.101  2.1742  0.4733 -0.0610
  256TMC3    C7 3939   0.165   1.357  10.845 -0.3792  0.1027  0.4871
  256TMC3    C8 3940   0.400   1.284  11.142 -0.1417 -0.2272 -0.2205
  256TMC3    O1 3941   0.145   1.337  10.728  0.1243  0.0355 -0.0158
  256TMC3    O2 3942   0.362   1.394  11.185 -0.4147  0.0136  0.1167
  257MPD2     C 3943   0.081   2.672  13.069  0.0807 -0.0280  0.1352
  257MPD2    C1 3944   0.219   2.700  13.048  0.0547  0.2758 -0.1829
  257MPD2    C2 3945   0.320   2.631  13.104 -0.2969  0.1709  0.4948
  257MPD2    C3 3946   0.292   2.521  13.179 -0.4487  0.3495  0.0258
  257MPD2    C4 3947   0.160   2.493  13.202  0.1670 -0.3572 -0.4540
  257MPD2    C5 3948   0.056   2.566  13.152 -0.0794  0.5549  0.4018
  257MPD2     H 3949   0.423   2.664  13.094 -0.2412 -0.5452 -1.3064
  257MPD2    H1 3950   0.122   2.411  13.262  0.9904  0.1646  0.8041
  257MPD2    H2 3951   4.730   2.729  13.035  0.6737  0.6475 -0.2148
  257MPD2    H3 3952   4.687   2.539  13.172  0.0286 -0.2153 -0.0509
  257MPD2     N 3953   0.401   2.446  13.220 -0.2136  0.4773 -0.5813
  257MPD2    H5 3954   0.489   2.477  13.180  0.2187 -1.2974 -1.0021
  257MPD2    N1 3955   0.252   2.811  12.969  0.1219  0.5181  0.1723
  257MPD2    H7 3956   0.175   2.860  12.924  1.7237  1.8217 -1.1629
  258TMC3    C1 3957   0.535   2.342  13.374  0.1931 -0.3822 -0.4441
  258TMC3    C2 3958   0.647   2.325  13.296 -0.5010  0.4324  0.2470
  258TMC3    C3 3959   0.766   2.324  13.361  0.0866  0.5301  0.1912
  258TMC3    C4 3960   0.546   2.354  13.513 -0.2294 -0.8111  0.6352
  258TMC3    C5 3961   0.672   2.341  13.572 -0.7512 -0.0859  0.2712
  258TMC3    C6 3962   0.779   2.323  13.495  0.7872 -0.8210  0.2006
  258TMC3     C 3963   0.404   2.357  13.324  0.3671  0.2131  0.1019
  258TMC3     O 3964   0.309   2.310  13.382  0.1711 -0.3509  0.3478
  258TMC3     H 3965   0.638   2.300  13.191 -2.8868  0.0748  0.5449
  258TMC3    H1 3966   0.458   2.372  13.573 -2.1038 -0.2280 -2.3237
  258TMC3    H2 3967   0.878   2.311  13.539  1.5405 -0.4566 -1.3982
  258TMC3    C7 3968   0.676   2.341  13.713  0.5977  0.5403  0.4136
  258TMC3    C8 3969   0.891   2.331  13.291  0.4357  0.2500 -0.7449
  258TMC3    O1 3970   0.567   2.349  13.764  0.5620 -0.6727 -0.3493
  258TMC3    O2 3971   0.996   2.339  13.354  0.4944  0.3163  0.2368
  259MPD2     C 3972   4.167   0.034   0.653  0.7082 -0.0014  0.0231
  259MPD2    C1 3973   4.217   4.651   0.603 -0.1161 -0.0068 -0.3500
  259MPD2    C2 3974   4.246   4.638   0.465 -0.2986  0.3522  0.3248
  259MPD2    C3 3975   4.240   0.017   0.380 -0.4472  0.2805  0.9643
  259MPD2    C4 3976   4.205   0.137   0.439  0.0310  0.3063  0.2998
  259MPD2    C5 3977   4.178   0.146   0.574 -0.1597 -0.0434 -0.1388
  259MPD2     H 3978   4.274   4.542   0.424 -0.6079  0.8589 -1.0601
  259MPD2    H1 3979   4.208   0.228   0.380  0.4156 -1.5029 -2.4446
  259MPD2    H2 3980   4.150   0.049   0.759  0.8487 -1.8757  0.3252
  259MPD2    H3 3981   4.157   0.242   0.620  1.8626 -0.4241  1.5828
  259MPD2     N 3982   4.249   0.002   0.241  0.5795 -0.0357 -0.0963
  259MPD2    H5 3983   4.264   4.640   0.212 -0.0169  0.2764 -1.4080
  259MPD2    N1 3984   4.211   4.540   0.697 -0.2051 -0.4633  0.4585
  259MPD2    H7 3985   4.158   4.556   0.782  1.7880 -0.4160  1.6952
  260TMC3    C1 3986   4.197   0.028   0.016  0.6232  0.2926  0.4214
  260TMC3    C2 3987   4.265   0.057  17.634  0.6055  0.2324  0.0982
  260TMC3    C3 3988   4.229   4.718  17.522 -0.2710 -0.1529  0.2157
  260TMC3    C4 3989   4.116   4.657   0.024 -0.0420 -0.1017 -0.2607
  260TMC3    C5 3990   4.086   4.585  17.644 -0.2920  0.2997  0.5439
  260TMC3    C6 3991   4.147   4.610  17.530  0.1330  0.2348 -0.2418
  260TMC3     C 3992   4.226   0.091   0.144 -0.1352  0.0332  0.1601
  260TMC3     O 3993   4.218   0.213   0.146 -0.4827  0.2172 -0.0381
  260TMC3     H 3994   4.335   0.140  17.627 -0.5453  1.2339  0.4763
  260TMC3    H1 3995   4.061   4.639   0.115  2.1532  0.9411  1.2809
  260TMC3    H2 3996   4.137   4.532  17.455  0.4468 -0.4138  0.3875
  260TMC3    C7 3997   4.006   4.465  17.644 -0.3114 -0.4608 -0.0635
  260TMC3    C8 3998   4.324   4.717  17.413  0.1287 -0.5711 -0.6621
  260TMC3    O1 3999   3.988   4.405  17.536 -0.1793 -0.0441 -0.0621
  260TMC3    O2 4000   4.343   0.093  17.369  0.4804  0.3705 -0.4699
  261MPD2     C 4001   1.273   2.822  12.619 -0.2173 -0.5324 -0.4864
  261MPD2    C1 4002   1.374   2.778  12.537 -0.0266  0.4617  0.5001
  261MPD2    C2 4003   1.379   2.840  12.416  0.3335 -0.1248  0.3123
  261MPD2    C3 4004   1.305   2.960  12.392  0.7414  0.3242  0.4605
  261MPD2    C4 4005   1.197   2.999  12.469 -0.1430 -0.0172  0.9469
  261MPD2    C5 4006   1.186   2.917  12.576 -0.5100  0.0976 -0.1197
  261MPD2     H 4007   1.452   2.806  12.344 -0.7029 -0.0039 -0.7908
  261MPD2    H1 4008   1.138   3.088  12.452 -1.1035 -0.5654  1.4344
  261MPD2    H2 4009   1.242   2.774  12.711 -0.4216  0.2892 -0.1243
  261MPD2    H3 4010   1.101   2.946  12.637 -0.9753 -1.6315  0.0504
  261MPD2     N 4011   1.341   3.044  12.284  0.5000 -0.2985  0.5830
  261MPD2    H5 4012   1.418   3.006  12.229 -1.1673 -1.3400 -1.0129
  261MPD2    N1 4013   1.461   2.667  12.569 -0.8526 -0.1515 -0.6037
  261MPD2    H7 4014   1.536   2.645  12.504  0.2753  0.8374  0.3486
  262TMC3    C1 4015   1.348   3.220  12.129  0.3071  0.4269 -0.4741
  262TMC3    C2 4016   1.293   3.334  12.084  0.3213  0.6261  0.0767
  262TMC3    C3 4017   1.301   3.367  11.951 -0.3246  1.0345  0.3827
  262TMC3    C4 4018   1.417   3.138  12.047  0.0288 -0.5736  0.7492
  262TMC3    C5 4019   1.419   3.167  11.915 -0.6837  0.0978 -0.0722
  262TMC3    C6 4020   1.362   3.282  11.863  1.2594  0.4177 -0.0671
  262TMC3     C 4021   1.287   3.166  12.246  0.1612  0.1969 -0.0855
  262TMC3     O 4022   1.195   3.233  12.284  0.0681 -0.3763  0.4122
  262TMC3     H 4023   1.237   3.402  12.148 -1.2495 -0.1819 -0.4235
  262TMC3    H1 4024   1.491   3.065  12.080  0.8735 -1.2696 -2.6841
  262TMC3    H2 4025   1.364   3.296  11.755 -0.5437  2.5668  0.1695
  262TMC3    C7 4026   1.500   3.077  11.830  0.0785 -0.3512  0.5665
  262TMC3    C8 4027   1.205   3.474  11.910 -0.6756  0.0847  0.4518
  262TMC3    O1 4028   1.502   2.958  11.858 -0.1532  0.0292 -0.3878
  262TMC3    O2 4029   1.162   3.550  11.998 -0.2505  0.0014 -0.2040
  263MPD2     C 4030   2.205   2.127  11.289  0.3812 -0.1231 -0.6208
  263MPD2    C1 4031   2.331   2.085  11.247  0.3418  0.2255 -0.6490
  263MPD2    C2 4032   2.343   2.079  11.110 -0.8604  0.6490 -0.5020
  263MPD2    C3 4033   2.237   2.087  11.020 -0.3922  0.3438 -0.3487
  263MPD2    C4 4034   2.117   2.128  11.074 -0.1743  0.0064  0.3930
  263MPD2    C5 4035   2.097   2.150  11.212 -0.2584 -0.1415 -0.1610
  263MPD2     H 4036   2.440   2.048  11.074 -1.2708 -0.1022 -0.9545
  263MPD2    H1 4037   2.027   2.136  11.013 -1.5543 -2.3678  2.0879
  263MPD2    H2 4038   2.189   2.143  11.395  0.4785 -0.5389 -0.5406
  263MPD2    H3 4039   1.999   2.169  11.255 -0.2849 -1.1137  0.2100
  263MPD2     N 4040   2.254   2.064  10.881 -0.3712  0.2474 -0.0793
  263MPD2    H5 4041   2.344   2.036  10.844 -0.6627 -0.0914 -0.5422
  263MPD2    N1 4042   2.427   2.051  11.346 -0.0499 -0.1353  0.4205
  263MPD2    H7 4043   2.386   2.062  11.438  0.7065 -2.2058  1.0050
  264TMC3    C1 4044   2.236   2.092  10.649 -0.1977 -0.1982 -0.2003
  264TMC3    C2 4045   2.153   2.115  10.547  0.3118 -0.1172  0.8791
  264TMC3    C3 4046   2.194   2.152  10.417  0.0287 -0.0075 -0.5454
  264TMC3    C4 4047   2.373   2.109  10.632  0.4160 -0.3032  0.0141
  264TMC3    C5 4048   2.414   2.144  10.508  0.2363  0.0777 -0.1493
  264TMC3    C6 4049   2.331   2.153  10.399  0.1120 -0.1073 -0.3909
  264TMC3     C 4050   2.169   2.098  10.778 -0.3014  0.2778  0.0226
  264TMC3     O 4051   2.052   2.145  10.782 -0.0673  0.4176 -0.5201
  264TMC3     H 4052   2.046   2.111  10.563  0.1782  0.3112  0.0967
  264TMC3    H1 4053   2.448   2.104  10.710 -2.3128  2.2050  2.7992
  264TMC3    H2 4054   2.367   2.165  10.297  3.1615  2.1265  0.9354
  264TMC3    C7 4055   2.542   2.207  10.487 -0.4327 -0.5459 -0.0833
  264TMC3    C8 4056   2.153   2.291  10.390  0.2095  0.2116 -0.0187
  264TMC3    O1 4057   2.650   2.160  10.530  0.3583  0.0087  0.6100
  264TMC3    O2 4058   2.245   2.361  10.355  0.1303  0.1291 -0.7878
  265MPD2     C 4059   4.081   2.211  15.590 -0.3457 -0.2065  0.4003
  265MPD2    C1 4060   4.140   2.296  15.502  0.3727 -0.7303  0.2954
  265MPD2    C2 4061   4.223   2.244  15.411  0.2881 -0.2023 -0.2717
  265MPD2    C3 4062   4.235   2.108  15.386 -0.0055 -0.8137 -0.1176
  265MPD2    C4 4063   4.171   2.029  15.475  0.2546 -0.0738 -0.2942
  265MPD2    C5 4064   4.094   2.075  15.576 -0.7430  0.2160 -1.1642
  265MPD2     H 4065   4.273   2.311  15.344 -1.1252 -1.0655 -2.1861
  265MPD2    H1 4066   4.178   1.921  15.470 -2.0116 -0.2742  0.7116
  265MPD2    H2 4067   4.010   2.255  15.659  0.0392 -0.0591  0.7021
  265MPD2    H3 4068   4.039   2.009  15.643 -1.8607  0.8178 -1.4945
  265MPD2     N 4069   4.304   2.051  15.277  0.2187 -0.2012  0.3401
  265MPD2    H5 4070   4.275   1.955  15.261  0.3425 -0.3194  0.8287
  265MPD2    N1 4071   4.119   2.436  15.512 -0.8838 -0.3290 -0.3805
  265MPD2    H7 4072   4.146   2.497  15.436  1.8088 -1.9322 -0.6937
  266TMC3    C1 4073   4.079   2.641  15.625  0.0522 -0.2187 -0.4724
  266TMC3    C2 4074   4.125   2.718  15.729  0.2766 -0.2663 -0.0498
  266TMC3    C3 4075   4.067   2.837  15.742  0.2390  0.5806  0.0930
  266TMC3    C4 4076   3.964   2.676  15.554 -0.5598  0.8779  0.2502
  266TMC3    C5 4077   3.915   2.803  15.572  0.0511  0.2935 -0.3143
  266TMC3    C6 4078   3.964   2.881  15.675 -0.2020  0.6638  0.2833
  266TMC3     C 4079   4.087   2.497  15.631 -0.4038 -0.5511  0.2217
  266TMC3     O 4080   4.091   2.450  15.743 -0.3170  0.3127  0.2032
  266TMC3     H 4081   4.220   2.694  15.775 -0.8733 -2.3082  1.2514
  266TMC3    H1 4082   3.936   2.610  15.473 -0.0802  0.2506  0.5896
  266TMC3    H2 4083   3.925   2.978  15.705  0.9750  1.2681 -0.1659
  266TMC3    C7 4084   3.818   2.845  15.479  0.6827 -0.5757 -1.3555
  266TMC3    C8 4085   4.143   2.918  15.837  0.2010  0.4755  0.1580
  266TMC3    O1 4086   3.769   2.764  15.400 -0.5293  0.1234  0.0906
  266TMC3    O2 4087   4.221   2.868  15.915  0.8424  1.0536 -0.0007
  267MPD2     C 4088   1.640   0.416   0.494 -0.5543  0.0741 -0.1110
  267MPD2    C1 4089   1.693   0.393   0.369  0.0330  0.2949 -0.1851
  267MPD2    C2 4090   1.672   0.500   0.276  1.0045  0.2144  1.1170
  267MPD2    C3 4091   1.594   0.609   0.298  0.7437 -0.0917  0.3067
  267MPD2    C4 4092   1.532   0.619   0.415  0.2095  0.1185  0.6572
  267MPD2    C5 4093   1.563   0.526   0.509 -0.1154  1.1058  0.2350
  267MPD2     H 4094   1.715   0.488   0.178 -1.9596 -0.9584 -0.0677
  267MPD2    H1 4095   1.464   0.700   0.436 -1.8671 -1.6067  0.6571
  267MPD2    H2 4096   1.672   0.349   0.573 -0.9817  0.3450  0.2885
  267MPD2    H3 4097   1.511   0.532   0.604 -3.5002 -0.7367 -1.5013
  267MPD2     N 4098   1.562   0.718   0.207 -0.4082  0.4253 -0.2565
  267MPD2    H5 4099   1.471   0.762   0.217 -0.7322 -0.2415 -0.2784
  267MPD2    N1 4100   1.768   0.279   0.337 -0.7559  0.4413  0.6195
  267MPD2    H7 4101   1.778   0.220   0.419  2.0549  0.6957  0.4729
  268TMC3    C1 4102   1.872   0.102   0.215 -0.2435 -0.1544  0.1486
  268TMC3    C2 4103   1.979   0.090   0.128  0.0580  0.2037  0.2906
  268TMC3    C3 4104   2.029   4.694   0.098  0.8752  0.3686  0.0819
  268TMC3    C4 4105   1.814   4.724   0.277  0.4609 -0.6621  0.0078
  268TMC3    C5 4106   1.874   4.598   0.245  0.0816 -0.2720  0.0122
  268TMC3    C6 4107   1.985   4.582   0.166 -0.3321  0.2193  0.5858
  268TMC3     C 4108   1.808   0.231   0.214  0.4343  1.2560 -0.5277
  268TMC3     O 4109   1.799   0.279   0.103 -0.5014 -0.6048  0.7742
  268TMC3     H 4110   2.026   0.182   0.093 -0.8525 -0.1187 -1.7861
  268TMC3    H1 4111   1.729   0.011   0.341 -1.1469 -2.5558 -1.5282
  268TMC3    H2 4112   2.032   4.485   0.153  2.4389  1.6167  0.0825
  268TMC3    C7 4113   1.823   4.477   0.315  0.6205  0.7483  0.3026
  268TMC3    C8 4114   2.164   4.687   0.046 -0.1594  0.0991  0.0505
  268TMC3    O1 4115   1.877   4.369   0.286 -0.4637 -0.8420  0.5349
  268TMC3    O2 4116   2.241   4.642   0.128 -0.3181 -0.2953  0.6081
  269MPD2     C 4117   1.729   3.060  15.340 -0.4362 -0.4585  0.1923
  269MPD2    C1 4118   1.659   3.110  15.450  0.8824 -0.6837 -0.4754
  269MPD2    C2 4119   1.636   3.247  15.460 -0.3036 -0.1345 -0.4271
  269MPD2    C3 4120   1.699   3.337  15.375  0.1903 -0.7929  0.1240
  269MPD2    C4 4121   1.783   3.285  15.275  0.1323 -0.5852 -0.1372
  269MPD2    C5 4122   1.790   3.146  15.252 -0.0945 -0.3614 -0.0927
  269MPD2     H 4123   1.560   3.283  15.528 -1.4604 -0.3218 -1.6230
  269MPD2    H1 4124   1.828   3.346  15.197 -0.8696 -0.1921 -0.4115
  269MPD2    H2 4125   1.718   2.954  15.320 -0.7779 -0.8114  2.2645
  269MPD2    H3 4126   1.849   3.103  15.171  0.5948 -0.4952  0.4759
  269MPD2     N 4127   1.668   3.473  15.392 -0.0843 -0.5992  0.1277
  269MPD2    H5 4128   1.606   3.489  15.470  0.0934 -2.7133  0.7122
  269MPD2    N1 4129   1.608   3.024  15.546  0.0019 -0.2021 -0.0216
  269MPD2    H7 4130   1.598   2.928  15.513 -0.2910 -0.5558  1.0978
  270TMC3    C1 4131   1.479   2.934  15.712 -0.5612  0.0374 -0.0312
  270TMC3    C2 4132   1.352   2.906  15.678  0.1598 -0.1144  0.0401
  270TMC3    C3 4133   1.318   2.773  15.660  0.5274 -0.2342 -0.1895
  270TMC3    C4 4134   1.573   2.834  15.697 -0.4227 -0.5755 -0.0528
  270TMC3    C5 4135   1.531   2.703  15.698 -0.2543  0.2613  0.5387
  270TMC3    C6 4136   1.400   2.664  15.685 -0.0596 -0.1450  0.6402
  270TMC3     C 4137   1.538   3.053  15.659  0.4532  0.7396  0.5550
  270TMC3     O 4138   1.499   3.163  15.699 -0.4828 -0.0064 -0.2196
  270TMC3     H 4139   1.281   2.986  15.659 -0.3073 -0.8336 -1.2561
  270TMC3    H1 4140   1.678   2.850  15.717 -0.3719 -0.5671 -0.3272
  270TMC3    H2 4141   1.383   2.559  15.663  0.7974 -0.2220  0.3485
  270TMC3    C7 4142   1.632   2.601  15.688  0.3742 -0.2073  0.1215
  270TMC3    C8 4143   1.202   2.752  15.578  0.5518 -1.8688 -0.7557
  270TMC3    O1 4144   1.724   2.625  15.616  0.3785 -0.0005  0.0714
  270TMC3    O2 4145   1.102   2.825  15.597  0.5942 -0.3528 -0.4167
  271MPD2     C 4146   1.212   2.874  13.643  0.2910 -0.3969 -0.1504
  271MPD2    C1 4147   1.099   2.841  13.716  0.6836  0.4419  0.3508
  271MPD2    C2 4148   0.979   2.898  13.683  0.2860 -0.5817  0.3310
  271MPD2    C3 4149   0.969   2.980  13.574  0.7944  0.2976  0.3027
  271MPD2    C4 4150   1.083   3.011  13.498  0.6055 -0.1599  0.0274
  271MPD2    C5 4151   1.198   2.956  13.536 -0.4430 -0.2639 -0.4908
  271MPD2     H 4152   0.890   2.878  13.743 -1.4832  0.2736 -2.0113
  271MPD2    H1 4153   1.069   3.055  13.400 -1.3602 -1.7953 -0.4189
  271MPD2    H2 4154   1.314   2.838  13.652  1.5946  2.8878 -1.5617
  271MPD2    H3 4155   1.280   2.986  13.471 -1.6242  0.5812 -1.5819
  271MPD2     N 4156   0.844   3.036  13.532  0.0004 -0.1533  0.4847
  271MPD2    H5 4157   0.832   3.103  13.458 -3.4861  1.1607  2.2619
  271MPD2    N1 4158   1.103   2.762  13.831 -0.0424  0.3333  0.9270
  271MPD2    H7 4159   1.016   2.735  13.875 -0.6120  0.6020 -0.0312
  272TMC3    C1 4160   1.210   2.625  13.997  0.1255 -0.3919 -0.4241
  272TMC3    C2 4161   1.330   2.564  14.036  0.3327 -0.1426 -0.3436
  272TMC3    C3 4162   1.358   2.519  14.166 -0.0801 -0.5016  0.2737
  272TMC3    C4 4163   1.122   2.668  14.092 -0.1347 -0.2069  0.7512
  272TMC3    C5 4164   1.150   2.622  14.221  0.3627 -0.0954  0.1509
  272TMC3    C6 4165   1.262   2.554  14.258  0.4385  0.9513  0.8682
  272TMC3     C 4166   1.217   2.697  13.876  0.2204 -0.4421  0.1766
  272TMC3     O 4167   1.323   2.689  13.817  0.5914  0.1681  0.3376
  272TMC3     H 4168   1.412   2.538  13.969 -1.2534 -1.9774 -1.5887
  272TMC3    H1 4169   1.032   2.729  14.083  0.9551  0.9145 -2.4367
  272TMC3    H2 4170   1.286   2.523  14.359 -0.2523 -2.0462  0.0938
  272TMC3    C7 4171   1.041   2.648  14.320 -0.5856  0.1249  0.1196
  272TMC3    C8 4172   1.496   2.516  14.212 -0.0625 -0.0245 -0.5413
  272TMC3    O1 4173   0.927   2.659  14.282  0.5513  0.0358 -0.3888
  272TMC3    O2 4174   1.571   2.574  14.131 -0.5848  0.2838 -0.1215
  273MPD2     C 4175   2.279   1.066  11.524 -0.3030 -0.5716  0.3639
  273MPD2    C1 4176   2.419   1.101  11.516 -0.7358  0.2148  0.9508
  273MPD2    C2 4177   2.477   1.098  11.395  0.5624  0.1916 -0.1117
  273MPD2    C3 4178   2.407   1.060  11.275 -0.2814 -0.4648 -0.1355
  273MPD2    C4 4179   2.274   1.025  11.291  0.0782  0.0062  0.1452
  273MPD2    C5 4180   2.209   1.037  11.406  0.5021  0.0936  0.0608
  273MPD2     H 4181   2.577   1.137  11.379  0.4399  1.5280  2.3324
  273MPD2    H1 4182   2.210   0.999  11.207  2.2008  0.5627 -1.6352
  273MPD2    H2 4183   2.213   1.074  11.609  0.8186 -2.3780  1.4018
  273MPD2    H3 4184   2.106   1.005  11.413  0.1065  1.4972  0.6382
  273MPD2     N 4185   2.466   1.062  11.147 -0.8595 -0.2679  0.0655
  273MPD2    H5 4186   2.406   1.046  11.067 -0.6611  2.7092 -0.6757
  273MPD2    N1 4187   2.506   1.147  11.617  0.0759 -0.4991 -0.2733
  273MPD2    H7 4188   2.595   1.183  11.584 -0.0381 -0.1636 -0.2142
  274TMC3    C1 4189   2.645   1.069  10.982  0.8532  0.0530 -0.5429
  274TMC3    C2 4190   2.563   1.120  10.880  0.0860 -0.0541  0.0277
  274TMC3    C3 4191   2.614   1.182  10.774  0.2119  0.0821 -0.0979
  274TMC3    C4 4192   2.787   1.078  10.963 -0.2130 -0.3371  0.1312
  274TMC3    C5 4193   2.839   1.156  10.857 -0.1903 -0.3642  0.1183
  274TMC3    C6 4194   2.756   1.194  10.757  0.3199 -0.3882  0.4170
  274TMC3     C 4195   2.604   1.072  11.121 -0.1362  0.6728 -0.4294
  274TMC3     O 4196   2.696   1.056  11.197 -0.3979  0.3028 -0.2606
  274TMC3     H 4197   2.458   1.124  10.904 -0.2875 -1.5692 -1.4537
  274TMC3    H1 4198   2.859   1.047  11.038  3.4588  1.2969 -2.7124
  274TMC3    H2 4199   2.784   1.283  10.702 -0.0120 -0.4604  0.1237
  274TMC3    C7 4200   2.939   1.244  10.905  0.0766 -0.1167  0.3723
  274TMC3    C8 4201   2.523   1.251  10.687 -0.2604  0.3741 -0.5988
  274TMC3    O1 4202   3.001   1.308  10.824  0.0544  0.0621  0.0175
  274TMC3    O2 4203   2.402   1.236  10.705  0.8189  0.7387  0.6154
  275MPD2     C 4204   2.628   3.801  14.348 -0.4117 -0.2962 -0.0711
  275MPD2    C1 4205   2.605   3.674  14.404 -0.3262  0.3528 -0.3867
  275MPD2    C2 4206   2.481   3.617  14.390  0.1240 -0.2530  1.1141
  275MPD2    C3 4207   2.370   3.682  14.324  0.2082 -0.3758  0.4865
  275MPD2    C4 4208   2.395   3.810  14.275 -0.0043 -1.3030 -0.0025
  275MPD2    C5 4209   2.523   3.868  14.293 -0.4124 -0.6053  0.6485
  275MPD2     H 4210   2.475   3.511  14.414 -0.0621 -0.6263 -0.5466
  275MPD2    H1 4211   2.320   3.871  14.225  0.8272 -2.3850 -2.5202
  275MPD2    H2 4212   2.726   3.848  14.346 -0.9373  0.8444  1.1799
  275MPD2    H3 4213   2.545   3.969  14.261  2.6547 -1.3780  0.3213
  275MPD2     N 4214   2.241   3.622  14.314  0.0139 -0.1230  0.1640
  275MPD2    H5 4215   2.175   3.687  14.272  1.6722  0.9448 -0.8265
  275MPD2    N1 4216   2.705   3.596  14.474  0.3166 -0.4927 -0.2763
  275MPD2    H7 4217   2.687   3.501  14.503 -3.0249  0.4740  0.7810
  276TMC3    C1 4218   2.908   3.551  14.585  0.2642 -0.6833  0.0191
  276TMC3    C2 4219   2.842   3.445  14.646  1.0009  0.6801 -0.5958
  276TMC3    C3 4220   2.877   3.408  14.768  0.2296  0.4341  0.4155
  276TMC3    C4 4221   3.022   3.605  14.637  0.3927  0.7728  0.8756
  276TMC3    C5 4222   3.064   3.546  14.754  0.4893  0.0261  0.3702
  276TMC3    C6 4223   2.988   3.457  14.830 -0.1738 -0.3628 -0.7254
  276TMC3     C 4224   2.833   3.639  14.498  0.4308  0.8182  0.5004
  276TMC3     O 4225   2.875   3.755  14.493  0.0219  0.0350  0.4551
  276TMC3     H 4226   2.775   3.384  14.586  0.0241  3.5280 -2.4108
  276TMC3    H1 4227   3.064   3.694  14.591 -0.3189 -0.2764 -1.7887
  276TMC3    H2 4228   3.010   3.431  14.933  0.8877  1.4986 -0.4689
  276TMC3    C7 4229   3.159   3.616  14.832 -0.3459  0.0648 -0.2725
  276TMC3    C8 4230   2.778   3.330  14.846 -0.5761 -0.3530 -0.9067
  276TMC3    O1 4231   3.133   3.633  14.952 -0.5641 -0.3154 -0.1211
  276TMC3    O2 4232   2.804   3.305  14.960 -0.0645 -0.9720  0.2561
  277MPD2     C 4233   4.325   2.683  12.986 -0.3840 -0.0473  0.6467
  277MPD2    C1 4234   4.201   2.707  13.034 -0.0229 -0.1509 -0.0994
  277MPD2    C2 4235   4.154   2.646  13.146 -0.2998 -0.3562  0.1811
  277MPD2    C3 4236   4.240   2.568  13.219  0.2040  0.8195 -0.9090
  277MPD2    C4 4237   4.365   2.540  13.175  0.0672 -0.4090  0.7301
  277MPD2    C5 4238   4.406   2.595  13.057 -0.0824  0.0368  0.7642
  277MPD2     H 4239   4.052   2.660  13.180 -0.2152  2.5883 -0.7360
  277MPD2    H1 4240   4.436   2.480  13.232 -0.7809 -1.7476  0.3971
  277MPD2    H2 4241   4.370   2.730  12.899  1.0343  1.5736  2.2560
  277MPD2    H3 4242   4.505   2.571  13.021 -0.7470 -0.3102 -0.8543
  277MPD2     N 4243   4.184   2.511  13.336  0.5498 -0.3566 -0.1224
  277MPD2    H5 4244   4.099   2.554  13.370 -0.0630 -2.1122  0.5734
  277MPD2    N1 4245   4.123   2.793  12.955  0.2841  0.5973  0.1331
  277MPD2    H7 4246   4.167   2.830  12.872  0.2205  0.2436 -0.0561
  278TMC3    C1 4247   4.129   2.357  13.496  0.0153 -0.1099 -0.1817
  278TMC3    C2 4248   4.078   2.237  13.477  0.1144 -0.3480 -0.0669
  278TMC3    C3 4249   3.954   2.209  13.537 -0.2773  0.2592 -0.2714
  278TMC3    C4 4250   4.068   2.441  13.579 -1.0632  0.3730 -0.2906
  278TMC3    C5 4251   3.948   2.416  13.640  1.1994 -0.1397  0.5363
  278TMC3    C6 4252   3.887   2.293  13.620  0.9494  0.3658 -0.1072
  278TMC3     C 4253   4.230   2.401  13.404  0.8849  0.5590  0.2180
  278TMC3     O 4254   4.323   2.327  13.372 -0.0337  0.9800 -0.4467
  278TMC3     H 4255   4.135   2.171  13.413  0.2717 -0.9013  0.6430
  278TMC3    H1 4256   4.115   2.538  13.590  1.5249 -0.6331 -2.3700
  278TMC3    H2 4257   3.803   2.250  13.674 -1.1157  2.9650 -1.2623
  278TMC3    C7 4258   3.890   2.519  13.727 -0.7316  0.3710 -0.0407
  278TMC3    C8 4259   3.917   2.069  13.551 -0.0421 -0.2415  0.7326
  278TMC3    O1 4260   3.961   2.615  13.759 -0.1591  0.1310  0.2410
  278TMC3    O2 4261   4.004   1.993  13.594 -0.2000  0.0612 -0.3605
  279MPD2     C 4262   3.459   2.475  17.545  1.2870  0.4327  0.6429
  279MPD2    C1 4263   3.399   2.587  17.591 -0.9816 -0.9029  1.1210
  279MPD2    C2 4264   3.391   2.700  17.512  1.1289  0.2021 -0.6197
  279MPD2    C3 4265   3.439   2.705  17.384 -0.9351 -0.2496  0.1677
  279MPD2    C4 4266   3.495   2.592  17.336  0.5259 -1.0891 -0.7960
  279MPD2    C5 4267   3.504   2.474  17.413  0.3569 -0.0198  0.0896
  279MPD2     H 4268   3.336   2.783  17.555  1.6073  0.3368 -0.2694
  279MPD2    H1 4269   3.530   2.598  17.233  0.8089  0.4537 -0.6060
  279MPD2    H2 4270   3.482   2.389  17.608 -0.9922 -0.2073  0.6330
  279MPD2    H3 4271   3.544   2.384  17.367  0.1207  0.1823 -0.5146
  279MPD2     N 4272   3.432   2.822  17.308  0.0527 -0.3618  0.7701
  279MPD2    H5 4273   3.460   2.815  17.210 -1.8477 -0.8642  0.2529
  279MPD2    N1 4274   3.350   2.583  17.721 -0.1939  0.2462 -0.1825
  279MPD2    H7 4275   3.330   2.491   0.023  1.5519  0.8414  2.1730
  280TMC3    C1 4276   3.276   2.654   0.193 -0.0826 -0.1617  0.2997
  280TMC3    C2 4277   3.175   2.560   0.198 -0.0007 -0.8508 -0.0017
  280TMC3    C3 4278   3.055   2.597   0.266  0.0317  1.0265 -0.6367
  280TMC3    C4 4279   3.271   2.771   0.272  0.0995  0.3882 -0.1249
  280TMC3    C5 4280   3.168   2.785   0.357 -0.6500  0.0430  0.0815
  280TMC3    C6 4281   3.055   2.707   0.349 -0.6382  0.3894 -0.3197
  280TMC3     C 4282   3.325   2.689   0.061 -0.1674 -0.2185 -0.5487
  280TMC3     O 4283   3.342   2.812   0.043 -0.2749 -0.0697  0.1474
  280TMC3     H 4284   3.186   2.467   0.143  2.1500 -1.6628  1.8096
  280TMC3    H1 4285   3.351   2.844   0.262  0.6905 -0.3267 -0.5372
  280TMC3    H2 4286   2.975   2.732   0.418  0.1415  1.0923  0.3276
  280TMC3    C7 4287   3.149   2.923   0.402 -0.3281  0.2633 -0.0716
  280TMC3    C8 4288   2.938   2.515   0.264  0.0136  0.2879 -0.6564
  280TMC3    O1 4289   3.241   2.966   0.469  0.3749 -0.4273 -0.2668
  280TMC3    O2 4290   2.853   2.528   0.350 -0.4355 -0.3459  0.1852
  281TMC3    C1 4291   2.611   3.457  13.351 -0.5929  0.4007  0.3533
  281TMC3    C2 4292   2.679   3.490  13.240 -0.0955 -0.2916  0.2732
  281TMC3    C3 4293   2.777   3.409  13.200 -0.3363 -0.0988  0.2414
  281TMC3    C4 4294   2.642   3.346  13.424 -0.1851 -0.9735  0.3439
  281TMC3    C5 4295   2.752   3.273  13.381 -0.1098 -0.0444 -0.5327
  281TMC3    C6 4296   2.824   3.304  13.274 -0.8607  1.8679 -0.5283
  281TMC3     C 4297   2.471   3.501  13.349 -0.5607 -0.2681 -0.2381
  281TMC3     O 4298   2.434   3.585  13.266 -0.0460 -0.0108 -0.5121
  281TMC3     H 4299   2.659   3.577  13.179 -0.9585 -0.4379  0.3506
  281TMC3    H1 4300   2.598   3.333  13.522 -0.6743  1.4756  0.4672
  281TMC3    H2 4301   2.906   3.241  13.242 -1.7233 -0.8106  2.4399
  281TMC3    C7 4302   2.782   3.141  13.428 -0.1689 -0.5055 -0.2542
  281TMC3    C8 4303   2.869   3.449  13.087 -0.1317 -0.2167  0.2498
  281TMC3    O1 4304   2.895   3.097  13.446 -0.0358  0.3058 -0.1585
  281TMC3    O2 4305   2.983   3.412  13.103  0.0700  0.5673  0.2932
  282MPD2     C 4306   4.271   4.438  14.978 -0.5467  0.6147 -0.9307
  282MPD2    C1 4307   4.137   4.450  15.013  0.2181  0.5107 -0.4338
  282MPD2    C2 4308   4.035   4.437  14.918 -0.0858  0.6152  0.8169
  282MPD2    C3 4309   4.055   4.406  14.789 -0.2900  0.4479  0.2573
  282MPD2    C4 4310   4.190   4.384  14.755  0.3107 -0.4954 -0.4236
  282MPD2    C5 4311   4.289   4.401  14.848 -0.2319  0.6100 -0.8456
  282MPD2     H 4312   3.938   4.442  14.967  0.5487  1.9308  1.9216
  282MPD2    H1 4313   4.219   4.341  14.660  0.3151 -1.3338 -0.0467
  282MPD2    H2 4314   4.357   4.441  15.043  0.7141 -0.7059 -2.5398
  282MPD2    H3 4315   4.392   4.377  14.823 -0.9453 -2.5950 -0.6763
  282MPD2     N 4316   3.951   4.391  14.697  0.1729  0.3702 -0.4339
  282MPD2    H5 4317   3.855   4.392  14.729  0.2603  0.1372 -0.1673
  282MPD2    N1 4318   4.091   4.462  15.147 -0.0691  0.0021 -0.0896
  282MPD2    H7 4319   3.995   4.437  15.168  0.2771 -2.2315 -1.1049
  283TMC3    C1 4320   4.095   4.502  15.384  0.2226  0.2605 -0.4303
  283TMC3    C2 4321   4.159   4.572  15.485  0.3999  0.5462  0.1088
  283TMC3    C3 4322   4.124   4.530  15.613 -0.0933 -0.1054  0.5852
  283TMC3    C4 4323   4.016   4.389  15.408  0.1831 -0.9756 -0.3948
  283TMC3    C5 4324   3.993   4.353  15.541 -0.0817  0.6195  0.0043
  283TMC3    C6 4325   4.041   4.422  15.639 -0.0538  0.3488 -0.3108
  283TMC3     C 4326   4.165   4.500  15.254  0.8961  0.2131 -0.0668
  283TMC3     O 4327   4.283   4.535  15.257  0.3482  0.4125  0.0567
  283TMC3     H 4328   4.230   4.650  15.461  1.8897 -1.2389 -1.2131
  283TMC3    H1 4329   3.990   4.328  15.322  1.0929 -1.3119 -0.4318
  283TMC3    H2 4330   4.017   4.390  15.740  1.3097  2.3764  0.6481
  283TMC3    C7 4331   3.913   4.238  15.582 -0.6740 -0.1856 -0.3586
  283TMC3    C8 4332   4.173   4.608  15.727 -0.2842  0.3544  0.1968
  283TMC3    O1 4333   3.917   4.204  15.698  0.1212 -0.3142 -0.1010
  283TMC3    O2 4334   4.187   4.555  15.838  0.0575 -0.4682 -0.1512
  284MPD2     C 4335   1.867   3.743  11.588  0.3016  0.5004 -0.6332
  284MPD2    C1 4336   1.996   3.777  11.545 -0.2460 -0.0376  0.5390
  284MPD2    C2 4337   2.095   3.792  11.638 -0.4534  0.2069  0.4949
  284MPD2    C3 4338   2.078   3.736  11.759  0.0255  0.0581  0.2700
  284MPD2    C4 4339   1.958   3.683  11.798  0.1263 -0.2147 -0.6587
  284MPD2    C5 4340   1.842   3.693  11.715 -0.2636  0.6193 -0.5819
  284MPD2     H 4341   2.196   3.829  11.624 -0.5646  0.7173  1.0425
  284MPD2    H1 4342   1.944   3.653  11.901  2.0797  0.8071 -0.0924
  284MPD2    H2 4343   1.781   3.761  11.526  0.0252  0.7410 -0.1804
  284MPD2    H3 4344   1.744   3.656  11.743  0.0444 -0.0805 -0.4249
  284MPD2     N 4345   2.192   3.721  11.844  0.1882 -0.0559  0.3476
  284MPD2    H5 4346   2.274   3.776  11.819 -3.4326  4.4791 -1.6417
  284MPD2    N1 4347   2.030   3.818  11.415 -0.0744 -0.1029  0.6433
  284MPD2    H7 4348   2.126   3.850  11.405  0.1049 -0.8426  0.0543
  285TMC3    C1 4349   2.009   3.861  11.184 -0.1305  0.4043 -0.1347
  285TMC3    C2 4350   2.046   3.775  11.086  0.2620 -0.2083  0.0783
  285TMC3    C3 4351   2.159   3.805  11.020 -1.2426  0.5654 -0.1096
  285TMC3    C4 4352   2.089   3.974  11.215 -0.1762  0.3669  0.0554
  285TMC3    C5 4353   2.210   3.990  11.153 -0.2958 -0.5963 -0.7019
  285TMC3    C6 4354   2.244   3.908  11.048  0.4998  0.0864 -0.4331
  285TMC3     C 4355   1.952   3.797  11.304 -0.3858  0.1726 -0.0533
  285TMC3     O 4356   1.837   3.751  11.300  0.1096  0.1278 -0.7830
  285TMC3     H 4357   1.983   3.689  11.067 -1.0701  0.7985 -0.0726
  285TMC3    H1 4358   2.048   4.053  11.277 -1.7960  1.0845 -1.9269
  285TMC3    H2 4359   2.326   3.932  10.981  1.8977  0.1931  1.3001
  285TMC3    C7 4360   2.287   4.106  11.184 -0.1009 -0.0106  0.0967
  285TMC3    C8 4361   2.204   3.682  10.950  0.6633 -0.2062 -0.1736
  285TMC3    O1 4362   2.236   4.183  11.267 -0.4894 -0.0372  0.2126
  285TMC3    O2 4363   2.114   3.622  10.895 -0.1392 -0.5202  0.0782
  286MPD2     C 4364   2.752   2.768   1.214 -0.5414 -0.1356 -0.9280
  286MPD2    C1 4365   2.733   2.727   1.084 -0.3643 -0.2465  0.2056
  286MPD2    C2 4366   2.797   2.611   1.042 -0.0444 -0.7677  0.1439
  286MPD2    C3 4367   2.883   2.543   1.128 -0.2978 -0.1000  0.6160
  286MPD2    C4 4368   2.900   2.589   1.256  0.3827 -0.0299 -0.1531
  286MPD2    C5 4369   2.842   2.709   1.296  0.7734  0.4020 -0.3684
  286MPD2     H 4370   2.767   2.570   0.946  0.3693  1.1266 -0.8086
  286MPD2    H1 4371   2.974   2.544   1.323  0.0623 -1.6597 -0.8851
  286MPD2    H2 4372   2.699   2.852   1.258 -0.3173 -0.4366 -0.0951
  286MPD2    H3 4373   2.862   2.740   1.398 -0.4490  2.3695 -0.7423
  286MPD2     N 4374   2.962   2.431   1.090 -0.0715 -0.7115 -0.1559
  286MPD2    H5 4375   3.025   2.388   1.157 -0.3641 -0.5727  0.2070
  286MPD2    N1 4376   2.653   2.798   0.992 -0.2892  0.2003  0.2373
  286MPD2    H7 4377   2.633   2.749   0.905 -1.5270  1.8454 -0.3983
  287TMC3    C1 4378   3.043   2.248   0.976  0.2349 -0.1790  0.0265
  287TMC3    C2 4379   3.006   2.146   0.889  0.6021  0.1413  0.2242
  287TMC3    C3 4380   3.083   2.035   0.874  1.4132  0.0599  0.4305
  287TMC3    C4 4381   3.152   2.222   1.068 -0.3164 -0.1379 -0.4228
  287TMC3    C5 4382   3.233   2.106   1.044 -0.1837 -0.6652  0.9707
  287TMC3    C6 4383   3.200   2.010   0.946 -0.0559 -0.7598  0.7358
  287TMC3     C 4384   2.956   2.362   0.971 -0.8529  1.2874 -0.0546
  287TMC3     O 4385   2.869   2.366   0.885 -0.3138 -0.1673 -0.0429
  287TMC3     H 4386   2.921   2.152   0.822  0.5532  2.5723  0.5187
  287TMC3    H1 4387   3.175   2.289   1.149  0.4873  1.5570 -2.0536
  287TMC3    H2 4388   3.266   1.929   0.915  0.1559 -1.0106  1.8662
  287TMC3    C7 4389   3.354   2.086   1.139  0.6426  0.4874 -0.2485
  287TMC3    C8 4390   3.072   1.961   0.759 -0.2442 -0.2412 -0.0850
  287TMC3    O1 4391   3.365   2.168   1.230  0.8677  0.0597  0.5297
  287TMC3    O2 4392   3.068   1.841   0.758 -0.7140 -0.5239 -0.3788
  288TMC3    C1 4393   4.594   2.504  14.307 -0.6977  0.1606 -0.1294
  288TMC3    C2 4394   4.569   2.506  14.442 -0.6986 -0.4544  1.0941
  288TMC3    C3 4395   4.512   2.394  14.489 -0.0707 -0.6166 -0.0011
  288TMC3    C4 4396   4.575   2.392  14.227 -0.8456 -0.3577  1.0456
  288TMC3    C5 4397   4.534   2.278  14.285 -0.0118  0.0423  0.6009
  288TMC3    C6 4398   4.505   2.279  14.415 -0.7037 -0.1553 -0.6087
  288TMC3     C 4399   4.629   2.629  14.238 -0.2170  0.0106  0.1215
  288TMC3     O 4400   4.625   2.632  14.118  0.3564  0.2806  0.1283
  288TMC3     H 4401   4.582   2.598  14.498 -1.0452 -0.6580  1.5074
  288TMC3    H1 4402   4.611   2.392  14.125  1.2904  0.1014  1.7924
  288TMC3    H2 4403   4.497   2.182  14.461  2.8217 -0.5956 -0.9136
  288TMC3    C7 4404   4.492   2.178  14.188 -0.1294 -0.2862  0.0524
  288TMC3    C8 4405   4.440   2.414  14.612  0.7689  0.4512  0.0770
  288TMC3    O1 4406   4.504   2.213  14.072 -0.4614 -0.3279  0.3744
  288TMC3    O2 4407   4.455   2.519  14.680  0.2030 -0.4816  0.5280
  289MPD2     C 4408   4.325   1.261  15.176 -0.7180  0.0314 -0.4427
  289MPD2    C1 4409   4.397   1.249  15.066  0.4791  0.3631  0.8917
  289MPD2    C2 4410   4.324   1.240  14.945 -0.0312 -0.3362 -0.2171
  289MPD2    C3 4411   4.186   1.229  14.948 -0.6959 -0.5038 -1.0029
  289MPD2    C4 4412   4.125   1.216  15.069 -0.4356 -0.2811  0.3261
  289MPD2    C5 4413   4.192   1.240  15.180  0.4890 -0.3117 -0.0250
  289MPD2     H 4414   4.370   1.245  14.847  1.4913  2.0331  0.6233
  289MPD2    H1 4415   4.017   1.207  15.074 -0.4764 -1.5034 -2.8435
  289MPD2    H2 4416   4.368   1.293  15.270  0.1277 -0.2334 -0.7399
  289MPD2    H3 4417   4.138   1.266  15.270  1.3273  1.1727  0.0368
  289MPD2     N 4418   4.098   1.241  14.836  0.1518 -0.3435  0.6513
  289MPD2    H5 4419   4.007   1.203  14.859 -0.7349 -0.3965 -2.9369
  289MPD2    N1 4420   4.536   1.266  15.086  0.2564 -0.0296 -0.4814
  289MPD2    H7 4421   4.577   1.262  15.179 -1.4201  2.0953  0.3384
  290TMC3    C1 4422   4.015   1.283  14.615 -0.1148  0.2253  0.2859
  290TMC3    C2 4423   4.047   1.322  14.487 -0.4634  0.2625 -0.9990
  290TMC3    C3 4424   3.957   1.301  14.385  0.0792  0.7814 -0.2207
  290TMC3    C4 4425   3.893   1.225  14.646  0.2316 -0.7024  0.3140
  290TMC3    C5 4426   3.806   1.203  14.537  0.3572  0.1376 -0.5645
  290TMC3    C6 4427   3.837   1.248  14.411  0.6478  0.2329  0.1651
  290TMC3     C 4428   4.134   1.289  14.710  0.1420  0.9066  0.0573
  290TMC3     O 4429   4.242   1.342  14.678  0.0874 -0.1381 -0.7039
  290TMC3     H 4430   4.145   1.364  14.467 -0.5978  0.9563 -0.1901
  290TMC3    H1 4431   3.844   1.228  14.743 -0.1744  1.8335  0.0492
  290TMC3    H2 4432   3.766   1.234  14.330 -0.2731  0.5664  0.9180
  290TMC3    C7 4433   3.663   1.200  14.569  0.2376  0.3089  0.5199
  290TMC3    C8 4434   3.948   1.403  14.278  1.3447  0.8458 -0.6835
  290TMC3    O1 4435   3.589   1.244  14.485  0.1151 -0.4254  0.5466
  290TMC3    O2 4436   3.905   1.361  14.169 -0.4039  0.2207  0.1003
  291MPD2     C 4437   3.512   1.959  17.572  0.5550 -0.0145 -0.4013
  291MPD2    C1 4438   3.550   1.890  17.685 -0.6132  0.3961  0.4716
  291MPD2    C2 4439   3.648   1.947   0.028 -0.1979 -0.1354  1.0641
  291MPD2    C3 4440   3.689   2.081   0.009  0.0345  0.1117 -0.1905
  291MPD2    C4 4441   3.651   2.148  17.632 -0.1362  0.5068 -0.1220
  291MPD2    C5 4442   3.561   2.087  17.544  0.0976  0.3009 -0.1037
  291MPD2     H 4443   3.679   1.883   0.109  1.6818  1.0642  1.2981
  291MPD2    H1 4444   3.689   2.248  17.616 -1.6109  1.2273  0.8667
  291MPD2    H2 4445   3.442   1.925  17.497 -1.5358  0.9155  1.1399
  291MPD2    H3 4446   3.527   2.142  17.457  0.5098 -1.1712 -1.1952
  291MPD2     N 4447   3.772   2.153   0.096 -0.4477  0.6378 -0.4448
  291MPD2    H5 4448   3.784   2.250   0.068 -0.5309  0.4957 -0.9837
  291MPD2    N1 4449   3.516   1.756  17.701  0.3918 -0.0690  0.4611
  291MPD2    H7 4450   3.560   1.730   0.053  1.5471  2.2309  0.5792
  292TMC3    C1 4451   3.444   1.539  17.672  0.2512  0.5165 -0.8306
  292TMC3    C2 4452   3.506   1.511   0.058  0.9211  0.6031  0.4878
  292TMC3    C3 4453   3.519   1.383   0.099 -0.7617  0.8482 -0.1048
  292TMC3    C4 4454   3.396   1.445  17.591  0.1600  0.2912  0.0357
  292TMC3    C5 4455   3.410   1.322  17.632 -0.0703  0.2966 -0.0824
  292TMC3    C6 4456   3.465   1.283   0.016  0.4767  0.2397 -0.5672
  292TMC3     C 4457   3.434   1.675  17.626 -0.0409  0.2560  0.1667
  292TMC3     O 4458   3.362   1.693  17.525 -0.3636  0.2156 -0.1642
  292TMC3     H 4459   3.546   1.586   0.125 -1.2548  0.5274  1.9024
  292TMC3    H1 4460   3.343   1.457  17.498 -0.9094  2.0658  0.8601
  292TMC3    H2 4461   3.484   1.180   0.046 -1.9265  0.8863  3.1933
  292TMC3    C7 4462   3.313   1.225  17.582 -0.1418  0.8146  0.5334
  292TMC3    C8 4463   3.584   1.358   0.219  0.4718  0.5493 -0.7397
  292TMC3    O1 4464   3.204   1.274  17.553  0.0337 -0.0954  0.0846
  292TMC3    O2 4465   3.683   1.424   0.246 -0.1894  0.3100 -0.3930
  293MPD2     C 4466   0.663   2.797  12.433 -1.0272  0.8787 -0.0270
  293MPD2    C1 4467   0.561   2.754  12.518  0.7177  0.7017  0.1820
  293MPD2    C2 4468   0.595   2.755  12.659 -0.1162  0.3395  0.8081
  293MPD2    C3 4469   0.730   2.765  12.700  0.0552 -0.0223  0.4262
  293MPD2    C4 4470   0.828   2.808  12.610 -0.1598  0.5629  0.0359
  293MPD2    C5 4471   0.790   2.821  12.478  0.4829  0.6033 -0.2648
  293MPD2     H 4472   0.524   2.742  12.740 -2.2293  0.0401 -1.0982
  293MPD2    H1 4473   0.932   2.811  12.638 -0.4664  2.8452  0.9154
  293MPD2    H2 4474   0.645   2.811  12.327  2.2393 -0.5323 -0.7846
  293MPD2    H3 4475   0.865   2.832  12.400 -0.4590  1.1483 -1.0997
  293MPD2     N 4476   0.767   2.746  12.835  0.0393 -0.1761 -0.9058
  293MPD2    H5 4477   0.692   2.723  12.899  0.4747  0.1869 -0.2660
  293MPD2    N1 4478   0.433   2.733  12.459 -0.1746  0.3854  0.5871
  293MPD2    H7 4479   0.426   2.736  12.357 -0.3113  0.7365  0.6060
  294TMC3    C1 4480   0.196   2.711  12.464  0.3946 -0.3373  1.1537
  294TMC3    C2 4481   0.085   2.684  12.536  0.4654  0.4151 -0.4383
  294TMC3    C3 4482   4.701   2.719  12.490  0.8956  0.9398  0.4845
  294TMC3    C4 4483   0.185   2.759  12.334 -0.8181  0.2431 -0.5788
  294TMC3    C5 4484   0.063   2.786  12.284 -0.8883  0.8285 -0.3732
  294TMC3    C6 4485   4.688   2.776  12.365 -0.5890  0.1366 -0.1736
  294TMC3     C 4486   0.322   2.704  12.536  0.5543 -0.2106 -0.0125
  294TMC3     O 4487   0.305   2.704  12.656  0.4170  0.0492  0.2091
  294TMC3     H 4488   0.091   2.643  12.637 -3.4965  1.1368  0.0875
  294TMC3    H1 4489   0.275   2.776  12.277 -1.7881  0.5362 -2.0345
  294TMC3    H2 4490   4.588   2.781  12.321 -0.8663  0.3861  0.4854
  294TMC3    C7 4491   0.025   2.774  12.139 -0.1102  0.2363 -0.4381
  294TMC3    C8 4492   4.590   2.654  12.550 -0.8231  0.3838  0.5916
  294TMC3    O1 4493   4.648   2.803  12.096 -0.5783  0.0466 -0.1563
  294TMC3    O2 4494   4.505   2.720  12.603 -0.4883  0.0343 -0.7736
  295MPD2     C 4495   2.024   1.562   0.704 -0.3524 -0.5800  0.5463
  295MPD2    C1 4496   1.898   1.537   0.642 -0.0121 -0.3753 -0.6212
  295MPD2    C2 4497   1.789   1.504   0.724 -0.5974  0.8011  0.8371
  295MPD2    C3 4498   1.805   1.495   0.860 -0.3484 -0.7775 -0.2685
  295MPD2    C4 4499   1.929   1.524   0.924 -0.5358 -0.0455 -0.2329
  295MPD2    C5 4500   2.035   1.558   0.837 -0.3361  0.3454  0.1657
  295MPD2     H 4501   1.692   1.489   0.678  0.7073 -0.1258 -1.6676
  295MPD2    H1 4502   1.949   1.503   1.028  1.3071  1.7442 -0.2255
  295MPD2    H2 4503   2.111   1.581   0.642 -0.9674  0.9361  0.1538
  295MPD2    H3 4504   2.127   1.566   0.893  0.7812 -2.7047 -1.2550
  295MPD2     N 4505   1.708   1.450   0.944  0.0639 -0.3995 -0.4996
  295MPD2    H5 4506   1.732   1.424   1.040 -0.3415  0.6457 -0.1157
  295MPD2    N1 4507   1.867   1.545   0.503 -0.7767  0.2598  0.2977
  295MPD2    H7 4508   1.777   1.527   0.459  0.4593  0.3254 -2.2708
  296TMC3    C1 4509   1.534   1.314   1.006  0.1193 -0.0251 -0.1757
  296TMC3    C2 4510   1.404   1.343   1.048 -0.7442 -0.3854  0.6657
  296TMC3    C3 4511   1.347   1.236   1.115 -0.1469  0.1946  0.5076
  296TMC3    C4 4512   1.593   1.193   1.005 -0.0929  0.3082 -0.2440
  296TMC3    C5 4513   1.521   1.089   1.052 -0.0358 -0.4090  0.5932
  296TMC3    C6 4514   1.407   1.117   1.125  0.0132 -0.1018 -0.4612
  296TMC3     C 4515   1.580   1.415   0.913 -0.3320  0.6381  0.1246
  296TMC3     O 4516   1.524   1.433   0.805  0.4763  0.0153  0.2729
  296TMC3     H 4517   1.355   1.435   1.020 -0.5024 -0.2893  0.5600
  296TMC3    H1 4518   1.691   1.177   0.961  0.6447 -0.6708  1.7999
  296TMC3    H2 4519   1.364   1.040   1.188 -0.8210  0.3294 -0.5124
  296TMC3    C7 4520   1.588   0.961   1.064  1.2830 -0.8794 -0.0907
  296TMC3    C8 4521   1.231   1.257   1.207  0.6352 -0.0336 -0.2130
  296TMC3    O1 4522   1.662   0.928   0.972  0.1515 -0.5027 -0.3392
  296TMC3    O2 4523   1.199   1.159   1.273 -0.5230  0.0255 -0.1057
  297MPD2     C 4524   3.253   3.341  16.360 -0.4520 -0.1634  0.4212
  297MPD2    C1 4525   3.228   3.404  16.237  0.6073  0.1729  0.0415
  297MPD2    C2 4526   3.314   3.499  16.188  0.1552 -0.5774  0.1272
  297MPD2    C3 4527   3.427   3.531  16.261 -0.2111  1.0797  0.3206
  297MPD2    C4 4528   3.450   3.469  16.386  0.5995 -0.1761 -0.0942
  297MPD2    C5 4529   3.363   3.375  16.433 -0.1431 -0.2494 -0.4792
  297MPD2     H 4530   3.293   3.549  16.094  0.7424  4.3895  2.6106
  297MPD2    H1 4531   3.532   3.499  16.450  1.5386 -2.2811 -0.2926
  297MPD2    H2 4532   3.185   3.266  16.397 -0.0283 -0.9003 -0.3113
  297MPD2    H3 4533   3.374   3.339  16.535 -0.4124  1.4842  0.1594
  297MPD2     N 4534   3.529   3.609  16.202 -1.0044  0.1816  0.3990
  297MPD2    H5 4535   3.599   3.648  16.265  0.0162 -0.0678 -0.5715
  297MPD2    N1 4536   3.114   3.379  16.163 -0.1615  0.2327 -0.7784
  297MPD2    H7 4537   3.110   3.440  16.082 -1.1462  0.0393 -0.8776
  298TMC3    C1 4538   2.899   3.292  16.112  0.5759  0.0455  0.3282
  298TMC3    C2 4539   2.918   3.320  15.984 -0.6161  0.6097 -0.5376
  298TMC3    C3 4540   2.807   3.330  15.902 -0.4933  0.2903  0.4044
  298TMC3    C4 4541   2.776   3.286  16.166 -0.3898 -0.7811 -0.0199
  298TMC3    C5 4542   2.664   3.301  16.085  0.4030  0.3037 -0.0852
  298TMC3    C6 4543   2.684   3.315  15.951 -0.1121 -0.7561  0.2679
  298TMC3     C 4544   3.015   3.296  16.200  0.7379 -0.0085  0.0686
  298TMC3     O 4545   2.992   3.223  16.296  0.0151  0.0382 -0.5050
  298TMC3     H 4546   3.021   3.335  15.954 -0.1512 -0.4409  0.5088
  298TMC3    H1 4547   2.757   3.274  16.272 -0.5708  3.1088  0.4078
  298TMC3    H2 4548   2.600   3.331  15.884 -0.3800 -0.1123  0.7632
  298TMC3    C7 4549   2.560   3.382  16.152 -0.3456  0.4410 -0.0773
  298TMC3    C8 4550   2.824   3.373  15.765 -0.1736 -0.3412  0.0252
  298TMC3    O1 4551   2.575   3.395  16.278  0.7005 -0.3463  0.6333
  298TMC3    O2 4552   2.723   3.430  15.722  0.0599 -0.0476 -0.7443
  299MPD2     C 4553   3.893   2.540  10.679 -0.4907  0.8776 -0.0061
  299MPD2    C1 4554   3.856   2.669  10.643  0.3089 -0.6808  0.3364
  299MPD2    C2 4555   3.798   2.694  10.525  0.1941 -0.2447  1.0966
  299MPD2    C3 4556   3.744   2.588  10.458  0.1555 -0.5677 -0.7067
  299MPD2    C4 4557   3.778   2.462  10.489 -0.0885 -0.6181 -0.0944
  299MPD2    C5 4558   3.856   2.436  10.605  0.7574  0.6413  0.1405
  299MPD2     H 4559   3.783   2.793  10.482  1.0221 -0.6057 -0.0322
  299MPD2    H1 4560   3.738   2.380  10.430  2.0028 -3.4435  2.4626
  299MPD2    H2 4561   3.952   2.519  10.767 -1.4443 -2.9180 -0.2642
  299MPD2    H3 4562   3.880   2.334  10.636  0.0717 -0.6832 -3.6261
  299MPD2     N 4563   3.660   2.587  10.343 -0.4846  0.9444  0.4581
  299MPD2    H5 4564   3.618   2.495  10.327  0.3642  0.5701  0.3976
  299MPD2    N1 4565   3.901   2.777  10.725 -0.5261 -0.5800  0.4308
  299MPD2    H7 4566   3.947   2.752  10.812  1.6151 -0.4558 -0.6605
  300TMC3    C1 4567   3.491   2.687  10.210  0.1435 -0.0812  0.8695
  300TMC3    C2 4568   3.457   2.792  10.134 -0.1166  0.3676  0.3755
  300TMC3    C3 4569   3.320   2.806  10.102 -0.9344 -0.4945  0.5450
  300TMC3    C4 4570   3.396   2.608  10.269  0.1026  0.5450 -0.1681
  300TMC3    C5 4571   3.268   2.622  10.237  0.6891 -0.0706  0.3373
  300TMC3    C6 4572   3.226   2.722  10.153 -0.3047 -0.0365 -0.0611
  300TMC3     C 4573   3.615   2.705  10.284 -0.3768 -0.1181  0.0257
  300TMC3     O 4574   3.657   2.818  10.284  0.4385  0.3114 -0.1667
  300TMC3     H 4575   3.526   2.854  10.077  1.8522 -1.0876  1.1903
  300TMC3    H1 4576   3.411   2.528  10.341 -1.0142  1.1239  0.7083
  300TMC3    H2 4577   3.122   2.738  10.126  0.2120  2.4170 -0.5893
  300TMC3    C7 4578   3.171   2.572  10.334 -0.1764 -0.0918  0.7717
  300TMC3    C8 4579   3.271   2.938  10.067  0.7170 -0.5829 -0.2280
  300TMC3    O1 4580   3.195   2.461  10.382 -0.5897 -0.5616 -0.3828
  300TMC3    O2 4581   3.353   3.020  10.096  0.0897 -0.0639 -0.0431
  301MPD2     C 4582   1.230   4.306   0.990 -0.6474 -0.1712 -0.4778
  301MPD2    C1 4583   1.122   4.293   0.911 -0.7434 -0.2842 -0.1696
  301MPD2    C2 4584   1.117   4.184   0.823 -1.0627 -0.3178 -0.0372
  301MPD2    C3 4585   1.219   4.095   0.810 -0.4329  0.2509 -1.1544
  301MPD2    C4 4586   1.330   4.117   0.893  0.6545 -0.3910  0.2570
  301MPD2    C5 4587   1.339   4.223   0.979 -0.0736 -0.6181 -0.3013
  301MPD2     H 4588   1.023   4.182   0.770 -1.9484 -0.6478  1.5232
  301MPD2    H1 4589   1.410   4.045   0.899  0.8955 -0.1182  0.3020
  301MPD2    H2 4590   1.243   4.376   1.072  0.0679 -1.3516  0.4317
  301MPD2    H3 4591   1.416   4.244   1.053  1.2831  1.6202 -2.3327
  301MPD2     N 4592   1.217   3.973   0.737 -0.0492  0.2096 -0.0337
  301MPD2    H5 4593   1.304   3.921   0.750  0.4921  1.2627  0.6256
  301MPD2    N1 4594   1.009   4.383   0.922 -0.5003  0.1100 -0.0646
  301MPD2    H7 4595   0.932   4.351   0.864 -0.3893  1.3349 -0.9045
  302TMC3    C1 4596   1.149   3.803   0.590  0.5757 -0.4398  0.3827
  302TMC3    C2 4597   1.224   3.713   0.669 -0.0621  0.0030 -0.3531
  302TMC3    C3 4598   1.222   3.589   0.614 -0.4379  0.0258 -0.2477
  302TMC3    C4 4599   1.074   3.771   0.482  0.1676 -0.3746 -0.3957
  302TMC3    C5 4600   1.068   3.639   0.453 -0.0263  0.0715  0.5562
  302TMC3    C6 4601   1.145   3.544   0.510 -0.0710  0.4980 -0.7045
  302TMC3     C 4602   1.126   3.939   0.644  0.1258 -0.1982 -0.5992
  302TMC3     O 4603   1.030   4.001   0.607  0.6463 -0.6382 -0.3006
  302TMC3     H 4604   1.282   3.740   0.756  0.0174 -1.1239 -0.0665
  302TMC3    H1 4605   1.027   3.842   0.414  0.5563  2.1819  2.0299
  302TMC3    H2 4606   1.158   3.442   0.478  2.9506  0.1748  1.5351
  302TMC3    C7 4607   0.955   3.582   0.388 -0.1550 -0.0948 -0.1300
  302TMC3    C8 4608   1.269   3.484   0.694 -1.0515  0.4265 -0.1570
  302TMC3    O1 4609   0.951   3.463   0.353 -0.3157  0.0141 -0.3858
  302TMC3    O2 4610   1.304   3.380   0.644  0.4021 -0.3284  0.3084
  303MPD2     C 4611   0.804   3.166  10.811 -0.5792  0.0721  0.0090
  303MPD2    C1 4612   0.734   3.095  10.722  0.0541  0.2601 -0.0907
  303MPD2    C2 4613   0.679   3.162  10.614 -0.6292 -0.0286  0.3740
  303MPD2    C3 4614   0.716   3.289  10.581  0.7058 -0.7254 -0.1987
  303MPD2    C4 4615   0.792   3.360  10.674 -0.0591  0.7875 -0.0448
  303MPD2    C5 4616   0.834   3.300  10.784 -0.3031 -0.2257 -0.0938
  303MPD2     H 4617   0.599   3.121  10.553 -0.1265  1.6712 -1.4372
  303MPD2    H1 4618   0.813   3.466  10.665 -2.9217  1.2099 -1.6233
  303MPD2    H2 4619   0.837   3.135  10.910 -0.2940  1.0419  0.2095
  303MPD2    H3 4620   0.882   3.356  10.863 -1.0870  2.4721 -1.5285
  303MPD2     N 4621   0.685   3.348  10.459 -0.6209  0.1060 -0.1422
  303MPD2    H5 4622   0.670   3.448  10.462 -0.9314  0.1552 -3.2642
  303MPD2    N1 4623   0.706   2.959  10.748  0.1561  0.7576 -0.0888
  303MPD2    H7 4624   0.735   2.922  10.838 -0.6564  0.0905 -0.1001
  304TMC3    C1 4625   0.638   2.740  10.703  0.6191 -1.0260 -0.4110
  304TMC3    C2 4626   0.550   2.720  10.809 -0.1003 -0.0513 -0.2307
  304TMC3    C3 4627   0.489   2.595  10.815  0.4462 -0.2868 -0.4149
  304TMC3    C4 4628   0.661   2.648  10.597 -0.4483 -0.5884 -0.0406
  304TMC3    C5 4629   0.600   2.525  10.612  0.3746  0.3557 -0.1663
  304TMC3    C6 4630   0.514   2.500  10.716  0.1539 -0.7302 -0.6660
  304TMC3     C 4631   0.639   2.877  10.661 -0.8518 -0.3693  0.5355
  304TMC3     O 4632   0.623   2.898  10.544  0.4880  0.0312 -0.0242
  304TMC3     H 4633   0.512   2.812  10.850 -0.1634 -0.3729  0.4244
  304TMC3    H1 4634   0.719   2.674  10.509  2.5406  0.6402  2.3182
  304TMC3    H2 4635   0.476   2.400  10.736 -1.4981  0.0963  0.3770
  304TMC3    C7 4636   0.554   2.449  10.502 -0.0187  0.0927 -0.0843
  304TMC3    C8 4637   0.348   2.621  10.820 -0.1914 -0.1224 -0.1211
  304TMC3    O1 4638   0.443   2.395  10.512  0.0517  0.3029 -0.4703
  304TMC3    O2 4639   0.316   2.696  10.916 -0.4000  0.3947 -0.1039
  305MPD2     C 4640   3.739   0.032  13.820 -0.3442  0.1450 -0.4003
  305MPD2    C1 4641   3.873   0.004  13.795 -0.3276 -0.8763 -0.3577
  305MPD2    C2 4642   3.910   4.716  13.670  0.0408  0.4831 -0.3831
  305MPD2    C3 4643   3.819   4.720  13.568  0.3238 -0.3921 -0.3275
  305MPD2    C4 4644   3.680   4.725  13.600 -0.5454 -0.9948 -0.5006
  305MPD2    C5 4645   3.642   0.020  13.726  0.2900  0.4258  0.6314
  305MPD2     H 4646   4.016   4.700  13.651 -0.0401 -0.6827  0.1920
  305MPD2    H1 4647   3.605   0.010  13.523  0.2430 -0.8281 -1.2245
  305MPD2    H2 4648   3.706   0.055  13.921  0.4019  0.8643 -0.3291
  305MPD2    H3 4649   3.544   0.054  13.757 -0.6613 -2.6095  0.9592
  305MPD2     N 4650   3.851   4.705  13.433  0.2082 -0.4295  0.1387
  305MPD2    H5 4651   3.769   4.715  13.373  0.8104  0.1317 -0.5938
  305MPD2    N1 4652   3.954   0.001  13.911  0.5673  0.3065 -0.2195
  305MPD2    H7 4653   3.913   0.049  13.990 -0.4044  0.9146 -1.0958
  306TMC3    C1 4654   4.148   4.688  14.037 -0.3392  0.2496  0.7924
  306TMC3    C2 4655   4.279   4.645  14.032 -0.3672  0.8004  0.2862
  306TMC3    C3 4656   4.350   4.644  14.142 -0.3985 -0.0189  0.7044
  306TMC3    C4 4657   4.078   4.712  14.151  0.1241 -0.5031  0.0216
  306TMC3    C5 4658   4.155   4.696  14.266  0.3075  0.0553  0.2908
  306TMC3    C6 4659   4.292   4.660  14.262  0.0609 -0.6514 -0.0299
  306TMC3     C 4660   4.076   4.674  13.916  0.5580  0.4693  0.2269
  306TMC3     O 4661   4.128   4.620  13.816  0.4410  0.0900  0.5748
  306TMC3     H 4662   4.311   4.616  13.932  2.8115 -0.2497  1.6372
  306TMC3    H1 4663   3.973   0.002  14.160 -0.1983 -1.3418 -1.5151
  306TMC3    H2 4664   4.353   4.642  14.349 -0.4110 -2.1686 -0.0218
  306TMC3    C7 4665   4.090   4.718  14.388 -0.1450  0.1640  0.9586
  306TMC3    C8 4666   4.430   4.522  14.135  0.3965 -0.1442  0.0872
  306TMC3    O1 4667   3.968   4.714  14.397  0.6482 -0.1942 -0.2223
  306TMC3    O2 4668   4.549   4.537  14.127 -0.1524  0.7974  0.0334
  307MPD2     C 4669   2.089   3.030  17.676  0.0038 -0.7423 -0.0249
  307MPD2    C1 4670   2.018   3.144  17.709  0.5495 -0.5748  0.1625
  307MPD2    C2 4671   1.942   3.138   0.089  0.2524 -0.0774  0.6965
  307MPD2    C3 4672   1.928   3.015   0.158 -0.5412  0.0661  0.0593
  307MPD2    C4 4673   1.999   2.904   0.116  0.1529  0.5116 -0.9095
  307MPD2    C5 4674   2.075   2.920   0.007  0.4790 -0.2320  0.1561
  307MPD2     H 4675   1.873   3.218   0.115  0.1864  0.2792 -0.5815
  307MPD2    H1 4676   1.980   2.803   0.153 -1.7956  1.3889  0.5362
  307MPD2    H2 4677   2.164   3.021  17.599  1.5812 -2.7129  1.7381
  307MPD2    H3 4678   2.113   2.828  17.699 -1.4183 -0.5497 -0.8211
  307MPD2     N 4679   1.849   3.017   0.274  0.2746  0.1161 -0.2608
  307MPD2    H5 4680   1.823   3.109   0.310 -2.6760 -0.3816 -1.1290
  307MPD2    N1 4681   2.023   3.261  17.625 -0.2002  0.5487  0.1972
  307MPD2    H7 4682   1.957   3.335  17.650 -0.0523  1.0888 -0.9826
  308TMC3    C1 4683   1.583   2.830   0.616 -0.9968  0.2502  0.6132
  308TMC3    C2 4684   1.563   2.958   0.666  0.7914 -0.5837 -0.0620
  308TMC3    C3 4685   1.642   3.064   0.629 -0.0721 -0.2391  0.3560
  308TMC3    C4 4686   1.679   2.809   0.522 -0.2873 -0.1306  0.1288
  308TMC3    C5 4687   1.742   2.921   0.475  0.3846 -0.0584  0.0410
  308TMC3    C6 4688   1.732   3.050   0.528 -0.0534 -0.2284  0.0107
  308TMC3     C 4689   1.464   2.754   0.609 -0.0554  0.4983 -0.2205
  308TMC3     O 4690   1.482   2.634   0.603 -0.0303 -0.5191 -0.2854
  308TMC3     H 4691   1.490   2.972   0.745  1.8374  0.3243  0.7445
  308TMC3    H1 4692   1.690   2.713   0.472  1.7900 -0.7182  1.7175
  308TMC3    H2 4693   1.800   3.128   0.495 -0.9736  0.0446 -1.1966
  308TMC3    C7 4694   1.808   2.901   0.343 -1.1569 -0.0686  0.0960
  308TMC3    C8 4695   1.632   3.186   0.710  0.8294  0.1303 -1.0400
  308TMC3    O1 4696   1.790   2.795   0.285  0.0720  0.3482 -0.4494
  308TMC3    O2 4697   1.569   3.178   0.812 -0.4099 -0.1486 -0.3240
  309MPD2     C 4698   1.254   3.233  16.994  0.0596 -0.5063 -0.0948
  309MPD2    C1 4699   1.215   3.323  16.892 -0.2403 -0.1362 -0.7330
  309MPD2    C2 4700   1.094   3.387  16.913  0.8811  0.1816 -0.5626
  309MPD2    C3 4701   1.020   3.365  17.027  0.1288  0.0939  0.9455
  309MPD2    C4 4702   1.064   3.279  17.122 -0.0674 -0.6306 -0.1129
  309MPD2    C5 4703   1.180   3.209  17.109 -0.4714  0.2334 -0.5129
  309MPD2     H 4704   1.060   3.452  16.833  0.6472  1.7703  0.8278
  309MPD2    H1 4705   1.004   3.248  17.207 -0.1391 -1.4738 -0.4679
  309MPD2    H2 4706   1.346   3.178  16.978  1.2318  0.9483  1.7322
  309MPD2    H3 4707   1.209   3.126  17.172  0.5808 -0.1807 -1.5433
  309MPD2     N 4708   0.906   3.440  17.061  0.4484 -0.6052 -0.0676
  309MPD2    H5 4709   0.872   3.416  17.154 -1.5098  1.6618 -0.1857
  309MPD2    N1 4710   1.278   3.345  16.767 -0.4123  0.3513  0.3166
  309MPD2    H7 4711   1.223   3.400  16.702  1.3225  3.7339  1.6546
  310TMC3    C1 4712   1.420   3.318  16.597 -0.4299 -0.0040  0.8045
  310TMC3    C2 4713   1.341   3.406  16.530  0.0682  0.3831 -0.2677
  310TMC3    C3 4714   1.338   3.395  16.392 -0.7991 -0.5330 -0.7559
  310TMC3    C4 4715   1.504   3.221  16.537 -0.8845  0.3612 -0.4156
  310TMC3    C5 4716   1.499   3.216  16.400 -0.1089 -0.9270 -0.2330
  310TMC3    C6 4717   1.411   3.298  16.331  0.3638 -0.1045  0.0012
  310TMC3     C 4718   1.398   3.295  16.731 -0.3591 -0.0819  0.2282
  310TMC3     O 4719   1.468   3.214  16.794 -0.2096 -0.5406  0.2732
  310TMC3     H 4720   1.283   3.482  16.581 -0.2047 -0.8806  1.3268
  310TMC3    H1 4721   1.573   3.160  16.594 -0.5720 -1.1716 -2.4234
  310TMC3    H2 4722   1.417   3.300  16.222 -0.8804  0.5893 -0.0576
  310TMC3    C7 4723   1.571   3.111  16.335  0.2739  0.0046 -0.6615
  310TMC3    C8 4724   1.221   3.441  16.315  0.2484 -0.0792  0.1224
  310TMC3    O1 4725   1.580   3.005  16.396  0.9332 -0.1976 -0.0740
  310TMC3    O2 4726   1.180   3.371  16.228 -0.9019  0.0463 -0.2941
  311MPD2     C 4727   3.021   4.151  12.506  0.5682 -0.3874 -0.1024
  311MPD2    C1 4728   3.013   4.250  12.601  0.2270 -0.4629 -0.4229
  311MPD2    C2 4729   2.911   4.246  12.690  0.4053  0.3225  0.4405
  311MPD2    C3 4730   2.809   4.154  12.680 -0.2838  0.0173 -0.1135
  311MPD2    C4 4731   2.829   4.045  12.594 -0.5341 -0.5457 -0.6573
  311MPD2    C5 4732   2.935   4.044  12.513  0.2209  0.0409 -0.3795
  311MPD2     H 4733   2.914   4.316  12.773  2.3171  0.6554  0.0867
  311MPD2    H1 4734   2.771   3.954  12.598 -0.8491 -0.3292 -0.2706
  311MPD2    H2 4735   3.081   4.154  12.416  0.7037 -2.2257 -0.0702
  311MPD2    H3 4736   2.944   3.962  12.442  0.1572  0.1823 -0.5503
  311MPD2     N 4737   2.708   4.150  12.779  0.1132  0.0441 -0.1294
  311MPD2    H5 4738   2.723   4.209  12.860  2.3863  1.3347 -1.4964
  311MPD2    N1 4739   3.107   4.349  12.617  0.2818  0.0641 -0.1517
  311MPD2    H7 4740   3.088   4.411  12.694  2.2440  0.9027 -0.3211
  312TMC3    C1 4741   2.519   4.083  12.902  0.5712 -0.2916  0.3394
  312TMC3    C2 4742   2.387   4.100  12.881 -0.4997 -0.3594 -0.4147
  312TMC3    C3 4743   2.329   4.190  12.964 -0.2024 -0.1001  0.3342
  312TMC3    C4 4744   2.591   4.143  12.999 -1.0933  0.1519  0.0412
  312TMC3    C5 4745   2.524   4.227  13.082  0.6866 -0.6025  0.1756
  312TMC3    C6 4746   2.398   4.267  13.058  0.3576  0.3789 -0.2775
  312TMC3     C 4747   2.594   4.076  12.771 -0.5569 -0.5016  0.2129
  312TMC3     O 4748   2.554   4.008  12.678  0.2177  0.8773  0.0947
  312TMC3     H 4749   2.343   4.053  12.795  2.1018 -0.6411 -1.5924
  312TMC3    H1 4750   2.688   4.110  13.035 -1.5275  0.2838  1.3397
  312TMC3    H2 4751   2.344   4.345  13.111  1.7572  1.0746  0.1211
  312TMC3    C7 4752   2.612   4.322  13.141 -0.6807 -0.6166  0.2650
  312TMC3    C8 4753   2.206   4.244  12.913  0.3273 -0.8986 -0.4050
  312TMC3    O1 4754   2.696   4.361  13.065 -0.4292  0.8459  0.2609
  312TMC3    O2 4755   2.136   4.165  12.849 -0.6772 -0.0216 -0.1826
  313MPD2     C 4756   2.577   3.255  10.246 -0.2914  0.4205  0.1379
  313MPD2    C1 4757   2.449   3.311  10.235 -0.8602  1.2270 -0.0221
  313MPD2    C2 4758   2.376   3.277  10.123 -0.4762  0.4091  0.6603
  313MPD2    C3 4759   2.431   3.202  10.023 -0.2889  0.8284 -0.2611
  313MPD2    C4 4760   2.551   3.144  10.033 -0.4397 -0.4950 -0.5383
  313MPD2    C5 4761   2.624   3.175  10.147 -0.1769 -0.0227  0.6135
  313MPD2     H 4762   2.275   3.315  10.110 -0.3095  0.8102  0.5439
  313MPD2    H1 4763   2.591   3.070   9.966  0.2108 -0.7062  0.0831
  313MPD2    H2 4764   2.642   3.252  10.333 -1.2495 -0.2635  0.8485
  313MPD2    H3 4765   2.726   3.143  10.165 -0.1225  0.1810  0.6697
  313MPD2     N 4766   2.348   3.160   9.919 -0.1169 -0.1823  0.0822
  313MPD2    H5 4767   2.255   3.194   9.939 -0.1440  0.0617 -0.4716
  313MPD2    N1 4768   2.395   3.405  10.329 -0.4209 -0.3350  0.2843
  313MPD2    H7 4769   2.299   3.432  10.311 -0.5084 -0.1895  0.9648
  314TMC3    C1 4770   2.402   3.547  10.518 -0.2066  0.1071  0.3632
  314TMC3    C2 4771   2.472   3.630  10.597  0.4927 -0.1880 -0.0793
  314TMC3    C3 4772   2.407   3.736  10.651  0.1882 -0.2583  0.8202
  314TMC3    C4 4773   2.264   3.554  10.503 -0.2649  0.3576  0.3316
  314TMC3    C5 4774   2.210   3.661  10.565 -0.0408 -0.2731  0.1112
  314TMC3    C6 4775   2.274   3.757  10.636 -0.6088 -0.2445 -0.2207
  314TMC3     C 4776   2.465   3.445  10.444  0.0031 -0.0423  0.3357
  314TMC3     O 4777   2.581   3.423  10.475 -0.3508 -0.4678  0.5205
  314TMC3     H 4778   2.580   3.624  10.599  0.4256 -2.1030 -1.5256
  314TMC3    H1 4779   2.202   3.481  10.453 -0.7251  0.6154  0.5278
  314TMC3    H2 4780   2.220   3.820  10.706  1.5113 -0.2831  1.4498
  314TMC3    C7 4781   2.099   3.718  10.485 -0.6030  0.1409  0.7929
  314TMC3    C8 4782   2.481   3.840  10.727 -0.5101  0.2114  0.0153
  314TMC3    O1 4783   2.028   3.640  10.416 -0.0569  0.0403 -0.0332
  314TMC3    O2 4784   2.416   3.941  10.756 -0.3876 -0.1499  0.1826
  315MPD2     C 4785   2.364   2.789  17.314  0.7368  0.0924  0.2680
  315MPD2    C1 4786   2.396   2.809  17.445 -0.5532  0.2596 -0.0629
  315MPD2    C2 4787   2.468   2.923  17.476 -0.0623 -0.0596 -0.2011
  315MPD2    C3 4788   2.506   3.010  17.382 -0.6258  0.1752 -0.0942
  315MPD2    C4 4789   2.471   2.988  17.250  0.5351  0.0671  0.2790
  315MPD2    C5 4790   2.396   2.879  17.213 -0.2534  0.6366 -0.8157
  315MPD2     H 4791   2.496   2.939  17.579 -2.1069 -0.5105  0.4182
  315MPD2    H1 4792   2.499   3.052  17.167  2.2408  0.8140  1.4186
  315MPD2    H2 4793   2.301   2.704  17.293  1.5169 -0.2537 -0.6811
  315MPD2    H3 4794   2.362   2.863  17.111 -0.4268  1.9457 -0.9519
  315MPD2     N 4795   2.591   3.122  17.416  0.3262 -0.0403 -0.7492
  315MPD2    H5 4796   2.629   3.127  17.510 -1.4299 -0.9478  0.0113
  315MPD2    N1 4797   2.371   2.720  17.551 -0.5682 -0.0394 -0.3825
  315MPD2    H7 4798   2.407   2.737  17.645 -0.2568  0.7985 -0.6571
  316TMC3    C1 4799   2.682   3.346  17.408  0.2747  0.6514  0.4050
  316TMC3    C2 4800   2.730   3.339  17.534  0.5678 -0.1569 -0.4127
  316TMC3    C3 4801   2.789   3.447  17.593  0.1513 -0.5608  0.2426
  316TMC3    C4 4802   2.683   3.473  17.351 -0.3866  0.5587  0.0396
  316TMC3    C5 4803   2.742   3.581  17.407  0.6577 -0.3687  0.2346
  316TMC3    C6 4804   2.795   3.573  17.534 -0.0518  0.2227  0.0914
  316TMC3     C 4805   2.608   3.240  17.342  0.4709 -0.1576  0.7409
  316TMC3     O 4806   2.570   3.262  17.230 -0.4866  0.3177 -0.0418
  316TMC3     H 4807   2.731   3.244  17.587 -0.4268 -1.2582 -2.3705
  316TMC3    H1 4808   2.650   3.493  17.250  3.6841  0.9498 -1.1976
  316TMC3    H2 4809   2.824   3.663  17.586 -0.3126  0.3536  0.0077
  316TMC3    C7 4810   2.695   3.713  17.378  0.6290 -0.8359  0.8339
  316TMC3    C8 4811   2.838   3.442   0.003  0.1075  0.4264 -1.2046
  316TMC3    O1 4812   2.681   3.789  17.471  0.2353 -0.6409  0.5546
  316TMC3    O2 4813   2.897   3.541   0.035  0.1742 -0.0288  0.2351
  317MPD2     C 4814   4.082   1.221  12.618  0.4204 -0.2020  1.0239
  317MPD2    C1 4815   4.218   1.243  12.651  0.0557 -0.5907  0.4376
  317MPD2    C2 4816   4.249   1.264  12.784 -0.1554 -0.2266 -0.2130
  317MPD2    C3 4817   4.160   1.260  12.886  0.5914 -0.3076 -0.1572
  317MPD2    C4 4818   4.023   1.249  12.855 -0.1398 -0.0168 -0.4011
  317MPD2    C5 4819   3.988   1.238  12.721 -0.4183 -0.4376 -0.0934
  317MPD2     H 4820   4.353   1.286  12.803 -0.4648  1.3631 -0.3255
  317MPD2    H1 4821   3.937   1.247  12.921  0.1821 -0.2250  0.0136
  317MPD2    H2 4822   4.050   1.219  12.514  1.6615 -2.3771  0.6846
  317MPD2    H3 4823   3.885   1.238  12.688  0.1359 -0.7963 -1.8291
  317MPD2     N 4824   4.212   1.263  13.017  0.1716  0.1791 -0.4051
  317MPD2    H5 4825   4.310   1.238  13.022  0.2285  0.4325 -0.2601
  317MPD2    N1 4826   4.323   1.223  12.567  0.2418  0.4001 -0.3554
  317MPD2    H7 4827   4.414   1.246  12.606  0.5383  0.8294 -1.3171
  318TMC3    C1 4828   4.215   1.193  13.249  0.1375 -0.3499 -0.1775
  318TMC3    C2 4829   4.144   1.127  13.339  0.3851 -0.3416 -0.4535
  318TMC3    C3 4830   4.213   1.047  13.433  0.2804  0.7521  0.0173
  318TMC3    C4 4831   4.354   1.195  13.251 -0.5993 -0.2670  0.0964
  318TMC3    C5 4832   4.423   1.110  13.329 -0.3498 -0.5703 -0.2815
  318TMC3    C6 4833   4.355   1.037  13.425  0.0923  0.0475  0.3730
  318TMC3     C 4834   4.135   1.246  13.134  0.4171 -0.4193  0.9479
  318TMC3     O 4835   4.015   1.261  13.146 -0.3628 -0.4833  0.2344
  318TMC3     H 4836   4.043   1.160  13.357  0.4718  0.3393 -1.2137
  318TMC3    H1 4837   4.406   1.268  13.190 -0.8474 -0.4789 -0.3688
  318TMC3    H2 4838   4.406   0.978  13.500  1.8907 -2.4380 -2.7592
  318TMC3    C7 4839   4.559   1.163  13.366 -0.6417  0.1629 -0.2667
  318TMC3    C8 4840   4.130   0.965  13.516 -0.1798 -0.2271  0.0755
  318TMC3    O1 4841   4.580   1.278  13.335 -0.3073  0.2551  0.3699
  318TMC3    O2 4842   4.187   0.891  13.593 -0.4232  0.4408 -0.2112
  319MPD2     C 4843   0.627   2.661  16.480 -0.1878  0.4375  0.0969
  319MPD2    C1 4844   0.538   2.601  16.571 -0.6694 -0.2538 -0.4228
  319MPD2    C2 4845   0.413   2.564  16.525 -0.1063  0.1559  0.6909
  319MPD2    C3 4846   0.375   2.574  16.392 -0.0499  0.0786 -0.2466
  319MPD2    C4 4847   0.464   2.633  16.304 -0.0153 -0.1213 -0.0112
  319MPD2    C5 4848   0.586   2.677  16.345 -0.9413 -0.7193 -0.5563
  319MPD2     H 4849   0.341   2.513  16.589  0.2755 -0.8815  0.2991
  319MPD2    H1 4850   0.441   2.652  16.199 -1.2078  0.0616  0.2823
  319MPD2    H2 4851   0.730   2.684  16.504 -0.3997  2.4288 -0.8788
  319MPD2    H3 4852   0.655   2.722  16.274 -0.5440 -0.1240  0.2015
  319MPD2     N 4853   0.249   2.531  16.346 -0.7852 -0.4569 -0.8194
  319MPD2    H5 4854   0.244   2.546  16.246 -0.7127 -0.1292 -0.7734
  319MPD2    N1 4855   0.572   2.581  16.705 -0.0185 -0.7249 -0.3186
  319MPD2    H7 4856   0.511   2.534  16.771  2.4299 -1.3265  1.5121
  320TMC3    C1 4857   0.035   2.423  16.324  0.0927 -1.0261 -0.1169
  320TMC3    C2 4858   0.010   2.507  16.224 -0.4161 -0.0029  0.2079
  320TMC3    C3 4859   4.633   2.481  16.146  0.3543  0.2014  0.2327
  320TMC3    C4 4860   4.693   2.311  16.351 -1.1006 -0.5301 -0.3527
  320TMC3    C5 4861   4.585   2.280  16.269 -1.1555 -0.7415 -0.9462
  320TMC3    C6 4862   4.561   2.369  16.162  0.4904  0.3336  0.5977
  320TMC3     C 4863   0.149   2.463  16.408  0.2059  0.3332 -0.1137
  320TMC3     O 4864   0.158   2.418  16.523 -0.7526  0.8004  0.2197
  320TMC3     H 4865   0.057   2.604  16.216  1.5666 -0.8004  2.1205
  320TMC3    H1 4866   0.001   2.250  16.429 -1.0837 -1.6056 -1.2106
  320TMC3    H2 4867   4.482   2.345  16.092  1.0441 -1.1342  0.4574
  320TMC3    C7 4868   4.537   2.146  16.248 -0.5730 -0.3464 -0.0312
  320TMC3    C8 4869   4.586   2.570  16.037  0.4057  0.1457 -0.3807
  320TMC3    O1 4870   4.503   2.111  16.139 -0.1953 -0.7488  0.6223
  320TMC3    O2 4871   4.623   2.686  16.051  0.3011 -0.1230  0.2137
  321TMC3    C1 4872   0.698   2.627  16.913 -1.0131 -0.5750  0.5566
  321TMC3    C2 4873   0.653   2.513  16.977 -0.3433  0.5216 -0.0061
  321TMC3    C3 4874   0.666   2.500  17.111  0.2088 -0.1454  0.1669
  321TMC3    C4 4875   0.772   2.724  16.979 -0.4602 -0.0103 -0.2614
  321TMC3    C5 4876   0.780   2.707  17.116 -0.5003  0.2336 -0.7600
  321TMC3    C6 4877   0.729   2.597  17.178 -0.8113  0.2953 -0.1239
  321TMC3     C 4878   0.681   2.638  16.763  0.4088  0.2952 -0.4044
  321TMC3     O 4879   0.750   2.730  16.722  0.3566  0.5695 -0.2394
  321TMC3     H 4880   0.624   2.431  16.912 -1.2129  0.0384  0.9972
  321TMC3    H1 4881   0.810   2.813  16.931  1.1527 -0.9429 -0.7048
  321TMC3    H2 4882   0.726   2.608  17.286 -0.1340  2.2440 -0.3084
  321TMC3    C7 4883   0.914   2.721  17.169 -0.5440  0.1300 -1.1367
  321TMC3    C8 4884   0.721   2.372  17.133  0.2634  0.7682  0.4104
  321TMC3    O1 4885   0.931   2.670  17.279  0.4864  0.2486  0.1868
  321TMC3    O2 4886   0.677   2.274  17.076 -0.4184 -0.2991  0.1475
  322MPD2     C 4887   4.056   3.977  13.011  0.2995 -0.8311 -0.0487
  322MPD2    C1 4888   4.088   3.876  13.099 -0.1956 -0.4221  0.4729
  322MPD2    C2 4889   4.146   3.760  13.039  0.3142 -0.0220 -0.1053
  322MPD2    C3 4890   4.184   3.758  12.903 -0.4627 -0.4707  0.4364
  322MPD2    C4 4891   4.152   3.864  12.821 -0.5992  0.2499  0.3202
  322MPD2    C5 4892   4.094   3.974  12.875 -0.1138  0.5899  0.2557
  322MPD2     H 4893   4.170   3.673  13.099  0.5730 -0.3544 -0.6884
  322MPD2    H1 4894   4.186   3.876  12.718 -1.4927 -0.6306 -0.0764
  322MPD2    H2 4895   4.003   4.064  13.048 -0.4050 -1.7536  1.1242
  322MPD2    H3 4896   4.069   4.060  12.813 -0.0771 -2.2547 -3.6880
  322MPD2     N 4897   4.252   3.645  12.857 -0.3095 -0.1056 -0.2103
  322MPD2    H5 4898   4.258   3.563  12.916  0.6722 -0.2358 -0.4816
  322MPD2    N1 4899   4.059   3.892  13.234  0.3663  0.2758  0.8530
  322MPD2    H7 4900   4.015   3.980  13.261  1.0183 -0.0921  3.1379
  323TMC3    C1 4901   4.077   3.851  13.461  0.8251 -0.2666 -0.4153
  323TMC3    C2 4902   4.094   3.983  13.485  0.1747 -0.4740  0.0805
  323TMC3    C3 4903   4.108   4.022  13.616 -0.3082  0.0955  0.4866
  323TMC3    C4 4904   4.054   3.757  13.559 -0.0139 -0.0272 -0.2248
  323TMC3    C5 4905   4.075   3.803  13.684  0.1234 -0.7374  0.1106
  323TMC3    C6 4906   4.095   3.935  13.718 -0.3311 -0.0738 -0.6167
  323TMC3     C 4907   4.082   3.799  13.329 -0.5002 -0.3597  0.5624
  323TMC3     O 4908   4.076   3.680  13.310  0.1105  0.2458 -0.3936
  323TMC3     H 4909   4.103   4.053  13.403 -3.0792 -1.4214 -1.0470
  323TMC3    H1 4910   4.049   3.653  13.531  1.1782 -0.6833  2.0490
  323TMC3    H2 4911   4.113   3.977  13.817 -1.2996  0.8460 -0.8415
  323TMC3    C7 4912   4.078   3.713  13.795  0.5116 -0.4472  0.3194
  323TMC3    C8 4913   4.166   4.149  13.642 -0.2923  0.6948 -0.9247
  323TMC3    O1 4914   4.087   3.595  13.770 -0.1432 -0.1165  0.3180
  323TMC3    O2 4915   4.113   4.244  13.590  0.3468  0.3766 -0.0538
  324MPD2     C 4916   0.527   0.323  14.410  0.2570  0.6708  0.3208
  324MPD2    C1 4917   0.556   0.244  14.301  0.3355 -0.3431  1.0812
  324MPD2    C2 4918   0.469   0.231  14.199  1.1486  0.5841 -0.0061
  324MPD2    C3 4919   0.350   0.303  14.195  0.2788  0.4813 -0.1576
  324MPD2    C4 4920   0.321   0.378  14.305  0.1465  0.0187 -0.2867
  324MPD2    C5 4921   0.406   0.384  14.411 -0.0469  0.8085 -0.2977
  324MPD2     H 4922   0.504   0.176  14.112  1.2424  1.3480 -0.4514
  324MPD2    H1 4923   0.227   0.431  14.303  0.5701  0.7184 -1.3068
  324MPD2    H2 4924   0.599   0.334  14.490  1.1550 -1.4673 -0.2018
  324MPD2    H3 4925   0.379   0.443  14.497  2.6597 -1.2094  1.9173
  324MPD2     N 4926   0.259   0.300  14.084  0.3482 -0.3637 -0.7135
  324MPD2    H5 4927   0.166   0.339  14.097  0.4492 -0.1674 -0.5768
  324MPD2    N1 4928   0.684   0.190  14.280 -0.7145 -0.3631 -0.9742
  324MPD2    H7 4929   0.701   0.128  14.201  1.2380 -0.2790 -0.6388
  325TMC3    C1 4930   0.170   0.252  13.863  0.3434  0.2289 -0.1623
  325TMC3    C2 4931   0.162   0.161  13.766  0.2142 -0.0706  0.0824
  325TMC3    C3 4932   0.048   0.154  13.688 -0.0895  0.7197 -0.4713
  325TMC3    C4 4933   0.070   0.350  13.882 -0.1850 -0.1028  0.8251
  325TMC3    C5 4934   4.697   0.343  13.796  0.0489 -0.3849 -0.4297
  325TMC3    C6 4935   4.683   0.244  13.698  0.0685  0.3141 -0.0881
  325TMC3     C 4936   0.282   0.235  13.960 -0.9492 -1.0121  0.6027
  325TMC3     O 4937   0.368   0.159  13.922  0.1666  0.1541 -0.3811
  325TMC3     H 4938   0.236   0.083  13.755 -0.7708 -1.0823  0.5737
  325TMC3    H1 4939   0.089   0.438  13.942 -1.3655  1.3323 -0.9213
  325TMC3    H2 4940   4.611   0.257  13.618 -0.2978 -0.7183  0.0858
  325TMC3    C7 4941   4.593   0.447  13.791 -0.5539  0.2573  0.1059
  325TMC3    C8 4942   0.049   0.072  13.578  0.4841  0.1327 -0.3271
  325TMC3    O1 4943   4.526   0.464  13.687 -0.3660  0.5453  0.0863
  325TMC3    O2 4944   0.151   0.011  13.549  0.4415 -0.1192 -0.2265
  326MPD2     C 4945   2.104   1.772  11.133  0.5799  0.0552 -0.3075
  326MPD2    C1 4946   2.141   1.721  11.012  0.2989 -0.3183  0.1993
  326MPD2    C2 4947   2.264   1.676  10.995  0.1689 -0.3842 -0.1047
  326MPD2    C3 4948   2.355   1.686  11.097 -0.5180  0.1457  0.6678
  326MPD2    C4 4949   2.326   1.726  11.224  0.3236 -0.1315  0.2037
  326MPD2    C5 4950   2.197   1.787  11.236 -0.0070 -1.4070  0.5559
  326MPD2     H 4951   2.294   1.644  10.896 -1.8960  0.9776 -1.1677
  326MPD2    H1 4952   2.402   1.725  11.302 -2.2971  3.1817  2.8054
  326MPD2    H2 4953   2.008   1.823  11.137 -0.1842 -1.3035 -1.3352
  326MPD2    H3 4954   2.173   1.844  11.325 -0.7825 -0.4209 -0.2860
  326MPD2     N 4955   2.490   1.654  11.067 -0.2359  0.0311  0.4943
  326MPD2    H5 4956   2.558   1.674  11.140  0.7650  2.4788 -1.0935
  326MPD2    N1 4957   2.062   1.728  10.894 -0.4429  0.2208 -0.2663
  326MPD2    H7 4958   2.112   1.698  10.811  0.1274  0.3641  0.0230
  327TMC3    C1 4959   1.911   1.782  10.731  0.5247 -0.6177 -1.0500
  327TMC3    C2 4960   1.827   1.883  10.687  1.4506  0.5260  0.0295
  327TMC3    C3 4961   1.835   1.908  10.553 -0.5774 -0.1404 -0.6108
  327TMC3    C4 4962   1.999   1.711  10.645  0.5409 -0.4524 -0.1472
  327TMC3    C5 4963   2.004   1.757  10.514  0.4190  0.0781  0.3266
  327TMC3    C6 4964   1.917   1.849  10.463  0.2639 -0.1687  0.0651
  327TMC3     C 4965   1.935   1.779  10.873 -0.3870 -0.4602  0.4385
  327TMC3     O 4966   1.849   1.825  10.946  0.1840  0.3419 -0.2019
  327TMC3     H 4967   1.747   1.923  10.748  0.1819  0.1522 -1.4074
  327TMC3    H1 4968   2.067   1.634  10.679 -0.0545 -1.2916 -0.8789
  327TMC3    H2 4969   1.925   1.879  10.360 -0.8751 -0.2611 -0.0477
  327TMC3    C7 4970   2.126   1.714  10.444 -0.0896 -0.7251 -0.2517
  327TMC3    C8 4971   1.760   2.022  10.503  0.0617  0.0377 -0.2211
  327TMC3    O1 4972   2.167   1.798  10.365  0.0774  0.2005 -0.2779
  327TMC3    O2 4973   1.832   2.102  10.442 -0.3578  0.5090 -0.0501
  328MPD2     C 4974   4.712   1.898  17.069 -0.0907 -0.0391  0.1879
  328MPD2    C1 4975   4.655   1.777  17.101  0.3617 -0.3916 -0.0426
  328MPD2    C2 4976   4.551   1.733  17.022  0.1259 -0.0104 -0.6786
  328MPD2    C3 4977   4.527   1.797  16.900  0.1216 -0.3124  0.1423
  328MPD2    C4 4978   4.589   1.914  16.869  0.2333 -0.0718 -0.4387
  328MPD2    C5 4979   4.681   1.962  16.957  0.1535 -0.5495 -0.4219
  328MPD2     H 4980   4.499   1.645  17.058  4.0680 -1.6539  0.9196
  328MPD2    H1 4981   4.557   1.964  16.778  0.0834 -1.1578 -0.9831
  328MPD2    H2 4982   0.056   1.936  17.135  1.1763 -1.5387 -0.4432
  328MPD2    H3 4983   0.004   2.052  16.937  2.1062 -1.7318 -0.0983
  328MPD2     N 4984   4.428   1.743  16.804  0.1030  0.4218  0.8178
  328MPD2    H5 4985   4.394   1.799  16.727 -1.2876 -0.2011  0.9934
  328MPD2    N1 4986   4.706   1.715  17.217 -0.0048 -0.2888  0.1996
  328MPD2    H7 4987   0.046   1.766  17.264  2.5739 -3.0964 -0.8659
  329TMC3    C1 4988   4.727   1.558  17.397 -0.2101  0.4341  0.2118
  329TMC3    C2 4989   0.011   1.653  17.491 -0.4232  0.7164 -0.3286
  329TMC3    C3 4990   0.055   1.621  17.616 -0.2559 -0.0607  0.2152
  329TMC3    C4 4991   0.019   1.427  17.422  0.0382 -0.3059 -0.2623
  329TMC3    C5 4992   0.067   1.400  17.549 -0.6333 -0.8021 -0.0325
  329TMC3    C6 4993   0.078   1.491  17.648 -0.3101  0.6366  0.4125
  329TMC3     C 4994   4.664   1.593  17.271  0.0122 -0.1558  0.1386
  329TMC3     O 4995   4.596   1.502  17.219  0.9602 -0.2533  0.1245
  329TMC3     H 4996   4.700   1.746  17.462 -1.8844  0.4643  1.1551
  329TMC3    H1 4997   0.013   1.354  17.342  0.7498 -0.5455 -0.1012
  329TMC3    H2 4998   0.135   1.469   0.002  0.6848 -1.3081 -0.6793
  329TMC3    C7 4999   0.139   1.273  17.563 -0.5931 -0.1574  1.3530
  329TMC3    C8 5000   0.011   1.714  17.721  0.0463  0.0212  0.2760
  329TMC3    O1 5001   0.146   1.208  17.463 -0.1020 -0.8077 -0.5980
  329TMC3    O2 5002   0.004   1.835  17.695 -0.1283 -0.6038  0.2247
  330TMC3    C1 5003   1.715   0.879   9.150 -0.3675 -0.1872  0.5461
  330TMC3    C2 5004   1.640   0.922   9.264 -0.1764  0.8222  0.6027
  330TMC3    C3 5005   1.690   0.887   9.385  0.4231 -0.1552 -0.0508
  330TMC3    C4 5006   1.831   0.817   9.165 -0.3668 -0.7198  0.0678
  330TMC3    C5 5007   1.881   0.798   9.293  0.2450 -0.0873  0.1327
  330TMC3    C6 5008   1.813   0.833   9.405 -0.2855 -0.0586 -0.1674
  330TMC3     C 5009   1.638   0.858   9.028  0.4504  0.3420 -0.3591
  330TMC3     O 5010   1.651   0.751   8.968  0.4379 -0.1748 -0.2462
  330TMC3     H 5011   1.538   0.959   9.261 -0.6767 -0.5911  0.1001
  330TMC3    H1 5012   1.879   0.753   9.091  2.0491 -1.0849  1.9786
  330TMC3    H2 5013   1.849   0.825   9.507 -2.9197 -2.9947  0.5383
  330TMC3    C7 5014   2.018   0.762   9.314  0.1881  0.0366 -0.5084
  330TMC3    C8 5015   1.604   0.921   9.499  0.1902  0.8420  0.2142
  330TMC3    O1 5016   2.096   0.764   9.219  0.2369  0.3415 -0.1023
  330TMC3    O2 5017   1.530   1.015   9.480 -0.0695 -0.1431  0.5901
  331MPD2     C 5018   0.989   0.621  12.472  0.0767  0.4019 -0.0648
  331MPD2    C1 5019   0.852   0.635  12.437  0.1194 -0.4179  0.3449
  331MPD2    C2 5020   0.762   0.535  12.444  0.1873  0.1963 -0.7387
  331MPD2    C3 5021   0.796   0.422  12.504 -0.1332 -0.6148 -0.7812
  331MPD2    C4 5022   0.921   0.413  12.554 -0.6099  0.7811 -0.2108
  331MPD2    C5 5023   1.020   0.507  12.535  0.5262 -0.6237 -0.0531
  331MPD2     H 5024   0.665   0.549  12.396  0.2567  1.6681 -0.4544
  331MPD2    H1 5025   0.952   0.319  12.599 -0.6877  0.5217 -0.6991
  331MPD2    H2 5026   1.060   0.703  12.478  1.4926 -0.8421  0.0755
  331MPD2    H3 5027   1.117   0.481  12.577  1.5607  0.0486 -2.0098
  331MPD2     N 5028   0.700   0.314  12.490  0.2819  0.2728 -0.5846
  331MPD2    H5 5029   0.612   0.338  12.444 -0.0707 -0.8231 -0.4936
  331MPD2    N1 5030   0.805   0.752  12.372 -0.0482  0.0472  0.3077
  331MPD2    H7 5031   0.713   0.738  12.332  0.1669 -0.8937  0.1448
  332TMC3    C1 5032   0.648   0.090  12.446  1.1825  0.0233  0.2637
  332TMC3    C2 5033   0.575   0.134  12.336  0.2268 -0.0789 -0.6835
  332TMC3    C3 5034   0.500   0.038  12.269  0.5790 -0.5696  0.3732
  332TMC3    C4 5035   0.643   4.695  12.486  0.0674 -0.3977 -0.0428
  332TMC3    C5 5036   0.583   4.601  12.404 -0.1891 -0.4874 -0.0680
  332TMC3    C6 5037   0.502   4.639  12.305  0.4294 -0.6697 -0.1611
  332TMC3     C 5038   0.723   0.183  12.530  0.9366  0.2817  0.0226
  332TMC3     O 5039   0.814   0.134  12.596  0.3514  0.2949 -0.6692
  332TMC3     H 5040   0.588   0.230  12.287  0.7819  0.6582  0.9245
  332TMC3    H1 5041   0.706   4.678  12.573  1.1953 -0.9142 -0.9615
  332TMC3    H2 5042   0.451   4.556  12.257  1.9593  0.3115 -3.4804
  332TMC3    C7 5043   0.601   4.463  12.428  0.0326 -0.7145  0.2643
  332TMC3    C8 5044   0.473   0.074  12.132 -0.1234  0.2523 -0.5084
  332TMC3    O1 5045   0.505   4.392  12.398 -0.2946  0.1987  0.3350
  332TMC3    O2 5046   0.529   0.170  12.081  0.5968  0.0502  0.0800
  333MPD2     C 5047   0.249   4.405  11.285  0.7215  0.1374  0.2466
  333MPD2    C1 5048   0.310   4.282  11.259  0.0502  0.1713 -0.5552
  333MPD2    C2 5049   0.292   4.181  11.347 -0.4425  0.6859  0.3370
  333MPD2    C3 5050   0.228   4.199  11.468  0.2184 -0.4469 -0.3418
  333MPD2    C4 5051   0.164   4.325  11.485  0.0751  0.1643 -0.1997
  333MPD2    C5 5052   0.178   4.427  11.396 -0.6280  0.5183  0.0122
  333MPD2     H 5053   0.347   4.090  11.328 -0.5547  0.7496 -0.2886
  333MPD2    H1 5054   0.111   4.351  11.576 -0.6207  0.5854 -0.7285
  333MPD2    H2 5055   0.273   4.493  11.228 -2.1927  0.8396  0.0783
  333MPD2    H3 5056   0.142   4.528  11.412 -0.8220  0.5544 -0.6191
  333MPD2     N 5057   0.223   4.091  11.563  0.1827 -0.7079  0.2201
  333MPD2    H5 5058   0.271   4.006  11.535 -0.0706 -0.8496  0.2159
  333MPD2    N1 5059   0.394   4.285  11.149 -0.1279  0.0865  0.3467
  333MPD2    H7 5060   0.408   4.381  11.118  1.0092  0.0051  0.6135
  334TMC3    C1 5061   0.550   4.210  10.987  1.2129 -0.0446 -0.9026
  334TMC3    C2 5062   0.666   4.148  10.985  0.2344  0.4770 -0.3368
  334TMC3    C3 5063   0.774   4.215  10.930  0.2375  0.0534 -0.3893
  334TMC3    C4 5064   0.524   4.331  10.934  0.2253  0.1917  0.2676
  334TMC3    C5 5065   0.629   4.381  10.856 -1.2046  0.2109  0.5966
  334TMC3    C6 5066   0.752   4.326  10.851 -0.1281  0.2839 -0.2537
  334TMC3     C 5067   0.470   4.182  11.106  0.5588  0.0074  0.9414
  334TMC3     O 5068   0.479   4.070  11.156  0.9940  0.2196 -0.4693
  334TMC3     H 5069   0.694   4.067  11.050  0.5554 -0.9648 -2.2566
  334TMC3    H1 5070   0.425   4.374  10.925  0.3528  0.1142 -1.4815
  334TMC3    H2 5071   0.836   4.370  10.799  0.2861  1.6928  1.6085
  334TMC3    C7 5072   0.612   4.516  10.800 -0.1059 -0.5434  0.4075
  334TMC3    C8 5073   0.909   4.165  10.950  0.1915  0.2217 -0.3186
  334TMC3    O1 5074   0.714   4.579  10.768  0.0828  0.0605 -0.1056
  334TMC3    O2 5075   0.910   4.051  10.995  0.2608 -0.0637 -0.9516
  335TMC3    C1 5076   0.453   1.629  17.478  0.0467 -1.1574 -0.4054
  335TMC3    C2 5077   0.406   1.566  17.369  0.4013  0.2693 -0.1329
  335TMC3    C3 5078   0.477   1.577  17.253 -0.0900 -0.9211  0.0894
  335TMC3    C4 5079   0.560   1.719  17.479  0.0431  0.0067 -0.0268
  335TMC3    C5 5080   0.619   1.737  17.358 -0.4355  0.0944 -0.5353
  335TMC3    C6 5081   0.583   1.661  17.246  0.1125  0.7066  0.5984
  335TMC3     C 5082   0.407   1.592  17.609  0.2240 -0.9651 -0.3334
  335TMC3     O 5083   0.393   1.472  17.623 -0.1003 -0.5504 -0.2048
  335TMC3     H 5084   0.315   1.509  17.379  0.7254  0.0852  1.6799
  335TMC3    H1 5085   0.601   1.750  17.574  0.7128 -2.9746  0.6542
  335TMC3    H2 5086   0.647   1.644  17.160 -1.0462 -0.4593 -0.0432
  335TMC3    C7 5087   0.765   1.755  17.367  0.8261  0.2757 -0.1439
  335TMC3    C8 5088   0.453   1.489  17.145 -0.2000 -1.1138 -0.7666
  335TMC3    O1 5089   0.826   1.731  17.269 -0.1897  0.1970 -0.4201
  335TMC3    O2 5090   0.508   1.516  17.041  0.4456  0.7066 -0.1136
  336MPD2     C 5091   0.427   3.815  16.050 -0.5115 -0.4465  0.4189
  336MPD2    C1 5092   0.337   3.733  15.985  0.4220 -1.2677  0.6877
  336MPD2    C2 5093   0.333   3.593  16.010 -0.5688 -0.8345  0.5041
  336MPD2    C3 5094   0.407   3.540  16.105  0.7213 -0.0238 -0.3311
  336MPD2    C4 5095   0.489   3.623  16.176 -0.7831  0.1835 -0.0918
  336MPD2    C5 5096   0.495   3.755  16.147  0.4068 -0.1232 -0.0999
  336MPD2     H 5097   0.269   3.520  15.960  0.5663 -2.8858  2.0430
  336MPD2    H1 5098   0.554   3.592  16.257 -0.1560  0.6534 -0.4193
  336MPD2    H2 5099   0.432   3.924  16.042 -1.6589 -0.2559  2.4744
  336MPD2    H3 5100   0.561   3.812  16.212 -1.5105 -0.0705  1.7770
  336MPD2     N 5101   0.396   3.401  16.131 -0.1796 -1.1290  0.6532
  336MPD2    H5 5102   0.321   3.354  16.082  0.9583 -1.3406 -0.8753
  336MPD2    N1 5103   0.253   3.779  15.877 -0.1310  0.0313  0.8646
  336MPD2    H7 5104   0.198   3.709  15.830  0.3452  0.3353 -0.1513
  337TMC3    C1 5105   0.184   3.928  15.710 -0.2387  0.0303  0.0796
  337TMC3    C2 5106   0.107   3.834  15.654 -0.3370  0.6662  0.2109
  337TMC3    C3 5107   0.059   3.863  15.526  0.0033  0.3245  0.6307
  337TMC3    C4 5108   0.203   4.048  15.654  0.9596  0.4853 -0.4588
  337TMC3    C5 5109   0.152   4.076  15.523 -0.1010  0.4116  0.5040
  337TMC3    C6 5110   0.081   3.985  15.450 -0.2494 -0.2213  0.4758
  337TMC3     C 5111   0.251   3.908  15.836 -0.2136 -0.0297 -0.2948
  337TMC3     O 5112   0.304   4.006  15.889  0.0387 -0.5580  0.2110
  337TMC3     H 5113   0.085   3.740  15.704 -0.1430  1.1696  1.2365
  337TMC3    H1 5114   0.280   4.112  15.695  1.8623 -2.8521  3.0509
  337TMC3    H2 5115   0.050   4.003  15.347  0.5236  1.2936  0.5054
  337TMC3    C7 5116   0.203   4.197  15.450  0.7179  0.0235 -0.5413
  337TMC3    C8 5117   0.006   3.743  15.462  0.9904 -0.2487  0.0594
  337TMC3    O1 5118   0.160   4.212  15.338 -0.2401 -0.1889 -0.2694
  337TMC3    O2 5119   0.022   3.638  15.518 -0.1562 -0.4663  0.2289
  338MPD2     C 5120   0.503   3.498   0.669  0.6667 -0.2748 -0.2312
  338MPD2    C1 5121   0.466   3.487   0.537 -0.6344  0.2042 -0.5252
  338MPD2    C2 5122   0.347   3.539   0.495 -0.4124 -0.3449 -0.6852
  338MPD2    C3 5123   0.258   3.601   0.586  0.7986  0.0614  0.0610
  338MPD2    C4 5124   0.310   3.625   0.712  0.1775 -0.0684 -0.0719
  338MPD2    C5 5125   0.431   3.575   0.749  1.1400 -0.6674  0.1152
  338MPD2     H 5126   0.316   3.529   0.392 -0.5963  1.0611 -0.7528
  338MPD2    H1 5127   0.251   3.675   0.788  1.9907  1.0875  0.5442
  338MPD2    H2 5128   0.596   3.467   0.715  0.3474 -1.3084 -0.2849
  338MPD2    H3 5129   0.448   3.578   0.856  1.5066  2.0663 -0.0180
  338MPD2     N 5130   0.138   3.645   0.534 -0.1790  0.5688 -0.0186
  338MPD2    H5 5131   0.134   3.642   0.432 -2.2998  1.0138  0.0465
  338MPD2    N1 5132   0.540   3.409   0.441  0.0386 -0.6807  0.5211
  338MPD2    H7 5133   0.480   3.390   0.361 -0.0979  0.4807  0.3426
  339TMC3    C1 5134   4.643   3.693   0.533 -0.2511 -0.3880 -0.1867
  339TMC3    C2 5135   4.534   3.634   0.593  0.3443  0.3186 -0.0838
  339TMC3    C3 5136   4.416   3.645   0.515 -0.0478 -0.4183  0.4410
  339TMC3    C4 5137   4.648   3.748   0.410  0.9089  0.5512 -0.7017
  339TMC3    C5 5138   4.533   3.749   0.334 -0.1226  0.2127  0.3419
  339TMC3    C6 5139   4.417   3.700   0.386 -0.1684  0.0438  0.2852
  339TMC3     C 5140   0.032   3.689   0.609 -0.1626 -0.9610 -0.2796
  339TMC3     O 5141   0.026   3.695   0.729  0.3515  0.1809  0.1003
  339TMC3     H 5142   4.547   3.579   0.686  2.2926 -0.3582 -0.7518
  339TMC3    H1 5143   0.002   3.790   0.365  0.5928  1.2307 -0.6832
  339TMC3    H2 5144   4.326   3.718   0.330 -0.5013  0.1581  0.8602
  339TMC3    C7 5145   4.548   3.765   0.194  0.5976 -0.0565  0.9264
  339TMC3    C8 5146   4.295   3.578   0.564 -0.1687 -0.2214  0.3265
  339TMC3    O1 5147   4.606   3.868   0.163  0.0908 -0.1396  0.1352
  339TMC3    O2 5148   4.208   3.540   0.493 -0.4653 -0.0892 -0.1381
  340MPD2     C 5149   0.460   1.762  10.714 -0.3111  0.6941 -0.2932
  340MPD2    C1 5150   0.362   1.693  10.647 -0.0467 -0.2420  0.2384
  340MPD2    C2 5151   0.286   1.592  10.703 -0.5079 -0.0062 -0.4691
  340MPD2    C3 5152   0.316   1.553  10.832  0.5066  0.3523  0.6537
  340MPD2    C4 5153   0.418   1.617  10.899 -0.1984  0.3342  0.8306
  340MPD2    C5 5154   0.484   1.725  10.844 -0.1160  0.4878 -0.6129
  340MPD2     H 5155   0.207   1.533  10.659 -2.2042  2.3571 -0.5390
  340MPD2    H1 5156   0.439   1.601  11.005 -1.6712 -1.5101  0.8411
  340MPD2    H2 5157   0.521   1.841  10.674 -0.3128  0.4551 -0.7739
  340MPD2    H3 5158   0.567   1.767  10.899  0.3420 -1.0637 -0.1422
  340MPD2     N 5159   0.260   1.443  10.894  0.6747  0.3105 -0.5915
  340MPD2    H5 5160   0.287   1.413  10.987 -1.3522  1.2717  0.3035
  340MPD2    N1 5161   0.350   1.731  10.512 -0.2495 -0.0257 -0.1889
  340MPD2    H7 5162   0.418   1.794  10.471 -0.3152 -0.1525 -0.4962
  341TMC3    C1 5163   0.279   1.723  10.286  0.5489  0.5443  0.0589
  341TMC3    C2 5164   0.196   1.667  10.191  0.0313 -0.0771 -0.5215
  341TMC3    C3 5165   0.184   1.731  10.071 -0.0588 -0.3720 -0.3019
  341TMC3    C4 5166   0.332   1.848  10.269 -0.0397 -0.0391 -0.6364
  341TMC3    C5 5167   0.325   1.910  10.146  0.6415  1.1657 -0.2786
  341TMC3    C6 5168   0.253   1.847  10.048 -0.3659  0.1426 -0.3044
  341TMC3     C 5169   0.277   1.663  10.416 -0.1894 -0.1089 -0.0425
  341TMC3     O 5170   0.205   1.567  10.439 -0.1511 -0.2969 -0.4921
  341TMC3     H 5171   0.150   1.572  10.212 -0.4581  0.6446  1.7491
  341TMC3    H1 5172   0.408   1.881  10.339 -0.3013  1.0348 -0.8521
  341TMC3    H2 5173   0.231   1.901   9.956 -1.9521  2.0667  1.1895
  341TMC3    C7 5174   0.442   1.983  10.092  1.3252 -0.1343  0.5223
  341TMC3    C8 5175   0.108   1.662   9.964  0.1436 -0.1338  0.4771
  341TMC3    O1 5176   0.447   1.984   9.970  0.6847 -0.2930 -0.3491
  341TMC3    O2 5177   0.094   1.541   9.993  0.1431  0.0625  0.2777
  342MPD2     C 5178   3.237   4.341  17.530  0.4660 -0.2778  0.6973
  342MPD2    C1 5179   3.331   4.361  17.425  0.9041 -0.0934  0.3937
  342MPD2    C2 5180   3.360   4.488  17.385  0.4913  0.5001  0.3183
  342MPD2    C3 5181   3.311   4.602  17.455 -0.1022 -0.2477  0.2275
  342MPD2    C4 5182   3.233   4.579  17.568 -0.1302 -0.3260  0.1249
  342MPD2    C5 5183   3.190   4.452  17.594 -0.1767  0.3278 -0.2666
  342MPD2     H 5184   3.428   4.503  17.302  0.2002  0.0363 -0.0043
  342MPD2    H1 5185   3.189   4.661  17.623 -0.4089 -0.0380 -0.5226
  342MPD2    H2 5186   3.197   4.243  17.554 -2.1382  0.8509  0.9206
  342MPD2    H3 5187   3.119   4.419  17.669  0.0297 -1.0395 -0.6666
  342MPD2     N 5188   3.343   0.003  17.427  0.3433 -0.2815 -0.1338
  342MPD2    H5 5189   3.311   0.074  17.493  0.3273  0.6068 -1.1000
  342MPD2    N1 5190   3.384   4.247  17.356 -0.0425 -0.4001  0.2545
  342MPD2    H7 5191   3.427   4.253  17.264  1.7706 -0.0207  1.1204
  343TMC3    C1 5192   3.427   4.019  17.314  0.4863  0.4765 -0.3850
  343TMC3    C2 5193   3.507   4.054  17.205 -0.0430 -0.2992 -0.1158
  343TMC3    C3 5194   3.541   3.953  17.121 -0.1671  0.2883 -0.7441
  343TMC3    C4 5195   3.380   3.893  17.343  0.1770 -0.2198 -0.1199
  343TMC3    C5 5196   3.429   3.804  17.257 -0.2877  0.8122  0.3699
  343TMC3    C6 5197   3.506   3.825  17.147  0.7007  0.1195  0.1714
  343TMC3     C 5198   3.389   4.122  17.413 -1.3563  0.3080  0.0999
  343TMC3     O 5199   3.356   4.081  17.526 -0.3789  0.3450  0.4729
  343TMC3     H 5200   3.550   4.152  17.191 -0.0938 -0.4338 -1.1635
  343TMC3    H1 5201   3.311   3.869  17.423  0.8339 -0.9980  0.2236
  343TMC3    H2 5202   3.532   3.746  17.077  2.0447 -0.1137  0.9439
  343TMC3    C7 5203   3.371   3.669  17.272  0.0397  0.2100 -0.0914
  343TMC3    C8 5204   3.672   3.973  17.055 -0.2502  0.4469  0.6921
  343TMC3    O1 5205   3.328   3.615  17.171  0.0536  0.0452 -0.5074
  343TMC3    O2 5206   3.723   4.084  17.068  0.0520 -0.0930 -0.2226
  344MPD2     C 5207   4.102   3.446  10.430 -0.2561  0.3903  0.0319
  344MPD2    C1 5208   4.141   3.447  10.560 -0.7063 -0.5726  0.1060
  344MPD2    C2 5209   4.236   3.542  10.610  0.1457  0.0068 -0.3903
  344MPD2    C3 5210   4.278   3.641  10.527 -0.2582  0.1634 -0.4375
  344MPD2    C4 5211   4.237   3.641  10.396 -0.0423 -0.1867  0.2549
  344MPD2    C5 5212   4.153   3.543  10.353  0.1796 -0.0103 -0.1046
  344MPD2     H 5213   4.278   3.523  10.708 -0.3244 -1.9847 -0.5599
  344MPD2    H1 5214   4.282   3.705  10.321  0.8722  0.9197  1.7371
  344MPD2    H2 5215   4.025   3.384  10.386 -0.3100  0.0167  0.6583
  344MPD2    H3 5216   4.124   3.542  10.248 -1.9300  1.6244  0.4846
  344MPD2     N 5217   4.353   3.751  10.570 -0.6657  0.1644 -0.4381
  344MPD2    H5 5218   4.374   3.825  10.504 -1.0442  0.5154 -0.1636
  344MPD2    N1 5219   4.081   3.347  10.645  0.1496 -0.2082  0.1868
  344MPD2    H7 5220   4.004   3.299  10.600  0.8788  0.6631 -1.9522
  345TMC3    C1 5221   4.469   3.893  10.707  0.4089  0.4821 -0.9291
  345TMC3    C2 5222   4.459   3.978  10.819 -0.1565  0.2651  0.5784
  345TMC3    C3 5223   4.536   4.089  10.825  0.1101 -0.7355  0.0143
  345TMC3    C4 5224   4.557   3.916  10.609  0.3619  0.4432 -0.3467
  345TMC3    C5 5225   4.643   4.020  10.622  0.3280 -0.4501 -0.0180
  345TMC3    C6 5226   4.635   4.108  10.730 -0.1226  0.4487  0.0278
  345TMC3     C 5227   4.387   3.779  10.700 -0.3015 -0.2115  1.2027
  345TMC3     O 5228   4.372   3.708  10.798 -0.0908 -0.4495 -0.1451
  345TMC3     H 5229   4.409   3.946  10.910 -0.1110 -0.8078  0.2305
  345TMC3    H1 5230   4.573   3.838  10.536  0.0700  0.7316 -0.7252
  345TMC3    H2 5231   4.711   4.185  10.739  0.4762 -0.1462  0.0203
  345TMC3    C7 5232   4.682   4.087  10.492  0.2160  0.6588  0.7887
  345TMC3    C8 5233   4.478   4.218  10.852  0.9288 -0.5523 -0.0954
  345TMC3    O1 5234   4.702   4.206  10.492 -0.3265  0.1136  0.1511
  345TMC3    O2 5235   4.511   4.309  10.777  0.6197  0.2000  0.1802
  346MPD2     C 5236   4.452   0.185  14.001  0.0437 -0.0054  0.9495
  346MPD2    C1 5237   4.336   0.256  13.975  0.1110  0.5717  0.0313
  346MPD2    C2 5238   4.258   0.308  14.079  0.4558 -0.1510 -0.3433
  346MPD2    C3 5239   4.306   0.292  14.210 -1.1346 -0.5036  0.0200
  346MPD2    C4 5240   4.428   0.233  14.236 -0.4139  0.7263 -0.3838
  346MPD2    C5 5241   4.498   0.178  14.129  0.3019  0.0006 -0.2031
  346MPD2     H 5242   4.164   0.358  14.058 -0.0464 -0.8483  0.2771
  346MPD2    H1 5243   4.472   0.237  14.335  0.4110 -0.5376 -0.7018
  346MPD2    H2 5244   4.502   0.135  13.918 -2.4397 -0.9451  0.0312
  346MPD2    H3 5245   4.585   0.119  14.154 -0.1624 -0.6234 -0.0444
  346MPD2     N 5246   4.229   0.351  14.313 -0.3548  0.4663 -0.3567
  346MPD2    H5 5247   4.142   0.400  14.292 -0.7379  0.8003  1.9831
  346MPD2    N1 5248   4.284   0.277  13.847 -0.2297 -0.1743  0.4663
  346MPD2    H7 5249   4.198   0.329  13.847 -1.2704 -1.8834  0.6260
  347TMC3    C1 5250   4.192   0.458  14.516 -0.3929 -0.1005  0.4149
  347TMC3    C2 5251   4.190   0.572  14.441  0.4492 -0.0120 -0.0221
  347TMC3    C3 5252   4.278   0.668  14.475  0.6925  0.1431 -0.2478
  347TMC3    C4 5253   4.250   0.466  14.641  0.1396  0.0244 -0.2287
  347TMC3    C5 5254   4.324   0.579  14.680  1.2396  0.8399  0.1291
  347TMC3    C6 5255   4.344   0.678  14.590 -0.3227  0.8515  0.2997
  347TMC3     C 5256   4.265   0.354  14.450 -0.1332  0.5311 -0.2182
  347TMC3     O 5257   4.355   0.297  14.509 -0.3142  0.1694 -0.1920
  347TMC3     H 5258   4.144   0.573  14.343 -2.1504  1.7973  1.2105
  347TMC3    H1 5259   4.226   0.387  14.711  0.3934 -1.1676 -1.4846
  347TMC3    H2 5260   4.422   0.752  14.601  1.8412 -1.6443  1.8224
  347TMC3    C7 5261   4.417   0.552  14.790 -0.4354 -0.0440 -0.0292
  347TMC3    C8 5262   4.365   0.681  14.361  0.5825  0.3800  0.1019
  347TMC3    O1 5263   4.530   0.590  14.775 -0.4122  0.0893  0.3324
  347TMC3    O2 5264   4.485   0.654  14.366  0.1409  0.2659 -0.0639
  348MPD2     C 5265   2.604   0.061  11.934  0.4494  0.3420 -0.6721
  348MPD2    C1 5266   2.718   0.136  11.935  0.6567  0.6994 -0.5298
  348MPD2    C2 5267   2.729   0.244  11.847  0.3684 -0.0965  0.1600
  348MPD2    C3 5268   2.622   0.274  11.764 -0.2814  0.0953 -0.3761
  348MPD2    C4 5269   2.508   0.192  11.767 -0.1018 -0.3909  0.4398
  348MPD2    C5 5270   2.507   0.083  11.852  0.7690 -0.6952 -0.4331
  348MPD2     H 5271   2.823   0.298  11.839  1.0304 -1.5848 -1.7839
  348MPD2    H1 5272   2.416   0.207  11.711  1.8847 -1.7351 -3.1974
  348MPD2    H2 5273   2.593   4.714  12.005 -2.5089  2.5635  1.3606
  348MPD2    H3 5274   2.421   0.018  11.842 -0.1669 -0.0866  3.7545
  348MPD2     N 5275   2.630   0.390  11.681 -0.3701  1.2144 -0.3696
  348MPD2    H5 5276   2.710   0.452  11.686 -2.2084  3.3198  3.0493
  348MPD2    N1 5277   2.819   0.095  12.019  0.1350  0.0152  0.8055
  348MPD2    H7 5278   2.827   4.729  12.034 -0.1562  0.2781  2.6205
  349TMC3    C1 5279   3.057   0.107  12.053 -0.5856 -0.0428 -0.8826
  349TMC3    C2 5280   3.056   4.705  12.079  0.3192 -0.2914  0.7608
  349TMC3    C3 5281   3.120   4.620  12.000 -0.4198  0.4597  0.1586
  349TMC3    C4 5282   3.110   0.154  11.933  0.1227  0.3684 -0.1904
  349TMC3    C5 5283   3.154   0.059  11.840  0.1493 -0.6528 -0.3452
  349TMC3    C6 5284   3.159   4.660  11.875 -0.2389 -0.1774  0.0033
  349TMC3     C 5285   2.922   0.182  12.064 -0.0223 -0.1637  0.0412
  349TMC3     O 5286   2.918   0.304  12.081 -0.1813  0.2781  0.5991
  349TMC3     H 5287   3.007   4.668  12.169  3.2692  1.7199  3.2004
  349TMC3    H1 5288   3.090   0.258  11.908 -4.8852 -0.0914  2.0261
  349TMC3    H2 5289   3.183   4.598  11.789 -0.2017  0.9948 -0.8346
  349TMC3    C7 5290   3.099   0.088  11.707  0.0738 -0.2017  0.4691
  349TMC3    C8 5291   3.178   4.506  12.070 -0.0676 -0.4058  0.2530
  349TMC3    O1 5292   3.044   4.731  11.648  0.1804 -0.5418 -0.3810
  349TMC3    O2 5293   3.204   4.526  12.184 -0.0629 -0.1888  0.3032
  350MPD2     C 5294   2.523   3.227   8.959 -0.0033 -0.3078 -0.0113
  350MPD2    C1 5295   2.608   3.193   9.064  0.1551 -0.7651  0.3931
  350MPD2    C2 5296   2.543   3.149   9.181 -0.0160  0.2824  0.2185
  350MPD2    C3 5297   2.409   3.135   9.193  0.6321 -0.3471 -0.3842
  350MPD2    C4 5298   2.331   3.171   9.082  0.2991  0.1286 -0.3627
  350MPD2    C5 5299   2.386   3.219   8.970  0.3069 -0.5172 -0.0446
  350MPD2     H 5300   2.592   3.107   9.267 -0.9119 -0.5850  0.3023
  350MPD2    H1 5301   2.223   3.162   9.086  0.4883  0.6354  5.5831
  350MPD2    H2 5302   2.558   3.275   8.868  3.1055  0.8676  1.7972
  350MPD2    H3 5303   2.324   3.248   8.886 -0.7584 -1.8427  0.2864
  350MPD2     N 5304   2.352   3.090   9.316  1.0575  0.5049  0.4733
  350MPD2    H5 5305   2.415   3.051   9.384  2.7350 -1.1611 -2.0522
  350MPD2    N1 5306   2.751   3.190   9.060  0.0195 -0.3892 -0.4364
  350MPD2    H7 5307   2.807   3.153   9.136  0.0961 -1.6527 -1.1064
  351TMC3    C1 5308   2.970   3.224   8.992  0.2970 -0.2378 -0.6149
  351TMC3    C2 5309   3.022   3.104   9.023  0.4523 -0.1787 -0.1839
  351TMC3    C3 5310   3.154   3.098   9.034 -0.0762  0.1996  0.0125
  351TMC3    C4 5311   3.051   3.335   8.979 -0.2388 -0.2278 -0.1595
  351TMC3    C5 5312   3.186   3.328   9.000  0.6310 -0.4053  0.2556
  351TMC3    C6 5313   3.243   3.206   9.024 -0.3330 -0.3991  0.3790
  351TMC3     C 5314   2.836   3.245   8.963  0.0953 -0.1289 -0.8472
  351TMC3     O 5315   2.796   3.310   8.868  0.0887 -0.1015 -0.0290
  351TMC3     H 5316   2.959   3.016   9.025 -1.4494  1.1613 -0.3253
  351TMC3    H1 5317   2.991   3.421   8.950  1.4131  1.3920  1.2742
  351TMC3    H2 5318   3.346   3.194   9.054  0.0771  2.6691  0.1421
  351TMC3    C7 5319   3.279   3.426   8.953  1.2122  0.2144  1.1285
  351TMC3    C8 5320   3.219   2.966   9.047 -0.8449  0.2418 -0.6897
  351TMC3    O1 5321   3.398   3.407   8.981  0.1285 -0.3179  0.1517
  351TMC3    O2 5322   3.151   2.870   9.078  0.4748 -0.1384  0.0351
  352MPD2     C 5323   0.501   0.560   1.265 -0.3406  0.7251  1.1343
  352MPD2    C1 5324   0.425   0.508   1.168  0.3516 -0.0908 -0.4687
  352MPD2    C2 5325   0.464   0.385   1.117 -0.6033 -0.5668 -0.2826
  352MPD2    C3 5326   0.584   0.328   1.156 -0.3476 -0.3725  0.7519
  352MPD2    C4 5327   0.663   0.387   1.248  0.3689  0.1317 -0.0745
  352MPD2    C5 5328   0.616   0.503   1.302  0.0606 -0.3295  0.4682
  352MPD2     H 5329   0.405   0.337   1.039  0.8631 -2.1533 -0.4132
  352MPD2    H1 5330   0.757   0.358   1.292  1.2342  2.9303 -0.0932
  352MPD2    H2 5331   0.475   0.661   1.297 -2.4037  0.9609 -1.2813
  352MPD2    H3 5332   0.674   0.548   1.381  0.9493  0.8405 -0.8564
  352MPD2     N 5333   0.603   0.200   1.096 -0.0310  0.3826 -0.1204
  352MPD2    H5 5334   0.526   0.156   1.046 -1.8390  0.3178  2.7242
  352MPD2    N1 5335   0.302   0.568   1.140 -0.2537  0.2909  0.4079
  352MPD2    H7 5336   0.285   0.652   1.193  0.6494  0.7177  0.0228
  353TMC3    C1 5337   0.719   4.725   1.061 -0.4924 -0.5954 -0.8001
  353TMC3    C2 5338   0.842   4.670   1.045 -0.2335 -0.2844  0.0190
  353TMC3    C3 5339   0.859   4.553   0.976  0.3650  0.6043  0.5223
  353TMC3    C4 5340   0.610   4.662   1.022 -0.2709  0.7282  0.1366
  353TMC3    C5 5341   0.629   4.534   0.976 -0.0884  0.2966 -1.2184
  353TMC3    C6 5342   0.752   4.483   0.940  0.3420  0.0733  0.2641
  353TMC3     C 5343   0.715   0.124   1.129 -0.0709  0.0385  0.1861
  353TMC3     O 5344   0.815   0.140   1.194 -0.2425  0.1538  0.1672
  353TMC3     H 5345   0.932   4.726   1.066 -0.9283  1.1895 -0.9025
  353TMC3    H1 5346   0.514   4.710   1.039 -0.6413  0.1907 -0.4277
  353TMC3    H2 5347   0.765   4.384   0.899 -0.7305 -1.2741  3.1708
  353TMC3    C7 5348   0.519   4.464   0.913 -0.4808 -0.7567 -0.1011
  353TMC3    C8 5349   0.989   4.493   0.995 -0.1557  0.6160 -0.2642
  353TMC3    O1 5350   0.554   4.371   0.841 -0.1236 -0.3698  0.9579
  353TMC3    O2 5351   1.078   4.543   1.067  0.4469 -0.2621 -0.3576
  354TMC3    C1 5352   2.315   1.349  13.442  0.5252  0.1507  0.1506
  354TMC3    C2 5353   2.350   1.483  13.432 -0.1706 -0.1132 -0.0112
  354TMC3    C3 5354   2.418   1.533  13.322 -0.5495 -0.0357  0.0832
  354TMC3    C4 5355   2.338   1.258  13.339 -0.1138  0.0160 -0.5066
  354TMC3    C5 5356   2.404   1.315  13.228 -0.3607  0.0932 -0.0273
  354TMC3    C6 5357   2.449   1.446  13.212 -0.1263  0.2626  0.5056
  354TMC3     C 5358   2.263   1.305  13.571 -0.7549  0.3288 -0.7035
  354TMC3     O 5359   2.189   1.209  13.574 -0.1051 -0.0973  0.1756
  354TMC3     H 5360   2.317   1.558  13.504  0.9307  2.7827 -2.5275
  354TMC3    H1 5361   2.325   1.152  13.353  0.9742  0.2755  2.5475
  354TMC3    H2 5362   2.520   1.467  13.133 -0.0301 -2.0756 -0.0467
  354TMC3    C7 5363   2.434   1.223  13.124  0.0018 -0.3686  0.3824
  354TMC3    C8 5364   2.439   1.676  13.315  0.0841 -0.4620  0.3454
  354TMC3    O1 5365   2.437   1.105  13.152  0.2133 -0.4517 -0.6072
  354TMC3    O2 5366   2.453   1.737  13.419 -0.6281  0.0672 -0.7452
  355MPD2     C 5367   3.190   1.928  11.708 -0.1473  0.4783  0.3068
  355MPD2    C1 5368   3.154   2.051  11.768 -0.3438 -1.7190  0.2354
  355MPD2    C2 5369   3.195   2.075  11.899  0.3803 -0.1798  0.3760
  355MPD2    C3 5370   3.279   1.987  11.965  0.4362 -0.2048  0.0834
  355MPD2    C4 5371   3.322   1.867  11.905  0.6518 -0.1583  0.4812
  355MPD2    C5 5372   3.274   1.846  11.780  0.1050 -0.3003  0.0097
  355MPD2     H 5373   3.151   2.157  11.954  1.6391  1.0291 -0.4062
  355MPD2    H1 5374   3.387   1.791  11.946  0.1243  0.0126  1.6303
  355MPD2    H2 5375   3.165   1.898  11.607  2.1896 -2.8648  0.7322
  355MPD2    H3 5376   3.319   1.762  11.729 -0.3811  0.8025 -2.2494
  355MPD2     N 5377   3.321   2.008  12.098  0.5824  0.8865 -0.5051
  355MPD2    H5 5378   3.352   1.925  12.148 -0.8133  1.1489  0.8083
  355MPD2    N1 5379   3.087   2.149  11.691  0.5149  1.0387  0.0876
  355MPD2    H7 5380   3.066   2.131  11.593  2.0829  1.8434 -0.4030
  356TMC3    C1 5381   3.320   2.249  12.123 -0.6225  0.9919  0.2549
  356TMC3    C2 5382   3.407   2.275  12.015 -0.8662  0.1661 -0.5670
  356TMC3    C3 5383   3.404   2.399  11.963  0.0435  0.6828  0.0185
  356TMC3    C4 5384   3.250   2.346  12.184 -0.3547 -0.3166 -0.5092
  356TMC3    C5 5385   3.269   2.469  12.138  0.0058  0.3412  0.3288
  356TMC3    C6 5386   3.339   2.495  12.027 -0.8067 -0.8893 -0.4431
  356TMC3     C 5387   3.302   2.116  12.179  0.1869 -0.2968  0.3348
  356TMC3     O 5388   3.302   2.116  12.300  0.0450  0.3328 -0.1810
  356TMC3     H 5389   3.457   2.194  11.963  2.8171  2.0625  0.0472
  356TMC3    H1 5390   3.192   2.313  12.269  0.8246 -1.6870 -0.2333
  356TMC3    H2 5391   3.316   2.587  11.973  1.2718  1.1636  2.1703
  356TMC3    C7 5392   3.176   2.570  12.178 -0.0459  0.2272  1.2113
  356TMC3    C8 5393   3.448   2.412  11.822  0.1539 -0.8638  0.0837
  356TMC3    O1 5394   3.079   2.524  12.234 -0.1131  0.3772  0.0855
  356TMC3    O2 5395   3.444   2.316  11.751  0.1502  0.1361  0.4902
  357MPD2     C 5396   1.765   1.966   0.443 -0.6424 -0.1143 -0.5599
  357MPD2    C1 5397   1.848   1.932   0.552 -0.0844 -0.6868 -0.1242
  357MPD2    C2 5398   1.791   1.904   0.674  0.5162  0.7117 -0.4371
  357MPD2    C3 5399   1.655   1.925   0.695  0.6619  0.4451  0.4130
  357MPD2    C4 5400   1.576   1.957   0.587 -0.3328  0.1810  0.8584
  357MPD2    C5 5401   1.633   1.988   0.465  0.3056 -0.1140 -0.1629
  357MPD2     H 5402   1.854   1.865   0.753 -1.8428  1.2919  1.7270
  357MPD2    H1 5403   1.468   1.963   0.595 -0.2547  2.6149  0.2423
  357MPD2    H2 5404   1.804   1.979   0.342  0.5355  1.3530  0.0837
  357MPD2    H3 5405   1.565   2.016   0.386  0.1384  0.9673  0.3623
  357MPD2     N 5406   1.593   1.900   0.818  0.1323 -0.3789 -0.1757
  357MPD2    H5 5407   1.492   1.901   0.822  0.1261  0.4167 -0.6561
  357MPD2    N1 5408   1.992   1.933   0.526 -0.8202  0.5650  0.3458
  357MPD2    H7 5409   2.019   1.943   0.428 -0.5153 -1.0444  0.2732
  358TMC3    C1 5410   2.227   1.905   0.573  0.1425  0.1424 -0.7018
  358TMC3    C2 5411   2.244   1.892   0.436 -1.1650  0.3177 -0.2081
  358TMC3    C3 5412   2.373   1.854   0.395 -0.4863 -0.4590  0.2542
  358TMC3    C4 5413   2.327   1.886   0.662  0.1736 -0.5634 -0.1327
  358TMC3    C5 5414   2.454   1.860   0.615 -0.0841  0.5797  0.3387
  358TMC3    C6 5415   2.480   1.848   0.481  0.5138 -0.5769  0.8170
  358TMC3     C 5416   2.088   1.910   0.619 -1.0625 -0.0139 -0.5924
  358TMC3     O 5417   2.078   1.919   0.743  0.1468  0.3784  0.0999
  358TMC3     H 5418   2.162   1.881   0.366 -0.6503  0.2135 -0.7857
  358TMC3    H1 5419   2.306   1.886   0.768  0.0261 -0.9282 -0.1627
  358TMC3    H2 5420   2.566   1.803   0.433  0.1544 -1.1323  0.6920
  358TMC3    C7 5421   2.566   1.852   0.704  0.6604  0.5068  0.0077
  358TMC3    C8 5422   2.386   1.803   0.259  0.6378 -0.1195 -0.4822
  358TMC3    O1 5423   2.672   1.815   0.652 -0.2687 -0.2966  0.3973
  358TMC3    O2 5424   2.482   1.843   0.197 -0.1991 -0.1945  0.2981
  359MPD2     C 5425   2.917   0.838  12.231 -0.7762 -0.2195 -0.0041
  359MPD2    C1 5426   2.806   0.841  12.149 -0.0288  0.5373  0.2596
  359MPD2    C2 5427   2.744   0.722  12.106  0.0962 -0.1417 -0.1928
  359MPD2    C3 5428   2.775   0.598  12.163 -0.1314 -0.3356  0.4193
  359MPD2    C4 5429   2.882   0.590  12.253 -0.4639  0.1406 -0.6998
  359MPD2    C5 5430   2.959   0.709  12.270 -0.5478  0.2565  0.3515
  359MPD2     H 5431   2.666   0.716  12.031 -0.0263  0.1774 -0.0939
  359MPD2    H1 5432   2.921   0.492  12.276  2.0253  1.0358 -1.0059
  359MPD2    H2 5433   2.986   0.922  12.243 -0.0043 -0.9857  0.9138
  359MPD2    H3 5434   3.047   0.695  12.331  0.9576  1.5400 -1.5513
  359MPD2     N 5435   2.690   0.482  12.150  0.2744 -0.0133  0.2437
  359MPD2    H5 5436   2.720   0.389  12.179  0.2082 -0.6643 -1.7960
  359MPD2    N1 5437   2.752   0.958  12.088 -0.3349 -0.1639 -0.1781
  359MPD2    H7 5438   2.677   0.937  12.023  0.0521 -1.0488 -0.3463
  360TMC3    C1 5439   2.741   1.174  12.004 -0.5790  0.0015 -1.0815
  360TMC3    C2 5440   2.813   1.270  11.949  0.6995  0.5707  0.3842
  360TMC3    C3 5441   2.770   1.336  11.834 -0.7284  0.0041 -0.2068
  360TMC3    C4 5442   2.621   1.138  11.944  0.0786 -0.1581  0.4414
  360TMC3    C5 5443   2.584   1.204  11.832 -0.7412 -0.2722 -0.3102
  360TMC3    C6 5444   2.658   1.301  11.766  0.3458 -0.2592 -0.9841
  360TMC3     C 5445   2.813   1.079  12.084  0.1755  0.2957  0.1550
  360TMC3     O 5446   2.900   1.124  12.155  0.5107  0.6279 -0.2388
  360TMC3     H 5447   2.914   1.291  11.980  0.3586 -0.5116  2.2295
  360TMC3    H1 5448   2.555   1.071  11.998  0.5791 -2.8920 -2.2716
  360TMC3    H2 5449   2.627   1.352  11.676  0.0349 -0.3618 -0.9358
  360TMC3    C7 5450   2.485   1.137  11.752 -0.7251 -0.1270 -0.0383
  360TMC3    C8 5451   2.871   1.412  11.764 -0.4449  0.0638 -0.0065
  360TMC3    O1 5452   2.391   1.084  11.808  0.3699 -0.0821 -0.6306
  360TMC3    O2 5453   2.864   1.532  11.750 -0.3289 -0.3884 -0.2626
  361MPD2     C 5454   4.233   4.507  16.403 -0.2967  0.4439  0.5375
  361MPD2    C1 5455   4.245   4.588  16.509  0.1210 -0.0292  0.8911
  361MPD2    C2 5456   4.372   4.594  16.565 -0.9434  0.0028 -0.5442
  361MPD2    C3 5457   4.485   4.526  16.514 -0.1160 -0.2478  0.0970
  361MPD2    C4 5458   4.460   4.440  16.409  0.1539  0.6847 -0.7995
  361MPD2    C5 5459   4.331   4.431  16.351  0.3716 -0.0097  0.5036
  361MPD2     H 5460   4.384   4.669  16.642 -1.0269  0.3522 -0.8710
  361MPD2    H1 5461   4.538   4.381  16.361  1.9366  2.5683 -0.1832
  361MPD2    H2 5462   4.138   4.508  16.350  0.2563 -1.0801 -0.4576
  361MPD2    H3 5463   4.307   4.372  16.264  0.8312 -0.0940  0.4362
  361MPD2     N 5464   4.612   4.530  16.558  0.2332  0.1028 -0.4593
  361MPD2    H5 5465   4.671   4.456  16.522  0.4672  0.4723 -0.8305
  361MPD2    N1 5466   4.131   4.654  16.561  0.0466 -0.6744 -0.6531
  361MPD2    H7 5467   4.047   4.651  16.503  0.5764 -2.3160 -1.3502
  362TMC3    C1 5468   4.020   0.095  16.656  0.1357 -0.0489 -0.1626
  362TMC3    C2 5469   3.931   0.105  16.755 -0.0474  0.2737 -0.8754
  362TMC3    C3 5470   3.842   0.208  16.752  0.1889  0.1284 -0.4544
  362TMC3    C4 5471   4.015   0.169  16.541  0.5562 -0.5908  0.1859
  362TMC3    C5 5472   3.916   0.266  16.537 -0.2667 -0.1200 -0.4363
  362TMC3    C6 5473   3.832   0.290  16.639 -0.7487 -0.1750 -0.4873
  362TMC3     C 5474   4.125   4.733  16.671 -0.6897 -0.0868  0.2665
  362TMC3     O 5475   4.211   0.030  16.757  0.4543 -0.0900  0.3795
  362TMC3     H 5476   3.949   0.059  16.851 -0.3335 -0.0234 -0.9634
  362TMC3    H1 5477   4.088   0.166  16.461 -1.0394  3.3999 -1.4393
  362TMC3    H2 5478   3.760   0.370  16.632 -0.3885  0.3069  1.1459
  362TMC3    C7 5479   3.888   0.322  16.405  0.1387  0.2127  0.0498
  362TMC3    C8 5480   3.749   0.214  16.859 -0.1542  0.2252 -0.4457
  362TMC3    O1 5481   3.831   0.431  16.399  0.0423  0.1603 -0.3127
  362TMC3    O2 5482   3.716   0.115  16.923 -1.0748 -0.3749 -0.0048
  363TMC3    C1 5483   3.314   2.657   9.381 -0.3010  0.1605  0.6179
  363TMC3    C2 5484   3.404   2.562   9.428  0.2599  0.1328 -0.3294
  363TMC3    C3 5485   3.529   2.611   9.445  0.2085 -0.2453 -0.0293
  363TMC3    C4 5486   3.343   2.793   9.362 -0.6812 -0.0952  0.1833
  363TMC3    C5 5487   3.472   2.838   9.380  0.1131  0.5383  0.3683
  363TMC3    C6 5488   3.565   2.743   9.415  0.0650  0.1949 -0.0767
  363TMC3     C 5489   3.183   2.607   9.379 -0.1140 -0.4975  0.1339
  363TMC3     O 5490   3.175   2.491   9.419  0.1158  0.3656  0.1708
  363TMC3     H 5491   3.380   2.456   9.430 -0.9383  0.4792  2.8963
  363TMC3    H1 5492   3.262   2.864   9.350 -1.1303 -0.6633 -0.2139
  363TMC3    H2 5493   3.670   2.769   9.421  0.2928 -0.6372 -0.5074
  363TMC3    C7 5494   3.506   2.979   9.351  0.3621 -0.4361  0.1017
  363TMC3    C8 5495   3.632   2.523   9.489 -0.4377 -0.3572 -0.1392
  363TMC3    O1 5496   3.416   3.041   9.300 -0.5826  0.2483  0.1414
  363TMC3    O2 5497   3.745   2.558   9.464  0.6458  0.3274 -0.6337
  364MPD2     C 5498   1.404   2.388  10.493 -0.2715 -0.4818 -0.4820
  364MPD2    C1 5499   1.508   2.367  10.404  0.5057 -0.0045 -0.3859
  364MPD2    C2 5500   1.587   2.257  10.418 -0.0628 -0.5893  0.2841
  364MPD2    C3 5501   1.551   2.161  10.511  0.2272 -0.0627 -0.0059
  364MPD2    C4 5502   1.436   2.171  10.583  0.2654 -0.0084 -0.0810
  364MPD2    C5 5503   1.356   2.286  10.574 -0.5078  0.0210 -0.7536
  364MPD2     H 5504   1.677   2.246  10.357 -0.5826  0.7732 -0.7278
  364MPD2    H1 5505   1.403   2.100  10.658  2.3685  0.9952  1.7902
  364MPD2    H2 5506   1.350   2.482  10.494 -0.0323 -0.3436 -0.5517
  364MPD2    H3 5507   1.267   2.301  10.635 -0.0089 -0.3291  0.0565
  364MPD2     N 5508   1.629   2.047  10.550 -0.3266  0.4858 -0.3287
  364MPD2    H5 5509   1.594   1.989  10.625 -0.2544 -0.2792 -0.8916
  364MPD2    N1 5510   1.544   2.475  10.319 -0.1242  0.7513 -0.5926
  364MPD2    H7 5511   1.481   2.552  10.336  1.1035  1.2130  1.8727
  365TMC3    C1 5512   1.677   2.596  10.154 -1.0861  0.3413 -0.2856
  365TMC3    C2 5513   1.776   2.583  10.064  0.5718 -0.1379 -1.0865
  365TMC3    C3 5514   1.890   2.651  10.085  0.1453  0.1055  0.7563
  365TMC3    C4 5515   1.684   2.699  10.241  0.6284 -0.0879 -0.7145
  365TMC3    C5 5516   1.795   2.774  10.248 -0.3340 -1.1402 -0.2905
  365TMC3    C6 5517   1.911   2.755  10.173  0.7892  0.3920  0.3566
  365TMC3     C 5518   1.639   2.465  10.215  0.5355  0.0692 -0.6129
  365TMC3     O 5519   1.695   2.371  10.166  0.0141  0.1602  0.1831
  365TMC3     H 5520   1.771   2.522   9.975  1.6569 -2.2343  0.2968
  365TMC3    H1 5521   1.602   2.715  10.310  2.0588  0.8275  0.7980
  365TMC3    H2 5522   2.010   2.798  10.186  0.0725  1.9051  0.8571
  365TMC3    C7 5523   1.793   2.881  10.347  0.0170 -0.0368  0.5905
  365TMC3    C8 5524   1.999   2.564  10.081  0.4680 -0.2189 -0.3928
  365TMC3    O1 5525   1.863   2.975  10.327  0.1836  0.5897  0.5944
  365TMC3    O2 5526   2.109   2.613  10.084  0.0283  0.4532 -0.4437
  366MPD2     C 5527   4.440   3.193  14.945  0.0229 -0.2457 -0.3762
  366MPD2    C1 5528   4.577   3.189  14.964 -0.9951  0.1834 -0.6474
  366MPD2    C2 5529   4.632   3.092  15.051 -0.1384  0.3711 -0.1086
  366MPD2    C3 5530   4.551   2.999  15.104 -0.5028  0.3908  0.2590
  366MPD2    C4 5531   4.425   2.985  15.060 -0.5862 -0.0158  0.6082
  366MPD2    C5 5532   4.369   3.084  14.993 -0.7486 -0.0790  0.0947
  366MPD2     H 5533   0.004   3.081  15.068 -0.1814 -1.6462 -1.1956
  366MPD2    H1 5534   4.360   2.905  15.093 -0.5713 -0.5064 -0.5832
  366MPD2    H2 5535   4.383   3.271  14.895  1.2334  0.5185 -0.5495
  366MPD2    H3 5536   4.263   3.067  14.976 -0.8032 -0.0706  0.4236
  366MPD2     N 5537   4.611   2.901  15.189  0.4537 -0.0835  0.1258
  366MPD2    H5 5538   4.700   2.931  15.229 -0.5829  3.8483 -0.5050
  366MPD2    N1 5539   4.669   3.287  14.909 -0.8267 -0.2205 -0.0406
  366MPD2    H7 5540   0.029   3.282  14.948 -0.5850 -0.5921 -0.6674
  367TMC3    C1 5541   4.710   3.505  14.841 -0.1314  0.6505  0.2160
  367TMC3    C2 5542   0.046   3.520  14.962 -0.0969 -0.1710 -0.4060
  367TMC3    C3 5543   0.056   3.650  14.999 -0.1287  0.6660 -0.0337
  367TMC3    C4 5544   4.674   3.609  14.762  0.2638  0.3493  0.0614
  367TMC3    C5 5545   4.675   3.732  14.816 -0.1641  0.3662  0.1968
  367TMC3    C6 5546   0.003   3.758  14.931 -0.6306  0.9406  0.0338
  367TMC3     C 5547   4.637   3.386  14.819  0.1802  0.1522  0.3700
  367TMC3     O 5548   4.532   3.383  14.754 -0.1694  0.7036 -0.4101
  367TMC3     H 5549   0.099   3.439  15.011  0.9829  1.4876  1.1797
  367TMC3    H1 5550   4.609   3.588  14.678  1.2664 -0.1071 -0.5994
  367TMC3    H2 5551   4.716   3.850  14.984 -1.9751  0.5460  0.1702
  367TMC3    C7 5552   4.555   3.805  14.805  0.2715  0.0565 -0.4317
  367TMC3    C8 5553   0.144   3.674  15.113  0.2991 -0.4914  0.4081
  367TMC3    O1 5554   4.525   3.882  14.896 -0.6407 -0.5090 -0.3559
  367TMC3    O2 5555   0.172   3.571  15.173  0.3792 -0.5446 -0.6457
  368MPD2     C 5556   1.112   0.301  12.838  0.3278 -1.1647  0.9065
  368MPD2    C1 5557   1.129   0.433  12.869  0.6055 -0.3615 -0.5466
  368MPD2    C2 5558   1.253   0.480  12.910 -0.6767  0.3437 -0.1275
  368MPD2    C3 5559   1.365   0.396  12.910 -0.0301 -0.5125 -0.2782
  368MPD2    C4 5560   1.337   0.261  12.892 -0.6110  0.1526  0.5776
  368MPD2    C5 5561   1.214   0.216  12.855 -0.9584 -0.7814  0.1927
  368MPD2     H 5562   1.272   0.581  12.944  0.5664 -0.7530  2.4972
  368MPD2    H1 5563   1.415   0.186  12.897 -2.0987 -1.3748  1.0334
  368MPD2    H2 5564   1.010   0.271  12.817 -0.1757  1.8093 -0.9694
  368MPD2    H3 5565   1.201   0.109  12.840 -0.6223 -0.4270 -2.7155
  368MPD2     N 5566   1.503   0.445  12.917  0.4948 -0.2205  0.4587
  368MPD2    H5 5567   1.575   0.373  12.910  1.1657  0.3262  1.8501
  368MPD2    N1 5568   1.014   0.513  12.857 -0.5025 -0.5231 -0.9168
  368MPD2    H7 5569   0.932   0.458  12.833 -0.9294 -0.1747 -0.2596
  369TMC3    C1 5570   0.888   0.708  12.852  0.8520 -0.2856 -0.1185
  369TMC3    C2 5571   0.893   0.821  12.769  0.2388  0.4206  0.5339
  369TMC3    C3 5572   0.781   0.834  12.687 -0.2319 -0.2301  0.7520
  369TMC3    C4 5573   0.776   0.623  12.873 -1.0504  0.0817 -0.4485
  369TMC3    C5 5574   0.673   0.652  12.787 -0.1879  0.0062 -0.4245
  369TMC3    C6 5575   0.673   0.758  12.701  0.5125  0.0187  0.3532
  369TMC3     C 5576   1.014   0.651  12.878  0.6225  0.4149  0.1872
  369TMC3     O 5577   1.109   0.723  12.902  0.5850  0.1578 -0.1601
  369TMC3     H 5578   0.985   0.876  12.755  1.6087 -2.3557 -1.2446
  369TMC3    H1 5579   0.779   0.536  12.937 -0.7043 -0.1859 -0.8274
  369TMC3    H2 5580   0.600   0.769  12.622  0.2289 -1.0750  0.4659
  369TMC3    C7 5581   0.577   0.548  12.773  0.5555  0.4373 -0.2105
  369TMC3    C8 5582   0.768   0.968  12.640 -0.1560 -0.2603 -0.5173
  369TMC3    O1 5583   0.592   0.447  12.844  0.0470  0.0456 -0.1352
  369TMC3    O2 5584   0.872   1.014  12.603  0.2218  0.1578 -0.1507
  370TMC3    C1 5585   0.726   0.927  16.171 -0.3694 -0.2210 -0.0521
  370TMC3    C2 5586   0.661   0.855  16.268 -0.5206 -0.5756 -0.0026
  370TMC3    C3 5587   0.610   0.730  16.230 -0.3354  0.1584  0.4480
  370TMC3    C4 5588   0.736   0.880  16.041  0.0086  0.1508 -1.0157
  370TMC3    C5 5589   0.693   0.754  16.019 -0.0579  0.2440 -0.3864
  370TMC3    C6 5590   0.625   0.677  16.107 -0.4887 -0.2169  0.0125
  370TMC3     C 5591   0.825   1.010  16.222 -0.3014 -0.0552  0.2509
  370TMC3     O 5592   0.870   0.969  16.328  0.3089  0.0007 -0.0363
  370TMC3     H 5593   0.673   0.889  16.370  1.7372 -2.4017  0.3318
  370TMC3    H1 5594   0.805   0.922  15.969  0.9988  2.1790  1.1390
  370TMC3    H2 5595   0.579   0.585  16.074  0.1002  0.0389 -1.5127
  370TMC3    C7 5596   0.737   0.697  15.895 -0.5125 -1.0864  0.3170
  370TMC3    C8 5597   0.553   0.637  16.324  0.5930 -0.0941 -0.5986
  370TMC3    O1 5598   0.784   0.771  15.808  0.9207  0.5302 -1.0354
  370TMC3    O2 5599   0.554   0.518  16.302 -0.2287 -0.0485 -0.2223
  371TMC3    C1 5600   1.652   3.702  15.361  0.0046 -0.0214 -0.2886
  371TMC3    C2 5601   1.526   3.707  15.416  0.0853 -0.4325 -0.1565
  371TMC3    C3 5602   1.469   3.829  15.442  0.7314 -0.4808 -0.1457
  371TMC3    C4 5603   1.720   3.812  15.320 -0.2482 -0.0771 -1.0113
  371TMC3    C5 5604   1.660   3.931  15.348  0.1466 -0.6868  0.1688
  371TMC3    C6 5605   1.532   3.944  15.405  0.3096  0.2892  0.0352
  371TMC3     C 5606   1.711   3.574  15.314 -0.5144  0.5912  0.2481
  371TMC3     O 5607   1.786   3.571  15.221 -0.0488 -0.0552  0.2131
  371TMC3     H 5608   1.471   3.614  15.428  1.0676 -0.9286  0.3985
  371TMC3    H1 5609   1.817   3.797  15.274  1.6609  0.4260  2.8264
  371TMC3    H2 5610   1.495   4.045  15.414  1.2837  0.5659  1.0057
  371TMC3    C7 5611   1.735   4.054  15.315 -0.2482  0.4467 -0.7125
  371TMC3    C8 5612   1.326   3.842  15.477 -0.2851 -0.3165 -0.0669
  371TMC3    O1 5613   1.669   4.149  15.268  0.1998 -0.3022 -0.1679
  371TMC3    O2 5614   1.261   3.738  15.459  0.3217  0.3148  0.1639
  372MPD2     C 5615   0.915   4.733  13.273  0.2108 -0.6409 -0.4256
  372MPD2    C1 5616   1.036   4.683  13.321 -0.0184 -0.1639 -0.4642
  372MPD2    C2 5617   1.040   4.549  13.361 -0.3336  0.8178 -0.0864
  372MPD2    C3 5618   0.930   4.469  13.359  0.2817 -0.3735 -0.0150
  372MPD2    C4 5619   0.810   4.521  13.316  0.0758  0.1415 -0.3463
  372MPD2    C5 5620   0.806   4.650  13.270  0.5635 -0.0969  0.1589
  372MPD2     H 5621   1.131   4.521  13.413 -0.8493 -2.8259 -1.1263
  372MPD2    H1 5622   0.714   4.472  13.314  0.5444 -0.7808 -0.0301
  372MPD2    H2 5623   0.898   0.102  13.246  1.0309 -0.2563  0.5415
  372MPD2    H3 5624   0.716   4.695  13.230  0.9468  0.7250  0.2094
  372MPD2     N 5625   0.933   4.336  13.405  0.0040  0.2541 -0.2868
  372MPD2    H5 5626   1.010   4.305  13.464  0.5260 -0.9772 -1.6205
  372MPD2    N1 5627   1.164   0.017  13.326 -0.2972  0.8546 -0.2567
  372MPD2    H7 5628   1.239   4.695  13.364  0.5057  0.4493 -2.4420
  373TMC3    C1 5629   0.872   4.111  13.421 -0.3777  0.2946 -0.0212
  373TMC3    C2 5630   0.918   4.102  13.553 -0.8878  0.4012 -1.0255
  373TMC3    C3 5631   0.960   3.977  13.599 -0.8857  0.3885  0.0973
  373TMC3    C4 5632   0.851   3.995  13.354  0.2251 -0.2703 -0.5115
  373TMC3    C5 5633   0.892   3.870  13.398  0.2637  0.7266 -0.0713
  373TMC3    C6 5634   0.946   3.864  13.523  0.5435 -0.5175 -0.0139
  373TMC3     C 5635   0.845   4.239  13.364 -0.1950 -0.5492  0.1414
  373TMC3     O 5636   0.764   4.241  13.273  0.2816 -0.3038  0.5118
  373TMC3     H 5637   0.928   4.191  13.614  0.6144  0.4923 -1.4033
  373TMC3    H1 5638   0.790   4.005  13.264  1.2395  0.0350 -1.1687
  373TMC3    H2 5639   0.967   3.767  13.566 -2.1579 -1.3531 -0.5668
  373TMC3    C7 5640   0.961   3.783  13.304  0.2200 -0.9852  0.2563
  373TMC3    C8 5641   1.016   3.971  13.729  0.1737  0.3233 -0.2035
  373TMC3    O1 5642   1.025   3.832  13.211  0.0692  0.1914 -0.2867
  373TMC3    O2 5643   1.085   3.872  13.760  0.0705  0.3743  0.5795
  374TMC3    C1 5644   1.544   1.143   9.938  0.2084  0.1059 -0.2754
  374TMC3    C2 5645   1.664   1.089   9.896 -0.0970 -0.3011 -1.0194
  374TMC3    C3 5646   1.720   1.140   9.783  0.3890 -0.6171  0.7572
  374TMC3    C4 5647   1.476   1.234   9.858 -0.2108  0.3263 -0.9612
  374TMC3    C5 5648   1.532   1.265   9.740 -0.4413  0.6527  0.7900
  374TMC3    C6 5649   1.649   1.225   9.699  0.1235 -0.2622 -0.5722
  374TMC3     C 5650   1.471   1.082  10.042 -0.0117  0.6377  0.2769
  374TMC3     O 5651   1.351   1.093  10.057  0.1005 -0.6168  0.0014
  374TMC3     H 5652   1.704   1.005   9.951  1.4894  1.3317  0.3176
  374TMC3    H1 5653   1.370   1.245   9.877 -0.2538  1.3252 -1.8164
  374TMC3    H2 5654   1.689   1.253   9.601 -1.8160 -1.0395 -1.5812
  374TMC3    C7 5655   1.467   1.347   9.645  0.4044 -0.3963  0.5596
  374TMC3    C8 5656   1.838   1.072   9.729  0.1318 -0.2663  0.7461
  374TMC3    O1 5657   1.413   1.451   9.679 -0.3944 -0.0445 -0.3660
  374TMC3    O2 5658   1.844   1.057   9.607  0.3010  0.3447 -0.2016
  375MPD2     C 5659   2.047   1.230  17.294 -0.1990  0.5441  0.1700
  375MPD2    C1 5660   1.964   1.248  17.186 -0.7178  0.3426  0.2596
  375MPD2    C2 5661   1.997   1.182  17.062 -0.3120  1.0005  0.6438
  375MPD2    C3 5662   2.123   1.129  17.041 -0.1647 -0.1741 -0.4955
  375MPD2    C4 5663   2.200   1.116  17.155 -0.3947 -0.1140 -0.0563
  375MPD2    C5 5664   2.158   1.162  17.279  0.1267  0.1162  0.2598
  375MPD2     H 5665   1.936   1.197  16.973 -0.4373 -0.4019  0.5056
  375MPD2    H1 5666   2.292   1.058  17.156  0.5244  1.3465  0.6971
  375MPD2    H2 5667   2.013   1.265  17.392  1.4733  0.0920  0.9104
  375MPD2    H3 5668   2.218   1.155  17.369  0.9002  1.0256 -0.1777
  375MPD2     N 5669   2.180   1.076  16.917  0.1480 -0.0728  0.3415
  375MPD2    H5 5670   2.278   1.053  16.921  0.0967 -0.1877  0.8482
  375MPD2    N1 5671   1.842   1.317  17.184 -0.4794 -0.1191  0.2394
  375MPD2    H7 5672   1.783   1.311  17.101 -0.3246 -0.5093  0.1593
  376TMC3    C1 5673   2.174   1.031  16.684 -0.1506  0.1513  0.3996
  376TMC3    C2 5674   2.312   1.032  16.680 -0.2730  0.9270 -0.1767
  376TMC3    C3 5675   2.382   1.017  16.561 -0.4504 -0.5936 -0.1490
  376TMC3    C4 5676   2.107   1.021  16.562  0.6080  0.7020 -0.3668
  376TMC3    C5 5677   2.183   1.023  16.446 -0.6337  0.0213 -1.2836
  376TMC3    C6 5678   2.312   1.019  16.440  0.0601  0.4109  0.9354
  376TMC3     C 5679   2.100   1.068  16.801  0.4894 -0.1620 -0.5468
  376TMC3     O 5680   1.982   1.097  16.777 -0.8006  0.1306  0.0808
  376TMC3     H 5681   2.373   1.034  16.769 -1.5098 -1.8419  0.7120
  376TMC3    H1 5682   1.999   1.012  16.564  0.6123  0.3783 -2.1090
  376TMC3    H2 5683   2.372   1.038  16.351 -0.6345  0.2145  0.4243
  376TMC3    C7 5684   2.117   0.981  16.321  0.2160 -0.4211  1.1564
  376TMC3    C8 5685   2.526   1.031  16.566  0.5464  0.0690  0.3616
  376TMC3    O1 5686   2.184   1.002  16.221  0.6684 -0.0054 -0.3696
  376TMC3    O2 5687   2.575   1.099  16.478 -0.4022 -0.3786  0.4225
  377MPD2     C 5688   0.104   0.870  12.097  0.4425 -0.4357 -0.3877
  377MPD2    C1 5689   0.162   0.934  12.201  0.0047  0.8101  0.3808
  377MPD2    C2 5690   0.122   0.914  12.343 -0.3700 -0.9926 -0.8103
  377MPD2    C3 5691   0.023   0.816  12.366 -0.1695 -0.5888  0.0920
  377MPD2    C4 5692   4.701   0.750  12.259 -0.9839 -0.3565  0.5751
  377MPD2    C5 5693   0.008   0.768  12.126 -0.6260 -0.2633 -0.2457
  377MPD2     H 5694   0.165   0.975  12.422 -1.4797  2.1874 -2.6661
  377MPD2    H1 5695   4.626   0.673  12.275 -0.6716 -0.5137  1.2793
  377MPD2    H2 5696   0.138   0.896  11.998 -0.1925 -0.7277 -0.6836
  377MPD2    H3 5697   4.697   0.711  12.045 -1.6293 -0.3200  0.3584
  377MPD2     N 5698   4.702   0.792  12.499 -0.0291  0.2282 -0.1087
  377MPD2    H5 5699   4.636   0.715  12.503  0.5857 -0.2314  1.1365
  377MPD2    N1 5700   0.233   1.048  12.156 -1.3056 -0.2569 -0.2914
  377MPD2    H7 5701   0.235   1.082  12.061 -0.1842  2.3401  0.6511
  378TMC3    C1 5702   0.349   1.319  11.952  0.2363  0.1669 -0.2006
  378TMC3    C2 5703   0.300   1.280  12.079 -0.8999 -0.4362 -0.2042
  378TMC3    C3 5704   0.384   1.231  12.176 -0.5642 -0.5626 -0.9604
  378TMC3    C4 5705   0.481   1.298  11.920 -0.5378 -0.4975  0.7903
  378TMC3    C5 5706   0.563   1.251  12.023 -0.0902  0.3003  0.4624
  378TMC3    C6 5707   0.517   1.216  12.148 -0.3162 -0.2312  0.0140
  378TMC3     C 5708   0.248   1.258  11.867  0.0213  0.7842  0.3673
  378TMC3     O 5709   0.165   1.182  11.918  0.6732  0.3510 -0.3829
  378TMC3     H 5710   0.197   1.303  12.104 -1.3343 -1.8065 -0.7879
  378TMC3    H1 5711   0.531   1.327  11.828  0.2832 -0.8888  1.1135
  378TMC3    H2 5712   0.594   1.195  12.221 -1.0570  0.6073  1.0301
  378TMC3    C7 5713   0.707   1.229  11.989  0.6768 -0.3248  0.8101
  378TMC3    C8 5714   0.313   1.122  12.244  0.4626 -0.1252 -0.8606
  378TMC3    O1 5715   0.789   1.259  12.073  0.2707  0.0930 -1.3482
  378TMC3    O2 5716   0.346   1.093  12.356 -0.0342  0.3168 -0.6401
  379MPD2     C 5717   0.877   3.797  16.209  0.1273 -0.0760  0.2621
  379MPD2    C1 5718   0.898   3.676  16.143  0.1943  0.6277  0.5928
  379MPD2    C2 5719   0.995   3.595  16.188  0.1305  0.0265 -0.2128
  379MPD2    C3 5720   1.089   3.649  16.282  0.2172 -0.5605 -0.1280
  379MPD2    C4 5721   1.067   3.770  16.340  0.4353  0.3119  0.7945
  379MPD2    C5 5722   0.954   3.842  16.309 -0.3233 -0.6584  0.2212
  379MPD2     H 5723   1.002   3.491  16.160  0.4276 -0.2419  0.8782
  379MPD2    H1 5724   1.137   3.817  16.408 -1.5483  1.4017  2.0797
  379MPD2    H2 5725   0.809   3.872  16.170 -1.3580 -1.6155 -0.1023
  379MPD2    H3 5726   0.938   3.941  16.350 -0.9206 -0.5731 -0.2252
  379MPD2     N 5727   1.201   3.576  16.330 -0.6058 -0.1242  0.0057
  379MPD2    H5 5728   1.268   3.621  16.392 -1.0513  0.0265  0.3764
  379MPD2    N1 5729   0.810   3.646  16.034 -0.4439  0.4603  0.1637
  379MPD2    H7 5730   0.740   3.718  16.019 -0.9589 -0.0775  0.0089
  380TMC3    C1 5731   0.699   3.535  15.862  0.3738  0.0484 -0.3673
  380TMC3    C2 5732   0.682   3.409  15.813  0.2672 -0.3585  0.0625
  380TMC3    C3 5733   0.641   3.404  15.685  0.4658 -0.0051 -0.4710
  380TMC3    C4 5734   0.667   3.652  15.798 -0.1141 -0.6089 -0.1506
  380TMC3    C5 5735   0.607   3.643  15.678  0.5066 -0.0931 -0.4550
  380TMC3    C6 5736   0.586   3.512  15.620  0.0115 -0.9838 -0.0676
  380TMC3     C 5737   0.818   3.542  15.948 -0.2946  0.3611 -0.3125
  380TMC3     O 5738   0.908   3.467  15.928 -0.6608 -0.1951  0.0531
  380TMC3     H 5739   0.715   3.320  15.866  1.8900 -0.4555 -1.1277
  380TMC3    H1 5740   0.703   3.750  15.828 -3.1355 -0.5116  3.1658
  380TMC3    H2 5741   0.543   3.496  15.522 -0.6695 -0.5701  0.1616
  380TMC3    C7 5742   0.557   3.765  15.610 -0.3389 -0.0122 -0.2941
  380TMC3    C8 5743   0.726   3.338  15.594 -0.5376 -0.4713  0.6547
  380TMC3    O1 5744   0.609   3.870  15.644  0.4430 -1.1237 -0.3061
  380TMC3    O2 5745   0.693   3.324  15.477 -0.0616  0.0662  0.1983
  381TMC3    C1 5746   0.497   4.670  16.170 -0.2579 -0.2133  0.1978
  381TMC3    C2 5747   0.611   0.006  16.148  0.0238  0.5518  0.9010
  381TMC3    C3 5748   0.642   0.102  16.242 -0.1378  0.0391 -0.0039
  381TMC3    C4 5749   0.416   4.688  16.276  0.1078 -0.0227 -0.8938
  381TMC3    C5 5750   0.436   0.063  16.350 -0.8655  0.3241 -0.1549
  381TMC3    C6 5751   0.550   0.141  16.335  1.0604 -0.2515  0.0100
  381TMC3     C 5752   0.495   4.538  16.099 -0.7856 -0.1381  0.2022
  381TMC3     O 5753   0.442   4.443  16.151  0.3923  0.0673  0.3556
  381TMC3     H 5754   0.686   4.709  16.076 -0.6270 -2.2116  1.4254
  381TMC3    H1 5755   0.340   4.616  16.303  0.1870  0.4832  0.6917
  381TMC3    H2 5756   0.567   0.225  16.401 -0.6138 -1.9110  2.6006
  381TMC3    C7 5757   0.411   0.017  16.491 -0.1815 -0.0493  0.9399
  381TMC3    C8 5758   0.758   0.187  16.207 -0.3202  0.3353 -0.6592
  381TMC3    O1 5759   0.469   4.646  16.516 -0.2585  0.1797  0.3736
  381TMC3    O2 5760   0.825   0.140  16.115 -0.2142  0.5143 -0.0729
  382MPD2     C 5761   0.017   2.849  16.629 -0.1987 -0.2495 -0.3230
  382MPD2    C1 5762   4.621   2.850  16.686  0.0126  0.4311 -0.8086
  382MPD2    C2 5763   4.590   2.751  16.774  0.2027 -0.0477 -1.1326
  382MPD2    C3 5764   4.675   2.640  16.778  0.1095  0.6366 -0.9502
  382MPD2    C4 5765   0.061   2.631  16.705  0.1354 -0.4044  0.8211
  382MPD2    C5 5766   0.100   2.737  16.626  0.3987  0.0507 -0.3690
  382MPD2     H 5767   4.498   2.758  16.832 -0.5147 -1.9817 -2.0284
  382MPD2    H1 5768   0.133   2.550  16.713  0.2411 -0.2337  1.5879
  382MPD2    H2 5769   0.039   2.920  16.551  1.6657  0.9077  1.2558
  382MPD2    H3 5770   0.191   2.721  16.570  0.7325  0.1841  0.1419
  382MPD2     N 5771   4.655   2.530  16.869 -0.4233  0.1306 -0.2001
  382MPD2    H5 5772   4.723   2.455  16.871 -0.9748 -0.3758 -0.3403
  382MPD2    N1 5773   4.533   2.965  16.670 -0.3221  0.4210  0.4999
  382MPD2    H7 5774   4.443   2.963  16.715 -0.8642 -0.8781 -0.6741
  383TMC3    C1 5775   4.557   2.370  17.009  0.2552 -0.0412 -1.0945
  383TMC3    C2 5776   4.434   2.309  17.031  0.0768  0.2847  0.5908
  383TMC3    C3 5777   4.434   2.194  17.109 -0.0425  0.6354 -0.5768
  383TMC3    C4 5778   4.667   2.343  17.078  0.5601 -0.0359  0.0099
  383TMC3    C5 5779   4.656   2.248  17.177 -0.2189  0.2772  0.3091
  383TMC3    C6 5780   4.544   2.163  17.181  0.2744 -0.0421  0.2128
  383TMC3     C 5781   4.544   2.505  16.953 -1.0293 -0.3950 -0.2664
  383TMC3     O 5782   4.438   2.567  16.963  0.4580 -0.3991  0.4163
  383TMC3     H 5783   4.351   2.346  16.972  0.9556 -0.3991 -1.0578
  383TMC3    H1 5784   0.016   2.413  17.075  0.8236 -0.3119  0.7116
  383TMC3    H2 5785   4.543   2.079  17.250 -1.4413  1.9817  2.6751
  383TMC3    C7 5786   0.025   2.216  17.272  0.4985  0.2592  0.3525
  383TMC3    C8 5787   4.331   2.104  17.071 -0.1100  0.7023  0.2234
  383TMC3    O1 5788   4.728   2.131  17.352  0.0055  0.0944  0.5804
  383TMC3    O2 5789   4.275   2.125  16.962  0.4348 -0.3186 -0.1361
  384MPD2     C 5790   1.612   3.476  12.035  0.0350  0.6257 -1.0531
  384MPD2    C1 5791   1.638   3.389  12.135  0.2929  0.0122  0.3523
  384MPD2    C2 5792   1.718   3.279  12.103  0.1348  0.2395 -0.2857
  384MPD2    C3 5793   1.764   3.249  11.978 -0.6929 -0.1551  0.7039
  384MPD2    C4 5794   1.742   3.351  11.882 -0.3385  0.6960  0.3917
  384MPD2    C5 5795   1.658   3.455  11.909  0.4512  0.2464  0.0070
  384MPD2     H 5796   1.734   3.204  12.180 -0.8244  0.3927  0.0653
  384MPD2    H1 5797   1.766   3.337  11.777  0.7848  1.0027  0.6164
  384MPD2    H2 5798   1.558   3.568  12.056  1.6960  1.7233 -1.6055
  384MPD2    H3 5799   1.642   3.521  11.825 -0.2159 -1.2129 -1.0264
  384MPD2     N 5800   1.817   3.121  11.954  0.3014  0.2264  0.0785
  384MPD2    H5 5801   1.815   3.057  12.032 -1.1980  0.8239  0.5168
  384MPD2    N1 5802   1.603   3.402  12.268  0.1709  0.6895 -0.0936
  384MPD2    H7 5803   1.629   3.328  12.331 -0.0373  1.3283  0.7482
  385TMC3    C1 5804   1.913   2.932  11.867 -0.1108 -0.4168  0.1393
  385TMC3    C2 5805   1.839   2.827  11.813  0.5431 -0.8131  0.1478
  385TMC3    C3 5806   1.799   2.721  11.897 -0.9208  0.3282  1.2160
  385TMC3    C4 5807   1.951   2.917  11.995 -0.0080  0.4269  0.0928
  385TMC3    C5 5808   1.909   2.820  12.075  0.0850 -1.1000 -0.1382
  385TMC3    C6 5809   1.843   2.714  12.031  0.4329  0.5038  0.3056
  385TMC3     C 5810   1.871   3.069  11.840 -0.8778  0.1645 -0.5350
  385TMC3     O 5811   1.883   3.125  11.733  0.7947  0.0694 -0.2122
  385TMC3     H 5812   1.802   2.821  11.711  0.2825 -0.3162  0.2147
  385TMC3    H1 5813   1.997   3.007  12.036  1.3490 -1.4180  2.6187
  385TMC3    H2 5814   1.781   2.658  12.100  0.0961 -0.9672 -1.2094
  385TMC3    C7 5815   1.875   2.870  12.203  0.4746 -0.6106 -0.0258
  385TMC3    C8 5816   1.702   2.624  11.858 -0.3816 -0.1319  0.8000
  385TMC3    O1 5817   1.866   2.992  12.216  0.4228  0.0120  0.1547
  385TMC3    O2 5818   1.653   2.564  11.956 -1.0262  0.0928  0.1091
  386TMC3    C1 5819   1.552   0.971  11.400 -0.5832 -0.0884 -0.0111
  386TMC3    C2 5820   1.476   0.956  11.289  0.0475  0.6859  0.0328
  386TMC3    C3 5821   1.373   1.040  11.273 -0.2499 -0.0374 -0.1119
  386TMC3    C4 5822   1.516   1.047  11.504  0.2628 -0.1539  0.1232
  386TMC3    C5 5823   1.409   1.123  11.487 -0.7127  0.2719  0.0754
  386TMC3    C6 5824   1.332   1.122  11.377  0.0789  0.0272  0.4143
  386TMC3     C 5825   1.646   0.857  11.418  0.2345  0.0382  0.1356
  386TMC3     O 5826   1.677   0.789  11.323 -0.1616 -0.0135  0.1677
  386TMC3     H 5827   1.492   0.882  11.212  0.6694 -0.2894  1.0938
  386TMC3    H1 5828   1.585   1.059  11.587  1.6179 -0.3388 -0.9783
  386TMC3    H2 5829   1.242   1.182  11.377 -1.1401 -1.8116 -0.1692
  386TMC3    C7 5830   1.388   1.235  11.582  0.1988 -1.0957  0.2014
  386TMC3    C8 5831   1.264   1.013  11.175  0.0612  0.0690  0.7466
  386TMC3    O1 5832   1.409   1.207  11.697  0.1774  0.1874 -0.3468
  386TMC3    O2 5833   1.151   0.995  11.225 -0.0033  0.0602  0.1130
  387MPD2     C 5834   4.024   0.334   9.586 -0.3449  0.1981 -0.7023
  387MPD2    C1 5835   4.149   0.388   9.615  0.6767  0.0422  0.7281
  387MPD2    C2 5836   4.262   0.302   9.624  1.1320  0.0170 -0.4205
  387MPD2    C3 5837   4.246   0.165   9.617 -0.4991 -0.2275 -0.4230
  387MPD2    C4 5838   4.120   0.109   9.580 -0.1042  0.1012 -1.2612
  387MPD2    C5 5839   4.018   0.199   9.567 -0.1758  0.7868  0.1629
  387MPD2     H 5840   4.360   0.339   9.651  0.6710 -0.5969  2.1201
  387MPD2    H1 5841   4.103   0.004   9.560  0.6933 -0.0624 -1.0772
  387MPD2    H2 5842   3.934   0.393   9.579 -0.1509  0.2916 -2.3733
  387MPD2    H3 5843   3.921   0.156   9.543  1.3553 -2.0388 -1.0146
  387MPD2     N 5844   4.352   0.091   9.659 -0.9152  0.2101  0.1682
  387MPD2    H5 5845   4.440   0.137   9.680 -0.3494  0.6318 -3.1153
  387MPD2    N1 5846   4.169   0.524   9.653 -0.6981 -0.3139  0.0267
  387MPD2    H7 5847   4.263   0.546   9.683 -0.0498 -0.3977 -1.9321
  388TMC3    C1 5848   4.121   0.727   9.759 -0.2169  0.0189  0.3719
  388TMC3    C2 5849   4.065   0.848   9.751  0.0501 -0.0728 -0.7904
  388TMC3    C3 5850   4.109   0.948   9.831 -0.6788 -0.3614 -0.4502
  388TMC3    C4 5851   4.211   0.693   9.857 -0.5194  0.6620 -0.1752
  388TMC3    C5 5852   4.235   0.789   9.955  1.0645  0.4154  0.9638
  388TMC3    C6 5853   4.198   0.922   9.933 -0.6608  0.0579 -0.7303
  388TMC3     C 5854   4.067   0.615   9.683  0.2170 -0.4467 -0.7210
  388TMC3     O 5855   3.958   0.630   9.633  0.0478  0.5462  0.1921
  388TMC3     H 5856   4.005   0.869   9.663  1.2063  0.6492 -1.3983
  388TMC3    H1 5857   4.236   0.589   9.868 -3.4843 -0.0379  0.0759
  388TMC3    H2 5858   4.248   0.997   9.993 -0.9288  1.0157 -1.6959
  388TMC3    C7 5859   4.352   0.757  10.039 -0.4901  0.5672  0.2850
  388TMC3    C8 5860   4.098   1.082   9.783  0.6876 -0.2037 -0.4646
  388TMC3    O1 5861   4.368   0.834  10.134 -0.7634  0.7079 -0.5200
  388TMC3    O2 5862   4.203   1.148   9.800  0.1350 -0.0142  0.8438
  389MPD2     C 5863   3.566   3.887  10.610 -0.2064 -0.1489 -0.3517
  389MPD2    C1 5864   3.456   3.807  10.579 -0.3258 -0.5440 -0.1914
  389MPD2    C2 5865   3.401   3.731  10.686  0.1261 -0.2899 -0.3497
  389MPD2    C3 5866   3.439   3.755  10.824  0.2216 -0.4184 -0.1694
  389MPD2    C4 5867   3.529   3.860  10.846 -0.1712 -0.2404 -0.1195
  389MPD2    C5 5868   3.603   3.906  10.738  0.9863 -0.1853 -0.1304
  389MPD2     H 5869   3.331   3.649  10.671  0.2152 -0.2661 -0.8780
  389MPD2    H1 5870   3.569   3.885  10.944 -1.4263 -1.1454  0.6311
  389MPD2    H2 5871   3.626   3.944  10.540 -0.9094 -0.7124 -1.4095
  389MPD2    H3 5872   3.688   3.972  10.747  0.4504  0.4219  0.3745
  389MPD2     N 5873   3.394   3.685  10.939 -0.5344 -0.2362  0.4307
  389MPD2    H5 5874   3.432   3.710  11.029 -0.4537 -0.7948  0.5523
  389MPD2    N1 5875   3.417   3.792  10.442  0.0719  0.6684  1.4148
  389MPD2    H7 5876   3.472   3.847  10.376  0.4639 -0.9992  0.3477
  390TMC3    C1 5877   3.267   3.557  11.062 -0.4517 -0.1920 -0.4092
  390TMC3    C2 5878   3.267   3.424  11.110 -0.0314  0.2489 -0.0073
  390TMC3    C3 5879   3.231   3.404  11.240  0.4539  0.6340 -0.3224
  390TMC3    C4 5880   3.241   3.664  11.139 -0.1935 -1.1733 -0.5934
  390TMC3    C5 5881   3.189   3.642  11.263  0.1262  0.3375 -0.5964
  390TMC3    C6 5882   3.188   3.512  11.323 -0.8517 -1.0260 -0.4352
  390TMC3     C 5883   3.313   3.575  10.935  0.9098 -0.4195  0.3703
  390TMC3     O 5884   3.277   3.498  10.846 -0.4989  0.4567  0.2175
  390TMC3     H 5885   3.295   3.345  11.041 -0.5081  0.2731 -0.2302
  390TMC3    H1 5886   3.258   3.767  11.111 -2.3175 -0.5995  0.2695
  390TMC3    H2 5887   3.130   3.496  11.412 -0.3612  0.4546  0.1559
  390TMC3    C7 5888   3.118   3.754  11.324  0.9322 -0.5948 -0.3838
  390TMC3    C8 5889   3.258   3.268  11.297  0.1279  0.0816 -0.1548
  390TMC3    O1 5890   3.140   3.867  11.281  0.3941  0.2639  0.0978
  390TMC3    O2 5891   3.294   3.175  11.227  0.0146 -0.6083  0.1282
  391MPD2     C 5892   2.110   0.566  11.109 -0.5274 -0.0838  0.7027
  391MPD2    C1 5893   2.236   0.609  11.083 -0.1976  1.1065 -0.2879
  391MPD2    C2 5894   2.277   0.618  10.951  0.0003  0.8561  0.0306
  391MPD2    C3 5895   2.189   0.592  10.848  0.1741  0.4325 -0.0607
  391MPD2    C4 5896   2.058   0.557  10.874  0.0521  0.0310 -0.3903
  391MPD2    C5 5897   2.018   0.551  11.004  0.0904 -0.2177  0.2824
  391MPD2     H 5898   2.378   0.649  10.925 -0.3052  3.1870  1.6054
  391MPD2    H1 5899   1.977   0.543  10.804  0.2522 -0.0572 -0.6039
  391MPD2    H2 5900   2.071   0.546  11.208  1.7751  0.8961  1.8114
  391MPD2    H3 5901   1.919   0.512  11.025  0.9313 -0.3940  3.9684
  391MPD2     N 5902   2.226   0.608  10.719 -0.3348  0.4393  0.1181
  391MPD2    H5 5903   2.327   0.618  10.711  0.1675 -2.7529  2.4230
  391MPD2    N1 5904   2.319   0.633  11.200  0.4138 -0.8505  0.2123
  391MPD2    H7 5905   2.264   0.638  11.285 -0.0764 -3.2746  0.0283
  392TMC3    C1 5906   2.227   0.581  10.488 -0.3711 -0.2482 -0.4710
  392TMC3    C2 5907   2.172   0.644  10.381 -0.0297 -0.2079 -0.3952
  392TMC3    C3 5908   2.254   0.670  10.278 -0.1738  0.2250  0.2401
  392TMC3    C4 5909   2.359   0.548  10.499 -0.0133 -0.2823 -0.4942
  392TMC3    C5 5910   2.432   0.562  10.384 -0.1813 -0.8626 -0.2633
  392TMC3    C6 5911   2.379   0.618  10.272  0.0623 -0.5492  0.0836
  392TMC3     C 5912   2.152   0.578  10.606  0.3760  0.6212  0.2606
  392TMC3     O 5913   2.028   0.577  10.596 -0.4771 -0.3178 -0.0845
  392TMC3     H 5914   2.073   0.687  10.394 -0.4974 -1.4038  0.0286
  392TMC3    H1 5915   2.415   0.503  10.580  0.1444 -0.0832 -0.4911
  392TMC3    H2 5916   2.437   0.620  10.181  1.2295 -0.1355  0.8417
  392TMC3    C7 5917   2.575   0.562  10.399 -0.7029  0.5645 -0.3787
  392TMC3    C8 5918   2.192   0.751  10.179 -0.0702 -0.4183  0.4595
  392TMC3    O1 5919   2.619   0.602  10.503  0.5176  0.1982 -0.1507
  392TMC3    O2 5920   2.078   0.779  10.203 -0.0921  0.0122 -0.1969
  393TMC3    C1 5921   1.466   3.334  10.500  0.4292  0.1336 -0.6862
  393TMC3    C2 5922   1.385   3.290  10.605 -0.2821 -0.5226  0.5491
  393TMC3    C3 5923   1.335   3.164  10.603 -0.3828  0.3944 -0.2210
  393TMC3    C4 5924   1.502   3.251  10.393  0.0578  0.1250  0.4185
  393TMC3    C5 5925   1.439   3.125  10.386  0.0695 -0.5236  0.4873
  393TMC3    C6 5926   1.356   3.085  10.489  0.4043 -0.5034 -0.0171
  393TMC3     C 5927   1.536   3.460  10.506  0.1719 -0.2323 -0.2269
  393TMC3     O 5928   1.655   3.451  10.485 -0.1893  0.7157 -0.1222
  393TMC3     H 5929   1.358   3.368  10.677  1.0135 -0.6537  1.1679
  393TMC3    H1 5930   1.557   3.291  10.308 -1.1168  0.0317 -0.3900
  393TMC3    H2 5931   1.313   2.986  10.481  0.4971 -0.4848 -0.6820
  393TMC3    C7 5932   1.454   3.035  10.273 -0.0634 -0.4227  0.8824
  393TMC3    C8 5933   1.235   3.124  10.704  0.2393  0.2155 -0.2030
  393TMC3    O1 5934   1.370   2.945  10.257  0.3633 -0.0855 -0.3552
  393TMC3    O2 5935   1.206   3.206  10.791 -0.0928 -0.5260  0.9151
  394TMC3    C1 5936   3.282   3.732  10.261  0.1555  0.0144 -0.2540
  394TMC3    C2 5937   3.205   3.628  10.210  0.1575 -0.4353  0.7740
  394TMC3    C3 5938   3.157   3.654  10.077 -0.3541  0.5844 -0.1175
  394TMC3    C4 5939   3.313   3.849  10.197 -0.8170  0.2047  0.0343
  394TMC3    C5 5940   3.265   3.865  10.072 -0.2104 -0.2275 -0.4902
  394TMC3    C6 5941   3.188   3.772  10.011 -0.2794  0.1790 -0.7023
  394TMC3     C 5942   3.326   3.701  10.400  0.3584  0.3622  0.0397
  394TMC3     O 5943   3.266   3.606  10.455 -0.1778 -0.1804  0.3963
  394TMC3     H 5944   3.185   3.537  10.266  3.3786 -2.2433 -1.0017
  394TMC3    H1 5945   3.381   3.924  10.236 -1.1996 -0.0658  1.2178
  394TMC3    H2 5946   3.151   3.799   9.913  0.2479  0.8566 -0.7150
  394TMC3    C7 5947   3.357   3.938   9.992  0.2942  0.8388  0.9486
  394TMC3    C8 5948   3.081   3.554  10.005  0.0072  0.1996  0.1204
  394TMC3    O1 5949   3.474   3.934  10.020 -0.1453 -0.0740  0.3180
  394TMC3    O2 5950   3.008   3.597   9.910 -0.5865  0.0222  0.9683
  395TMC3    C1 5951   2.920   1.191  14.355 -0.5538  0.2770 -0.2592
  395TMC3    C2 5952   2.859   1.217  14.239  0.3557 -0.4356  0.1004
  395TMC3    C3 5953   2.926   1.300  14.151 -0.2336 -0.2112  0.3294
  395TMC3    C4 5954   3.037   1.250  14.396 -0.9740 -0.2357 -0.6918
  395TMC3    C5 5955   3.099   1.336  14.315 -0.1092  0.7570 -0.3586
  395TMC3    C6 5956   3.042   1.368  14.190  0.0559  0.6026  0.5664
  395TMC3     C 5957   2.866   1.094  14.453 -0.1537  0.4141  0.2821
  395TMC3     O 5958   2.906   1.093  14.569 -0.3056 -0.1935 -0.0097
  395TMC3     H 5959   2.759   1.177  14.224  0.1208  0.3050 -0.3018
  395TMC3    H1 5960   3.087   1.215  14.486  0.8309  0.6733 -1.3486
  395TMC3    H2 5961   3.091   1.440  14.125 -1.1345  0.4172 -0.5453
  395TMC3    C7 5962   3.205   1.413  14.376 -0.0428  0.5514  0.0037
  395TMC3    C8 5963   2.881   1.318  14.016 -0.0705  0.4559 -0.3865
  395TMC3    O1 5964   3.219   1.401  14.498  0.8963  0.0117  0.0274
  395TMC3    O2 5965   2.923   1.413  13.953 -0.2236 -0.2583 -0.5234
  396MPD2     C 5966   2.751   2.173  16.630 -0.3767  0.4792  0.1608
  396MPD2    C1 5967   2.871   2.211  16.694 -0.2762 -0.2597 -0.1235
  396MPD2    C2 5968   2.953   2.307  16.627 -0.3175  0.3833  1.2800
  396MPD2    C3 5969   2.911   2.352  16.502  0.3971 -0.4629 -0.6067
  396MPD2    C4 5970   2.793   2.303  16.440 -0.4807  0.3471  0.2611
  396MPD2    C5 5971   2.710   2.214  16.501  0.0020 -0.7509 -0.4421
  396MPD2     H 5972   3.044   2.343  16.673 -0.9472  1.5908  1.6158
  396MPD2    H1 5973   2.752   2.340  16.346 -1.7354  1.4888  1.2477
  396MPD2    H2 5974   2.695   2.100  16.687 -1.3938  1.2646  0.1593
  396MPD2    H3 5975   2.616   2.175  16.465 -0.5680 -0.4738  0.7334
  396MPD2     N 5976   3.000   2.436  16.426 -0.0743 -0.4657  0.4868
  396MPD2    H5 5977   3.083   2.464  16.477  0.1150 -0.8164  0.3694
  396MPD2    N1 5978   2.902   2.162  16.825  0.6900 -0.1537  0.1573
  396MPD2    H7 5979   2.858   2.077  16.857 -1.0276  0.7952  0.2807
  397TMC3    C1 5980   3.046   2.114  17.004 -0.7547  0.1759  0.0759
  397TMC3    C2 5981   3.161   2.066  16.954 -0.3143 -0.6542 -0.1811
  397TMC3    C3 5982   3.160   1.947  16.898 -0.2260 -0.8029  0.9046
  397TMC3    C4 5983   2.951   2.034  17.039  0.3402 -0.7851 -0.0875
  397TMC3    C5 5984   2.963   1.897  17.019 -0.7797 -0.1571 -0.5357
  397TMC3    C6 5985   3.063   1.853  16.941  0.1381  0.2308  0.2925
  397TMC3     C 5986   2.996   2.214  16.908 -0.1056  0.3663 -0.3845
  397TMC3     O 5987   3.055   2.316  16.901 -0.1799 -0.3848 -0.1576
  397TMC3     H 5988   3.228   2.145  16.922 -0.5211 -0.0137  0.9382
  397TMC3    H1 5989   2.869   2.070  17.101  1.4422  1.3204  0.1502
  397TMC3    H2 5990   3.066   1.753  16.898 -2.0010  0.2310  0.1053
  397TMC3    C7 5991   2.889   1.810  17.113 -0.5980 -0.8067  0.6317
  397TMC3    C8 5992   3.167   1.950  16.754 -0.5861 -0.0745  0.3005
  397TMC3    O1 5993   2.809   1.864  17.188  0.1217 -0.1131 -0.7247
  397TMC3    O2 5994   3.093   1.870  16.697 -0.1589  0.3077  0.1714
  398MPD2     C 5995   0.963   3.942   0.022  0.4741  0.0705 -0.3685
  398MPD2    C1 5996   1.047   3.841   0.068  0.1685  0.0678 -0.0703
  398MPD2    C2 5997   1.165   3.868   0.136  0.5286  0.3379 -0.7202
  398MPD2    C3 5998   1.200   3.997   0.160  0.3650 -0.2419 -0.1334
  398MPD2    C4 5999   1.120   4.097   0.115 -0.5207 -0.0028 -0.2914
  398MPD2    C5 6000   1.007   4.064   0.047  0.4915  0.2331 -0.4725
  398MPD2     H 6001   1.223   3.782   0.168  1.2907  1.0042 -0.2920
  398MPD2    H1 6002   1.134   4.200   0.148  2.6058  0.3796 -2.9335
  398MPD2    H2 6003   0.869   3.925  17.706  0.9411 -0.8591 -0.9167
  398MPD2    H3 6004   0.948   4.145   0.006 -2.5983 -1.4984  0.6139
  398MPD2     N 6005   1.323   4.018   0.224  0.2635  0.1086 -0.6398
  398MPD2    H5 6006   1.364   3.935   0.266  2.0592  1.2972 -0.0487
  398MPD2    N1 6007   1.035   3.703   0.031  0.1346 -0.0140  0.0653
  398MPD2    H7 6008   1.113   3.641   0.053  0.6422  0.7506  0.4273
  399TMC3    C1 6009   0.956   3.510  17.673  1.0117  0.8414 -0.1682
  399TMC3    C2 6010   1.022   3.438   0.034 -0.2861 -0.2516  0.1118
  399TMC3    C3 6011   1.032   3.301   0.018  0.0407  0.1937  0.4469
  399TMC3    C4 6012   0.904   3.449  17.557  0.0317  0.3536 -0.6451
  399TMC3    C5 6013   0.938   3.317  17.533 -0.2409 -0.3192 -0.1168
  399TMC3    C6 6014   0.995   3.238  17.635 -0.2152 -0.0652 -0.4628
  399TMC3     C 6015   0.930   3.650  17.688 -0.3419  0.3812 -0.6355
  399TMC3     O 6016   0.841   3.710  17.637  0.3486  0.4491 -0.2712
  399TMC3     H 6017   1.038   3.488   0.128 -1.2856 -1.7030  1.0543
  399TMC3    H1 6018   0.867   3.517  17.481  0.1003  0.7465 -0.3283
  399TMC3    H2 6019   1.031   3.138  17.609 -0.6887 -0.7807  1.6666
  399TMC3    C7 6020   0.857   3.253  17.429 -0.0130 -0.4611 -0.4302
  399TMC3    C8 6021   1.128   3.243   0.102 -0.8605 -0.2365 -0.1700
  399TMC3    O1 6022   0.824   3.317  17.334 -0.1958  0.0428  0.2185
  399TMC3    O2 6023   1.164   3.316   0.193  0.2390  0.1369  0.1182
  400TMC3    C1 6024   4.263   1.616  16.704 -0.5947 -0.1299 -0.0770
  400TMC3    C2 6025   4.160   1.525  16.721 -0.0188 -0.0821 -0.1705
  400TMC3    C3 6026   4.071   1.509  16.619 -0.9161 -0.4815  0.4795
  400TMC3    C4 6027   4.274   1.690  16.591  0.1604  0.3166 -0.3034
  400TMC3    C5 6028   4.170   1.687  16.508 -0.3235 -0.3026  0.6896
  400TMC3    C6 6029   4.077   1.588  16.507  0.7032 -0.0727 -0.8991
  400TMC3     C 6030   4.359   1.627  16.819  0.4195 -0.3496 -0.4078
  400TMC3     O 6031   4.367   1.540  16.901 -0.1679 -0.3505  0.6607
  400TMC3     H 6032   4.144   1.471  16.813 -1.0209 -0.0430 -0.3292
  400TMC3    H1 6033   4.358   1.757  16.573  0.5694 -0.3046 -0.6806
  400TMC3    H2 6034   3.999   1.590  16.431 -1.2797  1.7472  1.1536
  400TMC3    C7 6035   4.167   1.798  16.412  0.1853  0.3048  1.1569
  400TMC3    C8 6036   4.025   1.375  16.605  1.1583  0.7531 -0.3862
  400TMC3    O1 6037   4.105   1.767  16.310 -0.4055 -0.7876  0.7250
  400TMC3    O2 6038   3.973   1.327  16.704 -0.0483 -0.8400 -0.1770
  401MPD2     C 6039   2.566   0.675   0.671  0.3057 -0.4942  0.3086
  401MPD2    C1 6040   2.657   0.599   0.739 -0.2635  0.1550 -0.2287
  401MPD2    C2 6041   2.630   0.477   0.794 -0.4951  0.3263 -0.7217
  401MPD2    C3 6042   2.511   0.424   0.768  0.3963  0.3496 -0.3613
  401MPD2    C4 6043   2.418   0.498   0.698  0.2163  0.0934  0.8188
  401MPD2    C5 6044   2.450   0.617   0.640 -0.1662 -0.9751 -0.2149
  401MPD2     H 6045   2.702   0.418   0.850 -1.7776  1.0776  1.7387
  401MPD2    H1 6046   2.318   0.457   0.686  0.3061  0.3649 -0.8268
  401MPD2    H2 6047   2.576   0.777   0.637  1.1084 -1.0602 -1.1429
  401MPD2    H3 6048   2.387   0.659   0.562  1.0487  0.7496 -0.2556
  401MPD2     N 6049   2.491   0.300   0.813 -0.3277  0.4125  0.1510
  401MPD2    H5 6050   2.572   0.251   0.848  0.1416 -0.0692 -1.5733
  401MPD2    N1 6051   2.793   0.636   0.759  0.2025 -0.8250  0.8617
  401MPD2    H7 6052   2.856   0.569   0.802 -0.2546 -0.0041  2.8188
  402TMC3    C1 6053   2.407   0.086   0.838  0.5061  0.0211  0.0500
  402TMC3    C2 6054   2.505   0.064   0.929 -0.1377 -0.9992  0.8409
  402TMC3    C3 6055   2.575   4.685   0.926  0.3821  0.2600  0.0285
  402TMC3    C4 6056   2.374   4.727   0.744  0.1568  0.2055 -0.0370
  402TMC3    C5 6057   2.456   4.618   0.743 -0.0932 -0.1078  0.3404
  402TMC3    C6 6058   2.542   4.588   0.842  0.2776  0.1829 -0.0502
  402TMC3     C 6059   2.381   0.215   0.790  0.8950 -0.3056 -0.1636
  402TMC3     O 6060   2.279   0.235   0.728  0.8163  0.0446  0.1496
  402TMC3     H 6061   2.490   0.136   1.008  0.7057  0.6442 -0.5079
  402TMC3    H1 6062   2.324   0.022   0.652 -0.5959  2.0307  0.9594
  402TMC3    H2 6063   2.613   4.506   0.835 -0.0518 -0.1679  0.6439
  402TMC3    C7 6064   2.395   4.514   0.667 -0.9279 -0.1946  0.3445
  402TMC3    C8 6065   2.687   4.660   1.013  0.6495 -0.2347 -0.5770
  402TMC3    O1 6066   2.276   4.531   0.637 -0.2261  0.3705  0.2053
  402TMC3    O2 6067   2.769   4.574   0.981 -0.1681 -0.4561  0.1866
  403MPD2     C 6068   1.446   2.542  13.215 -0.1269 -0.2489 -0.3062
  403MPD2    C1 6069   1.347   2.594  13.298  0.4348 -0.2765  0.3564
  403MPD2    C2 6070   1.381   2.599  13.436 -0.9347  0.2808 -0.7944
  403MPD2    C3 6071   1.498   2.569  13.486  0.1063 -0.5788 -0.5784
  403MPD2    C4 6072   1.596   2.526  13.397 -0.8357 -0.5195 -0.2571
  403MPD2    C5 6073   1.570   2.513  13.267  0.2853  0.4381  0.0360
  403MPD2     H 6074   1.308   2.635  13.507  0.5874 -1.2669  1.5446
  403MPD2    H1 6075   1.701   2.512  13.419 -0.8832  0.3474  0.5249
  403MPD2    H2 6076   1.427   2.537  13.109  0.1449 -1.3339 -0.2946
  403MPD2    H3 6077   1.648   2.480  13.200  1.1768 -2.7781  2.6629
  403MPD2     N 6078   1.524   2.603  13.622  0.0028 -0.1300  0.5033
  403MPD2    H5 6079   1.451   2.650  13.675  1.8860  1.4898  1.6926
  403MPD2    N1 6080   1.226   2.630  13.245 -0.6489  0.0184  0.0249
  403MPD2    H7 6081   1.225   2.638  13.143  1.0947 -1.7957 -0.1407
  404TMC3    C1 6082   0.999   2.698  13.238  0.1014 -0.2506  0.6244
  404TMC3    C2 6083   0.878   2.712  13.307 -0.0448 -0.0228  0.5985
  404TMC3    C3 6084   0.764   2.744  13.237  0.7280 -0.3018  0.3358
  404TMC3    C4 6085   1.004   2.707  13.104 -0.8629  0.2275  0.1314
  404TMC3    C5 6086   0.891   2.748  13.039  0.3095  0.1617 -0.8678
  404TMC3    C6 6087   0.765   2.758  13.098  0.1496 -0.5670  0.1394
  404TMC3     C 6088   1.116   2.667  13.320  0.5730 -0.4592  0.1535
  404TMC3     O 6089   1.093   2.656  13.443 -0.2001 -0.8113 -0.5783
  404TMC3     H 6090   0.882   2.734  13.413  1.8162  0.6427  0.4051
  404TMC3    H1 6091   1.090   2.672  13.049 -1.4579 -1.1379  0.0715
  404TMC3    H2 6092   0.678   2.804  13.050 -0.2460 -1.7967 -0.3101
  404TMC3    C7 6093   0.896   2.763  12.896 -0.1109  0.2454  1.2954
  404TMC3    C8 6094   0.639   2.776  13.306  0.7739 -0.5046  0.0437
  404TMC3    O1 6095   1.001   2.803  12.857  0.2389 -0.4893 -0.3829
  404TMC3    O2 6096   0.558   2.835  13.239 -0.1174 -0.3265  0.5588
  405MPD2     C 6097   1.537   3.870  14.384 -0.7427  0.0648 -0.0240
  405MPD2    C1 6098   1.431   3.847  14.291  0.3986 -0.5088 -0.0752
  405MPD2    C2 6099   1.309   3.902  14.327 -0.6093  0.0144  0.7496
  405MPD2    C3 6100   1.274   3.963  14.441  0.7598  0.3190 -0.9583
  405MPD2    C4 6101   1.377   3.973  14.536 -0.6788  0.0559 -0.2072
  405MPD2    C5 6102   1.504   3.929  14.503  0.6191  0.3793 -1.1109
  405MPD2     H 6103   1.226   3.900  14.256 -0.3982 -0.6606  0.5214
  405MPD2    H1 6104   1.356   4.014  14.634  2.3920  1.4305 -0.1496
  405MPD2    H2 6105   1.636   3.835  14.359 -0.6185 -0.3682  1.0790
  405MPD2    H3 6106   1.574   3.948  14.583 -0.2246 -2.0516  0.2059
  405MPD2     N 6107   1.144   4.015  14.460  0.0002  0.0812  0.9764
  405MPD2    H5 6108   1.079   3.992  14.385 -2.1772  1.1666  2.5419
  405MPD2    N1 6109   1.458   3.794  14.164  0.2755  0.4297 -0.1767
  405MPD2    H7 6110   1.382   3.785  14.097  0.5252 -0.7821 -0.2958
  406TMC3    C1 6111   0.728   4.061  14.611  0.7431 -0.3442 -0.3779
  406TMC3    C2 6112   0.698   3.931  14.567 -0.8319  0.0446  0.3867
  406TMC3    C3 6113   0.817   3.856  14.548 -0.2077  0.3953  0.9278
  406TMC3    C4 6114   0.859   4.102  14.637  0.4793 -0.0120  0.2314
  406TMC3    C5 6115   0.961   4.020  14.599 -0.5010 -0.1679 -0.0148
  406TMC3    C6 6116   0.943   3.892  14.554  0.8148  0.6117  0.5044
  406TMC3     C 6117   0.642   4.168  14.560  0.4034 -0.2413 -0.4855
  406TMC3     O 6118   0.632   4.268  14.630  0.4434  0.5745  0.2027
  406TMC3     H 6119   0.599   3.897  14.539 -0.6906  0.0000 -0.0558
  406TMC3    H1 6120   0.881   4.205  14.662 -1.4705  0.5044 -0.1412
  406TMC3    H2 6121   1.028   3.828  14.537 -1.4990 -1.8246 -1.7769
  406TMC3    C7 6122   1.094   4.079  14.573 -0.5757 -0.0665  0.9420
  406TMC3    C8 6123   0.781   3.736  14.476  0.8228  0.1377  0.0252
  406TMC3    O1 6124   1.154   4.132  14.670  0.4380 -0.4455  0.2235
  406TMC3    O2 6125   0.692   3.659  14.513  0.1961 -0.4830 -0.2235
  407MPD2     C 6126   3.095   0.071   9.581 -0.1974  0.1615 -0.2465
  407MPD2    C1 6127   3.237   0.071   9.573 -0.9133 -0.3505  0.1849
  407MPD2    C2 6128   3.306   0.178   9.632  0.5210  0.6108 -0.2408
  407MPD2    C3 6129   3.245   0.272   9.714  0.5722 -0.1489 -0.3440
  407MPD2    C4 6130   3.106   0.277   9.716 -0.7296 -0.0706  0.3412
  407MPD2    C5 6131   3.039   0.175   9.660 -0.0504  0.5038 -0.4798
  407MPD2     H 6132   3.413   0.193   9.623  0.3609  1.1309 -1.1973
  407MPD2    H1 6133   3.063   0.356   9.777 -0.5622  1.3203 -1.3305
  407MPD2    H2 6134   3.036   4.731   9.528 -0.5498 -0.0744  0.4764
  407MPD2    H3 6135   2.932   0.183   9.672 -0.0374  0.4312 -0.3075
  407MPD2     N 6136   3.341   0.366   9.771  0.3918  0.1834 -0.2777
  407MPD2    H5 6137   3.438   0.342   9.753  0.9810  3.0422 -1.0000
  407MPD2    N1 6138   3.312   4.716   9.499  0.3745 -0.1769  0.3846
  407MPD2    H7 6139   3.410   0.004   9.491  0.4853 -0.6772  0.3449
  408TMC3    C1 6140   3.351   4.521   9.360  0.9915  0.3042  0.7185
  408TMC3    C2 6141   3.468   4.579   9.324  0.1222  0.1258  0.0227
  408TMC3    C3 6142   3.573   4.485   9.312 -0.0628 -0.0624 -0.2515
  408TMC3    C4 6143   3.328   4.387   9.369  0.3006  0.2272 -1.0540
  408TMC3    C5 6144   3.430   4.302   9.364  0.0031  0.6660  0.0885
  408TMC3    C6 6145   3.556   4.345   9.331 -0.2566 -1.0917 -0.1448
  408TMC3     C 6146   3.253   4.603   9.442  1.2584 -0.2027 -0.0593
  408TMC3     O 6147   3.157   4.543   9.485 -0.1809  0.0761  0.0542
  408TMC3     H 6148   3.486   4.686   9.323  2.0735 -0.1702  1.9414
  408TMC3    H1 6149   3.230   4.351   9.399  1.2561 -0.7175  0.9619
  408TMC3    H2 6150   3.642   4.279   9.340 -0.7578 -1.3771  2.5981
  408TMC3    C7 6151   3.430   4.168   9.422  0.5697  0.3368  0.0321
  408TMC3    C8 6152   3.717   4.522   9.292  0.4942  0.8088  0.3991
  408TMC3    O1 6153   3.534   4.106   9.436 -0.2733 -0.1247 -0.2509
  408TMC3    O2 6154   3.794   4.428   9.292 -0.6643 -1.1952 -0.7459
  409MPD2     C 6155   3.092   1.347  16.797 -0.0628  0.2991 -0.1145
  409MPD2    C1 6156   3.218   1.293  16.810 -0.3159 -0.0475  0.2512
  409MPD2    C2 6157   3.325   1.361  16.753 -0.3219 -0.1697  0.3017
  409MPD2    C3 6158   3.320   1.488  16.690  0.7479  0.0729 -1.1428
  409MPD2    C4 6159   3.188   1.533  16.668  0.6755 -0.7480  0.7513
  409MPD2    C5 6160   3.088   1.462  16.728  0.1108  0.3277  0.8511
  409MPD2     H 6161   3.419   1.310  16.768  1.3977  2.7087 -0.6804
  409MPD2    H1 6162   3.168   1.632  16.629  0.3039 -1.2479 -0.3308
  409MPD2    H2 6163   2.998   1.301  16.826  0.4281 -0.9891 -0.5723
  409MPD2    H3 6164   2.990   1.505  16.709  1.0216  1.4409 -1.3963
  409MPD2     N 6165   3.429   1.572  16.666  0.1516  0.5151  0.4008
  409MPD2    H5 6166   3.410   1.653  16.609  0.9315 -0.2306 -0.9196
  409MPD2    N1 6167   3.240   1.170  16.875  0.4548 -0.0942  0.5571
  409MPD2    H7 6168   3.332   1.127  16.871 -0.1273 -1.2916  0.0673
  410TMC3    C1 6169   3.648   1.641  16.668  0.1924  0.0602 -0.0491
  410TMC3    C2 6170   3.755   1.663  16.752 -0.8609 -0.4258 -0.0046
  410TMC3    C3 6171   3.852   1.755  16.713 -0.0093  0.1926 -0.0491
  410TMC3    C4 6172   3.632   1.712  16.556 -0.0606 -0.5121 -0.0334
  410TMC3    C5 6173   3.716   1.809  16.520  0.1421  0.8818  0.4327
  410TMC3    C6 6174   3.823   1.834  16.604 -0.0304 -0.2665  0.0493
  410TMC3     C 6175   3.554   1.541  16.713  0.0062  0.0784  0.0120
  410TMC3     O 6176   3.587   1.452  16.789  0.2872 -0.8433 -0.1865
  410TMC3     H 6177   3.756   1.619  16.852  0.8760  0.6949  0.4747
  410TMC3    H1 6178   3.553   1.672  16.493 -0.2476 -0.9176  0.4595
  410TMC3    H2 6179   3.883   1.916  16.566  1.6566 -1.9736 -0.9493
  410TMC3    C7 6180   3.701   1.891  16.398 -0.4056  0.3195 -0.3247
  410TMC3    C8 6181   3.961   1.795  16.801  0.2796 -0.3505  1.7256
  410TMC3    O1 6182   3.804   1.925  16.338 -0.4154 -0.4662 -0.2331
  410TMC3    O2 6183   4.031   1.889  16.767  0.1653 -0.5522 -0.3678
  411MPD2     C 6184   3.790   2.695  14.273  0.4059 -0.1524  0.0051
  411MPD2    C1 6185   3.702   2.628  14.348 -0.5330  0.0992 -0.2101
  411MPD2    C2 6186   3.683   2.492  14.319  0.3558 -1.1394  0.4055
  411MPD2    C3 6187   3.749   2.435  14.206  0.0787  0.3500 -0.1556
  411MPD2    C4 6188   3.849   2.505  14.139 -0.7717  0.0830 -0.5925
  411MPD2    C5 6189   3.869   2.638  14.174  0.0616 -0.2312 -0.2846
  411MPD2     H 6190   3.615   2.432  14.379  2.1064 -0.8240  2.7028
  411MPD2    H1 6191   3.897   2.459  14.053 -1.5107 -1.3369 -0.2447
  411MPD2    H2 6192   3.802   2.802  14.290  0.4544  0.0316 -1.2064
  411MPD2    H3 6193   3.942   2.703  14.128 -0.9501  0.6146 -0.6729
  411MPD2     N 6194   3.715   2.309  14.156  0.2559  0.4547  0.2390
  411MPD2    H5 6195   3.765   2.281  14.071  0.2620  0.2803  0.2993
  411MPD2    N1 6196   3.634   2.709  14.439  0.1143 -0.7024 -0.1264
  411MPD2    H7 6197   3.659   2.807  14.438  0.6638 -0.8482 -0.9662
  412TMC3    C1 6198   3.574   2.145  14.089 -0.1227 -0.6581 -0.4020
  412TMC3    C2 6199   3.511   2.027  14.114 -0.2143  0.1685 -0.1001
  412TMC3    C3 6200   3.476   1.957  14.003  0.3332  0.0312 -0.3708
  412TMC3    C4 6201   3.614   2.181  13.965 -0.4782  0.3611 -0.4161
  412TMC3    C5 6202   3.595   2.096  13.859 -0.2380  0.4751 -0.3701
  412TMC3    C6 6203   3.532   1.976  13.879 -0.3628 -0.0412  0.7007
  412TMC3     C 6204   3.614   2.230  14.198  0.7233 -0.4905 -0.3698
  412TMC3     O 6205   3.547   2.215  14.300 -0.5293 -0.5029 -0.3901
  412TMC3     H 6206   3.473   1.995  14.210  0.3749 -1.0123 -0.2588
  412TMC3    H1 6207   3.628   2.285  13.935  1.1653  0.5404  0.9255
  412TMC3    H2 6208   3.531   1.900  13.802  1.9935  0.9314 -0.3138
  412TMC3    C7 6209   3.537   2.168  13.750 -0.6574  0.0739  0.1731
  412TMC3    C8 6210   3.345   1.918  13.978 -0.4480  0.2749 -0.1208
  412TMC3    O1 6211   3.575   2.279  13.722 -0.6805 -0.0769 -1.0193
  412TMC3    O2 6212   3.325   1.899  13.859  0.3567  0.1240 -0.1084
  413MPD2     C 6213   0.397   0.296  15.317 -0.0403 -0.1326  0.3020
  413MPD2    C1 6214   0.330   0.249  15.206 -0.3594  0.1643  0.3197
  413MPD2    C2 6215   0.406   0.196  15.101  0.9712 -0.0783 -0.6582
  413MPD2    C3 6216   0.540   0.180  15.114 -0.7070 -0.0024  0.5775
  413MPD2    C4 6217   0.600   0.219  15.232  0.2525 -0.7033 -0.0383
  413MPD2    C5 6218   0.529   0.287  15.330  0.6889 -0.0297  0.1932
  413MPD2     H 6219   0.354   0.176  15.008  0.7290 -0.6562 -0.4056
  413MPD2    H1 6220   0.704   0.199  15.255  0.7944  2.2803  0.0320
  413MPD2    H2 6221   0.339   0.346  15.394 -2.8776 -1.2651 -1.0854
  413MPD2    H3 6222   0.581   0.329  15.416 -0.0090  0.8510  0.1788
  413MPD2     N 6223   0.615   0.124  15.008  0.1646 -0.6212 -0.0265
  413MPD2    H5 6224   0.562   0.088  14.930 -0.1242 -0.7293  0.2192
  413MPD2    N1 6225   0.190   0.258  15.204 -0.6260 -0.0441 -0.2997
  413MPD2    H7 6226   0.148   0.302  15.285  1.4272  1.2049  0.0829
  414TMC3    C1 6227   0.784   4.734  14.914 -0.6460  0.1148 -0.2983
  414TMC3    C2 6228   0.858   4.626  14.959  0.6499  0.3680  0.6141
  414TMC3    C3 6229   0.866   4.512  14.883  0.0968  0.3455  0.2777
  414TMC3    C4 6230   0.718   0.003  14.793  0.1177 -0.6319  0.2197
  414TMC3    C5 6231   0.733   4.624  14.718  0.0024 -0.3230  0.4632
  414TMC3    C6 6232   0.799   4.513  14.765  0.3274 -0.0297  0.3662
  414TMC3     C 6233   0.744   0.098  15.011  0.2096  0.3492  0.2606
  414TMC3     O 6234   0.838   0.122  15.089  0.4346 -0.2276  0.4146
  414TMC3     H 6235   0.917   4.635  15.050  0.1906 -0.0564  0.9550
  414TMC3    H1 6236   0.659   0.089  14.762  0.0619  0.9288  4.5882
  414TMC3    H2 6237   0.794   4.420  14.709  0.3216  0.9865 -1.3448
  414TMC3    C7 6238   0.661   4.611  14.585  0.2523  0.5616  0.0555
  414TMC3    C8 6239   0.938   4.393  14.930  0.0543 -0.1406  0.4395
  414TMC3    O1 6240   0.556   4.670  14.596  0.1686  0.0689  0.3260
  414TMC3    O2 6241   0.899   4.291  14.878  0.5172  0.4880  0.0197
  415TMC3    C1 6242   0.591   3.359  10.240  0.2431  0.2966 -0.4222
  415TMC3    C2 6243   0.641   3.484  10.224  0.8748  0.3419  0.4426
  415TMC3    C3 6244   0.584   3.560  10.125 -0.0451 -0.1522  0.3114
  415TMC3    C4 6245   0.480   3.315  10.175  0.5152  0.1351  0.0980
  415TMC3    C5 6246   0.432   3.382  10.068 -0.1428  0.3793 -1.6881
  415TMC3    C6 6247   0.488   3.508  10.041  0.4802 -0.8591 -0.4789
  415TMC3     C 6248   0.649   3.280  10.346 -1.0002 -0.6297  0.2309
  415TMC3     O 6249   0.654   3.160  10.318 -0.6186 -0.2107  0.2574
  415TMC3     H 6250   0.732   3.508  10.278  0.7439  0.6399  0.5359
  415TMC3    H1 6251   0.431   3.229  10.219 -0.9619  1.3764  0.8813
  415TMC3    H2 6252   0.445   3.565   9.959 -1.2524 -1.3382  0.0903
  415TMC3    C7 6253   0.335   3.327   9.978  0.5161 -0.2321  0.1005
  415TMC3    C8 6254   0.586   3.700  10.123 -0.4034 -0.6042 -0.1369
  415TMC3    O1 6255   0.314   3.401   9.884  0.3544 -0.2305  0.0613
  415TMC3    O2 6256   0.489   3.754  10.069 -0.0531 -0.6804 -0.8926
  416MPD2     C 6257   3.067   1.608  11.239  0.3742 -0.3747 -0.5256
  416MPD2    C1 6258   2.948   1.544  11.279 -0.7923 -1.0412  0.5723
  416MPD2    C2 6259   2.893   1.442  11.203  0.4965  0.4488 -0.7693
  416MPD2    C3 6260   2.973   1.386  11.101  0.8684 -0.4182  0.7518
  416MPD2    C4 6261   3.091   1.445  11.058 -0.0204 -0.3234  0.1338
  416MPD2    C5 6262   3.140   1.546  11.141 -0.2451 -0.2351 -0.0177
  416MPD2     H 6263   2.800   1.391  11.224  0.4924  0.7053 -0.1713
  416MPD2    H1 6264   3.156   1.404  10.982  0.9784  1.5357 -0.0312
  416MPD2    H2 6265   3.113   1.687  11.297 -2.1234  0.5797  0.1452
  416MPD2    H3 6266   3.236   1.590  11.118 -0.2255  0.3647  1.2438
  416MPD2     N 6267   2.899   1.285  11.028 -0.1251  0.2283 -0.5876
  416MPD2    H5 6268   2.821   1.241  11.075 -1.0872  0.5532 -1.8786
  416MPD2    N1 6269   2.869   1.609  11.379  0.4344  0.0073 -0.0441
  416MPD2    H7 6270   2.901   1.702  11.403  0.6107  0.3340 -1.5293
  417TMC3    C1 6271   2.674   1.696  11.475 -0.4530  0.6084  0.2838
  417TMC3    C2 6272   2.599   1.679  11.587  0.1861  0.6871 -0.4672
  417TMC3    C3 6273   2.529   1.782  11.623 -0.5807 -0.4643 -0.1133
  417TMC3    C4 6274   2.682   1.803  11.400  0.5777  0.9614 -0.3149
  417TMC3    C5 6275   2.610   1.917  11.440 -0.3717  0.1165 -0.4659
  417TMC3    C6 6276   2.527   1.900  11.549 -0.2000 -0.8393  0.0545
  417TMC3     C 6277   2.745   1.573  11.427 -0.2856  0.2128 -0.2713
  417TMC3     O 6278   2.700   1.465  11.449  0.4620 -0.1731 -0.0266
  417TMC3     H 6279   2.609   1.587  11.643  1.6393  0.4752 -1.0869
  417TMC3    H1 6280   2.750   1.815  11.316 -0.4366  1.9566 -1.0006
  417TMC3    H2 6281   2.453   1.975  11.577  1.6020  1.2453 -0.7200
  417TMC3    C7 6282   2.557   1.997  11.325 -0.3358  0.5955  1.2869
  417TMC3    C8 6283   2.461   1.786  11.757  0.7280  0.6290 -1.1395
  417TMC3    O1 6284   2.598   1.957  11.218 -0.5453  0.1084 -0.4428
  417TMC3    O2 6285   2.405   1.889  11.787  0.5316  0.5392  0.6252
  418TMC3    C1 6286   1.726   4.074   0.304 -0.2400  1.0753 -0.0986
  418TMC3    C2 6287   1.620   4.147   0.261 -0.3197  0.0638  0.5668
  418TMC3    C3 6288   1.499   4.134   0.324  0.5572  0.1745 -0.2565
  418TMC3    C4 6289   1.709   3.989   0.411  0.3040 -0.0642 -0.4263
  418TMC3    C5 6290   1.587   3.976   0.478 -0.4384 -0.4397 -0.1428
  418TMC3    C6 6291   1.476   4.049   0.434 -0.2446  0.6695 -0.3710
  418TMC3     C 6292   1.830   4.032   0.207  0.1765 -0.2887 -0.0052
  418TMC3     O 6293   1.853   3.911   0.206 -0.3692  0.7949 -0.1165
  418TMC3     H 6294   1.620   4.192   0.163  2.1996  1.2319  1.1018
  418TMC3    H1 6295   1.785   3.922   0.449  0.2231 -0.8733 -1.6931
  418TMC3    H2 6296   1.378   4.042   0.479 -0.1535 -0.1291 -0.2924
  418TMC3    C7 6297   1.573   3.894   0.600  0.2571 -0.8602 -0.4487
  418TMC3    C8 6298   1.387   4.140   0.235 -0.3646 -0.2774 -0.3181
  418TMC3    O1 6299   1.494   3.924   0.688  0.4249 -0.3572  0.0265
  418TMC3    O2 6300   1.380   4.226   0.151 -0.5906 -0.3833 -0.0525
  419MPD2     C 6301   4.531   1.489  12.891 -0.9798 -0.9079 -0.7468
  419MPD2    C1 6302   4.412   1.554  12.866  0.0519  0.0328  0.0843
  419MPD2    C2 6303   4.334   1.604  12.966 -0.3562  0.3467  0.3919
  419MPD2    C3 6304   4.358   1.577  13.094  0.2302 -0.2454 -0.1499
  419MPD2    C4 6305   4.475   1.503  13.124 -1.2925  0.1454 -0.1452
  419MPD2    C5 6306   4.558   1.465  13.022 -0.3983 -0.0651  0.1091
  419MPD2     H 6307   4.238   1.648  12.943 -1.9904 -2.0827  2.4692
  419MPD2    H1 6308   4.508   1.494  13.227  0.7191  3.1739 -0.5076
  419MPD2    H2 6309   4.594   1.451  12.811 -1.5217  0.7183 -1.9413
  419MPD2    H3 6310   4.652   1.418  13.050  0.1250  1.9590  1.7248
  419MPD2     N 6311   4.252   1.612  13.189  0.0799 -0.2933  0.3676
  419MPD2    H5 6312   4.174   1.665  13.152  0.3266 -0.2385 -0.0631
  419MPD2    N1 6313   4.392   1.613  12.738 -0.5048  0.3649 -0.3048
  419MPD2    H7 6314   4.328   1.692  12.732  1.2953  1.9346  1.0777
  420TMC3    C1 6315   4.125   1.617  13.376 -0.2775 -0.1115 -0.5490
  420TMC3    C2 6316   4.066   1.730  13.330 -0.1099  0.0429  0.4615
  420TMC3    C3 6317   3.930   1.729  13.301 -0.5779 -0.2323 -0.6818
  420TMC3    C4 6318   4.051   1.516  13.425 -0.6577  0.3628 -0.2335
  420TMC3    C5 6319   3.915   1.521  13.414  0.1207  0.1788  0.1784
  420TMC3    C6 6320   3.850   1.625  13.342 -0.2603 -0.6407 -0.1789
  420TMC3     C 6321   4.246   1.570  13.321  0.4777 -0.5453  0.6830
  420TMC3     O 6322   4.312   1.476  13.372  0.4967 -0.8528 -0.3648
  420TMC3     H 6323   4.131   1.812  13.299 -0.1426  0.7521  2.2803
  420TMC3    H1 6324   4.102   1.431  13.468 -2.8795 -0.9058 -0.0966
  420TMC3    H2 6325   3.743   1.637  13.349 -0.2234  0.4520 -1.5323
  420TMC3    C7 6326   3.842   1.425  13.502 -0.3846  0.1948  0.8617
  420TMC3    C8 6327   3.893   1.817  13.197 -0.3478 -0.0812 -0.2055
  420TMC3    O1 6328   3.912   1.380  13.594  0.2185 -0.0365  0.3147
  420TMC3    O2 6329   3.975   1.897  13.146 -0.2863 -0.7008 -0.0550
  421TMC3    C1 6330   1.670   2.670  13.800  0.4999  0.1384 -0.6491
  421TMC3    C2 6331   1.642   2.803  13.785  0.3718 -0.0106 -0.6005
  421TMC3    C3 6332   1.676   2.897  13.877 -0.1202 -0.1161  0.7909
  421TMC3    C4 6333   1.745   2.630  13.908  0.3999  0.1810 -0.5286
  421TMC3    C5 6334   1.788   2.725  13.999 -0.4240  0.4368  0.4758
  421TMC3    C6 6335   1.763   2.857  13.977  0.4056  0.0197 -0.1096
  421TMC3     C 6336   1.644   2.574  13.688 -0.2460 -0.1735  0.6354
  421TMC3     O 6337   1.734   2.489  13.665 -0.2025 -0.1155  0.5216
  421TMC3     H 6338   1.583   2.843  13.703 -1.3948  0.4588  0.9126
  421TMC3    H1 6339   1.756   2.524  13.926  0.2841  0.4736  1.2312
  421TMC3    H2 6340   1.804   2.928  14.048  1.0628  0.6363 -1.1031
  421TMC3    C7 6341   1.916   2.690  14.047 -0.2887 -0.0325 -0.5334
  421TMC3    C8 6342   1.694   3.033  13.838 -0.2080  0.6788 -0.0239
  421TMC3    O1 6343   1.973   2.773  14.118  0.7642  0.1717 -0.2030
  421TMC3    O2 6344   1.800   3.081  13.872 -0.6155  0.2255  0.3555
  422TMC3    C1 6345   3.418   4.666  12.470 -0.0381 -0.3207  1.1268
  422TMC3    C2 6346   3.399   0.012  12.581  1.0105  0.5079  0.1167
  422TMC3    C3 6347   3.316   4.696  12.681  0.1822 -0.6956  0.3071
  422TMC3    C4 6348   3.360   4.541  12.450 -0.6035  0.2267 -0.0086
  422TMC3    C5 6349   3.284   4.497  12.556 -0.4040  0.2210  0.0023
  422TMC3    C6 6350   3.260   4.572  12.670  0.1988 -0.1998  0.2526
  422TMC3     C 6351   3.507   4.724  12.368  0.7483  0.4619 -0.7425
  422TMC3     O 6352   3.580   0.086  12.393  0.0846  0.0297  0.3136
  422TMC3     H 6353   3.446   0.109  12.575 -0.0428  1.0501  0.7820
  422TMC3    H1 6354   3.361   4.481  12.359  1.6922  0.5560 -0.2022
  422TMC3    H2 6355   3.214   4.534  12.761  1.8217  0.7330  1.4535
  422TMC3    C7 6356   3.222   4.370  12.542  0.0190 -1.4997 -0.7699
  422TMC3    C8 6357   3.291   0.051  12.796  0.1877 -0.6966 -0.5398
  422TMC3    O1 6358   3.263   4.305  12.449 -0.5526  0.1634 -0.1347
  422TMC3    O2 6359   3.346   0.157  12.799  0.2829 -0.8485  0.6682
  423MPD2     C 6360   0.023   0.956   0.432  0.0950 -0.6187 -0.2297
  423MPD2    C1 6361   0.044   0.833   0.476  0.3131  0.0036 -0.2708
  423MPD2    C2 6362   0.091   0.742   0.379 -0.3609 -0.0499 -0.1027
  423MPD2    C3 6363   0.113   0.772   0.247  0.1473 -0.2810  0.5098
  423MPD2    C4 6364   0.087   0.906   0.209  0.7114  0.3502 -0.0680
  423MPD2    C5 6365   0.043   1.000   0.301 -0.7979  0.0385  0.9902
  423MPD2     H 6366   0.117   0.640   0.403  0.7118  0.4490  0.8363
  423MPD2    H1 6367   0.107   0.931   0.106  0.1518  0.1590 -0.2190
  423MPD2    H2 6368   0.008   1.041   0.497  1.3515  0.6532 -1.5830
  423MPD2    H3 6369   0.031   1.105   0.277  0.3612 -0.2143 -0.6739
  423MPD2     N 6370   0.155   0.684   0.146 -0.5796  0.9415  0.0680
  423MPD2    H5 6371   0.149   0.730   0.055 -0.2179  0.7678 -0.0432
  423MPD2    N1 6372   0.033   0.782   0.607  0.2543  0.1629  0.0311
  423MPD2    H7 6373   0.065   0.687   0.615 -1.0871 -0.1853  1.3230
  424TMC3    C1 6374   4.733   0.784   0.843  0.1037 -0.0024 -0.2089
  424TMC3    C2 6375   0.100   0.688   0.864  0.1581 -0.9451 -0.1058
  424TMC3    C3 6376   0.126   0.654   0.994 -0.1358  0.3399  0.5076
  424TMC3    C4 6377   4.677   0.854   0.946  0.2575  0.0350  0.3196
  424TMC3    C5 6378   4.708   0.815   1.069 -0.0123  0.0656  0.0277
  424TMC3    C6 6379   0.055   0.711   1.097 -0.5550  0.1965 -0.0876
  424TMC3     C 6380   4.708   0.842   0.711 -0.0292  0.1002 -0.6171
  424TMC3     O 6381   4.638   0.945   0.708 -0.2746  0.0432 -0.0183
  424TMC3     H 6382   0.162   0.652   0.783 -0.0790 -0.6149 -0.4351
  424TMC3    H1 6383   4.606   0.933   0.926 -0.6356 -0.7657  0.3288
  424TMC3    H2 6384   0.056   0.660   1.192 -0.6239  0.4219  0.0340
  424TMC3    C7 6385   4.615   0.843   1.181 -0.2925  0.0366 -0.2280
  424TMC3    C8 6386   0.235   0.558   1.018 -1.0291  0.1165  0.3813
  424TMC3    O1 6387   4.643   0.783   1.282  0.2307  0.0474  0.3064
  424TMC3    O2 6388   0.266   0.492   0.921  0.2492  0.5370 -0.4801
  425MPD2     C 6389   4.144   0.221  16.985  0.9919  0.3810  0.6603
  425MPD2    C1 6390   4.107   0.114  17.062 -0.6032  0.9388  0.4617
  425MPD2    C2 6391   4.009   0.140  17.156 -0.2157  0.1631 -0.0127
  425MPD2    C3 6392   3.956   0.271  17.170 -0.1235  0.6530 -0.1281
  425MPD2    C4 6393   4.007   0.373  17.096  0.0634  0.5807  0.4514
  425MPD2    C5 6394   4.099   0.348  17.004 -0.1419 -0.4198 -0.0030
  425MPD2     H 6395   3.973   0.061  17.221 -0.3378  0.4829  0.3086
  425MPD2    H1 6396   3.995   0.478  17.120 -0.7089  1.0534 -1.9838
  425MPD2    H2 6397   4.232   0.201  16.926  0.8857 -2.3500  1.4552
  425MPD2    H3 6398   4.143   0.435  16.957 -1.4808 -0.3083 -1.0723
  425MPD2     N 6399   3.848   0.277  17.270 -0.4037  0.0559 -0.1424
  425MPD2    H5 6400   3.830   0.188  17.317  0.4945 -0.6930 -1.2162
  425MPD2    N1 6401   4.152   4.721  17.039 -0.1912  0.1074 -0.0515
  425MPD2    H7 6402   4.214   4.708  16.960 -1.0224  1.9175 -1.0054
  426TMC3    C1 6403   4.172   4.489  17.054  0.6182 -0.2729  0.1645
  426TMC3    C2 6404   4.206   4.471  16.918 -0.2292  0.9405  0.4679
  426TMC3    C3 6405   4.245   4.349  16.881  0.4709  0.3889  1.1713
  426TMC3    C4 6406   4.179   4.383  17.141  0.1299  1.1099 -0.4578
  426TMC3    C5 6407   4.230   4.263  17.097  0.4407  0.0503 -0.0766
  426TMC3    C6 6408   4.259   4.245  16.968  0.1855  0.5079  0.1567
  426TMC3     C 6409   4.122   4.613  17.107 -0.6606  0.1626 -0.1557
  426TMC3     O 6410   4.049   4.596  17.204 -0.2371 -0.2155 -0.1327
  426TMC3     H 6411   4.192   4.540  16.836  0.0820 -0.9464 -1.1756
  426TMC3    H1 6412   4.148   4.399  17.243  0.2303 -0.6023 -0.1649
  426TMC3    H2 6413   4.273   4.147  16.924  0.1684 -0.0115  1.3136
  426TMC3    C7 6414   4.165   4.153  17.158  0.0358  0.5203  0.3447
  426TMC3    C8 6415   4.242   4.312  16.738 -0.1005 -0.1914 -0.3619
  426TMC3    O1 6416   4.216   4.043  17.155 -0.3944 -0.6874 -0.3811
  426TMC3    O2 6417   4.327   4.241  16.684 -0.7158 -0.4188 -0.4703
  427MPD2     C 6418   2.681   1.893  14.597 -0.5472  0.2285  0.7519
  427MPD2    C1 6419   2.631   1.914  14.732  0.4475  0.2851  0.0215
  427MPD2    C2 6420   2.495   1.914  14.742  0.1458  0.5069  0.1436
  427MPD2    C3 6421   2.404   1.919  14.638 -0.5798 -0.5765  0.7964
  427MPD2    C4 6422   2.454   1.904  14.512 -0.0967 -0.1913 -0.6471
  427MPD2    C5 6423   2.588   1.888  14.492 -0.3389  0.4063  0.0930
  427MPD2     H 6424   2.458   1.923  14.844 -1.2620  0.7898 -0.3868
  427MPD2    H1 6425   2.393   1.881  14.425  2.1051  0.0859 -2.2640
  427MPD2    H2 6426   2.784   1.886  14.564  0.0057  2.3150  2.0565
  427MPD2    H3 6427   2.618   1.863  14.391 -1.7677 -0.0208 -0.2266
  427MPD2     N 6428   2.266   1.932  14.658  0.5553  0.4962  0.1984
  427MPD2    H5 6429   2.205   1.942  14.578  2.1645 -0.3854 -1.1489
  427MPD2    N1 6430   2.711   1.901  14.845  0.3913  0.0610  0.5489
  427MPD2    H7 6431   2.664   1.881  14.933 -1.9616 -0.6242 -0.8716
  428TMC3    C1 6432   2.890   1.848  14.970 -0.7109 -0.2290 -0.6285
  428TMC3    C2 6433   2.812   1.756  15.035  0.0320 -0.2260  0.4278
  428TMC3    C3 6434   2.871   1.705  15.147 -0.4400  0.2795  0.3982
  428TMC3    C4 6435   3.021   1.882  15.005  0.5852 -0.4641  0.0245
  428TMC3    C5 6436   3.073   1.819  15.114  0.0583 -0.6247 -0.1065
  428TMC3    C6 6437   2.999   1.737  15.192 -0.1001  0.4201 -0.0650
  428TMC3     C 6438   2.843   1.894  14.842  0.2609  0.3141  0.0674
  428TMC3     O 6439   2.931   1.939  14.765  0.3584  0.1252  0.3988
  428TMC3     H 6440   2.713   1.735  14.997  0.2578 -0.3212 -0.1228
  428TMC3    H1 6441   3.072   1.957  14.945 -1.4102  0.6790 -0.2442
  428TMC3    H2 6442   3.046   1.685  15.274  0.4653  0.1574 -0.5576
  428TMC3    C7 6443   3.199   1.867  15.169  0.0426  0.6860  0.4104
  428TMC3    C8 6444   2.805   1.590  15.206  0.0074 -0.0425 -0.0220
  428TMC3    O1 6445   3.209   1.861  15.290  0.1494 -0.2126 -0.2231
  428TMC3    O2 6446   2.717   1.530  15.140  0.3494  0.1773 -0.1832
  429MPD2     C 6447   3.914   2.446  17.348 -0.3251  0.2778  0.2090
  429MPD2    C1 6448   3.961   2.343  17.271 -0.7423 -1.0680  0.9954
  429MPD2    C2 6449   3.997   2.365  17.143  0.8645 -0.2275  0.4916
  429MPD2    C3 6450   3.998   2.497  17.088 -0.1193  0.0394 -0.2670
  429MPD2    C4 6451   3.944   2.601  17.166  0.6588 -0.8896 -0.3773
  429MPD2    C5 6452   3.908   2.576  17.296  0.7893  0.6855 -0.4461
  429MPD2     H 6453   4.028   2.285  17.076  3.0685 -1.0630  2.5320
  429MPD2    H1 6454   3.934   2.702  17.130  1.2485  0.5676  3.5330
  429MPD2    H2 6455   3.887   2.426  17.451 -1.6893  0.3943 -0.1341
  429MPD2    H3 6456   3.872   2.658  17.356  1.6429  0.9300 -0.2679
  429MPD2     N 6457   4.038   2.516  16.957  0.3527 -0.5274 -0.2870
  429MPD2    H5 6458   4.075   2.438  16.904  0.0314 -1.4084  0.7951
  429MPD2    N1 6459   3.960   2.216  17.324  0.0135 -0.3277  0.7331
  429MPD2    H7 6460   3.927   2.217  17.420 -1.1300  0.8470  0.3331
  430TMC3    C1 6461   4.127   2.629  16.766 -0.6222  0.3873 -0.6194
  430TMC3    C2 6462   4.113   2.730  16.673  0.4740  0.2782  0.4057
  430TMC3    C3 6463   4.209   2.731  16.567 -0.5385 -0.0163  0.0141
  430TMC3    C4 6464   4.225   2.536  16.763 -0.0021 -0.5930 -0.0846
  430TMC3    C5 6465   4.319   2.542  16.666  0.4262 -0.0052 -0.2449
  430TMC3    C6 6466   4.311   2.643  16.568  0.2793  0.6593 -0.0169
  430TMC3     C 6467   4.041   2.635  16.882 -0.1261  0.6377 -0.4479
  430TMC3     O 6468   3.991   2.749  16.907  0.0412 -0.4089 -0.3628
  430TMC3     H 6469   4.032   2.802  16.674 -0.0198 -0.2375 -1.5760
  430TMC3    H1 6470   4.234   2.460  16.839  1.5309 -1.9334 -1.6112
  430TMC3    H2 6471   4.386   2.648  16.490 -0.1423  2.3330 -0.3098
  430TMC3    C7 6472   4.333   2.413  16.605  0.1936 -0.1581  0.4685
  430TMC3    C8 6473   4.148   2.729  16.434  0.7209 -0.2668 -0.4115
  430TMC3    O1 6474   4.359   2.323  16.681  0.0985 -0.6149 -0.0111
  430TMC3    O2 6475   4.177   2.634  16.365 -0.1250 -0.2564 -0.6152
  431MPD2     C 6476   4.444   2.459  12.707 -0.4635  0.2938 -0.0159
  431MPD2    C1 6477   4.530   2.421  12.606 -0.0978  0.4871  0.2768
  431MPD2    C2 6478   4.538   2.290  12.562  0.2047 -0.1737  0.4275
  431MPD2    C3 6479   4.464   2.192  12.630 -1.0746  0.0596 -0.6993
  431MPD2    C4 6480   4.383   2.226  12.734  0.7603  0.3072  0.2731
  431MPD2    C5 6481   4.374   2.360  12.768  0.1353 -0.6428 -0.3425
  431MPD2     H 6482   4.588   2.265  12.469  0.8796  2.1570  0.1541
  431MPD2    H1 6483   4.314   2.154  12.776  0.3528  0.7283  0.3284
  431MPD2    H2 6484   4.430   2.562  12.738 -0.1082 -0.1135  1.5125
  431MPD2    H3 6485   4.297   2.395  12.837  0.4082  0.0765 -0.4050
  431MPD2     N 6486   4.467   2.055  12.580  0.0552 -0.0108 -0.2215
  431MPD2    H5 6487   4.400   1.988  12.617 -0.0363  1.5318  2.3808
  431MPD2    N1 6488   4.609   2.519  12.540 -1.0174  0.3096  0.2113
  431MPD2    H7 6489   4.670   2.482  12.468 -1.2590  0.8572 -0.2766
  432TMC3    C1 6490   4.528   1.861  12.447 -0.2216 -0.1837  0.3753
  432TMC3    C2 6491   4.573   1.814  12.329 -0.3071 -0.0143 -0.1444
  432TMC3    C3 6492   4.552   1.675  12.313 -0.1060 -0.3122 -0.3856
  432TMC3    C4 6493   4.468   1.776  12.539 -0.0024 -0.3034  0.2744
  432TMC3    C5 6494   4.450   1.643  12.517 -0.2238  0.0136 -0.4919
  432TMC3    C6 6495   4.501   1.588  12.402  0.3965  0.3284  0.1001
  432TMC3     C 6496   4.545   2.008  12.474 -0.4642  0.3438 -0.2212
  432TMC3     O 6497   4.635   2.056  12.407 -0.7621 -0.2814  0.1154
  432TMC3     H 6498   4.608   1.888  12.258  1.3946  0.9432  1.6772
  432TMC3    H1 6499   4.432   1.816  12.633 -1.7819 -1.5668  0.1374
  432TMC3    H2 6500   4.481   1.485  12.373 -2.0929  0.9532 -0.4586
  432TMC3    C7 6501   4.450   1.554  12.627 -0.9447  0.3919 -0.1511
  432TMC3    C8 6502   4.627   1.622  12.196 -0.0907 -0.3448 -0.4724
  432TMC3    O1 6503   4.513   1.449  12.608 -0.3706  0.3296 -0.0294
  432TMC3    O2 6504   4.588   1.517  12.150  0.3029 -0.0315 -0.8425
  433MPD2     C 6505   3.694   0.782  10.699 -0.5554 -0.5636  0.1757
  433MPD2    C1 6506   3.573   0.729  10.744 -0.1983 -0.0004 -0.3227
  433MPD2    C2 6507   3.541   0.755  10.875  0.3899  0.4426 -0.0156
  433MPD2    C3 6508   3.612   0.849  10.949 -0.1307  0.4533  0.2616
  433MPD2    C4 6509   3.713   0.915  10.899 -0.3366 -0.2390  0.9269
  433MPD2    C5 6510   3.760   0.873  10.777  0.4670  0.3660  0.1313
  433MPD2     H 6511   3.455   0.707  10.920 -0.3564 -0.3314 -2.3306
  433MPD2    H1 6512   3.779   0.975  10.960 -2.3248  1.3530  1.5016
  433MPD2    H2 6513   3.732   0.780  10.597  0.2059  0.3759  0.4411
  433MPD2    H3 6514   3.855   0.907  10.738  0.1061 -1.0438 -2.0175
  433MPD2     N 6515   3.584   0.853  11.086  0.0202  0.4853 -0.2961
  433MPD2    H5 6516   3.508   0.794  11.118  0.4802  0.5407  0.9062
  433MPD2    N1 6517   3.498   0.659  10.653 -0.2962  0.2471  0.6489
  433MPD2    H7 6518   3.530   0.649  10.557 -1.7201 -0.4633  0.2458
  434TMC3    C1 6519   3.325   0.507  10.580  0.3132  0.0269 -0.7346
  434TMC3    C2 6520   3.286   0.387  10.635  0.6288 -0.5387 -0.1682
  434TMC3    C3 6521   3.355   0.285  10.581  0.1237  0.5719 -0.6977
  434TMC3    C4 6522   3.372   0.515  10.451  0.0627 -0.3487 -0.0450
  434TMC3    C5 6523   3.411   0.400  10.388  0.4158 -0.0927  1.1649
  434TMC3    C6 6524   3.424   0.289  10.463  0.0242  0.1336  0.1706
  434TMC3     C 6525   3.376   0.598  10.677  0.2621  0.6023 -0.2431
  434TMC3     O 6526   3.308   0.594  10.775 -0.6033  0.2559  0.1208
  434TMC3     H 6527   3.252   0.388  10.738  2.2068 -1.4343  0.3594
  434TMC3    H1 6528   3.376   0.615  10.409  1.3387 -0.6650 -0.6655
  434TMC3    H2 6529   3.472   0.199  10.427  0.6745 -0.5056  2.6423
  434TMC3    C7 6530   3.354   0.393  10.257  0.7727 -0.0647  0.3334
  434TMC3    C8 6531   3.406   0.186  10.681  1.3068 -0.3545 -0.2262
  434TMC3    O1 6532   3.298   0.498  10.223  0.2107 -0.1717  0.0608
  434TMC3    O2 6533   3.372   0.197  10.801  0.1075  0.0544 -0.6172
  435MPD2     C 6534   0.968   0.912  15.321 -0.4125  0.3450  0.2795
  435MPD2    C1 6535   0.946   0.902  15.452 -0.2418 -0.3548  0.3373
  435MPD2    C2 6536   1.015   0.812  15.532  0.7766 -0.4027  0.1728
  435MPD2    C3 6537   1.115   0.734  15.480 -0.0412 -0.4379  0.1986
  435MPD2    C4 6538   1.133   0.739  15.336  0.9888  0.3295 -0.1205
  435MPD2    C5 6539   1.056   0.823  15.263  0.0722  0.1508  0.3407
  435MPD2     H 6540   1.012   0.809  15.640 -2.5513  1.7345  0.1396
  435MPD2    H1 6541   1.199   0.665  15.291 -0.3246  0.0332 -1.5428
  435MPD2    H2 6542   0.914   0.978  15.255 -2.7897  0.0143  1.9015
  435MPD2    H3 6543   1.074   0.822  15.156  1.0182  2.0624  0.4721
  435MPD2     N 6544   1.172   0.638  15.567 -0.3863 -0.1529 -0.9069
  435MPD2    H5 6545   1.129   0.632  15.658  0.2750  1.4898 -0.4755
  435MPD2    N1 6546   0.849   0.975  15.528  0.3683  0.1913 -0.2040
  435MPD2    H7 6547   0.830   0.959  15.627 -0.8002  0.4829 -0.3813
  436TMC3    C1 6548   0.558   1.140  15.770 -0.0532  0.3451 -0.3441
  436TMC3    C2 6549   0.665   1.101  15.689 -0.2731 -0.5983  0.1780
  436TMC3    C3 6550   0.666   1.132  15.559 -0.5206 -0.1495 -0.2830
  436TMC3    C4 6551   0.452   1.209  15.718  0.1060  0.0415  0.1004
  436TMC3    C5 6552   0.456   1.243  15.586  0.6256 -0.2359 -0.1133
  436TMC3    C6 6553   0.560   1.196  15.501 -0.3154 -0.4946 -0.3115
  436TMC3     C 6554   0.595   1.188  15.895  0.2855 -0.1676 -0.0537
  436TMC3     O 6555   0.714   1.200  15.920 -0.0755 -0.2920  0.4281
  436TMC3     H 6556   0.754   1.067  15.740  0.0188  0.6859  0.5246
  436TMC3    H1 6557   0.373   1.250  15.780 -0.0108  1.0334 -0.7000
  436TMC3    H2 6558   0.560   1.204  15.393  0.0726 -1.3569 -0.3752
  436TMC3    C7 6559   0.345   1.316  15.525  0.3014 -0.2733  0.7627
  436TMC3    C8 6560   0.761   1.070  15.467  0.1253  0.4294 -0.0159
  436TMC3    O1 6561   0.244   1.304  15.590 -0.0379 -0.0016  0.2919
  436TMC3    O2 6562   0.772   1.120  15.358 -0.7030 -1.2781 -0.0419
  437TMC3    C1 6563   4.276   3.141  12.096  0.0752  0.9788  0.6534
  437TMC3    C2 6564   4.218   3.242  12.033  0.7114  0.5730 -0.5018
  437TMC3    C3 6565   4.291   3.310  11.939 -0.4352  0.4891 -0.1406
  437TMC3    C4 6566   4.408   3.112  12.072  0.3159 -0.8422 -0.1862
  437TMC3    C5 6567   4.484   3.188  11.992  0.7320 -0.8049 -0.1490
  437TMC3    C6 6568   4.429   3.288  11.921 -0.1738  0.6414 -0.5463
  437TMC3     C 6569   4.194   3.052  12.167  0.6282  0.5905 -0.0454
  437TMC3     O 6570   4.238   2.941  12.186 -0.7950  0.2358  0.4976
  437TMC3     H 6571   4.110   3.247  12.022  0.7492  1.0005 -0.6710
  437TMC3    H1 6572   4.453   3.025  12.118  0.1690  0.4728  2.4741
  437TMC3    H2 6573   4.488   3.351  11.856 -0.5764 -0.0650 -1.6015
  437TMC3    C7 6574   4.624   3.152  11.969  0.2217 -0.5888 -0.5565
  437TMC3    C8 6575   4.228   3.434  11.901 -0.1252 -0.1771  1.0271
  437TMC3    O1 6576   4.672   3.144  11.856 -0.3794  0.0762 -0.0282
  437TMC3    O2 6577   4.167   3.498  11.988  0.6818  0.1234 -0.2501
  438MPD2     C 6578   1.905   3.900  16.550  0.6589  0.0780 -0.0590
  438MPD2    C1 6579   1.938   3.788  16.623  0.3038  0.0187 -0.2901
  438MPD2    C2 6580   1.921   3.796  16.757  0.1930  0.1474 -0.1169
  438MPD2    C3 6581   1.872   3.910  16.815 -0.2705 -0.7412  0.0652
  438MPD2    C4 6582   1.845   4.024  16.738 -0.2718 -1.3200 -0.0030
  438MPD2    C5 6583   1.868   4.015  16.601  0.3832  0.3976  0.0097
  438MPD2     H 6584   1.950   3.706  16.810  0.7428 -0.3296 -1.2152
  438MPD2    H1 6585   1.813   4.118  16.783  0.2171 -0.0493 -2.2990
  438MPD2    H2 6586   1.904   3.898  16.442  1.4074  0.6431 -0.0713
  438MPD2    H3 6587   1.852   4.107  16.546 -1.5791  1.6145  2.6598
  438MPD2     N 6588   1.836   3.907  16.948  0.1323  0.0484  0.6736
  438MPD2    H5 6589   1.792   3.992  16.981 -2.2856 -0.8100 -0.3582
  438MPD2    N1 6590   2.000   3.674  16.570  0.5183 -0.6451 -0.3181
  438MPD2    H7 6591   2.034   3.603  16.633 -0.9185 -0.7738  0.3129
  439TMC3    C1 6592   2.084   3.539  16.399 -0.3139 -0.4512  0.5069
  439TMC3    C2 6593   2.050   3.488  16.271  0.3802 -0.2775  0.1093
  439TMC3    C3 6594   2.095   3.362  16.239  0.4177 -0.1439  0.0425
  439TMC3    C4 6595   2.172   3.480  16.484 -0.7530  0.2272  0.1271
  439TMC3    C5 6596   2.218   3.361  16.442 -0.3931 -0.4045  0.1237
  439TMC3    C6 6597   2.175   3.297  16.327  0.5617  0.1263  0.4763
  439TMC3     C 6598   2.013   3.655  16.435 -0.1899 -0.4843 -0.2980
  439TMC3     O 6599   1.962   3.717  16.345 -0.1491  0.2499  0.5426
  439TMC3     H 6600   1.987   3.538  16.198 -0.3225  0.5783  1.2940
  439TMC3    H1 6601   2.195   3.521  16.581  0.5127  0.5297 -0.2986
  439TMC3    H2 6602   2.214   3.199  16.300  1.6670  1.0848 -1.3974
  439TMC3    C7 6603   2.320   3.291  16.521  0.1807  0.1931 -0.0562
  439TMC3    C8 6604   2.092   3.313  16.101 -0.2710  1.4641 -0.2408
  439TMC3    O1 6605   2.327   3.321  16.642 -0.6830  0.4682 -0.3873
  439TMC3    O2 6606   2.174   3.226  16.075  0.1140  0.0235  0.5021
  440MPD2     C 6607   0.444   3.713  14.800 -0.0174  0.4879 -0.2655
  440MPD2    C1 6608   0.537   3.812  14.834 -0.5097 -0.0215 -0.2808
  440MPD2    C2 6609   0.665   3.775  14.866  0.4993  0.0879 -0.8870
  440MPD2    C3 6610   0.714   3.652  14.841  0.6493  0.1126  0.0981
  440MPD2    C4 6611   0.625   3.555  14.806  0.4662 -0.0636 -0.0189
  440MPD2    C5 6612   0.487   3.584  14.796 -0.7067  0.7326 -0.7461
  440MPD2     H 6613   0.711   3.856  14.921 -0.3848  0.6595 -0.9889
  440MPD2    H1 6614   0.656   3.453  14.788 -0.9686 -0.7678  1.4714
  440MPD2    H2 6615   0.339   3.726  14.773 -0.4175 -1.6355  0.3103
  440MPD2    H3 6616   0.422   3.505  14.759 -0.4970 -0.6811  1.9816
  440MPD2     N 6617   0.851   3.614  14.862 -0.0165 -0.6363  1.0973
  440MPD2    H5 6618   0.878   3.519  14.838 -0.7566 -0.9049  1.3077
  440MPD2    N1 6619   0.498   3.947  14.839  0.2719  0.2616  0.1424
  440MPD2    H7 6620   0.566   4.017  14.868  1.1196 -0.3095 -0.4744
  441TMC3    C1 6621   1.088   3.645  14.884 -0.2950  0.5575  0.1336
  441TMC3    C2 6622   1.177   3.744  14.912 -0.0318 -0.2533 -0.4515
  441TMC3    C3 6623   1.246   3.734  15.028 -0.0720  0.3045  0.5896
  441TMC3    C4 6624   1.090   3.530  14.966 -0.7652  0.8021 -0.1531
  441TMC3    C5 6625   1.161   3.521  15.079  0.0620 -0.9471  0.2794
  441TMC3    C6 6626   1.240   3.630  15.116 -0.2049 -0.2447  0.4378
  441TMC3     C 6627   0.958   3.700  14.880 -0.2841  0.8822  0.2649
  441TMC3     O 6628   0.960   3.822  14.885  0.0337  0.4629 -0.1330
  441TMC3     H 6629   1.183   3.837  14.856 -0.5820  0.4165  0.5755
  441TMC3    H1 6630   1.025   3.449  14.938  0.1073  0.5718 -1.5335
  441TMC3    H2 6631   1.291   3.638  15.211  0.5601 -0.2856  0.0309
  441TMC3    C7 6632   1.091   3.461  15.188  0.8763 -0.6458  0.1181
  441TMC3    C8 6633   1.295   3.860  15.085 -0.6172 -0.3487  0.3417
  441TMC3    O1 6634   0.968   3.458  15.181  0.3573  0.1990 -0.1286
  441TMC3    O2 6635   1.406   3.870  15.134 -0.1644 -0.0505 -0.0332
  442MPD2     C 6636   3.932   4.523  16.169 -0.0394  0.2049 -0.3244
  442MPD2    C1 6637   3.814   4.471  16.209  0.1314  0.8082 -0.1921
  442MPD2    C2 6638   3.769   4.359  16.144  0.1373  0.2224  0.5848
  442MPD2    C3 6639   3.842   4.286  16.049 -0.1418  1.1551 -0.2860
  442MPD2    C4 6640   3.961   4.341  16.020 -0.6568 -0.8459 -0.6061
  442MPD2    C5 6641   4.002   4.458  16.071 -0.8316  0.4051 -0.0196
  442MPD2     H 6642   3.679   4.315  16.186 -1.0204  2.9654  0.9764
  442MPD2    H1 6643   4.032   4.296  15.952 -0.7608 -1.7703 -0.0984
  442MPD2    H2 6644   3.989   4.607  16.208  0.3650  0.1256 -0.7446
  442MPD2    H3 6645   4.098   4.498  16.041 -1.9784  4.1823  1.4101
  442MPD2     N 6646   3.806   4.156  16.003 -0.2478 -0.4999 -0.1160
  442MPD2    H5 6647   3.873   4.106  15.946  0.6508  2.0533 -1.3095
  442MPD2    N1 6648   3.728   4.534  16.311 -0.1686  0.5635 -0.9747
  442MPD2    H7 6649   3.630   4.507  16.313 -0.0128  0.0667 -0.1310
  443TMC3    C1 6650   3.667   4.711  16.455 -0.7460  0.7265  0.7792
  443TMC3    C2 6651   3.569   0.027  16.370 -0.1677 -0.1424 -0.6440
  443TMC3    C3 6652   3.456   0.071  16.425  0.3479  0.5403  0.2274
  443TMC3    C4 6653   3.645   4.704  16.594 -0.0890  0.7768  0.2547
  443TMC3    C5 6654   3.522   0.003  16.635 -0.9912  0.0448 -0.1880
  443TMC3    C6 6655   3.427   0.060  16.558  0.3466  0.6989  0.2846
  443TMC3     C 6656   3.775   4.634  16.396  0.0639 -0.1395  0.1193
  443TMC3     O 6657   3.888   4.685  16.414 -0.2635  0.1830 -0.3711
  443TMC3     H 6658   3.595   0.025  16.265 -1.1920  1.1283 -0.9289
  443TMC3    H1 6659   3.717   4.658  16.661 -0.0191 -2.1730 -1.8290
  443TMC3    H2 6660   3.322   0.069  16.582  0.6645  0.9760  1.5893
  443TMC3    C7 6661   3.474   4.682  16.756  0.6314  0.0712  0.5536
  443TMC3    C8 6662   3.344   0.070  16.335  0.3672 -0.0621 -0.1364
  443TMC3    O1 6663   3.542   4.590  16.798 -0.3410 -0.0574  0.0442
  443TMC3    O2 6664   3.243   0.015  16.375  0.5835  0.1775 -0.9511
  444MPD2     C 6665   3.940   3.920  16.943 -0.4633  0.9500 -1.3785
  444MPD2    C1 6666   3.829   3.864  16.890  0.9735 -0.6841  0.2208
  444MPD2    C2 6667   3.846   3.788  16.776  0.2810 -0.1100 -0.0161
  444MPD2    C3 6668   3.970   3.766  16.727  0.1958  0.0178 -0.0450
  444MPD2    C4 6669   4.085   3.826  16.778  0.5065  0.2800  0.9775
  444MPD2    C5 6670   4.064   3.902  16.890 -0.0164 -0.2402 -0.1647
  444MPD2     H 6671   3.754   3.759  16.726 -0.5244 -2.2565  2.7413
  444MPD2    H1 6672   4.190   3.815  16.754 -0.0155 -0.4042 -0.9869
  444MPD2    H2 6673   3.934   3.985  17.029 -1.6429  0.9166 -1.4364
  444MPD2    H3 6674   4.148   3.942  16.947  0.1165  1.1840 -1.3528
  444MPD2     N 6675   3.981   3.678  16.616  0.1354 -0.5779  0.0454
  444MPD2    H5 6676   3.905   3.615  16.596 -1.7311  2.0221 -1.1118
  444MPD2    N1 6677   3.698   3.887  16.950 -0.0301  0.3483 -0.0204
  444MPD2    H7 6678   3.623   3.826  16.918 -0.0936  0.4377 -0.0430
  445TMC3    C1 6679   4.073   3.564  16.432  0.0655 -0.8042  0.6797
  445TMC3    C2 6680   3.960   3.498  16.405  0.1080 -0.0832 -0.4525
  445TMC3    C3 6681   3.962   3.409  16.309 -0.3453 -0.6859 -0.3871
  445TMC3    C4 6682   4.195   3.533  16.372 -0.2884 -0.3813 -0.6111
  445TMC3    C5 6683   4.187   3.427  16.282  0.6080  0.5245  0.3677
  445TMC3    C6 6684   4.070   3.372  16.243 -0.9822 -0.0291 -0.0597
  445TMC3     C 6685   4.090   3.665  16.535 -0.0299  0.5799  0.2004
  445TMC3     O 6686   4.200   3.729  16.532 -0.1726  0.0726  0.2055
  445TMC3     H 6687   3.863   3.528  16.442 -0.2280 -0.4670 -1.0166
  445TMC3    H1 6688   4.287   3.579  16.406 -1.3691 -2.1923  4.9054
  445TMC3    H2 6689   4.061   3.296  16.166 -0.4783 -0.9714  0.8063
  445TMC3    C7 6690   4.318   3.359  16.264 -0.3124  0.2955  0.0076
  445TMC3    C8 6691   3.828   3.370  16.263 -0.3363 -0.3603  0.2608
  445TMC3    O1 6692   4.418   3.429  16.288  0.4968  0.1628 -0.2829
  445TMC3    O2 6693   3.742   3.343  16.348 -0.6622  0.0393 -0.7892
  446MPD2     C 6694   3.089   0.061  11.251 -0.9359  0.0548  0.3136
  446MPD2    C1 6695   3.113   0.069  11.115 -0.5445 -0.4283  0.3882
  446MPD2    C2 6696   3.224   0.122  11.061 -0.0378  0.6188 -0.5132
  446MPD2    C3 6697   3.324   0.177  11.136 -1.1541 -0.4421  0.2690
  446MPD2    C4 6698   3.302   0.185  11.271 -0.0008 -0.6863  0.2819
  446MPD2    C5 6699   3.186   0.127  11.318  0.3958  0.2847 -0.0420
  446MPD2     H 6700   3.234   0.124  10.953  0.6118  1.2619 -0.4402
  446MPD2    H1 6701   3.359   0.230  11.352  0.1652  1.5416 -1.0822
  446MPD2    H2 6702   3.000   0.022  11.299 -1.7522  1.0113 -0.4137
  446MPD2    H3 6703   3.185   0.112  11.425 -0.6451 -0.8573 -0.2149
  446MPD2     N 6704   3.445   0.222  11.075  0.2458 -0.1564  0.2515
  446MPD2    H5 6705   3.451   0.225  10.974  0.3424 -0.3721  0.2489
  446MPD2    N1 6706   3.019   0.022  11.021  0.3025  0.0182  0.1132
  446MPD2    H7 6707   3.032   0.059  10.927  0.1175  0.2399  0.1741
  447TMC3    C1 6708   3.667   0.279  11.064 -0.1457 -0.6214 -0.5243
  447TMC3    C2 6709   3.662   0.346  10.937  0.0688  0.5039  1.0660
  447TMC3    C3 6710   3.772   0.344  10.869 -0.3842  0.2099 -0.1309
  447TMC3    C4 6711   3.789   0.235  11.118 -0.2395  0.6038  0.6651
  447TMC3    C5 6712   3.900   0.250  11.041 -0.7247 -0.0780 -1.0686
  447TMC3    C6 6713   3.896   0.302  10.916 -0.0205  0.4256  0.3740
  447TMC3     C 6714   3.553   0.257  11.152 -0.5270  0.6373 -0.5498
  447TMC3     O 6715   3.581   0.214  11.265 -1.0096 -0.4093 -0.4196
  447TMC3     H 6716   3.563   0.363  10.897 -0.0363 -0.2303  1.0114
  447TMC3    H1 6717   3.799   0.190  11.217  0.9377 -0.8578 -0.1215
  447TMC3    H2 6718   3.993   0.324  10.875 -0.1796 -1.9750 -1.2927
  447TMC3    C7 6719   4.029   0.212  11.073  0.2353  0.5466 -0.3528
  447TMC3    C8 6720   3.751   0.343  10.724  0.1673 -0.5249  0.2734
  447TMC3    O1 6721   4.094   0.164  10.983  0.2233 -0.4765 -0.3742
  447TMC3    O2 6722   3.653   0.397  10.673  0.0676 -0.8517  0.0041
  448TMC3    C1 6723   2.458   0.299  16.850  0.0167  0.6434 -0.0202
  448TMC3    C2 6724   2.378   0.201  16.800 -0.0295 -0.4713 -0.0641
  448TMC3    C3 6725   2.320   0.115  16.886 -0.6735 -0.6541  0.9873
  448TMC3    C4 6726   2.474   0.319  16.985 -0.5010 -0.2479 -0.3045
  448TMC3    C5 6727   2.433   0.219  17.064  0.4613 -0.1252  0.6401
  448TMC3    C6 6728   2.365   0.111  17.020 -0.7843 -0.7955  0.1116
  448TMC3     C 6729   2.511   0.394  16.758  0.1475  0.2558  0.5748
  448TMC3     O 6730   2.543   0.500  16.804  0.3418 -0.2627  0.0606
  448TMC3     H 6731   2.348   0.197  16.696  1.5653 -0.9389 -0.5118
  448TMC3    H1 6732   2.534   0.401  17.021  1.2815 -1.1022 -1.3426
  448TMC3    H2 6733   2.337   0.024  17.077  1.5402 -1.4050  0.3197
  448TMC3    C7 6734   2.473   0.228  17.200 -0.4241 -0.8787  0.4653
  448TMC3    C8 6735   2.231   0.012  16.834 -0.0588 -0.7819 -1.1487
  448TMC3    O1 6736   2.567   0.298  17.228 -0.2116 -0.6041 -0.3070
  448TMC3    O2 6737   2.236   4.646  16.898 -0.1594 -0.1215  0.2049
  449MPD2     C 6738   3.518   3.243  13.640  0.9346 -0.4395  0.0961
  449MPD2    C1 6739   3.405   3.320  13.612  0.2768 -0.3112 -0.5274
  449MPD2    C2 6740   3.278   3.282  13.660 -0.0145 -0.0646 -0.9589
  449MPD2    C3 6741   3.256   3.169  13.733 -0.0336  0.3188 -0.1894
  449MPD2    C4 6742   3.370   3.102  13.769 -0.1771  0.1463 -0.5446
  449MPD2    C5 6743   3.494   3.130  13.720  0.1659  0.7232  0.4217
  449MPD2     H 6744   3.189   3.335  13.628 -0.0312  0.8923  0.6946
  449MPD2    H1 6745   3.351   3.015  13.831  0.5657  0.5115  0.1900
  449MPD2    H2 6746   3.618   3.268  13.608  0.0575  1.5883 -1.1079
  449MPD2    H3 6747   3.580   3.082  13.764 -0.0720  0.5024  0.6435
  449MPD2     N 6748   3.130   3.136  13.775 -0.5914  0.0217 -0.5640
  449MPD2    H5 6749   3.051   3.195  13.752 -1.6962 -1.4452 -0.5287
  449MPD2    N1 6750   3.397   3.440  13.537 -0.1618  0.2416  0.4320
  449MPD2    H7 6751   3.311   3.494  13.539  0.0842  0.6351  0.2965
  450TMC3    C1 6752   3.461   3.607  13.383  0.3956 -0.2880 -0.0066
  450TMC3    C2 6753   3.465   3.585  13.246 -0.1945 -0.0588 -0.1543
  450TMC3    C3 6754   3.356   3.628  13.164  0.8685  0.3710  0.2120
  450TMC3    C4 6755   3.351   3.667  13.433 -0.3018  0.6031 -0.0457
  450TMC3    C5 6756   3.239   3.703  13.358  0.7226 -0.0591 -0.5223
  450TMC3    C6 6757   3.248   3.688  13.223 -0.1799 -0.1239 -0.2464
  450TMC3     C 6758   3.498   3.490  13.462 -0.7056  0.2338 -0.6388
  450TMC3     O 6759   3.604   3.437  13.425 -0.3875 -0.2491  0.0218
  450TMC3     H 6760   3.552   3.541  13.199 -0.3288 -0.8885  0.3824
  450TMC3    H1 6761   3.346   3.680  13.541 -0.7411 -1.1674  0.1499
  450TMC3    H2 6762   3.161   3.712  13.163  0.1496 -1.7979 -1.3941
  450TMC3    C7 6763   3.127   3.648  13.427 -0.1158 -0.1797 -0.8825
  450TMC3    C8 6764   3.371   3.620  13.019  0.3485  0.0832  0.2280
  450TMC3    O1 6765   3.158   3.551  13.488 -0.4271  0.1023  0.3875
  450TMC3    O2 6766   3.316   3.710  12.948 -0.0172 -0.1033 -0.1032
  451MPD2     C 6767   0.495   2.953   0.612 -0.3479  0.1994  0.5480
  451MPD2    C1 6768   0.412   3.013   0.520  1.5175  0.4025  0.3295
  451MPD2    C2 6769   0.403   2.953   0.396  0.2969  0.3920 -0.7021
  451MPD2    C3 6770   0.472   2.833   0.379 -0.3299 -0.0718  0.2891
  451MPD2    C4 6771   0.562   2.787   0.467 -0.1369 -0.2786 -0.3243
  451MPD2    C5 6772   0.580   2.850   0.581 -0.4374  0.0440 -0.2465
  451MPD2     H 6773   0.342   2.998   0.319 -1.4964  1.0801  1.1264
  451MPD2    H1 6774   0.620   2.697   0.448  0.7220  0.4030 -0.9362
  451MPD2    H2 6775   0.503   2.995   0.711  0.7614 -0.2908  0.6587
  451MPD2    H3 6776   0.649   2.815   0.657 -0.4843  2.3911  0.8797
  451MPD2     N 6777   0.447   2.757   0.260  0.0467 -0.6298 -0.2722
  451MPD2    H5 6778   0.457   2.657   0.276  2.4536 -0.4000 -0.3809
  451MPD2    N1 6779   0.321   3.115   0.558  0.6095  0.4729 -0.0500
  451MPD2    H7 6780   0.319   3.136   0.657 -2.1599 -0.2949  0.0634
  452TMC3    C1 6781   0.327   2.695   0.072 -0.1305  0.0033  0.2910
  452TMC3    C2 6782   0.246   2.605   0.143  0.7558  0.4274  0.0100
  452TMC3    C3 6783   0.153   2.542   0.068  0.4237  0.7283 -0.0141
  452TMC3    C4 6784   0.324   2.708  17.674 -0.2240 -0.0558 -0.2383
  452TMC3    C5 6785   0.223   2.650  17.615 -0.4161  0.5674  0.0707
  452TMC3    C6 6786   0.133   2.566  17.672  0.3127  0.4063 -0.1997
  452TMC3     C 6787   0.386   2.798   0.143 -0.1580  0.1966  0.2394
  452TMC3     O 6788   0.373   2.913   0.104 -0.0677 -0.3529 -0.3681
  452TMC3     H 6789   0.243   2.612   0.251  0.2860  0.2114  0.0070
  452TMC3    H1 6790   0.381   2.790  17.631 -0.5598  0.5883  0.5518
  452TMC3    H2 6791   0.065   2.504  17.615  0.0226  0.8730 -0.3704
  452TMC3    C7 6792   0.197   2.695  17.477 -0.3745 -0.2384 -0.0052
  452TMC3    C8 6793   0.053   2.473   0.145  0.5358 -0.4895 -0.4398
  452TMC3    O1 6794   0.289   2.698  17.403 -0.0495 -0.1613  0.5117
  452TMC3    O2 6795   0.082   2.437   0.261 -0.3872  0.1270 -0.1596
  453TMC3    C1 6796   0.830   4.163  12.129 -0.3382 -0.6913  0.3828
  453TMC3    C2 6797   0.861   4.066  12.035 -0.4896  0.3654  0.2195
  453TMC3    C3 6798   0.824   4.098  11.910 -0.1213 -0.4443 -0.3992
  453TMC3    C4 6799   0.752   4.268  12.088  0.6394  0.1407 -0.4257
  453TMC3    C5 6800   0.701   4.286  11.966  0.3533 -0.6440 -0.5172
  453TMC3    C6 6801   0.734   4.191  11.874 -0.0376 -0.3998  0.1780
  453TMC3     C 6802   0.942   4.204  12.202  0.7058  1.0655 -0.1373
  453TMC3     O 6803   0.959   4.326  12.211 -0.2528 -0.1271  0.2425
  453TMC3     H 6804   0.941   3.996  12.051  1.7029  2.4735 -1.4818
  453TMC3    H1 6805   0.727   4.339  12.165  1.0783  1.4528 -1.5034
  453TMC3    H2 6806   0.709   4.203  11.769  1.7177  1.5353 -0.0094
  453TMC3    C7 6807   0.738   4.419  11.921  0.6183 -0.0531 -0.2319
  453TMC3    C8 6808   0.891   4.023  11.800 -0.2916  0.3750  0.9295
  453TMC3    O1 6809   0.736   4.514  11.997  0.1734  0.3636  0.8675
  453TMC3    O2 6810   0.918   4.099  11.709  0.0167  0.4935 -0.1761
  454MPD2     C 6811   4.734   3.437  15.977  0.4095  0.5278  0.0287
  454MPD2    C1 6812   4.663   3.504  15.878  0.0933 -0.2673 -0.7183
  454MPD2    C2 6813   4.606   3.626  15.896  0.2788  0.1494 -0.4806
  454MPD2    C3 6814   4.592   3.667  16.029 -1.3987 -0.1939 -0.7564
  454MPD2    C4 6815   4.661   3.604  16.131 -0.4089  0.6701  0.0841
  454MPD2    C5 6816   0.003   3.490  16.101  0.4894  0.2694  0.1102
  454MPD2     H 6817   4.548   3.664  15.812 -0.8127  1.3480  0.8227
  454MPD2    H1 6818   4.653   3.628  16.236  1.4027 -2.3013  0.9108
  454MPD2    H2 6819   0.039   3.342  15.943  0.7957  1.1914 -1.3959
  454MPD2    H3 6820   0.050   3.445  16.188  2.6748  2.1401 -0.1004
  454MPD2     N 6821   4.513   3.782  16.063  0.3601  0.1589  0.3901
  454MPD2    H5 6822   4.479   3.775  16.159 -0.3912  2.0563  0.2489
  454MPD2    N1 6823   4.654   3.459  15.741  0.3734 -0.0373  0.5340
  454MPD2    H7 6824   4.621   3.519  15.666  1.7793  1.8514  1.4223
  455TMC3    C1 6825   4.299   3.855  16.010 -0.4577 -0.3048  0.2722
  455TMC3    C2 6826   4.249   3.881  16.138 -0.0399 -0.8264 -0.1131
  455TMC3    C3 6827   4.121   3.830  16.174  0.2585  0.9761 -0.0072
  455TMC3    C4 6828   4.231   3.771  15.923  0.1965  0.2087 -0.4372
  455TMC3    C5 6829   4.119   3.713  15.970 -0.0266 -0.2456  0.0241
  455TMC3    C6 6830   4.062   3.740  16.095  0.4290  0.5536  0.2152
  455TMC3     C 6831   4.440   3.862  15.981 -0.4037  0.2528 -0.1811
  455TMC3     O 6832   4.456   3.875  15.861 -0.3759  0.0706 -0.0008
  455TMC3     H 6833   4.308   3.946  16.202 -0.0577 -0.0627 -0.8742
  455TMC3    H1 6834   4.280   3.741  15.831  0.4638  1.7624 -0.7957
  455TMC3    H2 6835   3.963   3.702  16.118 -0.6076  2.1034 -1.6321
  455TMC3    C7 6836   4.106   3.570  15.943 -0.1883 -0.8068 -0.0560
  455TMC3    C8 6837   4.035   3.915  16.247  0.1702 -0.1541 -0.1338
  455TMC3    O1 6838   4.001   3.521  15.975  0.0308 -0.3838  0.3098
  455TMC3    O2 6839   3.916   3.882  16.242 -0.7244  0.0841 -0.5655
  456MPD2     C 6840   2.285   3.584  16.015 -0.1483 -0.4345 -0.5277
  456MPD2    C1 6841   2.382   3.546  16.108  0.0686  0.2677  0.0524
  456MPD2    C2 6842   2.396   3.629  16.218  0.2732  0.2455  0.8468
  456MPD2    C3 6843   2.316   3.738  16.239 -0.1681 -1.0846  0.5654
  456MPD2    C4 6844   2.225   3.774  16.142 -0.2860  0.9268  0.4530
  456MPD2    C5 6845   2.212   3.699  16.032  0.5667  0.2400 -0.7659
  456MPD2     H 6846   2.480   3.619  16.286  0.2980  1.9981  1.0945
  456MPD2    H1 6847   2.159   3.857  16.167 -0.5910  0.7979  0.0682
  456MPD2    H2 6848   2.271   3.519  15.929  2.5854 -0.4126 -1.0091
  456MPD2    H3 6849   2.135   3.716  15.957 -1.2654  0.9818  1.2709
  456MPD2     N 6850   2.344   3.812  16.356  0.7571 -0.2361 -0.6071
  456MPD2    H5 6851   2.391   3.763  16.431  0.9908 -0.4518 -0.8920
  456MPD2    N1 6852   2.470   3.437  16.074 -0.4144 -0.2708 -0.3734
  456MPD2    H7 6853   2.465   3.394  15.982  0.2144 -1.9913  0.3902
  457TMC3    C1 6854   2.308   3.989  16.506 -0.2042 -0.0792 -0.5977
  457TMC3    C2 6855   2.247   4.108  16.529  0.8076  0.0634  0.2495
  457TMC3    C3 6856   2.192   4.126  16.651 -0.0944  0.0908  0.8628
  457TMC3    C4 6857   2.324   3.900  16.607 -0.5679 -0.1504  0.2796
  457TMC3    C5 6858   2.277   3.937  16.732 -0.0590 -0.5164  0.2149
  457TMC3    C6 6859   2.212   4.053  16.762 -0.2896 -0.1276 -0.6240
  457TMC3     C 6860   2.306   3.943  16.367 -0.1828 -0.7184  0.4389
  457TMC3     O 6861   2.271   4.023  16.279 -0.2086  0.1903 -0.6068
  457TMC3     H 6862   2.227   4.174  16.445 -4.0003 -2.3319 -0.5216
  457TMC3    H1 6863   2.370   3.802  16.599 -1.6719 -0.7887  1.7611
  457TMC3    H2 6864   2.175   4.077  16.861 -1.6910 -2.5603 -0.5539
  457TMC3    C7 6865   2.359   3.883  16.838 -0.2657 -0.2198 -0.2231
  457TMC3    C8 6866   2.143   4.259  16.673  0.1564 -1.4190  0.4374
  457TMC3    O1 6867   2.400   3.769  16.828 -0.0408 -0.3163 -0.0125
  457TMC3    O2 6868   2.124   4.287  16.794  0.7250  0.0617  0.4152
  458MPD2     C 6869   0.357   3.093  12.164 -0.3261  0.3713 -0.2019
  458MPD2    C1 6870   0.261   3.098  12.262  0.6322  0.3101 -0.1441
  458MPD2    C2 6871   0.125   3.108  12.237 -0.4169  0.5822 -0.1884
  458MPD2    C3 6872   0.092   3.125  12.101  0.1620  0.1628  0.4334
  458MPD2    C4 6873   0.184   3.128  11.998 -0.1518  0.3778  1.0574
  458MPD2    C5 6874   0.315   3.099  12.035 -0.6808  0.8906  0.2547
  458MPD2     H 6875   0.052   3.133  12.314  1.7562 -0.3658  2.1625
  458MPD2    H1 6876   0.162   3.142  11.892 -1.2112  0.4936  1.2936
  458MPD2    H2 6877   0.460   3.077  12.195 -0.1892 -1.4026 -1.5671
  458MPD2    H3 6878   0.395   3.104  11.962 -1.4802  1.1274 -0.5996
  458MPD2     N 6879   4.691   3.136  12.085 -0.0145  0.3811  0.2863
  458MPD2    H5 6880   4.641   3.133  12.174 -0.8005  0.4788 -0.1534
  458MPD2    N1 6881   0.308   3.091  12.397  0.0908 -0.4211 -0.4720
  458MPD2    H7 6882   0.410   3.086  12.403 -0.0617 -0.3712  1.9694
  459TMC3    C1 6883   0.314   3.064  12.631  0.0808 -0.3902 -0.5947
  459TMC3    C2 6884   0.438   3.121  12.619  0.6733 -0.3010 -0.0675
  459TMC3    C3 6885   0.529   3.106  12.719 -0.6086 -0.8230  0.3086
  459TMC3    C4 6886   0.276   2.994  12.743 -0.7851 -0.4610 -0.3893
  459TMC3    C5 6887   0.371   2.983  12.845  0.3880  0.1610 -0.2206
  459TMC3    C6 6888   0.494   3.040  12.837  0.0975  0.1245  0.4164
  459TMC3     C 6889   0.228   3.069  12.511  0.1123  0.4972 -0.7617
  459TMC3     O 6890   0.114   3.027  12.512  0.5099 -0.9540 -0.3055
  459TMC3     H 6891   0.478   3.185  12.540  0.3546  1.0622  0.8751
  459TMC3    H1 6892   0.177   2.950  12.746 -1.9923  2.2980  0.0021
  459TMC3    H2 6893   0.572   3.029  12.912 -0.6357 -2.4183  0.8188
  459TMC3    C7 6894   0.379   2.857  12.923 -0.8015  0.1445  0.4874
  459TMC3    C8 6895   0.656   3.190  12.710 -0.2385 -0.1893  0.1804
  459TMC3    O1 6896   0.489   2.815  12.940 -0.4426 -0.0282 -0.4459
  459TMC3    O2 6897   0.758   3.163  12.776  0.3633 -0.4849  0.0928
  460MPD2     C 6898   3.935   0.154  10.472 -0.4872 -0.1685 -0.1284
  460MPD2    C1 6899   3.862   0.268  10.523 -0.0609 -0.4776 -0.2262
  460MPD2    C2 6900   3.802   0.356  10.432 -0.2790  0.7437  0.4743
  460MPD2    C3 6901   3.790   0.324  10.298  0.4278 -0.7261 -1.0164
  460MPD2    C4 6902   3.863   0.219  10.252  0.6612  0.9140  0.3501
  460MPD2    C5 6903   3.935   0.137  10.336  0.5517 -0.1819  0.8541
  460MPD2     H 6904   3.737   0.435  10.468 -1.5738 -0.5595  1.0170
  460MPD2    H1 6905   3.859   0.194  10.146  1.3104 -0.6991  0.7023
  460MPD2    H2 6906   3.999   0.093  10.534  0.1063 -1.2508 -1.7945
  460MPD2    H3 6907   3.989   0.052  10.297 -1.3191 -0.8812 -0.2408
  460MPD2     N 6908   3.726   0.418  10.213  0.0788 -0.0480  0.1529
  460MPD2    H5 6909   3.691   0.499  10.261  0.8030  0.2559  0.1669
  460MPD2    N1 6910   3.855   0.280  10.660  0.2509 -0.1835 -0.0844
  460MPD2    H7 6911   3.925   0.233  10.717  2.1440 -0.7383 -2.9122
  461TMC3    C1 6912   3.633   0.518  10.018  0.4789 -0.5864 -0.5867
  461TMC3    C2 6913   3.541   0.463   9.935  0.4060  0.2660 -0.0861
  461TMC3    C3 6914   3.434   0.545   9.899  0.5531  0.2883 -0.0167
  461TMC3    C4 6915   3.641   0.648  10.058 -0.1832 -0.1857  0.1492
  461TMC3    C5 6916   3.538   0.734  10.018 -0.2770  0.4651  0.0051
  461TMC3    C6 6917   3.437   0.681   9.942 -1.0151 -0.5416  0.1246
  461TMC3     C 6918   3.716   0.408  10.073  0.9641 -0.4743 -0.5904
  461TMC3     O 6919   3.740   0.312  10.003 -0.1563 -0.3800  0.0302
  461TMC3     H 6920   3.526   0.357   9.917  3.8999 -0.6596  2.4654
  461TMC3    H1 6921   3.729   0.688  10.106  1.0423 -1.5418 -0.9495
  461TMC3    H2 6922   3.351   0.734   9.903 -0.5039  1.7433  2.1302
  461TMC3    C7 6923   3.561   0.874  10.011  0.0063 -0.2871 -0.6352
  461TMC3    C8 6924   3.311   0.482   9.846  0.4549  0.3763 -0.4724
  461TMC3    O1 6925   3.475   0.941   9.961  0.6578 -0.1967 -0.0961
  461TMC3    O2 6926   3.200   0.540   9.849  0.1625 -0.0748  0.5044
  462TMC3    C1 6927   4.140   2.252   0.096  0.4695  0.3710  0.6198
  462TMC3    C2 6928   4.236   2.188   0.178  0.8322 -0.3326 -0.9036
  462TMC3    C3 6929   4.182   2.118   0.287 -1.2177 -0.1078 -0.0683
  462TMC3    C4 6930   4.007   2.248   0.123  0.0728 -0.4785  0.4761
  462TMC3    C5 6931   3.962   2.173   0.227  0.5180 -0.7550  0.4121
  462TMC3    C6 6932   4.047   2.113   0.315  0.2986  0.5420  0.4143
  462TMC3     C 6933   4.172   2.294  17.700 -0.0175  0.4478  0.1026
  462TMC3     O 6934   4.078   2.296  17.621  0.4318 -0.6553  0.3069
  462TMC3     H 6935   4.342   2.202   0.162  0.7747  1.2072  0.1081
  462TMC3    H1 6936   3.939   2.308   0.063  1.5605 -0.5932 -1.3005
  462TMC3    H2 6937   4.002   2.049   0.390  0.1353 -0.9758 -0.9862
  462TMC3    C7 6938   3.846   2.096   0.200 -0.8518 -0.1488  0.1532
  462TMC3    C8 6939   4.262   2.008   0.336 -0.2430 -0.2353  0.0969
  462TMC3    O1 6940   3.825   1.986   0.248  0.1648  0.0060  0.2165
  462TMC3    O2 6941   4.208   1.959   0.433  0.1082 -0.5531  0.2880
  463MPD2     C 6942   1.129   4.326   1.351 -0.7402  0.2764  0.1812
  463MPD2    C1 6943   1.042   4.416   1.409 -0.0049 -0.3366  0.4855
  463MPD2    C2 6944   1.095   4.509   1.498  0.1706  0.4661  0.3975
  463MPD2    C3 6945   1.232   4.517   1.523 -0.4305 -0.5610  0.0040
  463MPD2    C4 6946   1.313   4.420   1.466 -0.0312 -0.3068  0.4376
  463MPD2    C5 6947   1.265   4.330   1.377  0.6708  0.3474  0.5690
  463MPD2     H 6948   1.025   4.573   1.551  2.4857  2.8006  0.6418
  463MPD2    H1 6949   1.418   4.426   1.493 -0.0290 -1.0745  0.6009
  463MPD2    H2 6950   1.099   4.257   1.273 -0.0703 -1.4436  1.4410
  463MPD2    H3 6951   1.325   4.256   1.324 -1.2168 -0.7954  0.0085
  463MPD2     N 6952   1.300   4.620   1.600 -0.2329 -0.3611  0.0373
  463MPD2    H5 6953   1.402   4.622   1.596 -0.2092  0.7851  1.4478
  463MPD2    N1 6954   0.899   4.418   1.388  0.5898 -0.1947 -0.3039
  463MPD2    H7 6955   0.845   4.497   1.422  3.0417  2.9842 -3.7563
  464TMC3    C1 6956   0.696   4.339   1.288 -0.1367 -0.2310  0.7432
  464TMC3    C2 6957   0.632   4.448   1.322 -0.4315 -0.2735 -0.0189
  464TMC3    C3 6958   0.494   4.462   1.303 -0.8840 -0.0200  0.1022
  464TMC3    C4 6959   0.635   4.240   1.218  0.1701 -1.0615 -0.3457
  464TMC3    C5 6960   0.507   4.259   1.183  0.3102 -0.2825 -0.4776
  464TMC3    C6 6961   0.433   4.364   1.233 -0.0546 -0.0308  0.5031
  464TMC3     C 6962   0.836   4.322   1.316  0.6169  0.4901 -0.0335
  464TMC3     O 6963   0.880   4.220   1.265 -0.5024  0.2697 -0.8082
  464TMC3     H 6964   0.679   4.521   1.387 -1.6986  0.6494 -0.1535
  464TMC3    H1 6965   0.688   4.152   1.185 -0.6378 -0.9609 -1.9409
  464TMC3    H2 6966   0.328   4.381   1.211 -0.0468  1.3518  1.5597
  464TMC3    C7 6967   0.451   4.165   1.096 -1.0136 -0.3742 -1.0870
  464TMC3    C8 6968   0.442   4.595   1.318  0.1128  0.1258  1.0891
  464TMC3    O1 6969   0.527   4.076   1.055  0.2191 -0.3379  0.3669
  464TMC3    O2 6970   0.332   4.617   1.263  0.1909  0.3224 -0.0132
  465MPD2     C 6971   1.589   0.041  16.528  0.5182  0.2877 -0.2829
  465MPD2    C1 6972   1.630   4.701  16.641  1.2388 -0.5220 -0.3329
  465MPD2    C2 6973   1.607   4.564  16.632 -0.3383  0.0663  0.6191
  465MPD2    C3 6974   1.542   4.501  16.527  0.0452 -0.8838  0.5337
  465MPD2    C4 6975   1.490   4.585  16.428  0.6394  0.3707 -0.5299
  465MPD2    C5 6976   1.514   4.720  16.433 -0.1207  0.1703 -0.6050
  465MPD2     H 6977   1.645   4.499  16.710  0.3854 -0.9561 -0.5799
  465MPD2    H1 6978   1.430   4.557  16.343  0.8699 -0.1000 -0.5395
  465MPD2    H2 6979   1.616   0.145  16.518  0.7508  0.2703  0.1647
  465MPD2    H3 6980   1.482   0.049  16.351 -0.2352  1.0710  0.1321
  465MPD2     N 6981   1.524   4.356  16.519  0.3486 -0.4064 -0.1627
  465MPD2    H5 6982   1.557   4.298  16.596 -0.9581  0.4393  1.0259
  465MPD2    N1 6983   1.716   0.017  16.740 -0.3406  0.1604 -0.0146
  465MPD2    H7 6984   1.741   4.685  16.813 -1.8952  1.8977  2.1255
  466TMC3    C1 6985   1.404   4.060  16.669 -0.3233  0.6322 -0.9470
  466TMC3    C2 6986   1.269   4.036  16.656 -0.1571 -0.4171 -0.0783
  466TMC3    C3 6987   1.204   4.083  16.550  0.6221  0.2597 -0.0444
  466TMC3    C4 6988   1.475   4.132  16.578 -0.3513  0.1110 -0.3905
  466TMC3    C5 6989   1.416   4.161  16.466  0.0200 -0.3387  0.2773
  466TMC3    C6 6990   1.276   4.141  16.450  0.3047  0.5161  0.0346
  466TMC3     C 6991   1.451   4.082  16.806  0.1693  1.1664  0.3789
  466TMC3     O 6992   1.508   4.187  16.826  0.4332 -0.2258  0.0882
  466TMC3     H 6993   1.217   4.015  16.749 -1.2446  2.8698  0.0554
  466TMC3    H1 6994   1.582   4.140  16.596  0.2080 -1.0582 -3.2842
  466TMC3    H2 6995   1.226   4.163  16.356  1.7241  2.7433 -0.2007
  466TMC3    C7 6996   1.442   4.298  16.432  0.0722 -0.3317  0.1151
  466TMC3    C8 6997   1.074   4.141  16.575 -0.7340 -0.4801 -0.3083
  466TMC3    O1 6998   1.382   4.337  16.330  0.1496 -0.2695  0.1737
  466TMC3    O2 6999   1.049   4.166  16.691  0.1817 -0.1832  0.6500
  467TMC3    C1 7000   2.077   2.713  13.674  0.0575 -0.9548  0.2832
  467TMC3    C2 7001   2.111   2.782  13.562 -0.6272 -0.8808 -0.9513
  467TMC3    C3 7002   2.139   2.705  13.449 -0.0582 -0.1810  0.4425
  467TMC3    C4 7003   2.045   2.587  13.668  0.7691 -0.2200  0.2928
  467TMC3    C5 7004   2.068   2.514  13.551  0.1911 -0.3312  0.1008
  467TMC3    C6 7005   2.125   2.568  13.443 -0.1746 -0.7661 -0.2020
  467TMC3     C 7006   2.198   2.706  13.760  0.6526 -0.2034 -0.3421
  467TMC3     O 7007   2.245   2.594  13.763  0.6854 -0.6015 -0.1930
  467TMC3     H 7008   2.147   2.883  13.572 -0.5421 -0.8605 -1.4607
  467TMC3    H1 7009   2.018   2.535  13.759  0.8926  0.3489  0.6513
  467TMC3    H2 7010   2.148   2.510  13.354 -0.2851 -0.8730 -0.1601
  467TMC3    C7 7011   2.067   2.372  13.562 -0.5817  0.2503 -0.7402
  467TMC3    C8 7012   2.258   2.759  13.377 -0.2385 -0.3687 -0.6725
  467TMC3    O1 7013   2.141   2.298  13.497 -0.4910  0.0958 -0.2847
  467TMC3    O2 7014   2.239   2.881  13.357 -0.0551  0.6546  0.7264
  468MPD2     C 7015   0.330   0.173  10.618  0.7593 -0.1933  0.3460
  468MPD2    C1 7016   0.459   0.179  10.678 -0.3839 -0.0958  0.0844
  468MPD2    C2 7017   0.516   0.060  10.723 -0.2060  0.3289  0.3094
  468MPD2    C3 7018   0.441   4.681  10.716  0.1133  0.1318  0.1177
  468MPD2    C4 7019   0.315   4.681  10.652 -0.3610  0.9666  0.2713
  468MPD2    C5 7020   0.255   0.055  10.609 -0.0446 -0.0581 -0.4644
  468MPD2     H 7021   0.614   0.054  10.770 -0.2548  1.0752  0.5049
  468MPD2    H1 7022   0.254   4.593  10.641  3.3921 -1.3278 -2.1514
  468MPD2    H2 7023   0.295   0.264  10.570 -1.6130 -0.8670  0.8133
  468MPD2    H3 7024   0.160   0.044  10.558 -1.3913  1.9433  1.5962
  468MPD2     N 7025   0.482   4.557  10.764  0.2616  0.3504 -0.9628
  468MPD2    H5 7026   0.409   4.486  10.765  1.3305 -0.7391 -1.1571
  468MPD2    N1 7027   0.522   0.300  10.716 -0.2047 -0.5671  0.4156
  468MPD2    H7 7028   0.613   0.308  10.762 -0.1832 -2.7295  0.7278
  469TMC3    C1 7029   0.515   0.516  10.803  0.2598 -0.2524  1.0572
  469TMC3    C2 7030   0.649   0.537  10.765  0.1369  0.7257 -0.3946
  469TMC3    C3 7031   0.713   0.650  10.814  0.2534  0.1580 -0.4920
  469TMC3    C4 7032   0.452   0.595  10.895  0.1370  0.0931 -0.2713
  469TMC3    C5 7033   0.532   0.695  10.953 -0.2799  0.1676 -0.7435
  469TMC3    C6 7034   0.653   0.728  10.909 -0.8724  0.3133 -0.5789
  469TMC3     C 7035   0.444   0.412  10.730  0.3711 -0.3177  0.4077
  469TMC3     O 7036   0.321   0.429  10.738 -0.7180 -0.1897 -0.1659
  469TMC3     H 7037   0.687   0.490  10.676 -0.8651  0.9757 -0.9527
  469TMC3    H1 7038   0.351   0.580  10.932  0.4637  0.5661  0.8226
  469TMC3    H2 7039   0.703   0.819  10.941  0.2395 -1.5671  2.9889
  469TMC3    C7 7040   0.489   0.749  11.081  0.3206 -1.0754  0.3027
  469TMC3    C8 7041   0.843   0.694  10.762 -0.7265  0.0713 -0.6220
  469TMC3    O1 7042   0.375   0.715  11.110  0.0771 -0.5903  0.6845
  469TMC3    O2 7043   0.879   0.646  10.654 -0.2450  0.2292 -0.1942
  470TMC3    C1 7044   3.380   2.140   0.180 -0.7903  0.2612 -0.6677
  470TMC3    C2 7045   3.469   2.220   0.248  0.0940 -0.0465 -0.1582
  470TMC3    C3 7046   3.532   2.160   0.359 -0.9134  0.1374 -0.1592
  470TMC3    C4 7047   3.348   2.011   0.233  0.2926 -0.1467  0.4691
  470TMC3    C5 7048   3.418   1.959   0.333  0.0272  0.2268  0.4274
  470TMC3    C6 7049   3.514   2.027   0.403 -0.2411  0.5513  0.2404
  470TMC3     C 7050   3.309   2.200   0.067  1.3895 -0.5060  0.3915
  470TMC3     O 7051   3.314   2.322   0.052 -0.8206  0.4585  0.3209
  470TMC3     H 7052   3.493   2.320   0.214 -0.7284  0.4913  0.8544
  470TMC3    H1 7053   3.261   1.964   0.187  1.0015 -1.8127  0.8486
  470TMC3    H2 7054   3.563   1.982   0.488  0.0714 -2.8236 -1.7243
  470TMC3    C7 7055   3.384   1.827   0.371 -0.0584  0.6764 -0.0293
  470TMC3    C8 7056   3.620   2.249   0.442  0.3080  0.3485  0.3678
  470TMC3    O1 7057   3.367   1.757   0.273 -0.4494  0.5484 -0.0866
  470TMC3    O2 7058   3.624   2.232   0.563  0.3785  0.2428  0.2472
  471MPD2     C 7059   3.801   2.870  16.089 -0.3971  0.0218 -0.5527
  471MPD2    C1 7060   3.883   2.758  16.086 -0.3461 -0.2130  0.4255
  471MPD2    C2 7061   3.978   2.750  16.181  0.1146 -0.3164  0.1968
  471MPD2    C3 7062   3.978   2.839  16.293 -0.7673  0.5760 -0.7952
  471MPD2    C4 7063   3.892   2.951  16.291  0.5348 -0.3850 -0.4147
  471MPD2    C5 7064   3.815   2.970  16.185  0.1260  0.6355 -0.0644
  471MPD2     H 7065   4.027   2.654  16.174 -0.9595 -1.0382  2.5038
  471MPD2    H1 7066   3.893   3.020  16.374  1.8476 -3.2307  1.9566
  471MPD2    H2 7067   3.733   2.891  16.006  1.1536  0.4769 -1.7097
  471MPD2    H3 7068   3.745   3.053  16.180 -2.9965 -1.8987  1.3293
  471MPD2     N 7069   4.059   2.827  16.413 -0.4562  0.0319  0.1059
  471MPD2    H5 7070   4.050   2.904  16.478  2.1649 -0.9709  1.6319
  471MPD2    N1 7071   3.868   2.653  15.994  0.2852  0.2929  0.2916
  471MPD2    H7 7072   3.933   2.575  16.001  0.7677  0.7565  1.0023
  472TMC3    C1 7073   3.757   2.511  15.835 -0.4782 -0.4708  0.4704
  472TMC3    C2 7074   3.660   2.502  15.732 -0.2020  0.5874  0.4413
  472TMC3    C3 7075   3.629   2.377  15.686 -0.3824  0.7769 -1.0192
  472TMC3    C4 7076   3.821   2.409  15.884  0.2776  0.8582  0.1568
  472TMC3    C5 7077   3.780   2.283  15.844 -0.0697 -0.2672 -0.3494
  472TMC3    C6 7078   3.692   2.266  15.735 -0.1787 -0.0168 -0.1607
  472TMC3     C 7079   3.775   2.643  15.886 -0.5342  1.1443  0.4046
  472TMC3     O 7080   3.688   2.726  15.867  0.2447  0.2667 -0.0251
  472TMC3     H 7081   3.595   2.584  15.704 -0.0585  0.7633  0.6234
  472TMC3    H1 7082   3.895   2.418  15.963 -0.5161  0.2401  0.9732
  472TMC3    H2 7083   3.661   2.166  15.707 -0.4968  0.6720 -2.2347
  472TMC3    C7 7084   3.759   2.193  15.953 -0.4312  0.0627  0.5681
  472TMC3    C8 7085   3.482   2.351  15.688 -0.1612 -0.3281 -0.5096
  472TMC3    O1 7086   3.820   2.210  16.056 -0.1160 -0.3672 -0.0419
  472TMC3    O2 7087   3.448   2.254  15.757  0.1180  0.1075 -0.1613
  473MPD2     C 7088   3.095   0.141  14.319 -0.2158 -0.4886  0.1498
  473MPD2    C1 7089   3.203   0.079  14.377  0.1340  1.2742  0.3137
  473MPD2    C2 7090   3.246   0.121  14.501  1.1908  0.6043 -0.0880
  473MPD2    C3 7091   3.202   0.241  14.551  0.2840 -0.6229  0.0662
  473MPD2    C4 7092   3.100   0.309  14.492  0.7430  0.1077  0.5558
  473MPD2    C5 7093   3.043   0.257  14.378 -0.2772 -0.0787 -0.6688
  473MPD2     H 7094   3.322   0.060  14.548  1.0905  0.5340 -0.0161
  473MPD2    H1 7095   3.071   0.411  14.518  1.2555  0.5715 -0.6874
  473MPD2    H2 7096   3.066   0.115  14.218  0.3267  0.5574 -0.2798
  473MPD2    H3 7097   2.966   0.312  14.324 -0.7601  0.6174  0.7152
  473MPD2     N 7098   3.260   0.292  14.674  0.5889  0.1993  0.7393
  473MPD2    H5 7099   3.226   0.379  14.713 -0.5537  0.5135 -0.9789
  473MPD2    N1 7100   3.264   4.699  14.318  0.7151 -0.2130 -0.5327
  473MPD2    H7 7101   3.341   4.658  14.370  0.5280 -0.1742 -0.2238
  474TMC3    C1 7102   3.424   0.335  14.831  0.2243  0.1565  0.0204
  474TMC3    C2 7103   3.332   0.425  14.883  0.3263 -0.3498 -0.4457
  474TMC3    C3 7104   3.383   0.544  14.944 -0.2093  0.0325 -1.0222
  474TMC3    C4 7105   3.555   0.351  14.846 -0.2125 -0.1130  0.1106
  474TMC3    C5 7106   3.604   0.457  14.922  0.3475  0.2084  0.2872
  474TMC3    C6 7107   3.518   0.554  14.959  0.0369 -0.3617 -0.3172
  474TMC3     C 7108   3.378   0.244  14.728 -0.1581  0.6259 -0.2649
  474TMC3     O 7109   3.452   0.153  14.695 -0.1331 -0.2826 -0.3943
  474TMC3     H 7110   3.228   0.400  14.896  0.1067  1.7868  1.9447
  474TMC3    H1 7111   3.618   0.274  14.802  0.1382 -0.0309  0.4696
  474TMC3    H2 7112   3.553   0.632  15.026 -0.9629  0.4375 -0.7297
  474TMC3    C7 7113   3.744   0.480  14.898  0.2005  0.3832  0.2296
  474TMC3    C8 7114   3.323   0.658  14.871 -0.0498 -0.5820 -0.0568
  474TMC3    O1 7115   3.782   0.459  14.782  0.8771 -0.8436  0.2847
  474TMC3    O2 7116   3.257   0.619  14.782 -0.2458  0.5284  0.2334
  475MPD2     C 7117   1.663   2.919   9.814 -0.3013 -0.3814 -0.5574
  475MPD2    C1 7118   1.756   2.992   9.887  0.2330 -0.1677  0.0599
  475MPD2    C2 7119   1.724   3.032  10.014  0.1879  0.0243 -0.5806
  475MPD2    C3 7120   1.597   3.002  10.075 -0.2780  0.5199 -0.0981
  475MPD2    C4 7121   1.512   2.917  10.008  0.2182  0.1110  0.7176
  475MPD2    C5 7122   1.547   2.884   9.876 -0.1736 -0.4252 -0.0313
  475MPD2     H 7123   1.787   3.101  10.070 -0.3793 -1.4705  1.8847
  475MPD2    H1 7124   1.413   2.889  10.041  0.1868  0.2249  0.7182
  475MPD2    H2 7125   1.669   2.884   9.712  0.5073  1.2676 -1.0823
  475MPD2    H3 7126   1.469   2.826   9.829 -2.1612  0.9256  1.6136
  475MPD2     N 7127   1.569   3.051  10.207 -0.0376  0.2482 -0.1200
  475MPD2    H5 7128   1.642   3.108  10.248  0.1238 -0.5378  0.6723
  475MPD2    N1 7129   1.875   3.042   9.828 -0.0162 -0.2514 -0.2490
  475MPD2    H7 7130   1.929   3.113   9.877  2.8433 -1.6720 -1.3877
  476TMC3    C1 7131   2.046   3.064   9.667  0.1623 -0.1905  0.1124
  476TMC3    C2 7132   2.077   3.072   9.538  0.2758 -0.0343  0.5930
  476TMC3    C3 7133   2.206   3.077   9.495 -0.0119 -0.0348 -0.0390
  476TMC3    C4 7134   2.149   3.056   9.763 -0.1665 -0.2021  0.1034
  476TMC3    C5 7135   2.276   3.063   9.719  0.0975 -0.0056 -0.5562
  476TMC3    C6 7136   2.309   3.077   9.586  0.8655  0.0094  0.5023
  476TMC3     C 7137   1.911   3.021   9.697 -0.2246 -0.0595  0.4040
  476TMC3     O 7138   1.861   2.955   9.608  0.4781  0.5362  0.2010
  476TMC3     H 7139   2.002   3.073   9.460 -0.7107  2.3869  1.5652
  476TMC3    H1 7140   2.132   3.028   9.866 -0.6428 -0.2072  0.0238
  476TMC3    H2 7141   2.412   3.062   9.555  0.6172 -1.2692  0.2582
  476TMC3    C7 7142   2.381   3.070   9.819 -0.0695  0.4492 -0.2498
  476TMC3    C8 7143   2.223   3.112   9.352  0.5974 -0.2174  0.8438
  476TMC3    O1 7144   2.488   3.024   9.783 -0.0431 -0.2600 -0.3690
  476TMC3    O2 7145   2.130   3.169   9.291  0.5490  0.1661  0.1369
  477MPD2     C 7146   4.097   4.655  11.617  0.3089 -0.4148 -0.2460
  477MPD2    C1 7147   3.995   4.574  11.664 -0.2079 -0.1491  0.2638
  477MPD2    C2 7148   3.996   4.541  11.798  0.5249  0.2486 -0.1523
  477MPD2    C3 7149   4.083   4.600  11.886  0.9982 -0.6509 -0.0069
  477MPD2    C4 7150   4.183   4.675  11.838 -0.0909  0.1573  0.2049
  477MPD2    C5 7151   4.182   4.706  11.708  0.4728  0.4479  0.3033
  477MPD2     H 7152   3.914   4.479  11.834  0.5939  1.2390  1.7264
  477MPD2    H1 7153   4.267   4.711  11.897  1.5257  0.6400 -2.3807
  477MPD2    H2 7154   4.109   4.683  11.513  0.2840  0.0844 -0.1102
  477MPD2    H3 7155   4.267   0.021  11.662  2.1961 -0.6142  2.3625
  477MPD2     N 7156   4.069   4.564  12.020  0.3411  0.3731  0.1227
  477MPD2    H5 7157   3.987   4.513  12.052 -1.0255  0.0229 -3.9206
  477MPD2    N1 7158   3.893   4.532  11.568 -0.2695 -0.1948 -0.6821
  477MPD2    H7 7159   3.887   4.585  11.482  1.1270 -0.1987 -0.7910
  478TMC3    C1 7160   3.693   4.438  11.492 -0.6879 -0.0624  1.0023
  478TMC3    C2 7161   3.581   4.493  11.539  1.2627 -0.2935  0.6207
  478TMC3    C3 7162   3.528   4.600  11.470  0.2376  0.2665 -0.5504
  478TMC3    C4 7163   3.733   4.460  11.367 -0.0003  0.5257  0.8062
  478TMC3    C5 7164   3.683   4.565  11.294 -0.8551  0.1831  0.1155
  478TMC3    C6 7165   3.575   4.639  11.344  0.4657  0.5631  0.2828
  478TMC3     C 7166   3.798   4.441  11.590  0.2206 -0.2648 -0.5199
  478TMC3     O 7167   3.771   4.378  11.691  0.3239  0.0287  0.5386
  478TMC3     H 7168   3.565   4.495  11.646  1.2148  1.4512  0.5766
  478TMC3    H1 7169   3.814   4.404  11.320 -2.8214 -0.7606 -2.5616
  478TMC3    H2 7170   3.526   4.717  11.287 -2.3822 -0.2550  1.6235
  478TMC3    C7 7171   3.731   4.579  11.163 -0.1006  0.0981 -0.3037
  478TMC3    C8 7172   3.466   4.691  11.559 -0.1302 -0.6479 -0.3410
  478TMC3    O1 7173   3.835   4.523  11.135  0.6688 -0.2939 -0.4116
  478TMC3    O2 7174   3.404   4.633  11.650  0.9684  0.4851  0.7011
  479MPD2     C 7175   3.448   2.069  14.982  0.0812  0.9512  0.9470
  479MPD2    C1 7176   3.397   2.001  15.089  0.0872  0.0981  0.2788
  479MPD2    C2 7177   3.469   1.996  15.207  0.5460  0.1306 -0.0611
  479MPD2    C3 7178   3.585   2.061  15.226 -0.8455 -0.4313  0.4118
  479MPD2    C4 7179   3.638   2.128  15.122 -0.5079 -0.3558 -0.2289
  479MPD2    C5 7180   3.570   2.127  15.003 -0.8348  0.5129  0.5883
  479MPD2     H 7181   3.428   1.944  15.293  1.9435 -0.5893  0.1731
  479MPD2    H1 7182   3.737   2.172  15.118 -0.8636  0.4489 -0.0144
  479MPD2    H2 7183   3.397   2.073  14.886 -0.0797  1.5435  1.0560
  479MPD2    H3 7184   3.624   2.175  14.922  1.9777  0.1681  2.2734
  479MPD2     N 7185   3.658   2.060  15.342 -0.2438  0.5105 -0.0581
  479MPD2    H5 7186   3.754   2.093  15.335 -1.4746  3.6723 -1.6205
  479MPD2    N1 7187   3.271   1.941  15.075 -0.3020 -0.3675 -0.5914
  479MPD2    H7 7188   3.231   1.942  14.982  0.2147 -0.0022 -0.8099
  480TMC3    C1 7189   3.307   1.893  15.626  0.8083  0.3035  0.2093
  480TMC3    C2 7190   3.225   1.996  15.599 -0.7668 -0.0934  0.9262
  480TMC3    C3 7191   3.270   2.103  15.527 -0.7165 -0.2640 -0.0971
  480TMC3    C4 7192   3.440   1.898  15.586 -0.1572  0.6083 -0.4050
  480TMC3    C5 7193   3.478   2.000  15.506  0.0741 -1.0642  0.3126
  480TMC3    C6 7194   3.401   2.107  15.474 -0.2475 -0.2783 -0.0145
  480TMC3     C 7195   3.274   1.782  15.724  0.9704 -0.1769  0.8498
  480TMC3     O 7196   3.363   1.711  15.772  0.4267  0.1579 -0.0657
  480TMC3     H 7197   3.124   1.998  15.639 -0.5607 -0.6099  1.4546
  480TMC3    H1 7198   3.512   1.818  15.593  2.0424  2.5262 -1.2590
  480TMC3    H2 7199   3.446   2.187  15.418  1.9001 -0.7868  0.9908
  480TMC3    C7 7200   3.619   1.997  15.466  0.0694  0.3036  0.2595
  480TMC3    C8 7201   3.169   2.152  15.433  0.3716  0.1350  0.4356
  480TMC3    O1 7202   3.696   1.970  15.553 -0.8161 -0.5039 -0.7796
  480TMC3    O2 7203   3.054   2.117  15.458  0.1107 -0.0679 -0.4364
  481MPD2     C 7204   4.147   1.209  14.037  0.0510 -0.6118 -0.1379
  481MPD2    C1 7205   4.115   1.106  14.121  0.2133 -0.0524  0.0318
  481MPD2    C2 7206   4.202   1.083  14.232  0.0609  0.9060  0.3004
  481MPD2    C3 7207   4.306   1.171  14.254  0.4749 -0.6704  0.4905
  481MPD2    C4 7208   4.330   1.277  14.181 -0.4352  0.2260  1.5557
  481MPD2    C5 7209   4.247   1.297  14.067  0.0832 -0.2062  0.2001
  481MPD2     H 7210   4.180   1.001  14.300  2.0641 -1.2871 -1.7149
  481MPD2    H1 7211   4.407   1.351  14.202 -0.4916  1.3209 -2.1074
  481MPD2    H2 7212   4.094   1.223  13.943  0.6572  0.0175 -0.3835
  481MPD2    H3 7213   4.263   1.377  13.995 -0.7853 -0.6972 -0.5455
  481MPD2     N 7214   4.400   1.152  14.361  0.2896 -0.0616 -0.0136
  481MPD2    H5 7215   4.472   1.223  14.370 -0.0439  0.1751  0.7856
  481MPD2    N1 7216   4.001   1.025  14.089 -0.2635 -0.0488 -0.2971
  481MPD2    H7 7217   3.956   1.053  14.003  0.6391  0.2864 -0.6584
  482TMC3    C1 7218   3.810   0.902  14.114 -0.5413 -0.3814 -0.0545
  482TMC3    C2 7219   3.772   0.773  14.141 -0.2228  0.1375 -0.4171
  482TMC3    C3 7220   3.662   0.726  14.082  0.2111  0.1068 -0.0101
  482TMC3    C4 7221   3.737   0.990  14.047  0.7105  0.3358 -0.0555
  482TMC3    C5 7222   3.624   0.940  13.991 -0.6252 -0.8107 -0.6574
  482TMC3    C6 7223   3.589   0.806  14.001 -0.0570  0.3151 -0.6423
  482TMC3     C 7224   3.947   0.927  14.165  0.9138  0.0821  0.2660
  482TMC3     O 7225   3.997   0.864  14.258  0.0577  0.1680 -0.3617
  482TMC3     H 7226   3.828   0.705  14.205 -1.7179 -1.1830 -0.5037
  482TMC3    H1 7227   3.761   1.096  14.054  0.7418  0.1145  3.2736
  482TMC3    H2 7228   3.495   0.782  13.953  0.4703 -2.5391 -0.2594
  482TMC3    C7 7229   3.542   1.024  13.904  0.0070 -0.7069  0.4792
  482TMC3    C8 7230   3.680   0.594  14.031  0.7938 -0.1743 -0.7052
  482TMC3    O1 7231   3.424   0.991  13.900 -0.2589 -0.0351 -0.0259
  482TMC3    O2 7232   3.795   0.551  14.032 -0.6763 -0.0040 -1.0432
  483TMC3    C1 7233   2.986   0.779   0.756  0.2917  0.3716  0.0012
  483TMC3    C2 7234   3.053   0.892   0.710 -0.4491 -0.6146  0.0048
  483TMC3    C3 7235   3.184   0.913   0.742 -0.4053 -0.3670 -0.4939
  483TMC3    C4 7236   3.048   0.696   0.851  0.2820  0.2536  0.0332
  483TMC3    C5 7237   3.175   0.727   0.885 -0.9958 -0.3122  0.4536
  483TMC3    C6 7238   3.254   0.828   0.827  0.4313  0.2146 -0.0745
  483TMC3     C 7239   2.848   0.757   0.710 -0.5985 -0.0101  0.0812
  483TMC3     O 7240   2.799   0.842   0.638  1.0993  0.3062  0.3232
  483TMC3     H 7241   3.002   0.959   0.641 -1.0698  1.3205  2.3324
  483TMC3    H1 7242   3.005   0.604   0.888  1.1883 -0.9430 -1.9008
  483TMC3    H2 7243   3.354   0.848   0.863 -0.0823 -1.4795  2.2899
  483TMC3    C7 7244   3.251   0.634   0.963  0.1814 -0.3824  0.5351
  483TMC3    C8 7245   3.257   1.006   0.648  0.5482  0.3124 -0.9756
  483TMC3    O1 7246   3.373   0.637   0.952  0.1686  0.1483  0.5588
  483TMC3    O2 7247   3.204   1.023   0.539 -0.0483  0.0804  0.0536
  484MPD2     C 7248   0.695   3.518  12.566 -0.6286  0.0686  0.5045
  484MPD2    C1 7249   0.737   3.395  12.620  0.4661  0.7897  0.5876
  484MPD2    C2 7250   0.875   3.368  12.623 -0.4003 -0.0681  0.2480
  484MPD2    C3 7251   0.965   3.468  12.578 -0.4973  0.7517  0.0077
  484MPD2    C4 7252   0.916   3.590  12.534  0.4541  0.1142  0.1010
  484MPD2    C5 7253   0.783   3.602  12.519  0.1845 -0.1238  0.0344
  484MPD2     H 7254   0.918   3.275  12.658  0.1814  0.8881  2.0425
  484MPD2    H1 7255   0.994   3.659  12.504  0.4752  0.3985  0.7855
  484MPD2    H2 7256   0.591   3.547  12.552 -0.6088  0.7075  1.7133
  484MPD2    H3 7257   0.747   3.695  12.477  2.1516 -0.1839 -1.8244
  484MPD2     N 7258   1.107   3.452  12.568 -0.5711  0.1172  0.1160
  484MPD2    H5 7259   1.160   3.529  12.528  1.3035 -0.7979  0.8595
  484MPD2    N1 7260   0.632   3.309  12.658  0.4607  0.1738 -0.3581
  484MPD2    H7 7261   0.542   3.330  12.617  0.7458  1.8276 -0.1749
  485TMC3    C1 7262   1.312   3.337  12.556 -0.2141  0.2776  0.0446
  485TMC3    C2 7263   1.407   3.245  12.600  0.6048 -0.7373 -0.3123
  485TMC3    C3 7264   1.542   3.273  12.587 -0.3136 -0.0311 -0.5135
  485TMC3    C4 7265   1.352   3.432  12.464  0.0139 -0.1833  0.0633
  485TMC3    C5 7266   1.482   3.457  12.447  0.1142  0.0680  0.4882
  485TMC3    C6 7267   1.578   3.388  12.515  0.4867  0.1525  0.5307
  485TMC3     C 7268   1.175   3.335  12.603  0.0616  0.8988  0.0827
  485TMC3     O 7269   1.155   3.235  12.675 -0.4111  0.1072  0.0592
  485TMC3     H 7270   1.376   3.163  12.664 -0.3465 -1.2235 -1.4015
  485TMC3    H1 7271   1.279   3.497  12.416 -0.8381 -0.8964  0.3868
  485TMC3    H2 7272   1.682   3.410  12.494  0.0083  2.2773  0.4112
  485TMC3    C7 7273   1.513   3.494  12.314 -0.3449  0.4649 -0.3107
  485TMC3    C8 7274   1.620   3.163  12.541  0.3746  0.5817 -0.3256
  485TMC3    O1 7275   1.439   3.577  12.255 -0.7108  0.0602  0.2112
  485TMC3    O2 7276   1.681   3.187  12.435  0.0745 -0.4924  0.2666
  486MPD2     C 7277   2.812   2.052  12.814  0.0648 -0.0345 -0.2858
  486MPD2    C1 7278   2.786   2.050  12.675  0.2906 -0.8365 -0.1849
  486MPD2    C2 7279   2.712   2.155  12.620  0.2981  0.1858  0.2096
  486MPD2    C3 7280   2.674   2.263  12.700  0.5499  0.2827 -0.3052
  486MPD2    C4 7281   2.710   2.271  12.831  1.0435 -0.2703  0.5952
  486MPD2    C5 7282   2.776   2.161  12.889 -0.0783  0.2732  0.3451
  486MPD2     H 7283   2.691   2.142  12.515  1.1717  0.2509  0.0237
  486MPD2    H1 7284   2.688   2.352  12.900 -0.8744  1.0205 -1.5220
  486MPD2    H2 7285   2.858   1.967  12.863 -1.1195 -1.4497 -1.6050
  486MPD2    H3 7286   2.796   2.161  12.996 -2.0978  0.5299  0.7176
  486MPD2     N 7287   2.599   2.372  12.639 -0.3212 -0.0169 -0.1984
  486MPD2    H5 7288   2.601   2.372  12.538 -3.9879 -2.1206 -0.2861
  486MPD2    N1 7289   2.821   1.929  12.609  0.0424 -0.7198 -0.0761
  486MPD2    H7 7290   2.874   1.865  12.667 -0.7766  1.1745  2.7614
  487TMC3    C1 7291   2.809   1.746  12.459  0.2282  0.0615  0.7794
  487TMC3    C2 7292   2.700   1.666  12.430 -0.4787 -0.5851  0.0675
  487TMC3    C3 7293   2.714   1.539  12.468  0.0837 -0.0675 -0.2301
  487TMC3    C4 7294   2.925   1.701  12.513 -0.0432 -0.8729 -0.5782
  487TMC3    C5 7295   2.933   1.569  12.552 -0.4119  0.2408  0.0692
  487TMC3    C6 7296   2.833   1.490  12.512 -0.8865 -0.2146 -0.3484
  487TMC3     C 7297   2.777   1.886  12.483 -0.1292 -0.2522  0.4658
  487TMC3     O 7298   2.710   1.952  12.405 -0.4329 -0.6302  0.3512
  487TMC3     H 7299   2.605   1.711  12.407  0.0648 -0.5447 -2.1156
  487TMC3    H1 7300   3.008   1.764  12.544 -1.9173  1.1424  0.3249
  487TMC3    H2 7301   2.817   1.397  12.565  0.2438 -1.0388 -1.4658
  487TMC3    C7 7302   2.946   1.580  12.701  0.7770 -0.3846 -0.6468
  487TMC3    C8 7303   2.601   1.482  12.537 -0.8889  0.6278 -0.0801
  487TMC3    O1 7304   2.919   1.691  12.743  0.0644  0.3343 -0.3849
  487TMC3    O2 7305   2.544   1.563  12.616 -0.2766  0.6495 -0.1192
  488MPD2     C 7306   3.137   3.722  16.381 -0.0616  0.1701  0.5614
  488MPD2    C1 7307   3.156   3.859  16.393 -0.3073  0.4546 -0.3372
  488MPD2    C2 7308   3.139   3.912  16.522  1.3382  0.2282 -0.8456
  488MPD2    C3 7309   3.120   3.832  16.640  0.3812  0.2421  0.3508
  488MPD2    C4 7310   3.119   3.696  16.618 -0.0308 -0.5715  0.3256
  488MPD2    C5 7311   3.112   3.655  16.491  0.0249  0.1438  0.2412
  488MPD2     H 7312   3.138   4.021  16.525  0.5716  0.1237  1.9578
  488MPD2    H1 7313   3.102   3.620  16.694  0.6904 -1.3601 -0.2846
  488MPD2    H2 7314   3.128   3.673  16.285 -2.7786  0.1311  0.8336
  488MPD2    H3 7315   3.100   3.548  16.476  0.7373  0.1749 -0.5745
  488MPD2     N 7316   3.107   3.890  16.765  0.7178 -0.0397  0.5982
  488MPD2    H5 7317   3.103   3.991  16.761  1.1302 -0.0583 -0.2284
  488MPD2    N1 7318   3.182   3.943  16.284  0.2482  0.1844 -0.0416
  488MPD2    H7 7319   3.198   4.042  16.300 -0.0534  0.5689 -2.0320
  489TMC3    C1 7320   3.110   3.928  16.993 -0.2735 -0.0450 -0.3745
  489TMC3    C2 7321   3.177   4.040  16.967  0.6228 -0.1522 -0.3418
  489TMC3    C3 7322   3.165   4.145  17.054  0.1322  0.1403  0.0091
  489TMC3    C4 7323   3.066   3.895  17.124 -0.2154 -0.0830  0.1542
  489TMC3    C5 7324   3.065   4.005  17.207 -0.4403 -0.5163 -0.0629
  489TMC3    C6 7325   3.108   4.128  17.174 -0.4436 -0.2306 -0.1727
  489TMC3     C 7326   3.102   3.825  16.889 -0.8868  0.4301 -0.0675
  489TMC3     O 7327   3.088   3.706  16.915  0.1558 -0.7298  0.6137
  489TMC3     H 7328   3.235   4.049  16.876 -1.3713  1.3825 -1.4481
  489TMC3    H1 7329   3.032   3.796  17.151  0.4595 -0.3671 -0.0375
  489TMC3    H2 7330   3.139   4.200  17.249 -0.8943 -0.9446  0.6925
  489TMC3    C7 7331   3.007   3.982  17.344  0.4285  0.5247 -0.4961
  489TMC3    C8 7332   3.244   4.266  17.039 -0.5777 -0.3931 -0.3302
  489TMC3    O1 7333   3.009   3.873  17.391  0.5714  0.2737  0.1462
  489TMC3    O2 7334   3.340   4.258  16.961 -0.0027  0.2717 -0.1732
  490MPD2     C 7335   3.859   3.486  16.994 -0.0775  0.0652  1.0006
  490MPD2    C1 7336   3.807   3.456  17.119  0.1967  0.3446 -0.0380
  490MPD2    C2 7337   3.887   3.471  17.232  0.2982  0.0166 -1.1005
  490MPD2    C3 7338   4.014   3.522  17.219 -0.2293 -0.4213  0.5386
  490MPD2    C4 7339   4.069   3.542  17.093 -0.0142  0.8414  0.0491
  490MPD2    C5 7340   3.990   3.525  16.979 -0.2536  0.1023 -0.0574
  490MPD2     H 7341   3.856   3.438  17.331  0.3397 -2.9412 -2.0834
  490MPD2    H1 7342   4.172   3.568  17.070 -0.5587  3.3111  0.3858
  490MPD2    H2 7343   3.802   3.467  16.904  0.2384  1.1615  0.5671
  490MPD2    H3 7344   4.041   3.550  16.886 -0.8705 -0.2026 -0.4782
  490MPD2     N 7345   4.107   3.548  17.317 -0.2380  0.4161 -0.3214
  490MPD2    H5 7346   4.204   3.557  17.288 -0.1266  1.0669  0.2492
  490MPD2    N1 7347   3.679   3.403  17.129  0.4802  0.4543 -0.7125
  490MPD2    H7 7348   3.644   3.371  17.039 -0.2606  0.1097 -0.3031
  491TMC3    C1 7349   3.501   3.278  17.225  1.0052 -0.1487 -0.7518
  491TMC3    C2 7350   3.477   3.176  17.316 -0.2025  0.6779  1.2641
  491TMC3    C3 7351   3.427   3.061  17.270 -0.9008  0.0852  0.0318
  491TMC3    C4 7352   3.457   3.257  17.096  0.1948 -0.1300  0.5984
  491TMC3    C5 7353   3.420   3.132  17.052  0.4269 -1.3188  0.3051
  491TMC3    C6 7354   3.397   3.030  17.142 -0.5472 -0.1860  0.7099
  491TMC3     C 7355   3.614   3.369  17.249  0.4524 -0.1515 -0.4710
  491TMC3     O 7356   3.642   3.391  17.365  0.2055  0.2594  0.6649
  491TMC3     H 7357   3.497   3.200  17.419  2.8714  0.0081  0.8406
  491TMC3    H1 7358   3.458   3.338  17.023 -0.2158 -1.4660 -0.8900
  491TMC3    H2 7359   3.346   2.939  17.112  0.7244 -1.3861  2.1680
  491TMC3    C7 7360   3.337   3.117  16.930  0.7620 -0.1227  0.3868
  491TMC3    C8 7361   3.406   2.947  17.362 -0.9095  0.9554 -0.5857
  491TMC3    O1 7362   3.361   3.013  16.872  0.7204  0.6703  0.4268
  491TMC3    O2 7363   3.387   2.985  17.478  0.3801 -0.1998  0.3663
  492MPD2     C 7364   3.971   3.280  11.439  0.2349  0.2833 -0.1664
  492MPD2    C1 7365   3.944   3.162  11.367  0.2306  0.4867 -0.2686
  492MPD2    C2 7366   3.943   3.044  11.434  0.3679  0.3731  0.7758
  492MPD2    C3 7367   3.956   3.037  11.570  0.9360 -0.0028  0.1082
  492MPD2    C4 7368   3.962   3.154  11.643 -0.6744  0.6091 -0.4403
  492MPD2    C5 7369   3.972   3.274  11.575 -0.0749  0.4154 -0.4326
  492MPD2     H 7370   3.925   2.949  11.387  0.1532  0.1554  1.2906
  492MPD2    H1 7371   3.961   3.151  11.751 -2.3205  1.4470 -0.4333
  492MPD2    H2 7372   3.982   3.380  11.400  0.0546  0.9451  1.4641
  492MPD2    H3 7373   3.991   3.366  11.628  2.6095 -1.7024  2.3244
  492MPD2     N 7374   3.943   2.917  11.646 -0.1916  0.0297  0.2089
  492MPD2    H5 7375   3.943   2.921  11.747 -0.0797 -0.1922  0.2182
  492MPD2    N1 7376   3.918   3.177  11.227 -0.2799 -0.2250 -0.4566
  492MPD2    H7 7377   3.926   3.271  11.190 -1.5989  0.0152 -0.1278
  493TMC3    C1 7378   3.936   3.091  11.003 -0.1233  0.9463  0.5987
  493TMC3    C2 7379   4.012   3.197  10.969  0.5206  0.3216 -0.4213
  493TMC3    C3 7380   4.044   3.201  10.832  0.0889 -0.4479  0.7139
  493TMC3    C4 7381   3.902   2.986  10.917  0.6257  0.2171  0.7620
  493TMC3    C5 7382   3.946   3.002  10.784 -0.6292 -0.7638  0.6869
  493TMC3    C6 7383   4.018   3.105  10.743 -0.9906 -0.0374  0.0097
  493TMC3     C 7384   3.913   3.069  11.143 -0.0944 -0.4030 -0.5214
  493TMC3     O 7385   3.887   2.953  11.171  0.3418  0.0357 -0.0040
  493TMC3     H 7386   4.048   3.283  11.025 -1.1365  2.6989 -3.0318
  493TMC3    H1 7387   3.855   2.894  10.950 -0.6945  0.8923  0.7446
  493TMC3    H2 7388   4.043   3.118  10.638 -0.1257 -0.1585  0.1969
  493TMC3    C7 7389   3.896   2.913  10.689 -0.5856 -0.1755 -0.3979
  493TMC3    C8 7390   4.109   3.320  10.778 -1.0375 -0.3425  0.5699
  493TMC3    O1 7391   3.849   2.966  10.589  0.9470  0.4543  0.0733
  493TMC3    O2 7392   4.178   3.383  10.855 -0.2754  0.9755 -0.0639
  494TMC3    C1 7393   4.554   0.414   0.476  0.0596 -0.1173 -0.5066
  494TMC3    C2 7394   4.582   0.285   0.445 -1.0055 -0.4454 -0.4228
  494TMC3    C3 7395   4.558   0.241   0.318 -0.2531 -0.4145 -0.5273
  494TMC3    C4 7396   4.519   0.508   0.383  0.1825 -1.1202  0.1697
  494TMC3    C5 7397   4.489   0.462   0.259 -0.2918 -0.5589  0.1525
  494TMC3    C6 7398   4.507   0.331   0.226 -0.1651 -0.2580 -0.1516
  494TMC3     C 7399   4.544   0.453   0.619  0.0285 -0.1184 -0.0619
  494TMC3     O 7400   4.610   0.383   0.692 -0.4434  0.2408 -0.0234
  494TMC3     H 7401   4.621   0.219   0.522 -3.4680 -0.4459  0.8142
  494TMC3    H1 7402   4.515   0.612   0.413  0.1296 -0.7130 -1.2308
  494TMC3    H2 7403   4.461   0.301   0.133 -3.2773  1.5224  0.8212
  494TMC3    C7 7404   4.547   0.552   0.154  0.0029  0.1661 -0.7354
  494TMC3    C8 7405   4.589   0.104   0.283  0.2019  0.9486  0.4080
  494TMC3    O1 7406   4.609   0.487   0.071  0.4600 -0.1106  0.1432
  494TMC3    O2 7407   4.621   0.031   0.373 -0.2801  0.1623  0.8174
  495TMC3    C1 7408   3.494   2.534  14.547  0.9606 -0.3430 -0.2608
  495TMC3    C2 7409   3.397   2.496  14.458 -0.1963 -0.1523  0.2889
  495TMC3    C3 7410   3.324   2.385  14.489  0.1273  0.5926 -0.8890
  495TMC3    C4 7411   3.503   2.477  14.673  0.3322 -0.0600 -0.0955
  495TMC3    C5 7412   3.413   2.375  14.702  0.0923 -0.9157 -0.5136
  495TMC3    C6 7413   3.323   2.323  14.606 -0.4983 -0.0025  0.2568
  495TMC3     C 7414   3.542   2.667  14.534 -0.0261  0.5171  0.2309
  495TMC3     O 7415   3.491   2.745  14.610  0.6056 -0.4818 -0.1477
  495TMC3     H 7416   3.380   2.543  14.362  1.3689 -0.7874 -0.3078
  495TMC3    H1 7417   3.573   2.528  14.738  1.8401  1.4423 -2.8604
  495TMC3    H2 7418   3.286   2.223  14.623 -0.3400  0.2278  1.9383
  495TMC3    C7 7419   3.366   2.369  14.839 -0.3016  0.1631 -0.3740
  495TMC3    C8 7420   3.202   2.357  14.420 -0.5160  0.7899 -0.3199
  495TMC3    O1 7421   3.432   2.419  14.924 -0.5686 -0.4575  0.0880
  495TMC3    O2 7422   3.109   2.307  14.485  0.0980  0.1975  0.0620
  496MPD2     C 7423   0.614   1.910  14.960  0.6181 -0.4646  0.1599
  496MPD2    C1 7424   0.655   1.853  15.081 -0.3660 -0.3994 -0.4117
  496MPD2    C2 7425   0.562   1.850  15.183 -0.1782  1.0221  0.2057
  496MPD2    C3 7426   0.433   1.904  15.170  0.5101 -0.0472  0.5658
  496MPD2    C4 7427   0.402   1.980  15.056  0.2859  0.1538 -0.4456
  496MPD2    C5 7428   0.494   1.983  14.948 -0.4904  0.2103  0.4146
  496MPD2     H 7429   0.589   1.814  15.282 -1.8534 -0.3578  0.1665
  496MPD2    H1 7430   0.308   2.032  15.043 -0.1218 -0.8422 -1.4777
  496MPD2    H2 7431   0.676   1.907  14.871  0.9649  0.6358  0.3623
  496MPD2    H3 7432   0.468   2.040  14.860  0.0188  1.6372  1.1949
  496MPD2     N 7433   0.327   1.900  15.264 -0.3115 -0.2406  0.2440
  496MPD2    H5 7434   0.240   1.943  15.235  0.3055 -1.1652 -3.0511
  496MPD2    N1 7435   0.789   1.807  15.095  0.7055 -0.3195 -0.1350
  496MPD2    H7 7436   0.847   1.803  15.011  1.7547 -2.3670  0.7011
  497TMC3    C1 7437   0.210   1.888  15.478  0.8123  0.6166 -0.2792
  497TMC3    C2 7438   0.099   1.866  15.416  0.9387  0.2272  0.0884
  497TMC3    C3 7439   4.711   1.872  15.486  0.0103 -0.6395 -0.0268
  497TMC3    C4 7440   0.211   1.936  15.603 -0.0028  0.4872  0.6932
  497TMC3    C5 7441   0.096   1.940  15.671  0.7360 -0.2220  0.2561
  497TMC3    C6 7442   4.708   1.909  15.616  0.8129 -0.7045  0.1757
  497TMC3     C 7443   0.338   1.874  15.402 -0.2086  0.3017  0.1124
  497TMC3     O 7444   0.438   1.862  15.469 -0.0079 -0.3972 -0.2951
  497TMC3     H 7445   0.106   1.820  15.319  0.0579  0.2076  0.0368
  497TMC3    H1 7446   0.308   1.933  15.653 -0.0419 -0.5201  0.7080
  497TMC3    H2 7447   4.615   1.907  15.672  0.0425 -1.7271 -1.1489
  497TMC3    C7 7448   0.098   1.951  15.815 -0.0478  0.1122 -0.5090
  497TMC3    C8 7449   4.584   1.863  15.420  0.0744 -0.0789  0.0037
  497TMC3    O1 7450   4.731   1.914  15.873  0.1572  0.2338  0.9070
  497TMC3    O2 7451   4.492   1.873  15.494 -0.1166  0.4011  0.3908
  498MPD2     C 7452   0.798   4.160  10.197  0.1557 -0.3016  0.1196
  498MPD2    C1 7453   0.895   4.064  10.221  0.0126  0.5637 -0.3169
  498MPD2    C2 7454   0.860   3.929  10.224 -0.3585 -0.0396 -0.0195
  498MPD2    C3 7455   0.727   3.885  10.195  0.2017  0.4438 -0.4600
  498MPD2    C4 7456   0.628   3.986  10.172 -0.3221  0.4330  0.1503
  498MPD2    C5 7457   0.665   4.119  10.180 -0.2961  0.1358  0.4189
  498MPD2     H 7458   0.944   3.864  10.246 -0.1577 -0.4499 -2.0155
  498MPD2    H1 7459   0.523   3.964  10.156  0.0783 -0.9411 -0.5846
  498MPD2    H2 7460   0.823   4.265  10.187 -0.2187 -0.4106 -1.9599
  498MPD2    H3 7461   0.581   4.183  10.158 -0.3694 -0.0710  0.0933
  498MPD2     N 7462   0.697   3.749  10.181 -0.2362 -0.1306  0.4833
  498MPD2    H5 7463   0.774   3.687  10.205  0.0587 -0.1783 -0.6044
  498MPD2    N1 7464   1.034   4.086  10.226 -0.1840  0.0804 -0.9300
  498MPD2    H7 7465   1.090   4.003  10.237  1.1269  0.9814 -0.8369
  499TMC3    C1 7466   1.231   4.210  10.203  0.3110 -0.3022 -0.1996
  499TMC3    C2 7467   1.275   4.127  10.106  0.7202  0.5602  0.5000
  499TMC3    C3 7468   1.367   4.169  10.022  0.3500 -0.5053 -0.5942
  499TMC3    C4 7469   1.285   4.333  10.226 -0.2257  0.0216  0.0968
  499TMC3    C5 7470   1.387   4.370  10.142 -0.5750  0.4078  0.0510
  499TMC3    C6 7471   1.433   4.291  10.039  0.1267 -0.1272 -0.7575
  499TMC3     C 7472   1.088   4.209  10.239 -0.1061  0.5934  0.2224
  499TMC3     O 7473   1.039   4.318  10.266 -0.0710 -0.1189 -0.4938
  499TMC3     H 7474   1.225   4.036  10.076  1.2653  0.3239  0.2922
  499TMC3    H1 7475   1.261   4.393  10.313  0.5960  1.1550 -0.4710
  499TMC3    H2 7476   1.494   4.334   9.961  1.6682  1.4559  1.3093
  499TMC3    C7 7477   1.388   4.510  10.102 -0.1592 -0.5362 -0.1615
  499TMC3    C8 7478   1.399   4.079   9.912  0.1638  0.2477  0.0192
  499TMC3    O1 7479   1.465   4.550  10.017  0.0794 -0.2498  0.5761
  499TMC3    O2 7480   1.437   4.128   9.807  0.7423 -0.5351  0.1613
  500MPD2     C 7481   2.823   4.187  10.487 -0.3477 -0.0328  0.7983
  500MPD2    C1 7482   2.844   4.292  10.400  0.7251 -0.1732 -0.4997
  500MPD2    C2 7483   2.742   4.377  10.364  0.6301 -0.0655 -0.5683
  500MPD2    C3 7484   2.611   4.337  10.410 -0.3316  0.1530  0.1823
  500MPD2    C4 7485   2.591   4.222  10.482 -0.0067  0.0884  0.3376
  500MPD2    C5 7486   2.699   4.152  10.528  0.3521  0.1745  0.4016
  500MPD2     H 7487   2.758   4.470  10.312  0.0039 -0.7082 -1.9046
  500MPD2    H1 7488   2.494   4.199  10.525 -0.8718  1.3942 -0.9423
  500MPD2    H2 7489   2.900   4.125  10.531  1.1623  0.5703 -1.0384
  500MPD2    H3 7490   2.692   4.075  10.605 -0.4045  0.5505  0.7117
  500MPD2     N 7491   2.495   4.415  10.373  0.2986 -0.6752  0.0833
  500MPD2    H5 7492   2.406   4.382  10.409 -0.5625  1.6404  0.0356
  500MPD2    N1 7493   2.965   4.319  10.343 -0.6564 -0.6782 -0.7269
  500MPD2    H7 7494   2.974   4.409  10.295  2.7484 -1.7212 -2.0741
  501TMC3    C1 7495   3.190   4.282  10.271  0.0236  0.6397 -0.4610
  501TMC3    C2 7496   3.184   4.385  10.188 -0.7989  0.0222 -0.2880
  501TMC3    C3 7497   3.299   4.409  10.112 -0.1289 -0.6829 -0.4398
  501TMC3    C4 7498   3.305   4.217  10.302 -0.5972  0.5910  0.5334
  501TMC3    C5 7499   3.415   4.249  10.219  0.4619 -0.3833 -1.0396
  501TMC3    C6 7500   3.420   4.351  10.135 -0.8504  0.0763 -0.0816
  501TMC3     C 7501   3.075   4.238  10.351  0.3740 -0.6554  0.0517
  501TMC3     O 7502   3.093   4.129  10.394  0.5086 -0.0590 -0.5024
  501TMC3     H 7503   3.093   4.444  10.180 -0.5558 -0.0029 -3.3546
  501TMC3    H1 7504   3.305   4.131  10.368 -0.0397 -0.4611 -0.8436
  501TMC3    H2 7505   3.502   4.376  10.068  0.4109 -1.8269  0.7720
  501TMC3    C7 7506   3.534   4.170  10.248 -1.5875 -0.2394  0.2818
  501TMC3    C8 7507   3.308   4.532  10.036  0.6486 -0.3284  0.0266
  501TMC3    O1 7508   3.515   4.092  10.340  0.1346 -0.6923  0.3060
  501TMC3    O2 7509   3.417   4.571  10.008 -0.1853  0.4673 -0.0479
  502TMC3    C1 7510   2.218   2.677  14.622  0.3099  0.1728 -0.1401
  502TMC3    C2 7511   2.244   2.793  14.555  0.2817  0.6612  0.8263
  502TMC3    C3 7512   2.162   2.899  14.577 -0.5375 -0.2864  0.6314
  502TMC3    C4 7513   2.118   2.676  14.713  0.5326  0.4709  0.9533
  502TMC3    C5 7514   2.031   2.779  14.728  0.4655  0.1984 -0.7728
  502TMC3    C6 7515   2.054   2.895  14.662 -0.0255 -0.0820 -0.3917
  502TMC3     C 7516   2.341   2.635  14.675 -0.5760 -0.0076  0.2142
  502TMC3     O 7517   2.430   2.605  14.596  0.1084  0.0114  0.2591
  502TMC3     H 7518   2.341   2.804  14.510 -0.3519 -0.3272 -0.7675
  502TMC3    H1 7519   2.099   2.580  14.760 -3.5412  1.1198  0.6594
  502TMC3    H2 7520   1.983   2.976  14.668  2.3209  1.9246  0.1582
  502TMC3    C7 7521   1.906   2.769  14.803 -0.7882  0.2767 -0.1483
  502TMC3    C8 7522   2.248   3.009  14.605  0.9048  0.7051  0.1019
  502TMC3    O1 7523   1.801   2.804  14.747 -0.3080 -0.0492 -0.1545
  502TMC3    O2 7524   2.337   3.027  14.523  0.1646  0.4633 -0.4504
  503MPD2     C 7525   0.496   4.122  16.448  0.1534  0.7961  0.5821
  503MPD2    C1 7526   0.428   4.110  16.566  1.2238  0.0971  0.7093
  503MPD2    C2 7527   0.430   3.994  16.632 -0.1109  1.0845  0.0945
  503MPD2    C3 7528   0.516   3.884  16.603 -0.5450 -0.6574 -0.7721
  503MPD2    C4 7529   0.586   3.901  16.475  0.2373 -0.1270  0.2651
  503MPD2    C5 7530   0.579   4.018  16.410  0.3510 -0.5039  0.0871
  503MPD2     H 7531   0.367   3.981  16.720 -1.2040  2.7028 -0.4505
  503MPD2    H1 7532   0.639   3.815  16.436  0.7653  0.3102  0.0228
  503MPD2    H2 7533   0.484   4.215  16.393  1.0589  0.6606  0.1512
  503MPD2    H3 7534   0.639   4.030  16.321  2.3477  2.2440  1.8103
  503MPD2     N 7535   0.538   3.764  16.681 -0.5396 -0.5133  0.5999
  503MPD2    H5 7536   0.612   3.699  16.658 -0.3717 -0.4878  1.0725
  503MPD2    N1 7537   0.344   4.213  16.622  0.2648  0.3037  0.8007
  503MPD2    H7 7538   0.320   4.192  16.718  0.7424 -1.3508  0.5666
  504TMC3    C1 7539   0.505   3.635  16.888  0.1930 -0.1698 -0.6216
  504TMC3    C2 7540   0.425   3.557  16.970 -0.8384  0.2040 -0.0744
  504TMC3    C3 7541   0.490   3.479  17.066  0.2841 -0.3707  0.3778
  504TMC3    C4 7542   0.644   3.636  16.914  0.3222  0.2486 -0.5114
  504TMC3    C5 7543   0.702   3.559  17.009  0.2710 -0.0201  0.1078
  504TMC3    C6 7544   0.622   3.474  17.076 -0.1553 -0.4981 -0.0020
  504TMC3     C 7545   0.456   3.729  16.787  0.9002 -0.3103  0.7624
  504TMC3     O 7546   0.338   3.767  16.808  1.0315 -0.1547  0.8441
  504TMC3     H 7547   0.317   3.558  16.963 -0.7634 -0.8563 -1.5665
  504TMC3    H1 7548   0.699   3.703  16.849  2.3648 -0.7628  0.1876
  504TMC3    H2 7549   0.672   3.410  17.148 -0.7890 -0.9762  0.0143
  504TMC3    C7 7550   0.832   3.513  16.965 -0.5096 -0.0643  0.1888
  504TMC3    C8 7551   0.400   3.389  17.138  0.2017 -0.2217 -0.1281
  504TMC3    O1 7552   0.851   3.520  16.847 -0.0403 -0.0993 -1.1918
  504TMC3    O2 7553   0.292   3.374  17.098 -0.3607 -0.3953 -0.4414
  505MPD2     C 7554   4.632   2.634  10.588 -0.4607  0.5436 -0.1628
  505MPD2    C1 7555   4.716   2.558  10.514 -0.0099  0.1032 -0.1738
  505MPD2    C2 7556   0.107   2.531  10.563 -0.2596  0.4107 -0.6682
  505MPD2    C3 7557   0.146   2.584  10.685  0.2648  0.9054  0.4886
  505MPD2    C4 7558   0.056   2.652  10.763  0.2487  0.6418 -0.0814
  505MPD2    C5 7559   4.671   2.687  10.709  0.5998  0.0608 -0.6101
  505MPD2     H 7560   0.177   2.472  10.505 -0.7301  0.7038 -1.5289
  505MPD2    H1 7561   0.083   2.706  10.853  0.2366  0.1081  0.2437
  505MPD2    H2 7562   4.537   2.674  10.557  0.3877  3.6763  1.3686
  505MPD2    H3 7563   4.602   2.751  10.763 -0.0984  0.4721 -1.9925
  505MPD2     N 7564   0.276   2.562  10.720  0.8747 -0.5542  0.2414
  505MPD2    H5 7565   0.331   2.524  10.643  1.1814  0.9062 -0.2650
  505MPD2    N1 7566   4.690   2.525  10.382  0.2258  0.6380  0.3947
  505MPD2    H7 7567   4.601   2.559  10.345  0.6134  3.0455  1.6909
  506TMC3    C1 7568   4.725   2.441  10.160 -0.0724  0.0512 -0.1252
  506TMC3    C2 7569   4.686   2.558  10.097 -0.3487 -0.4125 -0.2595
  506TMC3    C3 7570   4.708   2.571   9.964  0.4241 -0.9606 -0.6247
  506TMC3    C4 7571   0.055   2.343  10.094  0.8278 -0.2013 -0.2235
  506TMC3    C5 7572   0.085   2.361   9.963  0.1043 -0.7953 -0.2429
  506TMC3    C6 7573   0.038   2.471   9.891 -0.1461  0.7397 -0.3893
  506TMC3     C 7574   0.034   2.444  10.293 -1.2005  0.0948  0.7832
  506TMC3     O 7575   0.133   2.378  10.312  0.2559 -0.3624  0.4795
  506TMC3     H 7576   4.645   2.641  10.154 -1.5841  0.3177 -2.1972
  506TMC3    H1 7577   0.079   2.245  10.132 -2.4153 -1.5675 -1.6303
  506TMC3    H2 7578   0.086   2.496   9.797  0.3121  1.2979 -0.0106
  506TMC3    C7 7579   0.224   2.344   9.939 -0.1607  0.1041  0.5704
  506TMC3    C8 7580   4.702   2.695   9.899  0.5455  0.4048  0.7398
  506TMC3    O1 7581   0.265   2.366   9.829  0.2475  0.6610 -0.1183
  506TMC3    O2 7582   4.656   2.683   9.784 -0.0231 -0.6232 -0.1316
  507TMC3    C1 7583   1.470   3.401  14.067 -0.0932  0.1365  0.2145
  507TMC3    C2 7584   1.359   3.424  13.983  0.7909 -0.4762  0.1264
  507TMC3    C3 7585   1.328   3.549  13.944  0.5461 -0.7782 -0.4553
  507TMC3    C4 7586   1.560   3.501  14.088 -0.4365  0.1696 -0.7746
  507TMC3    C5 7587   1.524   3.623  14.036 -0.2743  0.0997 -0.1767
  507TMC3    C6 7588   1.420   3.645  13.953 -0.3370  0.3709 -0.5580
  507TMC3     C 7589   1.438   3.335  14.197 -0.2143 -0.1873  0.7449
  507TMC3     O 7590   1.503   3.361  14.293  0.5791  0.0765 -0.0105
  507TMC3     H 7591   1.290   3.345  13.955 -0.3386  0.0313  1.4646
  507TMC3    H1 7592   1.634   3.497  14.167 -1.1462 -0.7085 -0.1605
  507TMC3    H2 7593   1.396   3.746  13.922 -2.7209 -0.9639 -3.0490
  507TMC3    C7 7594   1.574   3.727  14.125 -1.1585  0.1120  0.7678
  507TMC3    C8 7595   1.200   3.599  14.003 -0.5198 -0.2390 -0.1829
  507TMC3    O1 7596   1.684   3.715  14.175  0.4475  0.8440 -0.0194
  507TMC3    O2 7597   1.203   3.709  14.056  0.3597  0.1614 -0.5154
  508MPD2     C 7598   1.816   0.773  16.239  0.1286 -0.0199  0.0015
  508MPD2    C1 7599   1.923   0.863  16.218 -0.1672 -0.2471  0.2144
  508MPD2    C2 7600   1.937   0.919  16.095  0.1601 -0.0975  0.2178
  508MPD2    C3 7601   1.845   0.904  15.997  0.2488  0.7735 -0.5418
  508MPD2    C4 7602   1.733   0.827  16.025 -0.0475 -0.3445 -0.0670
  508MPD2    C5 7603   1.717   0.760  16.144 -0.0647 -0.5828 -0.7281
  508MPD2     H 7604   2.022   0.983  16.074  0.8390 -0.5204  1.6799
  508MPD2    H1 7605   1.647   0.823  15.959 -0.3823 -0.5968  0.3748
  508MPD2    H2 7606   1.810   0.727  16.337 -2.3178  0.9713  0.3071
  508MPD2    H3 7607   1.627   0.703  16.167  0.3146 -1.5285 -1.5692
  508MPD2     N 7608   1.862   0.959  15.870 -0.2844  0.7733  0.4308
  508MPD2    H5 7609   1.946   1.016  15.874  0.3119 -0.0236 -0.9028
  508MPD2    N1 7610   2.001   0.900  16.332  0.9247 -0.3443  0.2862
  508MPD2    H7 7611   1.987   0.839  16.412 -0.9111  1.0397  1.0214
  509TMC3    C1 7612   1.752   1.166  15.470  0.5621  0.4560  0.2683
  509TMC3    C2 7613   1.882   1.197  15.439  0.4203 -0.3830  0.5124
  509TMC3    C3 7614   1.977   1.138  15.521 -0.0847  0.6484  0.0745
  509TMC3    C4 7615   1.713   1.090  15.574 -0.1544  0.2003  0.1478
  509TMC3    C5 7616   1.809   1.033  15.652 -0.6042 -0.3209 -0.2822
  509TMC3    C6 7617   1.940   1.051  15.626 -0.6132 -0.3096 -0.7825
  509TMC3     C 7618   1.655   1.253  15.423 -0.0121  0.4362 -0.0954
  509TMC3     O 7619   1.553   1.263  15.495  0.3437  0.4045 -0.2607
  509TMC3     H 7620   1.918   1.249  15.351  1.4910  0.2247  1.3166
  509TMC3    H1 7621   1.609   1.081  15.603 -0.1033  2.1910  0.9851
  509TMC3    H2 7622   2.019   1.002  15.682 -1.9229 -2.3544 -0.7121
  509TMC3    C7 7623   1.765   0.967  15.769 -0.5965  0.0055  0.0273
  509TMC3    C8 7624   2.113   1.187  15.541  0.5741  0.4695  0.0894
  509TMC3    O1 7625   1.650   0.933  15.754  0.2798 -0.6198 -0.4626
  509TMC3    O2 7626   2.191   1.091  15.560  0.1034  0.2186 -0.4575
  510MPD2     C 7627   0.039   2.432  14.817 -0.3838 -0.0888 -0.5835
  510MPD2    C1 7628   0.008   2.318  14.746 -0.4896 -0.3943 -0.3971
  510MPD2    C2 7629   0.050   2.305  14.617 -0.0590  0.2116  0.4539
  510MPD2    C3 7630   0.123   2.395  14.553  0.0910 -0.0936  0.3538
  510MPD2    C4 7631   0.162   2.507  14.633 -0.6314  0.1460  0.7040
  510MPD2    C5 7632   0.116   2.524  14.759  0.0576  0.0104 -0.0559
  510MPD2     H 7633   0.031   2.208  14.571 -1.7386  0.9246 -0.3721
  510MPD2    H1 7634   0.232   2.583  14.602 -0.4000 -0.2637  0.2137
  510MPD2    H2 7635   0.022   2.436  14.924 -2.7594 -2.5318 -0.8659
  510MPD2    H3 7636   0.145   2.617  14.806 -0.2713  0.6238 -1.0618
  510MPD2     N 7637   0.161   2.374  14.420 -0.5309  0.2089 -0.3043
  510MPD2    H5 7638   0.124   2.290  14.376 -1.1063  1.3889 -2.0459
  510MPD2    N1 7639   4.659   2.222  14.818 -0.2438 -0.0277 -0.3423
  510MPD2    H7 7640   4.660   2.228  14.919  2.1547  1.2763 -0.4231
  511TMC3    C1 7641   4.530   2.027  14.855  0.0928 -0.4792  0.4423
  511TMC3    C2 7642   4.510   2.070  14.983  0.5018 -0.1986  0.0386
  511TMC3    C3 7643   4.399   2.033  15.052  0.5064 -0.3037  0.7108
  511TMC3    C4 7644   4.441   1.946  14.802  0.8313 -0.1081 -0.6591
  511TMC3    C5 7645   4.320   1.917  14.871 -0.1508  0.3737 -1.0856
  511TMC3    C6 7646   4.296   1.958  15.002  0.0793  0.3123  0.0708
  511TMC3     C 7647   4.602   2.110  14.758 -0.1782 -1.0220  0.4022
  511TMC3     O 7648   4.597   2.080  14.638  0.3279  0.1931 -0.7550
  511TMC3     H 7649   4.583   2.129  15.037  2.8463 -2.7627 -0.3123
  511TMC3    H1 7650   4.457   1.917  14.699 -1.7039 -1.1650 -0.7614
  511TMC3    H2 7651   4.199   1.938  15.046  0.0284 -0.6992 -0.4909
  511TMC3    C7 7652   4.223   1.842  14.801  0.0292  0.3026  0.3037
  511TMC3    C8 7653   4.375   2.113  15.174 -0.4907 -0.8360 -0.2736
  511TMC3    O1 7654   4.235   1.865  14.686 -0.6307 -0.1636  0.3907
  511TMC3    O2 7655   4.427   2.223  15.178 -1.0350 -0.5332  0.5966
  512TMC3    C1 7656   3.119   1.895  13.078 -0.2457 -0.1855 -0.4540
  512TMC3    C2 7657   3.164   1.876  13.209 -0.1597  0.6222 -0.5739
  512TMC3    C3 7658   3.223   1.759  13.237 -0.8543  0.1542 -0.2695
  512TMC3    C4 7659   3.140   1.800  12.982  0.2674 -0.6281  0.1428
  512TMC3    C5 7660   3.192   1.681  13.024 -0.7826 -0.1489 -0.1879
  512TMC3    C6 7661   3.245   1.654  13.151  0.5356 -0.0777 -0.6372
  512TMC3     C 7662   3.135   2.022  13.022 -0.4883 -0.9057  0.0965
  512TMC3     O 7663   3.175   2.034  12.908  0.3520 -0.0725  0.0377
  512TMC3     H 7664   3.178   1.961  13.276  3.0726  0.0380 -0.5103
  512TMC3    H1 7665   3.111   1.817  12.879 -1.1029  0.7462  0.7485
  512TMC3    H2 7666   3.268   1.559  13.198 -1.6129  0.9783  2.5359
  512TMC3    C7 7667   3.239   1.590  12.919 -0.5322 -0.6888  0.1408
  512TMC3    C8 7668   3.298   1.744  13.358  0.5616 -0.3700  0.0310
  512TMC3    O1 7669   3.285   1.638  12.816 -0.1876 -0.7449 -0.0711
  512TMC3    O2 7670   3.290   1.635  13.415  0.2556  0.0698  0.4076
  513MPD2     C 7671   0.795   1.987  13.518  0.4998 -0.1013  0.1942
  513MPD2    C1 7672   0.877   1.994  13.406  0.3277 -0.3130 -1.2750
  513MPD2    C2 7673   1.007   2.029  13.426 -0.1755 -0.1266  0.2849
  513MPD2    C3 7674   1.066   2.053  13.548  0.4487  0.9171  1.3046
  513MPD2    C4 7675   0.988   2.039  13.652 -0.3461  0.4362  0.2592
  513MPD2    C5 7676   0.851   2.013  13.644 -0.4158 -0.5042 -0.0120
  513MPD2     H 7677   1.080   2.041  13.348  0.0383 -2.8540  0.0479
  513MPD2    H1 7678   1.023   2.052  13.754 -1.1925  2.6434  0.2802
  513MPD2    H2 7679   0.690   1.962  13.507  0.4964  1.0959 -2.3314
  513MPD2    H3 7680   0.784   2.015  13.730  1.0788  0.6313  1.1178
  513MPD2     N 7681   1.196   2.116  13.560  0.3219 -0.0962  0.1690
  513MPD2    H5 7682   1.246   2.143  13.476 -0.0390  0.3779  0.1010
  513MPD2    N1 7683   0.836   1.967  13.273 -0.2867  0.4538  0.3237
  513MPD2    H7 7684   0.918   1.968  13.213 -0.7229 -1.6948 -0.2906
  514TMC3    C1 7685   0.731   1.933  13.079  0.9285  0.4320 -0.1778
  514TMC3    C2 7686   0.674   2.025  12.993  0.1312  0.0654  0.3055
  514TMC3    C3 7687   0.744   2.072  12.885 -0.0691 -0.0858  0.2579
  514TMC3    C4 7688   0.852   1.888  13.047  0.2327  0.2492  0.0099
  514TMC3    C5 7689   0.923   1.932  12.938  0.3805 -0.2930  0.0474
  514TMC3    C6 7690   0.872   2.025  12.849  0.8227  0.5364 -0.1200
  514TMC3     C 7691   0.711   1.957  13.217  0.1072  0.5552 -1.0521
  514TMC3     O 7692   0.607   1.988  13.270 -0.6366  0.5244 -0.0676
  514TMC3     H 7693   0.581   2.078  13.013 -1.0138 -1.2224 -1.5936
  514TMC3    H1 7694   0.888   1.803  13.104 -0.0836  1.8406  2.6039
  514TMC3    H2 7695   0.928   2.052  12.759  0.0902 -0.4630 -0.8772
  514TMC3    C7 7696   1.056   1.961  12.984  0.4492  0.1851 -0.3360
  514TMC3    C8 7697   0.674   2.168  12.798  0.6079 -0.5770  0.1424
  514TMC3    O1 7698   1.073   1.950  13.105 -0.1881 -0.5889  0.0155
  514TMC3    O2 7699   0.599   2.253  12.847  0.1884 -0.0724 -0.1623
  515MPD2     C 7700   4.024   3.253  14.247  0.2087  0.2881  0.9607
  515MPD2    C1 7701   3.912   3.325  14.271 -0.3599 -0.7705  0.1550
  515MPD2    C2 7702   3.922   3.413  14.376 -0.2936 -0.3925 -0.5023
  515MPD2    C3 7703   4.032   3.424  14.458  0.2764 -0.2529 -0.2151
  515MPD2    C4 7704   4.141   3.348  14.431  0.4505  0.3209 -0.0632
  515MPD2    C5 7705   4.134   3.262  14.324  0.4705  0.5531  0.2467
  515MPD2     H 7706   3.830   3.466  14.400  0.5010  1.0374 -0.6106
  515MPD2    H1 7707   4.234   3.370  14.483  0.4978 -0.6672  0.2663
  515MPD2    H2 7708   4.031   3.181  14.166 -1.4147  0.3992  0.7165
  515MPD2    H3 7709   4.214   3.194  14.297 -1.2098 -0.4746 -2.1186
  515MPD2     N 7710   4.039   3.509  14.571  0.2422 -0.2933 -0.3671
  515MPD2    H5 7711   4.119   3.491  14.630 -0.6837  0.1337  1.0347
  515MPD2    N1 7712   3.799   3.304  14.197 -0.0560 -0.1049  1.2346
  515MPD2    H7 7713   3.717   3.354  14.233 -0.0655  1.7330 -1.3172
  516TMC3    C1 7714   3.633   3.204  14.075 -0.0464 -0.1351 -0.4927
  516TMC3    C2 7715   3.558   3.309  14.028  0.5486 -0.5275 -0.8505
  516TMC3    C3 7716   3.420   3.298  14.048 -0.2207  0.6344 -0.8205
  516TMC3    C4 7717   3.577   3.089  14.127 -0.1363  0.0013  0.1485
  516TMC3    C5 7718   3.438   3.080  14.137  0.3056  0.1502  0.0805
  516TMC3    C6 7719   3.357   3.186  14.103  0.3444  0.5337 -0.4515
  516TMC3     C 7720   3.776   3.220  14.098 -0.3439 -0.1657 -0.2047
  516TMC3     O 7721   3.850   3.132  14.050 -0.3345  0.1871  0.2066
  516TMC3     H 7722   3.608   3.392  13.980  0.1548 -0.8202 -1.7699
  516TMC3    H1 7723   3.645   3.013  14.164 -0.1893 -0.4868 -0.7465
  516TMC3    H2 7724   3.249   3.184  14.109  0.4076 -0.5186  0.2488
  516TMC3    C7 7725   3.397   2.987  14.233 -0.0856  0.4348  0.2732
  516TMC3    C8 7726   3.330   3.405  14.000  0.3563  0.2807 -0.1497
  516TMC3    O1 7727   3.480   2.951  14.317  0.0841 -0.3649 -0.2026
  516TMC3    O2 7728   3.212   3.405  14.030 -0.4501 -0.3212 -0.5485
  517MPD2     C 7729   3.177   0.750  17.405 -0.3388 -0.0947 -0.7850
  517MPD2    C1 7730   3.301   0.741  17.468 -0.5956  0.2990  0.0814
  517MPD2    C2 7731   3.355   0.861  17.511  0.2962  0.6234  0.0611
  517MPD2    C3 7732   3.287   0.981  17.523 -0.3777  0.6696 -0.1530
  517MPD2    C4 7733   3.163   0.990  17.466  0.5498  0.4889 -0.0517
  517MPD2    C5 7734   3.118   0.874  17.408 -0.5811  0.2216  0.0928
  517MPD2     H 7735   3.457   0.857  17.548  0.9179 -0.1248 -1.7131
  517MPD2    H1 7736   3.109   1.083  17.466  2.6776  1.7256 -0.7602
  517MPD2    H2 7737   3.134   0.673  17.341 -1.1376 -0.0735 -0.2748
  517MPD2    H3 7738   3.027   0.882  17.350  0.1574 -0.8127 -1.1868
  517MPD2     N 7739   3.354   1.092  17.580 -0.6199 -0.3448 -0.2834
  517MPD2    H5 7740   3.447   1.066  17.611 -1.0102 -1.3814  0.0510
  517MPD2    N1 7741   3.384   0.623  17.460  0.0319  0.3639 -0.6171
  517MPD2    H7 7742   3.478   0.625  17.497 -0.2974  1.8912  0.1356
  518TMC3    C1 7743   3.428   0.399  17.402  0.0057 -0.3663  0.1971
  518TMC3    C2 7744   3.382   0.273  17.382 -0.0260  0.2760 -0.0503
  518TMC3    C3 7745   3.469   0.178  17.356  0.2826  0.3476 -0.7311
  518TMC3    C4 7746   3.558   0.432  17.372 -0.1833  0.2025 -0.8041
  518TMC3    C5 7747   3.637   0.335  17.327  0.9037  1.2935 -0.6837
  518TMC3    C6 7748   3.605   0.202  17.316  0.4665  0.1404 -0.0706
  518TMC3     C 7749   3.332   0.501  17.437  0.2555  0.8756  0.0348
  518TMC3     O 7750   3.214   0.465  17.421  0.2439  0.5394  0.0378
  518TMC3     H 7751   3.277   0.249  17.397 -0.0089 -0.0091 -0.3815
  518TMC3    H1 7752   3.589   0.536  17.376 -1.6668  0.5324  2.6840
  518TMC3    H2 7753   3.668   0.123  17.278 -1.0128  0.3917 -3.0549
  518TMC3    C7 7754   3.767   0.382  17.279  0.2389 -0.2189  0.0858
  518TMC3    C8 7755   3.429   0.046  17.335 -0.3519 -0.0564  0.4955
  518TMC3    O1 7756   3.781   0.502  17.253 -0.5166  0.2009  0.3774
  518TMC3    O2 7757   3.490   4.715  17.251  0.0535 -0.2079  0.4669
  519MPD2     C 7758   0.000   3.424  13.982  0.1077 -0.3803 -0.1611
  519MPD2    C1 7759   4.700   3.390  13.851 -1.3649 -0.2958 -0.8100
  519MPD2    C2 7760   0.068   3.331  13.776 -0.0857 -0.5306 -0.7522
  519MPD2    C3 7761   0.196   3.310  13.824 -0.1092  0.2443 -0.8230
  519MPD2    C4 7762   0.228   3.343  13.953 -0.2570 -0.2356 -0.5437
  519MPD2    C5 7763   0.129   3.394  14.030 -0.1502 -0.2423 -0.6276
  519MPD2     H 7764   0.046   3.300  13.675 -1.4261  1.1746 -0.9700
  519MPD2    H1 7765   0.326   3.342  14.001  0.0581  2.1250 -1.1533
  519MPD2    H2 7766   4.660   3.472  14.043 -0.6687  0.0834 -1.4729
  519MPD2    H3 7767   0.155   3.431  14.129  0.0252 -0.6606 -0.5135
  519MPD2     N 7768   0.298   3.249  13.739 -0.7987 -0.2850 -0.4082
  519MPD2    H5 7769   0.388   3.244  13.786 -1.3401 -1.0955  0.5312
  519MPD2    N1 7770   4.573   3.405  13.791 -0.0399  0.3202 -0.5387
  519MPD2    H7 7771   4.566   3.363  13.699 -0.3932  3.0493 -1.7541
  520TMC3    C1 7772   0.397   3.155  13.545 -0.3422  0.2944 -0.6741
  520TMC3    C2 7773   0.386   3.179  13.413 -0.0285  0.0935  0.0525
  520TMC3    C3 7774   0.496   3.146  13.338 -0.1935  0.1958  0.2415
  520TMC3    C4 7775   0.502   3.111  13.617 -0.2185  0.0478 -0.6447
  520TMC3    C5 7776   0.608   3.082  13.540 -0.8166 -0.2718  0.4767
  520TMC3    C6 7777   0.612   3.109  13.405 -0.0874 -0.2725  0.2488
  520TMC3     C 7778   0.278   3.186  13.616 -1.2785 -0.1637 -0.1786
  520TMC3     O 7779   0.170   3.175  13.560  0.0588 -0.2261  0.0235
  520TMC3     H 7780   0.299   3.234  13.378 -0.4245  0.2746  1.3477
  520TMC3    H1 7781   0.497   3.093  13.724 -1.1034 -1.1168 -0.8737
  520TMC3    H2 7782   0.688   3.070  13.338  0.7956  0.5734  0.7564
  520TMC3    C7 7783   0.724   3.023  13.605 -0.1988  0.1262  0.0679
  520TMC3    C8 7784   0.512   3.201  13.202 -0.2233 -0.4628  0.1546
  520TMC3    O1 7785   0.698   2.972  13.717  0.2035  0.3173  0.2009
  520TMC3    O2 7786   0.625   3.236  13.164  0.3210  0.2987  0.0463
  521MPD2     C 7787   1.002   1.881  17.629 -0.4089 -0.1661  0.2779
  521MPD2    C1 7788   0.959   1.809  17.519 -0.1472 -0.2085  0.8646
  521MPD2    C2 7789   1.058   1.750  17.433  0.1015 -0.8984  0.5640
  521MPD2    C3 7790   1.194   1.762  17.460 -0.6128 -0.3443  0.2053
  521MPD2    C4 7791   1.232   1.838  17.573  0.6262  0.0062 -0.2675
  521MPD2    C5 7792   1.136   1.888  17.658  0.3301 -0.0339  0.1444
  521MPD2     H 7793   1.023   1.684  17.354 -0.2566  0.6394 -0.5640
  521MPD2    H1 7794   1.331   1.865  17.606  0.5007 -0.5492  0.5751
  521MPD2    H2 7795   0.934   1.938  17.691  0.1319  0.1818  0.5552
  521MPD2    H3 7796   1.166   1.958  17.735  0.2280  0.4934 -0.2981
  521MPD2     N 7797   1.287   1.705  17.373 -0.1673  0.7308 -0.4026
  521MPD2    H5 7798   1.254   1.656  17.291 -1.2445  0.3039  0.2770
  521MPD2    N1 7799   0.818   1.796  17.491  0.3936 -0.4013 -0.2001
  521MPD2    H7 7800   0.753   1.837  17.557  1.6931 -0.6858  1.2354
  522TMC3    C1 7801   1.497   1.613  17.292  0.2869  0.8383  0.3483
  522TMC3    C2 7802   1.600   1.536  17.338  0.4666 -0.2383  0.5359
  522TMC3    C3 7803   1.668   1.464  17.244 -0.2229 -0.5983 -0.0078
  522TMC3    C4 7804   1.454   1.625  17.165 -0.1268 -0.0409  0.3403
  522TMC3    C5 7805   1.525   1.551  17.074  0.3066 -0.0472  0.2717
  522TMC3    C6 7806   1.629   1.471  17.111  0.7691 -0.0591  0.3351
  522TMC3     C 7807   1.428   1.694  17.396 -0.4977  0.5218 -0.4191
  522TMC3     O 7808   1.496   1.729  17.490  0.2476 -0.2569  0.2546
  522TMC3     H 7809   1.624   1.535  17.443 -0.7649  1.2984  0.8289
  522TMC3    H1 7810   1.389   1.708  17.139 -0.1381 -0.5239 -1.1850
  522TMC3    H2 7811   1.689   1.421  17.035 -0.2778 -2.4522  1.0917
  522TMC3    C7 7812   1.540   1.612  16.937 -0.6224 -0.0941  0.5389
  522TMC3    C8 7813   1.802   1.411  17.277 -0.1689 -0.3342  0.6903
  522TMC3    O1 7814   1.648   1.591  16.886 -0.2444 -0.6746 -0.5275
  522TMC3    O2 7815   1.851   1.450  17.384  0.6412 -0.2216  0.3468
  523MPD2     C 7816   3.867   1.061  10.097  0.3254 -0.2982 -0.9323
  523MPD2    C1 7817   3.743   1.041  10.045  0.7355  0.2622 -0.4933
  523MPD2    C2 7818   3.669   1.149   9.994 -0.0935  0.0123  0.4020
  523MPD2    C3 7819   3.726   1.274   9.986 -0.0146 -0.7326  0.9879
  523MPD2    C4 7820   3.854   1.295  10.032  0.6422 -0.0389 -0.3281
  523MPD2    C5 7821   3.920   1.186  10.090 -0.0121  0.7719  1.3582
  523MPD2     H 7822   3.572   1.128   9.950  0.8312 -0.8106 -1.2455
  523MPD2    H1 7823   3.903   1.390  10.048  2.1261 -0.6578 -1.1862
  523MPD2    H2 7824   3.923   0.979  10.139 -0.9737 -0.3240  0.7100
  523MPD2    H3 7825   4.021   1.204  10.126  0.7100 -1.7767  0.6391
  523MPD2     N 7826   3.661   1.380   9.924 -0.1901 -0.2013 -0.0898
  523MPD2    H5 7827   3.708   1.470   9.926  1.2880 -0.9833 -0.2225
  523MPD2    N1 7828   3.690   0.907  10.036  0.5108  0.3838  0.2562
  523MPD2    H7 7829   3.756   0.835  10.064 -1.4895 -1.4528  0.2626
  524TMC3    C1 7830   3.499   1.500   9.806  0.3945  0.7496 -0.0863
  524TMC3    C2 7831   3.363   1.514   9.775 -0.8331  0.2424  0.2997
  524TMC3    C3 7832   3.320   1.634   9.727  0.4031 -0.2027 -0.0865
  524TMC3    C4 7833   3.578   1.608   9.794 -0.0903  0.4032  0.2556
  524TMC3    C5 7834   3.527   1.730   9.758 -0.5171  0.2442 -0.9666
  524TMC3    C6 7835   3.393   1.750   9.729 -1.1715 -0.5194  0.1862
  524TMC3     C 7836   3.545   1.368   9.850 -0.0213 -0.7487  0.9088
  524TMC3     O 7837   3.472   1.272   9.814  0.6180  0.1168 -1.0204
  524TMC3     H 7838   3.303   1.429   9.805 -0.6590 -0.8365 -2.4087
  524TMC3    H1 7839   3.686   1.592   9.795  0.0394  1.2353 -0.1897
  524TMC3    H2 7840   3.362   1.833   9.668  1.2997  0.0169 -0.3547
  524TMC3    C7 7841   3.623   1.835   9.731 -0.2022 -0.6878 -0.1532
  524TMC3    C8 7842   3.190   1.645   9.674 -0.4709  0.1855  0.0419
  524TMC3    O1 7843   3.740   1.807   9.756  0.0068 -0.5488  0.0693
  524TMC3    O2 7844   3.129   1.749   9.691  0.0223  0.4758 -0.3684
  525MPD2     C 7845   1.505   2.815  14.360 -0.1992  0.1073  0.6913
  525MPD2    C1 7846   1.600   2.822  14.456 -0.6395 -0.2165 -0.4596
  525MPD2    C2 7847   1.682   2.934  14.450 -0.2389  0.6343 -0.3746
  525MPD2    C3 7848   1.667   3.023  14.343 -0.0442 -0.4901  0.0374
  525MPD2    C4 7849   1.579   3.000  14.241 -0.2800  0.5799 -0.3030
  525MPD2    C5 7850   1.492   2.899  14.251  0.3876 -0.4984 -0.1902
  525MPD2     H 7851   1.748   2.953  14.534  0.0873  0.2225 -0.5422
  525MPD2    H1 7852   1.586   3.051  14.146 -0.0342  2.0511  0.5222
  525MPD2    H2 7853   1.429   2.738  14.362 -0.2519  0.2040  2.1913
  525MPD2    H3 7854   1.423   2.879  14.170  0.5383  0.8928 -0.6585
  525MPD2     N 7855   1.749   3.138  14.325  0.1287 -0.3555  0.0490
  525MPD2    H5 7856   1.721   3.207  14.256 -1.6849  0.0196  1.1596
  525MPD2    N1 7857   1.600   2.747  14.573  0.2197  0.4653 -0.8456
  525MPD2    H7 7858   1.669   2.772  14.643  0.0767 -0.8293 -0.2519
  526TMC3    C1 7859   1.529   2.601  14.741 -0.2391  0.6020 -0.3442
  526TMC3    C2 7860   1.414   2.562  14.814  0.3119 -1.2684  0.5163
  526TMC3    C3 7861   1.418   2.447  14.891  0.5549 -0.2420 -0.0011
  526TMC3    C4 7862   1.651   2.536  14.769 -0.7716 -0.1295  0.4835
  526TMC3    C5 7863   1.651   2.420  14.841  0.1047 -0.0777 -0.1961
  526TMC3    C6 7864   1.539   2.386  14.909  0.4183  0.7282  0.0789
  526TMC3     C 7865   1.509   2.655  14.608 -0.4280 -0.7603 -0.0540
  526TMC3     O 7866   1.389   2.651  14.573  0.5781 -0.1920 -0.0687
  526TMC3     H 7867   1.319   2.609  14.795  1.3000  0.5676  0.0770
  526TMC3    H1 7868   1.740   2.569  14.716 -0.7102  1.2039  1.4048
  526TMC3    H2 7869   1.536   2.290  14.959 -2.1535 -0.9639 -3.3407
  526TMC3    C7 7870   1.775   2.349  14.877 -0.8470  0.1792 -0.0756
  526TMC3    C8 7871   1.338   2.445  15.018 -0.3609  1.2911 -0.2012
  526TMC3    O1 7872   1.772   2.289  14.983  0.1714  0.2630  0.4590
  526TMC3    O2 7873   1.407   2.400  15.110 -0.6528 -0.3002  0.3314
  527MPD2     C 7874   4.167   0.926   1.368  0.5650 -0.6950  0.8937
  527MPD2    C1 7875   4.181   1.002   1.258  0.5855 -0.5453  0.7221
  527MPD2    C2 7876   4.296   1.005   1.187 -0.4037 -0.2905  0.0506
  527MPD2    C3 7877   4.403   0.944   1.240 -0.3497 -0.6103 -0.3201
  527MPD2    C4 7878   4.401   0.895   1.365 -0.1238 -0.0847  0.2317
  527MPD2    C5 7879   4.278   0.875   1.423 -0.1620 -0.8271 -1.0998
  527MPD2     H 7880   4.307   1.065   1.097  0.1509 -0.3576  0.0710
  527MPD2    H1 7881   4.480   0.840   1.415 -1.2032 -1.5254  0.3387
  527MPD2    H2 7882   4.075   0.912   1.423  0.6974 -0.2823  1.2195
  527MPD2    H3 7883   4.271   0.799   1.500  2.9980  2.4547  2.3977
  527MPD2     N 7884   4.515   0.935   1.156 -0.2425 -0.4712  0.3060
  527MPD2    H5 7885   4.493   0.961   1.061 -1.7644 -2.8686 -0.0045
  527MPD2    N1 7886   4.073   1.080   1.217 -0.3003 -0.0227  0.1170
  527MPD2    H7 7887   4.078   1.144   1.138 -1.9346  0.6164  0.5283
  528TMC3    C1 7888   3.851   1.153   1.167  0.3669 -0.7172  0.0844
  528TMC3    C2 7889   3.899   1.273   1.117  0.3292 -0.3780 -0.5563
  528TMC3    C3 7890   3.814   1.368   1.061 -0.0726  0.3822 -0.7061
  528TMC3    C4 7891   3.726   1.116   1.131 -0.4527  0.5393 -0.0922
  528TMC3    C5 7892   3.641   1.218   1.078  0.6890 -0.2933  0.5158
  528TMC3    C6 7893   3.681   1.346   1.047  0.1369 -0.2016 -0.0544
  528TMC3     C 7894   3.934   1.068   1.248 -0.0752 -0.1922  0.0690
  528TMC3     O 7895   3.876   0.983   1.317  0.3317 -0.1135  0.0678
  528TMC3     H 7896   4.004   1.301   1.126 -0.3804  1.9231  0.4919
  528TMC3    H1 7897   3.690   1.016   1.154  0.9923 -0.2022 -1.0608
  528TMC3    H2 7898   3.610   1.428   1.037  0.1496 -0.2802 -0.7904
  528TMC3    C7 7899   3.502   1.192   1.040 -0.5917 -0.0346  0.7329
  528TMC3    C8 7900   3.862   1.500   1.037 -0.0913 -0.0571  0.3280
  528TMC3    O1 7901   3.450   1.260   0.952 -0.2759 -0.0089  0.3608
  528TMC3    O2 7902   3.976   1.520   1.068  0.0388  0.2120  0.3965
  529MPD2     C 7903   1.610   4.235   0.716  0.7074  0.1181  0.1335
  529MPD2    C1 7904   1.739   4.218   0.652  0.5957  0.5300  0.3388
  529MPD2    C2 7905   1.770   4.306   0.548  1.0232  0.4379  0.0251
  529MPD2    C3 7906   1.675   4.391   0.494 -0.0611 -0.0229 -0.2504
  529MPD2    C4 7907   1.558   4.416   0.566  0.3838  0.4595 -0.1650
  529MPD2    C5 7908   1.522   4.333   0.671 -0.1963  0.6337 -0.0599
  529MPD2     H 7909   1.871   4.321   0.515  1.7568 -2.7165  0.8167
  529MPD2    H1 7910   1.479   4.482   0.531  0.6944  0.9407  0.0458
  529MPD2    H2 7911   1.575   4.166   0.791 -1.3572  0.3811 -0.5839
  529MPD2    H3 7912   1.425   4.342   0.718 -0.1556  0.1144  0.1135
  529MPD2     N 7913   1.708   4.487   0.397  0.9265 -0.0556  0.0714
  529MPD2    H5 7914   1.657   4.574   0.400  1.3328  0.2061 -0.4327
  529MPD2    N1 7915   1.832   4.118   0.693 -0.9895 -0.1905  0.3806
  529MPD2    H7 7916   1.920   4.123   0.641 -0.5822 -1.0402  0.9814
  530TMC3    C1 7917   1.919   3.954   0.830 -0.6648 -0.1085  0.0902
  530TMC3    C2 7918   1.984   3.966   0.953  1.0084  0.3464 -0.1705
  530TMC3    C3 7919   2.065   3.865   1.003  0.1813 -0.4805  1.0711
  530TMC3    C4 7920   1.938   3.846   0.749  0.0093  1.3457 -0.0339
  530TMC3    C5 7921   2.005   3.740   0.809 -0.5129 -0.0402 -0.4769
  530TMC3    C6 7922   2.072   3.748   0.934 -0.7520 -0.9493 -0.7690
  530TMC3     C 7923   1.815   4.052   0.810  1.0050 -0.2568 -0.2945
  530TMC3     O 7924   1.761   4.084   0.915  0.3226  0.0046 -0.7149
  530TMC3     H 7925   1.966   4.058   1.008 -0.3570  0.0364 -0.0864
  530TMC3    H1 7926   1.887   3.832   0.654  2.0759  1.6471 -1.1767
  530TMC3    H2 7927   2.146   3.674   0.962  0.3767 -0.1060 -1.5925
  530TMC3    C7 7928   2.005   3.610   0.734 -1.0330 -0.3210  0.3961
  530TMC3    C8 7929   2.152   3.898   1.114  0.1517  0.0271  0.0008
  530TMC3    O1 7930   1.993   3.613   0.611  0.2634 -0.5135  0.4809
  530TMC3    O2 7931   2.116   3.996   1.177  0.7592  0.0887  0.2937
  531MPD2     C 7932   1.535   2.140  12.944  0.8208  0.1756 -0.1934
  531MPD2    C1 7933   1.462   2.120  13.058  0.2471 -0.6839  0.6769
  531MPD2    C2 7934   1.332   2.073  13.035  0.5291 -0.3525 -0.1205
  531MPD2    C3 7935   1.280   2.054  12.913  0.3721 -0.6267  0.0697
  531MPD2    C4 7936   1.361   2.081  12.802 -0.5577  0.1176 -0.7410
  531MPD2    C5 7937   1.490   2.111  12.819 -0.2914 -0.0129  0.2311
  531MPD2     H 7938   1.270   2.051  13.121 -2.0000 -1.3062 -2.1864
  531MPD2    H1 7939   1.328   2.049  12.704 -1.5764 -0.4812 -0.2117
  531MPD2    H2 7940   1.633   2.186  12.949  0.4670  0.8470  0.4411
  531MPD2    H3 7941   1.555   2.133  12.735 -1.5473  1.1843 -0.4414
  531MPD2     N 7942   1.144   2.007  12.887 -0.1752  0.0910 -0.4369
  531MPD2    H5 7943   1.108   2.008  12.792 -1.0931 -0.3010 -0.0972
  531MPD2    N1 7944   1.521   2.158  13.180  0.5405 -0.0479  0.3665
  531MPD2    H7 7945   1.620   2.177  13.173  0.1221  1.3527 -1.8338
  532TMC3    C1 7946   1.511   2.192  13.411  0.2407  0.3894  0.2914
  532TMC3    C2 7947   1.420   2.219  13.505  0.7439  0.0185  0.0942
  532TMC3    C3 7948   1.415   2.152  13.621  0.5475 -0.2020  0.1475
  532TMC3    C4 7949   1.609   2.103  13.431  0.4521  0.4679  0.3768
  532TMC3    C5 7950   1.615   2.045  13.561  0.1917  0.0291 -0.9371
  532TMC3    C6 7951   1.511   2.058  13.651 -0.8105  1.2578 -0.7775
  532TMC3     C 7952   1.445   2.162  13.296 -0.3812 -0.1779  0.1737
  532TMC3     O 7953   1.325   2.143  13.315 -0.6267  0.2333  0.1021
  532TMC3     H 7954   1.355   2.305  13.490 -1.1337 -1.6748 -1.4543
  532TMC3    H1 7955   1.691   2.088  13.361  1.2922 -2.6505  2.0572
  532TMC3    H2 7956   1.511   2.002  13.743 -0.1404 -0.7918 -2.0140
  532TMC3    C7 7957   1.710   1.938  13.571 -0.2638 -0.5775  0.3726
  532TMC3    C8 7958   1.277   2.129  13.669 -0.0286 -0.7455 -1.0933
  532TMC3    O1 7959   1.823   1.947  13.521 -0.4064  0.2826  0.2756
  532TMC3    O2 7960   1.269   2.063  13.771  0.5983  0.5659  0.3151
  533TMC3    C1 7961   1.910   3.293  14.386 -0.6715  0.1730  0.2760
  533TMC3    C2 7962   2.029   3.331  14.340 -0.2526 -0.0655  0.0690
  533TMC3    C3 7963   2.061   3.464  14.339 -0.6756 -0.2763 -0.6865
  533TMC3    C4 7964   1.810   3.379  14.417  0.8029  0.6526  0.2525
  533TMC3    C5 7965   1.845   3.512  14.427  0.9560 -0.4355  0.9280
  533TMC3    C6 7966   1.965   3.557  14.381 -0.1986 -0.1511 -0.2328
  533TMC3     C 7967   1.870   3.155  14.384  0.8547 -0.7502 -0.0450
  533TMC3     O 7968   1.949   3.064  14.414  0.0366  0.3212 -0.5023
  533TMC3     H 7969   2.107   3.260  14.315  0.5962  0.0143  2.4572
  533TMC3    H1 7970   1.711   3.337  14.433  0.4067  0.4580 -2.7852
  533TMC3    H2 7971   1.995   3.655  14.415  0.8538 -0.3420 -0.6056
  533TMC3    C7 7972   1.774   3.589  14.530 -0.0750 -0.4927  0.3085
  533TMC3    C8 7973   2.209   3.491  14.356 -0.3302 -0.0022  0.0395
  533TMC3    O1 7974   1.784   3.707  14.540  0.6457 -0.1397  0.6064
  533TMC3    O2 7975   2.271   3.406  14.419 -0.0016 -0.1003  0.3713
  534MPD2     C 7976   0.278   4.028   0.895 -0.5069 -0.5745  0.2519
  534MPD2    C1 7977   0.225   4.116   0.994 -0.9100 -0.1905  0.2656
  534MPD2    C2 7978   0.091   4.149   0.992 -0.1029 -0.0355 -0.3090
  534MPD2    C3 7979   0.002   4.089   0.899  0.0516  0.4682  0.4737
  534MPD2    C4 7980   0.052   4.002   0.807 -0.7066  0.6401 -0.4163
  534MPD2    C5 7981   0.191   3.967   0.809 -0.2794 -0.4693  0.3922
  534MPD2     H 7982   0.058   4.224   1.062  0.3586 -0.4804  0.3928
  534MPD2    H1 7983   4.721   3.968   0.727 -0.1298  1.6531 -1.3124
  534MPD2    H2 7984   0.384   4.009   0.891  0.1795  3.7367 -2.0090
  534MPD2    H3 7985   0.228   3.899   0.734 -1.2411  0.0604 -0.5575
  534MPD2     N 7986   4.610   4.139   0.888  0.1115 -0.0038 -0.3143
  534MPD2    H5 7987   4.550   4.108   0.813 -0.0316 -0.6079  0.0486
  534MPD2    N1 7988   0.311   4.176   1.092 -0.0458  0.1234 -0.1309
  534MPD2    H7 7989   0.265   4.243   1.152  0.6362  2.1152 -1.8483
  535TMC3    C1 7990   4.406   4.233   0.951 -0.6199 -0.3087 -0.0348
  535TMC3    C2 7991   4.324   4.256   1.057 -0.4465  0.5684  0.1362
  535TMC3    C3 7992   4.205   4.320   1.022  0.6615  0.8211 -0.4679
  535TMC3    C4 7993   4.381   4.276   0.821 -0.1301 -0.0540 -0.8738
  535TMC3    C5 7994   4.265   4.337   0.797 -0.0783  0.5540  0.1620
  535TMC3    C6 7995   4.174   4.358   0.900 -0.1080 -0.3298 -0.0909
  535TMC3     C 7996   4.543   4.195   0.991  0.1130  0.3181  0.3301
  535TMC3     O 7997   4.558   4.195   1.115  0.0355  0.3977  0.8060
  535TMC3     H 7998   4.339   4.204   1.150  0.2214 -0.2217 -0.4098
  535TMC3    H1 7999   4.448   4.252   0.739 -1.7133 -3.1525 -1.2387
  535TMC3    H2 8000   4.075   4.398   0.880  0.0256  0.5127  0.9223
  535TMC3    C7 8001   4.261   4.416   0.679 -0.0764  0.8336  0.1515
  535TMC3    C8 8002   4.097   4.327   1.125 -0.3327  0.1630 -0.6743
  535TMC3    O1 8003   4.321   4.373   0.581  0.0480 -0.3640  0.2427
  535TMC3    O2 8004   3.989   4.355   1.076 -0.2009 -0.1199 -0.3164
  536MPD2     C 8005   3.168   2.762  15.707 -0.3613 -0.3425 -0.1927
  536MPD2    C1 8006   3.081   2.817  15.801  0.4599 -0.7011  0.0242
  536MPD2    C2 8007   2.974   2.888  15.757 -0.5889 -0.5691  0.4523
  536MPD2    C3 8008   2.962   2.915  15.619  0.1471  0.5886  0.0202
  536MPD2    C4 8009   3.061   2.876  15.529 -0.8950 -0.0312  0.0700
  536MPD2    C5 8010   3.172   2.800  15.576 -0.2348 -0.6071  0.2352
  536MPD2     H 8011   2.900   2.924  15.828 -0.8103  0.6165 -0.3829
  536MPD2    H1 8012   3.057   2.903  15.425  0.5669  0.2566  0.0860
  536MPD2    H2 8013   3.247   2.699  15.746 -1.1903 -0.2062  1.6870
  536MPD2    H3 8014   3.249   2.754  15.515 -0.6692 -3.0379  1.5493
  536MPD2     N 8015   2.848   2.986  15.564 -0.1453 -0.1565 -0.1156
  536MPD2    H5 8016   2.845   2.999  15.464  0.3620  0.4604 -0.0544
  536MPD2    N1 8017   3.102   2.790  15.935  0.0677 -0.1719 -0.2719
  536MPD2    H7 8018   3.153   2.708  15.968  0.0520  0.1365  0.5197
  537TMC3    C1 8019   3.073   2.800  16.165 -0.4418  0.3104 -0.3947
  537TMC3    C2 8020   3.071   2.887  16.270 -0.0275 -0.3462  0.5426
  537TMC3    C3 8021   3.075   2.819  16.390 -0.0765  0.5748  0.1606
  537TMC3    C4 8022   3.057   2.670  16.166 -0.5956 -0.3926 -0.6758
  537TMC3    C5 8023   3.057   2.612  16.290 -0.0025 -0.8574 -0.1191
  537TMC3    C6 8024   3.075   2.686  16.401 -0.3520  0.4306 -0.1888
  537TMC3     C 8025   3.049   2.860  16.039  0.2472 -0.3345  0.3867
  537TMC3     O 8026   2.990   2.964  16.041  0.5181 -0.1524 -0.1638
  537TMC3     H 8027   3.082   2.995  16.264  0.3394 -0.4990 -1.2691
  537TMC3    H1 8028   3.025   2.607  16.084 -1.2774 -0.0751 -0.6549
  537TMC3    H2 8029   3.063   2.641  16.499 -0.8991 -0.4752 -0.6644
  537TMC3    C7 8030   2.979   2.490  16.303  0.3329  0.5262 -1.0410
  537TMC3    C8 8031   3.083   2.894  16.513 -0.2586 -1.1067  0.2760
  537TMC3    O1 8032   2.892   2.463  16.215  0.2913  0.4466 -0.1765
  537TMC3    O2 8033   3.127   2.834  16.609  0.2530 -0.5241  0.5756
  538TMC3    C1 8034   4.169   0.624  10.624 -0.2227 -0.2379 -0.1812
  538TMC3    C2 8035   4.297   0.671  10.617  0.6319 -0.3635 -0.1038
  538TMC3    C3 8036   4.328   0.745  10.502 -0.1280  0.4151  0.3310
  538TMC3    C4 8037   4.074   0.635  10.524 -0.0006 -0.2232  0.3154
  538TMC3    C5 8038   4.101   0.722  10.422 -0.3379 -0.0030  0.5630
  538TMC3    C6 8039   4.232   0.781  10.413  0.3599 -0.1199 -0.4734
  538TMC3     C 8040   4.121   0.570  10.749 -0.0623  0.3879 -0.3099
  538TMC3     O 8041   4.008   0.529  10.748 -0.0443 -0.2676  0.4452
  538TMC3     H 8042   4.374   0.662  10.693 -1.1186 -3.0704  1.3555
  538TMC3    H1 8043   3.973   0.597  10.531 -0.0620 -0.5617 -2.5061
  538TMC3    H2 8044   4.245   0.855  10.334  1.2639 -0.0347 -0.2391
  538TMC3    C7 8045   3.986   0.802  10.384  0.2690  0.1829 -0.4262
  538TMC3    C8 8046   4.464   0.808  10.495 -0.0503 -0.4135  0.2203
  538TMC3    O1 8047   3.884   0.742  10.369 -0.1324  0.6805 -0.0402
  538TMC3    O2 8048   4.533   0.776  10.592 -0.9945  0.1724  0.0871
  539MPD2     C 8049   3.454   0.169  11.763 -1.1104  0.1485 -0.1110
  539MPD2    C1 8050   3.495   0.187  11.635 -0.2438  0.1521  0.5024
  539MPD2    C2 8051   3.513   0.313  11.584 -0.6417 -0.9247  0.3275
  539MPD2    C3 8052   3.479   0.419  11.663  0.2873 -1.1894 -0.2125
  539MPD2    C4 8053   3.425   0.403  11.789  0.5880  0.2750 -0.2725
  539MPD2    C5 8054   3.415   0.278  11.839  0.0801 -0.0541  0.2234
  539MPD2     H 8055   3.550   0.315  11.482  0.5573  1.6001  0.7895
  539MPD2    H1 8056   3.381   0.490  11.837 -0.5581 -2.0505  2.8851
  539MPD2    H2 8057   3.448   0.075  11.817  0.6079 -0.3617 -0.8084
  539MPD2    H3 8058   3.388   0.270  11.944 -1.1009  0.5970 -0.0278
  539MPD2     N 8059   3.482   0.548  11.606  0.1139  0.2922  0.9555
  539MPD2    H5 8060   3.436   0.621  11.659 -0.0069  0.8432  0.0896
  539MPD2    N1 8061   3.500   0.086  11.534 -0.3700 -0.6108  0.3864
  539MPD2    H7 8062   3.534   0.108  11.441  0.1608 -0.7654  0.5427
  540TMC3    C1 8063   3.508   0.722  11.446 -0.1157  0.0239 -0.6960
  540TMC3    C2 8064   3.565   0.766  11.334  0.2891  0.3145  0.2976
  540TMC3    C3 8065   3.573   0.898  11.304  0.9763 -0.2917 -0.1979
  540TMC3    C4 8066   3.471   0.822  11.534  0.6095 -1.2106 -0.1340
  540TMC3    C5 8067   3.490   0.954  11.511  0.3579  0.4522 -0.3027
  540TMC3    C6 8068   3.538   0.997  11.388  0.5918  0.8705  0.3070
  540TMC3     C 8069   3.532   0.583  11.481  0.6387  0.1380  0.1958
  540TMC3     O 8070   3.592   0.516  11.395  0.0321  0.1377 -0.7389
  540TMC3     H 8071   3.604   0.695  11.261 -1.3251 -0.6406  0.3737
  540TMC3    H1 8072   3.442   0.790  11.633 -1.1685  1.5413  0.2240
  540TMC3    H2 8073   3.542   1.099  11.352 -1.4179  1.5915  2.1268
  540TMC3    C7 8074   3.381   1.032  11.562 -0.2214  0.1906 -0.1605
  540TMC3    C8 8075   3.635   0.934  11.178  0.8896 -0.4639  0.5978
  540TMC3    O1 8076   3.289   0.979  11.629 -0.5257 -0.0994  0.3616
  540TMC3    O2 8077   3.715   1.030  11.191 -0.5187  0.2608  0.0534
  541MPD2     C 8078   2.429   1.967  13.250 -0.2012 -0.2708  0.5826
  541MPD2    C1 8079   2.417   1.863  13.162  0.5436  0.2238 -0.0045
  541MPD2    C2 8080   2.383   1.896  13.033  0.9473  0.2147  0.0511
  541MPD2    C3 8081   2.380   2.028  12.982  0.3005  0.3793 -0.2562
  541MPD2    C4 8082   2.400   2.132  13.077 -0.7408  0.5931  0.4951
  541MPD2    C5 8083   2.419   2.099  13.213 -0.2169  0.0654 -0.3756
  541MPD2     H 8084   2.361   1.810  12.971 -0.4328  0.0021  0.8341
  541MPD2    H1 8085   2.401   2.235  13.043  1.5013  0.2235 -0.5892
  541MPD2    H2 8086   2.445   1.967  13.357  3.5173  2.1095  0.0275
  541MPD2    H3 8087   2.436   2.186  13.275  1.6890 -0.6893  0.1543
  541MPD2     N 8088   2.374   2.059  12.845  0.3978  0.2914 -1.2817
  541MPD2    H5 8089   2.376   2.158  12.822  0.5586  0.6206  0.1420
  541MPD2    N1 8090   2.409   1.731  13.193 -0.4969 -0.4909 -0.0627
  541MPD2    H7 8091   2.406   1.673  13.110  4.1184 -1.5568  0.4974
  542TMC3    C1 8092   2.361   2.030  12.611 -0.9967  0.1861 -0.1611
  542TMC3    C2 8093   2.396   1.945  12.503  0.6400 -0.0470 -0.0905
  542TMC3    C3 8094   2.362   1.999  12.385  0.1525  0.9551  0.0177
  542TMC3    C4 8095   2.311   2.159  12.606 -0.7365  0.0010  0.2946
  542TMC3    C5 8096   2.299   2.205  12.486 -0.5832  0.2727 -0.6223
  542TMC3    C6 8097   2.320   2.130  12.372 -0.7582 -0.7523 -0.1259
  542TMC3     C 8098   2.363   1.967  12.742  0.1788 -0.0167  0.1693
  542TMC3     O 8099   2.363   1.845  12.742  0.2259  0.4276 -0.3960
  542TMC3     H 8100   2.430   1.845  12.527 -1.1696 -0.9213 -1.1096
  542TMC3    H1 8101   2.280   2.209  12.697  1.1269 -1.2413  1.6198
  542TMC3    H2 8102   2.291   2.164  12.273 -1.3473  0.8583  0.5924
  542TMC3    C7 8103   2.272   2.345  12.483 -0.2805  0.6046  0.3973
  542TMC3    C8 8104   2.384   1.932  12.261  0.3366 -0.6328  0.7516
  542TMC3    O1 8105   2.190   2.383  12.566 -0.3836 -0.3904  0.0266
  542TMC3    O2 8106   2.377   2.006  12.163 -0.4130 -0.0525  0.0551
  543TMC3    C1 8107   1.793   3.823  17.162  0.3063 -0.2564 -0.1219
  543TMC3    C2 8108   1.753   3.697  17.199  0.5372 -0.4314 -0.4717
  543TMC3    C3 8109   1.711   3.674  17.322  0.0500 -0.3503  0.1332
  543TMC3    C4 8110   1.808   3.922  17.257 -0.9361  0.1336 -0.5097
  543TMC3    C5 8111   1.782   3.891  17.390 -0.0205  0.3786  0.3531
  543TMC3    C6 8112   1.731   3.767  17.424  0.8260 -0.5578 -0.4488
  543TMC3     C 8113   1.880   3.820  17.045  0.2256 -0.1730  0.0269
  543TMC3     O 8114   1.948   3.720  17.032 -0.0952  0.3496  0.1164
  543TMC3     H 8115   1.750   3.619  17.124  1.7063 -0.4745 -0.4689
  543TMC3    H1 8116   1.838   4.022  17.229  0.2204  0.0414  0.3972
  543TMC3    H2 8117   1.694   3.757  17.525 -0.3063  0.9589 -0.7245
  543TMC3    C7 8118   1.735   3.994  17.482  0.2582  0.0166  0.2847
  543TMC3    C8 8119   1.690   3.536  17.365 -0.0150  0.4062 -0.2113
  543TMC3    O1 8120   1.635   3.970  17.546  0.5002  0.0289  0.5188
  543TMC3    O2 8121   1.739   3.455  17.286  0.7912  0.2081  0.6411
  544MPD2     C 8122   1.600   3.174  17.724  0.0249 -0.0444 -0.0246
  544MPD2    C1 8123   1.661   3.164  17.607  0.2694  0.7523 -0.6396
  544MPD2    C2 8124   1.660   3.277  17.527  0.1059  0.1336  0.2068
  544MPD2    C3 8125   1.612   3.401  17.567 -0.2168 -0.2557 -0.0068
  544MPD2    C4 8126   1.558   3.403  17.688  1.0625  0.1215 -0.1333
  544MPD2    C5 8127   1.547   3.289   0.027  0.2136  0.1266  0.0486
  544MPD2     H 8128   1.720   3.282  17.437  0.0311 -0.2372  0.1356
  544MPD2    H1 8129   1.517   3.494  17.731 -0.0954  0.0502 -1.0831
  544MPD2    H2 8130   1.591   3.090   0.057  0.8803 -0.3913 -0.3323
  544MPD2    H3 8131   1.502   3.301   0.124  2.5695 -2.0887  1.4175
  544MPD2     N 8132   1.630   3.526  17.494 -0.7345  0.2565 -0.2749
  544MPD2    H5 8133   1.580   3.602  17.538 -0.9132 -0.2709  0.4259
  544MPD2    N1 8134   1.726   3.044  17.574  0.1774 -0.0687 -0.2972
  544MPD2    H7 8135   1.750   2.977  17.647  0.7396  1.8514  1.2809
  545TMC3    C1 8136   1.821   2.870  17.448 -0.0825 -0.0814 -0.5235
  545TMC3    C2 8137   1.819   2.790  17.552  0.0232  0.2340 -0.1712
  545TMC3    C3 8138   1.900   2.683  17.553 -0.1015 -0.4987  0.4390
  545TMC3    C4 8139   1.895   2.835  17.340  0.5256  0.5809 -0.6269
  545TMC3    C5 8140   1.975   2.733  17.341  0.0491 -0.1481  0.5037
  545TMC3    C6 8141   1.974   2.642  17.447 -0.1892  0.0406  0.3813
  545TMC3     C 8142   1.772   3.005  17.451  0.8676 -0.0757  0.6329
  545TMC3     O 8143   1.758   3.062  17.344 -0.3445  0.1644  0.1519
  545TMC3     H 8144   1.747   2.806  17.632  1.4016 -1.8289  1.4552
  545TMC3    H1 8145   1.906   2.901  17.254  0.2611  0.6872 -0.5787
  545TMC3    H2 8146   2.035   2.553  17.461 -0.7022 -0.4523 -0.5820
  545TMC3    C7 8147   2.047   2.695  17.220  0.4743  0.5248 -0.0966
  545TMC3    C8 8148   1.880   2.575  17.650  0.1144 -0.2655 -0.2135
  545TMC3    O1 8149   2.045   2.776  17.133 -0.6366 -0.2025 -0.3582
  545TMC3    O2 8150   1.983   2.518  17.684 -0.3618 -0.2943  0.4607
  546MPD2     C 8151   3.152   3.290  17.543 -0.6595 -0.0866  0.1705
  546MPD2    C1 8152   3.126   3.335  17.415  0.2269 -0.1459 -0.1824
  546MPD2    C2 8153   3.202   3.440  17.367 -0.4314  0.2421  0.0352
  546MPD2    C3 8154   3.291   3.509  17.444 -1.1347  0.5728 -0.4790
  546MPD2    C4 8155   3.324   3.459  17.570 -0.0737  0.6920  0.5163
  546MPD2    C5 8156   3.256   3.346  17.612 -0.1345 -0.0699  0.1166
  546MPD2     H 8157   3.189   3.473  17.264  1.4083  0.0126 -0.2690
  546MPD2    H1 8158   3.395   3.509  17.635 -0.8187  0.3133  1.6387
  546MPD2    H2 8159   3.099   3.213  17.599  1.6153 -1.0256  1.0155
  546MPD2    H3 8160   3.270   3.316  17.715  3.2106  0.8194 -0.0818
  546MPD2     N 8161   3.370   3.623  17.400  0.5152  0.3669 -0.6466
  546MPD2    H5 8162   3.430   3.673  17.465 -1.5283  0.8433  0.8766
  546MPD2    N1 8163   3.028   3.255  17.338 -0.0133  0.0040 -0.2997
  546MPD2    H7 8164   2.984   3.185  17.395 -0.1976  0.3873  0.0266
  547TMC3    C1 8165   2.906   3.171  17.158  0.0626 -0.7186 -0.3226
  547TMC3    C2 8166   2.827   3.213  17.059  0.9586 -0.1984 -0.2858
  547TMC3    C3 8167   2.752   3.112  17.000 -0.1566 -0.5727 -1.1813
  547TMC3    C4 8168   2.909   3.047  17.206  0.4958 -0.1725  0.3320
  547TMC3    C5 8169   2.830   2.953  17.142 -0.6692 -0.1800  0.2850
  547TMC3    C6 8170   2.751   2.980  17.037  0.2285  0.3061 -0.0294
  547TMC3     C 8171   2.986   3.281  17.211  1.1045 -0.0860  0.5929
  547TMC3     O 8172   3.017   3.376  17.140  0.1071 -0.1400  0.5846
  547TMC3     H 8173   2.838   3.313  17.018  0.7026  1.3846  3.5159
  547TMC3    H1 8174   2.978   3.025  17.286 -0.2795 -0.9632  0.7750
  547TMC3    H2 8175   2.686   2.902  17.000  0.8869 -0.3921  0.2782
  547TMC3    C7 8176   2.834   2.821  17.204  0.1647 -0.1136  0.0228
  547TMC3    C8 8177   2.684   3.138  16.876 -0.2776 -0.3052  0.0665
  547TMC3    O1 8178   2.877   2.818  17.317  0.1477 -0.7949  0.0576
  547TMC3    O2 8179   2.638   3.252  16.869 -0.1255 -0.2787 -0.1351
  548MPD2     C 8180   2.809   3.989  12.137  0.4721  0.1082 -0.8914
  548MPD2    C1 8181   2.784   3.872  12.208 -0.7815 -0.3192 -0.2357
  548MPD2    C2 8182   2.877   3.772  12.203  0.5970 -0.4483  0.0700
  548MPD2    C3 8183   2.990   3.785  12.123 -1.0151 -0.7418 -0.6700
  548MPD2    C4 8184   3.014   3.899  12.051  0.1189 -0.3452 -0.3934
  548MPD2    C5 8185   2.927   4.002  12.063  0.0569 -1.0521  0.0470
  548MPD2     H 8186   2.857   3.681  12.258  0.2406  0.6246  1.7155
  548MPD2    H1 8187   3.096   3.910  11.981  0.8837 -0.8589  0.4429
  548MPD2    H2 8188   2.733   4.066  12.128 -0.3380 -0.6384 -0.5015
  548MPD2    H3 8189   2.940   4.089  11.999  1.9128  0.0537  1.9265
  548MPD2     N 8190   3.084   3.677  12.128 -0.0134  0.8703 -0.1774
  548MPD2    H5 8191   3.072   3.604  12.198 -2.7250  1.9906  0.5535
  548MPD2    N1 8192   2.664   3.867  12.287 -0.2223 -0.5820 -0.8372
  548MPD2    H7 8193   2.624   3.960  12.281  1.0068 -0.3031 -4.7744
  549TMC3    C1 8194   2.457   3.788  12.387 -0.0373  0.1869  0.2142
  549TMC3    C2 8195   2.429   3.910  12.447  0.0429 -0.0085  0.3123
  549TMC3    C3 8196   2.313   3.925  12.513  0.7072  0.3174  0.8259
  549TMC3    C4 8197   2.381   3.685  12.420 -0.2460 -0.3784  0.5791
  549TMC3    C5 8198   2.264   3.697  12.486 -0.1964 -0.4022  0.0317
  549TMC3    C6 8199   2.226   3.820  12.521  0.7171 -0.4217 -1.0079
  549TMC3     C 8200   2.598   3.758  12.338  0.1062  0.4666 -0.7458
  549TMC3     O 8201   2.629   3.637  12.354  0.1967  0.1779  0.1914
  549TMC3     H 8202   2.500   3.992  12.440 -2.1491  1.7463 -1.5554
  549TMC3    H1 8203   2.400   3.594  12.366  0.2317 -0.6389  1.1777
  549TMC3    H2 8204   2.136   3.823  12.581  2.0538  1.5895  0.8996
  549TMC3    C7 8205   2.165   3.587  12.530  0.3448 -0.3546  0.3737
  549TMC3    C8 8206   2.254   4.061  12.531  0.4475 -0.0249  0.5028
  549TMC3    O1 8207   2.054   3.619  12.572  0.0377 -0.1938  0.5496
  549TMC3    O2 8208   2.130   4.067  12.534 -0.2203  0.1562  0.0994
  550TMC3    C1 8209   1.668   1.789  11.769 -0.5428  0.0736 -0.2363
  550TMC3    C2 8210   1.740   1.846  11.861  0.9625  0.3877 -0.6263
  550TMC3    C3 8211   1.738   1.983  11.877 -0.3487  0.1594 -0.1112
  550TMC3    C4 8212   1.603   1.870  11.677 -0.3138  0.3168  0.0849
  550TMC3    C5 8213   1.595   2.007  11.698 -0.1103 -0.4198 -0.5502
  550TMC3    C6 8214   1.658   2.064  11.804  0.0202  0.4316 -0.2317
  550TMC3     C 8215   1.700   1.652  11.738  0.2741 -0.2104  0.1476
  550TMC3     O 8216   1.762   1.589  11.825 -0.0084  0.3452 -0.3659
  550TMC3     H 8217   1.798   1.790  11.934 -0.1248  0.0674 -0.0122
  550TMC3    H1 8218   1.532   1.823  11.609  1.5566 -0.2377 -1.4940
  550TMC3    H2 8219   1.654   2.169  11.831  1.4064  0.8023 -1.5306
  550TMC3    C7 8220   1.467   2.060  11.667  0.5182 -0.6166  0.0850
  550TMC3    C8 8221   1.825   2.048  11.980 -0.0494  0.4069 -0.0914
  550TMC3    O1 8222   1.416   2.130  11.752 -0.0576  0.5682  0.2716
  550TMC3    O2 8223   1.808   2.166  11.994 -0.4327  0.8444 -0.4899
  551TMC3    C1 8224   3.873   4.553  13.069 -0.3295  0.2158  0.3965
  551TMC3    C2 8225   3.975   4.583  12.986  0.3237 -0.1350  0.2156
  551TMC3    C3 8226   4.077   4.663  13.030  0.3553 -0.2034 -0.6868
  551TMC3    C4 8227   3.862   4.606  13.195 -0.2082 -0.2468 -0.4345
  551TMC3    C5 8228   3.966   4.679  13.236 -0.1490 -0.4494  0.2380
  551TMC3    C6 8229   4.074   4.715  13.157 -0.3851 -0.0225  0.1929
  551TMC3     C 8230   3.763   4.478  13.013 -0.4951 -0.2046  0.2027
  551TMC3     O 8231   3.788   4.392  12.933 -0.1479 -0.1963  0.1185
  551TMC3     H 8232   3.971   4.553  12.881  1.1247  0.8132 -0.0798
  551TMC3    H1 8233   3.792   4.554  13.259 -0.0867 -0.4197 -0.4411
  551TMC3    H2 8234   4.162   0.033  13.194 -0.6710  2.1941 -2.2729
  551TMC3    C7 8235   3.973   4.708  13.377 -0.3751  0.3154  0.3012
  551TMC3    C8 8236   4.173   4.701  12.924  0.1005  0.3849 -0.6143
  551TMC3    O1 8237   4.086   4.713  13.419 -0.2950 -0.0250  0.1206
  551TMC3    O2 8238   4.171   4.624  12.830 -0.4002 -0.5139 -0.0468
  552MPD2     C 8239   1.113   1.676  13.906  0.4811  0.7391  0.3450
  552MPD2    C1 8240   1.111   1.545  13.955  0.2150  0.6519  0.4444
  552MPD2    C2 8241   1.205   1.510  14.055 -0.1942  0.3769  0.4566
  552MPD2    C3 8242   1.303   1.604  14.098  0.7771  0.1551  0.2946
  552MPD2    C4 8243   1.291   1.729  14.043  0.0236 -0.0446  0.4796
  552MPD2    C5 8244   1.192   1.771  13.957 -0.2785  0.5446  0.1629
  552MPD2     H 8245   1.203   1.408  14.094 -0.7645  0.1740 -0.1181
  552MPD2    H1 8246   1.362   1.804  14.077  0.1893 -0.2841  0.6641
  552MPD2    H2 8247   1.040   1.704  13.831  0.9517 -0.5805 -0.6191
  552MPD2    H3 8248   1.190   1.879  13.942  2.8068  0.5050 -0.6506
  552MPD2     N 8249   1.409   1.571  14.181  0.6288  0.1686  0.5550
  552MPD2    H5 8250   1.490   1.633  14.185  1.3059 -0.6647 -0.1332
  552MPD2    N1 8251   1.007   1.454  13.931 -0.5016 -0.2839 -0.3115
  552MPD2    H7 8252   1.008   1.372  13.992 -1.2270 -0.8520 -1.0557
  553TMC3    C1 8253   0.834   1.331  13.819 -0.0447 -0.3837 -0.3482
  553TMC3    C2 8254   0.738   1.317  13.717 -0.1497 -1.1734  0.4710
  553TMC3    C3 8255   0.704   1.191  13.685 -0.4528 -1.1194 -0.6383
  553TMC3    C4 8256   0.873   1.219  13.897  0.6272  0.0075  0.2876
  553TMC3    C5 8257   0.815   1.097  13.874  0.0042  0.2179  0.0206
  553TMC3    C6 8258   0.729   1.085  13.765  0.5341 -0.2098 -0.0645
  553TMC3     C 8259   0.901   1.463  13.839  0.2753  0.4186  0.1020
  553TMC3     O 8260   0.875   1.555  13.766 -0.0978  0.2095  0.6027
  553TMC3     H 8261   0.703   1.397  13.652  1.4307 -0.2876  0.6960
  553TMC3    H1 8262   0.945   1.226  13.978  0.3476 -1.4451  0.6599
  553TMC3    H2 8263   0.689   0.988  13.736 -0.1011  0.0440 -0.0317
  553TMC3    C7 8264   0.849   0.973  13.935  0.4701 -0.2495 -0.3468
  553TMC3    C8 8265   0.787   1.177  13.563 -0.6536  0.0170  0.0577
  553TMC3    O1 8266   0.773   0.877  13.928 -0.0769  0.2714 -0.6179
  553TMC3    O2 8267   0.875   1.255  13.530  0.4960 -0.1613 -0.3513
  554TMC3    C1 8268   2.571   0.551  11.520 -0.9450  0.5043 -0.5937
  554TMC3    C2 8269   2.480   0.578  11.421  0.3603 -0.3368  0.5217
  554TMC3    C3 8270   2.517   0.673  11.329  0.2068 -0.4536 -0.2377
  554TMC3    C4 8271   2.692   0.620  11.537 -0.3767  0.3996  0.0566
  554TMC3    C5 8272   2.723   0.705  11.439  0.4392  0.2070  0.5896
  554TMC3    C6 8273   2.638   0.731  11.336 -0.0148  0.2296  0.1771
  554TMC3     C 8274   2.542   0.424  11.586  0.0447  0.0785 -0.1681
  554TMC3     O 8275   2.442   0.359  11.543 -0.2278  0.2279 -0.0988
  554TMC3     H 8276   2.392   0.518  11.403  0.0336 -0.2623  1.9006
  554TMC3    H1 8277   2.761   0.596  11.618  1.1716  2.3981 -0.6463
  554TMC3    H2 8278   2.660   0.801  11.256  1.3477 -3.0044 -2.2767
  554TMC3    C7 8279   2.836   0.797  11.443 -0.5334  0.3843 -0.4612
  554TMC3    C8 8280   2.457   0.657  11.203  0.6866 -0.3805 -0.3592
  554TMC3    O1 8281   2.905   0.797  11.542 -0.5154  0.5628 -0.6131
  554TMC3    O2 8282   2.535   0.679  11.110  0.3335  0.8096 -0.0840
  555TMC3    C1 8283   1.835   0.045  14.840 -0.4088  0.5185  0.0500
  555TMC3    C2 8284   1.923   0.029  14.736  0.7947  0.0463  0.0601
  555TMC3    C3 8285   2.015   4.665  14.751  0.3470 -0.1120 -0.6803
  555TMC3    C4 8286   1.839   4.703  14.955 -0.8229 -0.3598 -0.3137
  555TMC3    C5 8287   1.938   4.606  14.957  0.3730  0.6916 -0.1908
  555TMC3    C6 8288   2.027   4.585  14.862  0.8242  0.3837  0.3899
  555TMC3     C 8289   1.738   0.148  14.840 -0.0889  0.0964 -0.4384
  555TMC3     O 8290   1.714   0.203  14.949  0.3877  0.0632  0.6208
  555TMC3     H 8291   1.918   0.090  14.646  1.0964  0.4333  0.3057
  555TMC3    H1 8292   1.775   4.718  15.042  3.0903  1.7172  2.1969
  555TMC3    H2 8293   2.091   4.498  14.868  0.2059 -0.1804 -1.1830
  555TMC3    C7 8294   1.917   4.490  15.046 -0.4063  0.8547  0.5865
  555TMC3    C8 8295   2.124   4.659  14.651 -0.9494  0.0570 -0.3767
  555TMC3    O1 8296   1.805   4.448  15.062 -0.5158 -0.0906  0.3247
  555TMC3    O2 8297   2.100   4.712  14.545  0.0562  0.0199 -0.1005
  556MPD2     C 8298   4.696   2.081  10.359  0.1825  0.0458  0.4747
  556MPD2    C1 8299   4.722   1.958  10.404 -0.3566  0.0684 -0.3762
  556MPD2    C2 8300   4.675   1.844  10.340 -0.7523 -0.9700 -0.4455
  556MPD2    C3 8301   4.615   1.847  10.214  0.7851 -1.0932  0.0503
  556MPD2    C4 8302   4.585   1.973  10.167 -0.3790 -0.0995  0.1905
  556MPD2    C5 8303   4.623   2.088  10.242  0.4572  0.1591  0.4994
  556MPD2     H 8304   4.680   1.750  10.393 -0.4783 -0.7541 -0.0838
  556MPD2    H1 8305   4.548   1.993  10.067  0.2057  1.8428  0.3776
  556MPD2    H2 8306   0.002   2.175  10.396  0.3889 -1.1796  3.2920
  556MPD2    H3 8307   4.607   2.186  10.200  0.1007 -0.2426 -0.3000
  556MPD2     N 8308   4.571   1.728  10.148  1.3028  0.1370 -0.0829
  556MPD2    H5 8309   4.607   1.641  10.184 -0.8724 -0.1184  1.4242
  556MPD2    N1 8310   0.051   1.935  10.534 -0.0074  0.0488 -0.5527
  556MPD2    H7 8311   0.043   1.851  10.590  0.3775  0.6064  0.3444
  557TMC3    C1 8312   4.482   1.605   9.965 -0.4093 -0.2436  0.3790
  557TMC3    C2 8313   4.427   1.599   9.837 -0.1924 -0.7777 -0.0736
  557TMC3    C3 8314   4.422   1.469   9.779 -0.0332  0.5812 -0.3077
  557TMC3    C4 8315   4.523   1.487  10.021  0.2516  0.3491 -0.5995
  557TMC3    C5 8316   4.526   1.370   9.952  0.1937 -0.2768  0.8642
  557TMC3    C6 8317   4.475   1.353   9.832  0.1394  0.8151 -0.4251
  557TMC3     C 8318   4.492   1.735  10.031  0.4522  0.2198  0.3042
  557TMC3     O 8319   4.439   1.832   9.974 -0.3408  0.1886  0.4583
  557TMC3     H 8320   4.404   1.690   9.781  0.6388 -0.3713  0.2467
  557TMC3    H1 8321   4.539   1.491  10.128 -1.5224  0.6061 -0.3312
  557TMC3    H2 8322   4.465   1.257   9.782  1.5181  0.7829 -0.6259
  557TMC3    C7 8323   4.545   1.248  10.022  0.0644  0.0736 -0.2764
  557TMC3    C8 8324   4.366   1.464   9.649  0.3495  0.5999  0.0993
  557TMC3    O1 8325   4.473   1.156   9.990 -0.0554  0.0810  0.0860
  557TMC3    O2 8326   4.352   1.572   9.594  0.0119  0.0021 -0.2580
  558TMC3    C1 8327   2.360   4.566  10.263 -0.6303 -0.1641 -0.2492
  558TMC3    C2 8328   2.269   4.467  10.266  0.3904  0.2162 -1.0410
  558TMC3    C3 8329   2.140   4.505  10.230  0.0779 -0.0047  0.9315
  558TMC3    C4 8330   2.336   4.697  10.221 -0.5819  0.2986 -0.5533
  558TMC3    C5 8331   2.211   4.725  10.170  0.1449 -0.1730 -0.1540
  558TMC3    C6 8332   2.109   4.633  10.181 -0.2952  0.0464 -0.9359
  558TMC3     C 8333   2.492   4.535  10.297 -0.0547  0.8804  0.3620
  558TMC3     O 8334   2.582   4.611  10.267  0.5225 -0.2194 -0.6042
  558TMC3     H 8335   2.292   4.362  10.255 -1.1343 -0.3688  1.2649
  558TMC3    H1 8336   2.414   0.038  10.226 -0.1787 -0.0099 -2.2810
  558TMC3    H2 8337   2.010   4.663  10.150 -0.6044 -0.5393 -0.5107
  558TMC3    C7 8338   2.186   0.131  10.128  0.2871  0.1142 -0.4678
  558TMC3    C8 8339   2.049   4.394  10.208 -1.0440 -1.3013  0.1049
  558TMC3    O1 8340   2.263   0.218  10.164  0.1631 -0.1490  0.4592
  558TMC3    O2 8341   1.942   4.407  10.143 -0.1612  0.4695 -0.5822
  559MPD2     C 8342   2.165   0.105  10.482  0.3554  0.4691  0.4465
  559MPD2    C1 8343   2.160   4.723  10.556 -0.4004  0.3988  0.1885
  559MPD2    C2 8344   2.277   4.665  10.615 -0.4043  0.5808  0.5043
  559MPD2    C3 8345   2.399   4.727  10.593 -0.3942 -0.4942 -0.1205
  559MPD2    C4 8346   2.413   0.103  10.514  0.3105 -0.2557 -0.4546
  559MPD2    C5 8347   2.294   0.167  10.473 -0.4355 -0.0622  0.4015
  559MPD2     H 8348   2.271   4.578  10.679 -1.0006 -0.6764 -1.2777
  559MPD2    H1 8349   2.506   0.153  10.491 -0.7421  2.3345  0.9232
  559MPD2    H2 8350   2.075   0.132  10.429 -0.6546 -1.4880  1.1692
  559MPD2    H3 8351   2.294   0.261  10.419 -0.0127  0.4904  1.3464
  559MPD2     N 8352   2.516   4.662  10.647 -0.3070 -0.0766 -0.8270
  559MPD2    H5 8353   2.502   4.580  10.705  2.1355  0.2168  0.1845
  559MPD2    N1 8354   2.027   4.693  10.588  0.6712  0.3872  0.6826
  559MPD2    H7 8355   1.949   0.017  10.560 -0.0314  0.4191  2.6701
  560TMC3    C1 8356   2.730   4.636  10.731  0.0431 -0.2780  0.7827
  560TMC3    C2 8357   2.693   4.504  10.745  0.3406 -0.2820 -0.6761
  560TMC3    C3 8358   2.753   4.428  10.832 -0.9517 -0.1701  0.3471
  560TMC3    C4 8359   2.823   4.690  10.817 -0.5037  0.1820  0.6572
  560TMC3    C5 8360   2.872   4.612  10.917 -0.5431 -0.7440  0.0784
  560TMC3    C6 8361   2.836   4.481  10.923 -0.2136  0.6693 -0.6062
  560TMC3     C 8362   2.646   4.720  10.652 -0.5369  0.0044 -0.4158
  560TMC3     O 8363   2.683   0.100  10.625 -0.2184 -0.4773 -0.5647
  560TMC3     H 8364   2.621   4.457  10.678 -0.8068  0.7564 -0.1760
  560TMC3    H1 8365   2.834   0.063  10.832 -0.5816  0.2931 -0.0461
  560TMC3    H2 8366   2.885   4.429  11.004 -0.7687  1.6813  0.3853
  560TMC3    C7 8367   2.909   4.678  11.045 -1.3241  0.2482 -0.8770
  560TMC3    C8 8368   2.700   4.294  10.848  0.0475 -0.3045 -0.0006
  560TMC3    O1 8369   2.881   4.624  11.150 -0.0560 -0.1710 -0.1303
  560TMC3    O2 8370   2.587   4.279  10.804 -0.7514 -0.1730 -0.1741
  561TMC3    C1 8371   0.304   3.803  11.827  0.7130  0.5670 -0.0789
  561TMC3    C2 8372   0.217   3.782  11.924  0.3743  0.1616 -0.4673
  561TMC3    C3 8373   0.116   3.865  11.947  0.0036  0.5067 -0.6306
  561TMC3    C4 8374   0.283   3.904  11.740  0.2933 -0.2103  0.2676
  561TMC3    C5 8375   0.180   3.990  11.766  0.4970 -0.1868  0.4569
  561TMC3    C6 8376   0.083   3.968  11.859 -0.1587 -0.3957 -0.3798
  561TMC3     C 8377   0.413   3.709  11.809  0.8733  0.6389  0.2638
  561TMC3     O 8378   0.450   3.651  11.910  0.0016 -0.2074  0.5064
  561TMC3     H 8379   0.222   3.692  11.984  0.7375  0.7689  0.4244
  561TMC3    H1 8380   0.367   3.937  11.680 -0.4819 -0.3130 -0.8748
  561TMC3    H2 8381   4.734   4.036  11.868  2.0706  2.2116  0.4220
  561TMC3    C7 8382   0.166   4.102  11.686 -0.3765  0.7266 -0.4381
  561TMC3    C8 8383   0.055   3.857  12.076 -0.9034 -0.7426  0.4761
  561TMC3    O1 8384   0.091   4.194  11.730 -0.0744 -0.2702  0.2172
  561TMC3    O2 8385   0.106   3.784  12.161 -0.7387  0.3226 -0.0274
  562TMC3    C1 8386   2.025   4.672  15.464 -0.4496  0.5131  0.0982
  562TMC3    C2 8387   1.939   0.035  15.509  0.2163 -0.8487 -0.9749
  562TMC3    C3 8388   1.868   0.002  15.628  0.0121  0.2230 -0.0589
  562TMC3    C4 8389   2.037   4.550  15.525  0.2414  0.3533  0.5085
  562TMC3    C5 8390   1.981   4.531  15.649 -0.2347 -0.1416  0.1129
  562TMC3    C6 8391   1.898   4.624  15.700 -0.0766  0.0231  0.2907
  562TMC3     C 8392   2.107   4.696  15.346  0.2231 -1.1413  0.1039
  562TMC3     O 8393   2.200   4.617  15.323 -0.0352 -0.3540 -0.0295
  562TMC3     H 8394   1.945   0.137  15.473 -0.7967  0.1477  1.7176
  562TMC3    H1 8395   2.084   4.472  15.466 -0.2231 -0.8307  1.7056
  562TMC3    H2 8396   1.840   4.613  15.791  0.7758  0.8838  0.9473
  562TMC3    C7 8397   1.990   4.404  15.718 -1.2618 -0.4151 -0.2838
  562TMC3    C8 8398   1.789   0.104  15.690  0.5265  0.0913 -0.1368
  562TMC3    O1 8399   1.925   4.383  15.818  0.0313 -0.1331 -0.3600
  562TMC3    O2 8400   1.780   0.084  15.811 -0.1912 -0.4705  0.0711
  563MPD2     C 8401   4.027   1.561  15.615  0.2768  0.4641 -0.3576
  563MPD2    C1 8402   4.063   1.667  15.704  0.3460  0.5870  0.7458
  563MPD2    C2 8403   4.201   1.696  15.705  0.6118  0.1856  0.3713
  563MPD2    C3 8404   4.289   1.604  15.656  0.4513  0.6318  0.5615
  563MPD2    C4 8405   4.251   1.500  15.575  0.8210 -0.0666 -0.6087
  563MPD2    C5 8406   4.114   1.480  15.553 -0.5309  0.1631 -0.3525
  563MPD2     H 8407   4.231   1.780  15.767 -0.4324  1.6976 -1.1645
  563MPD2    H1 8408   4.321   1.418  15.560  1.8821  0.5362  1.0992
  563MPD2    H2 8409   3.922   1.547  15.591  0.6887 -1.7650 -0.8860
  563MPD2    H3 8410   4.076   1.398  15.495 -0.8174  1.1656 -1.5779
  563MPD2     N 8411   4.423   1.612  15.704  0.0504  0.0541  0.4001
  563MPD2    H5 8412   4.433   1.675  15.783 -2.1743  0.6502  0.2008
  563MPD2    N1 8413   3.972   1.749  15.769 -0.6973  0.2932 -0.0790
  563MPD2    H7 8414   4.014   1.815  15.834  2.1644  0.5221 -2.2038
  564TMC3    C1 8415   3.792   1.755  15.922  0.2316  0.1744 -0.6805
  564TMC3    C2 8416   3.670   1.705  15.940 -0.0241  0.1707 -0.5269
  564TMC3    C3 8417   3.647   1.615  16.044 -0.2103 -0.0415 -0.4170
  564TMC3    C4 8418   3.891   1.728  16.016  0.3014 -0.1256  0.1484
  564TMC3    C5 8419   3.870   1.647  16.127  0.1186  0.5498 -0.3368
  564TMC3    C6 8420   3.746   1.587  16.131 -0.6216  0.3534  0.0147
  564TMC3     C 8421   3.838   1.729  15.790  0.3522  0.3212 -0.2917
  564TMC3     O 8422   3.767   1.648  15.733  0.4943  0.0475  0.6024
  564TMC3     H 8423   3.602   1.712  15.855 -2.0935  1.7678  1.2872
  564TMC3    H1 8424   3.975   1.794  16.031  1.8468 -1.8089 -1.2163
  564TMC3    H2 8425   3.725   1.522  16.215  0.5899  0.3495  0.3104
  564TMC3    C7 8426   3.970   1.550  16.162 -0.5341  0.2672 -1.0170
  564TMC3    C8 8427   3.559   1.498  16.013 -0.0204 -0.2275 -0.1133
  564TMC3    O1 8428   3.952   1.455  16.239 -0.1188 -0.6153 -0.7196
  564TMC3    O2 8429   3.555   1.408  16.098 -0.2022  0.5087  0.4744
  565TMC3    C1 8430   4.593   3.214  10.160  0.2589  0.1549  0.6453
  565TMC3    C2 8431   4.587   3.076  10.182 -0.1786  0.8881 -0.0381
  565TMC3    C3 8432   4.474   3.017  10.136  0.1151  0.1957 -0.7225
  565TMC3    C4 8433   4.487   3.292  10.110 -0.1307 -0.1345 -0.3548
  565TMC3    C5 8434   4.373   3.226  10.085  0.3353 -0.5191 -0.4383
  565TMC3    C6 8435   4.373   3.090  10.083  0.1918 -0.6196 -0.2975
  565TMC3     C 8436   4.709   3.287  10.198 -0.1835 -0.9014  0.3267
  565TMC3     O 8437   4.714   3.398  10.146 -0.4675  0.0344  0.5776
  565TMC3     H 8438   4.664   3.019  10.233 -1.0306  0.6356  0.9671
  565TMC3    H1 8439   4.505   3.397  10.091  0.8482  0.2964  2.7978
  565TMC3    H2 8440   4.282   3.038  10.056 -0.4177  0.6694 -0.7457
  565TMC3    C7 8441   4.256   3.301  10.038 -0.4414  0.0721  0.0147
  565TMC3    C8 8442   4.463   2.877  10.162  0.5276  0.7285 -0.0838
  565TMC3    O1 8443   4.165   3.238   9.987 -0.5870  0.1307 -0.3951
  565TMC3    O2 8444   4.503   2.830  10.264 -0.3382  0.1075 -0.0764
  566MPD2     C 8445   1.210   4.284  14.091  0.3879 -0.1494 -0.9211
  566MPD2    C1 8446   1.256   4.176  14.027  0.3067  0.2017  0.1348
  566MPD2    C2 8447   1.168   4.103  13.950 -0.0799  0.1989  0.2022
  566MPD2    C3 8448   1.043   4.144  13.910 -0.0022 -0.3785 -0.2057
  566MPD2    C4 8449   1.006   4.266  13.959 -0.4650  0.3572 -0.4976
  566MPD2    C5 8450   1.085   4.329  14.053 -0.6085  0.2503 -0.2842
  566MPD2     H 8451   1.198   4.012  13.899 -0.9383 -0.2212  0.4362
  566MPD2    H1 8452   0.921   4.320  13.921 -0.3742  0.3953 -0.6487
  566MPD2    H2 8453   1.278   4.343  14.152  0.1114  0.0591 -0.8131
  566MPD2    H3 8454   1.060   4.425  14.097  2.6309  0.9870 -0.0318
  566MPD2     N 8455   0.977   4.082  13.803  0.3037  0.6619 -0.5653
  566MPD2    H5 8456   0.905   4.146  13.771 -0.3971 -0.6981 -1.7100
  566MPD2    N1 8457   1.391   4.145  14.039 -0.2077  0.1760  0.5648
  566MPD2    H7 8458   1.436   4.207  14.106  0.5916 -0.9861  1.0912
  567TMC3    C1 8459   1.598   4.088  13.965  0.1448  0.2423  0.0971
  567TMC3    C2 8460   1.640   4.138  13.839 -0.4253 -1.1719 -0.4596
  567TMC3    C3 8461   1.736   4.238  13.840 -0.7222  0.8266 -0.0936
  567TMC3    C4 8462   1.651   4.132  14.084  0.5203  0.2547 -0.2665
  567TMC3    C5 8463   1.748   4.228  14.081  0.3982  0.1281 -0.7911
  567TMC3    C6 8464   1.800   4.278  13.958 -0.1143  0.1070  0.4100
  567TMC3     C 8465   1.461   4.059  13.962 -0.0116 -0.1987 -0.0676
  567TMC3     O 8466   1.426   3.980  13.875  0.1132  0.5766  0.2508
  567TMC3     H 8467   1.588   4.110  13.748 -0.6722  0.0345 -0.6812
  567TMC3    H1 8468   1.619   4.086  14.177  3.4896 -2.1373 -0.4159
  567TMC3    H2 8469   1.865   4.363  13.973  0.3275 -0.2182  0.3648
  567TMC3    C7 8470   1.800   4.268  14.206  0.4129  0.0831  0.1855
  567TMC3    C8 8471   1.734   4.336  13.743 -0.1204  0.6737 -0.2275
  567TMC3    O1 8472   1.813   4.384  14.229 -0.0556 -0.1609  0.1098
  567TMC3    O2 8473   1.631   4.344  13.677 -0.0476 -0.2433  0.0850
  568MPD2     C 8474   3.910   0.126  16.090 -1.0371  0.9438  0.7730
  568MPD2    C1 8475   3.904   0.239  16.166  0.0682  0.5207  0.3669
  568MPD2    C2 8476   3.918   0.366  16.104  0.3030  0.6526  0.3957
  568MPD2    C3 8477   3.918   0.380  15.967 -0.0540 -0.3973  0.2621
  568MPD2    C4 8478   3.913   0.260  15.892  0.2488 -0.1009 -0.3990
  568MPD2    C5 8479   3.921   0.138  15.953  0.2550  0.0556  0.0727
  568MPD2     H 8480   3.925   0.459  16.159  0.2941  0.5141  0.6319
  568MPD2    H1 8481   3.910   0.262  15.784  1.7693  1.9018 -0.4003
  568MPD2    H2 8482   3.901   0.025  16.129 -1.0846  0.3023 -0.8743
  568MPD2    H3 8483   3.932   0.051  15.889 -0.8467  0.2183 -0.3346
  568MPD2     N 8484   3.909   0.513  15.918 -0.3459  0.0361  0.3571
  568MPD2    H5 8485   3.896   0.590  15.982 -2.0671  1.9671 -2.2838
  568MPD2    N1 8486   3.889   0.222  16.312  0.4931 -0.5083  0.3606
  568MPD2    H7 8487   3.898   0.128  16.350  0.3549 -0.2079  1.1490
  569TMC3    C1 8488   3.896   0.691  15.788  0.1651 -0.1606  1.3721
  569TMC3    C2 8489   3.951   0.746  15.899  0.5254  0.0974 -0.8786
  569TMC3    C3 8490   3.908   0.858  15.959  0.0730 -0.7398  0.7270
  569TMC3    C4 8491   3.804   0.766  15.713  0.2922 -0.8407  0.4819
  569TMC3    C5 8492   3.754   0.881  15.778  0.2818  0.1049  0.7852
  569TMC3    C6 8493   3.801   0.919  15.902  0.2546  0.1169 -0.6771
  569TMC3     C 8494   3.895   0.547  15.789 -0.5413 -0.5703 -0.1044
  569TMC3     O 8495   3.866   0.479  15.694 -0.3680 -0.7074  0.7616
  569TMC3     H 8496   4.045   0.707  15.936  0.4692  0.4189 -0.4110
  569TMC3    H1 8497   3.750   0.735  15.624 -0.4276 -0.9020  0.9364
  569TMC3    H2 8498   3.757   0.993  15.967 -1.0698  0.2328 -1.7151
  569TMC3    C7 8499   3.654   0.959  15.714  0.1435  0.1857 -0.0480
  569TMC3    C8 8500   3.925   0.859  16.104 -0.4795 -0.3371  0.8887
  569TMC3    O1 8501   3.608   0.929  15.600 -0.5399  0.4271  1.1389
  569TMC3    O2 8502   3.953   0.751  16.151  0.4453 -0.9688 -0.4203
  570TMC3    C1 8503   3.226   4.019  16.075 -0.5616  0.1930 -0.0661
  570TMC3    C2 8504   3.290   3.995  15.957  0.0301  0.5060  0.2553
  570TMC3    C3 8505   3.317   4.096  15.875  0.2918 -0.1773  0.5253
  570TMC3    C4 8506   3.185   4.145  16.114 -0.0813  0.0392 -0.2902
  570TMC3    C5 8507   3.194   4.241  16.023 -0.1794 -0.1561  0.7417
  570TMC3    C6 8508   3.267   4.221  15.907 -0.8577 -0.6035 -0.0758
  570TMC3     C 8509   3.193   3.908  16.150  0.1782 -0.4118  0.0015
  570TMC3     O 8510   3.189   3.796  16.097 -0.2054  0.1054 -0.8636
  570TMC3     H 8511   3.333   3.897  15.943 -1.6384 -0.0695 -0.8656
  570TMC3    H1 8512   3.146   4.177  16.210  0.7496  0.2991 -0.0395
  570TMC3    H2 8513   3.282   4.289  15.824 -1.3603 -0.2905  0.0959
  570TMC3    C7 8514   3.170   4.378  16.063  0.0207  0.9886 -0.1479
  570TMC3    C8 8515   3.451   4.097  15.809 -0.2921 -0.0619  0.5752
  570TMC3    O1 8516   3.143   4.401  16.181 -0.0936  0.4382 -0.4281
  570TMC3    O2 8517   3.513   4.204  15.814 -0.4710 -0.1340  0.2944
  571MPD2     C 8518   1.458   1.193  17.381  0.4515 -0.3044  0.2825
  571MPD2    C1 8519   1.419   1.273  17.488  0.0698 -0.3153  0.5889
  571MPD2    C2 8520   1.512   1.312  17.587 -0.4096  0.6660 -0.1649
  571MPD2    C3 8521   1.642   1.263  17.573  0.0633 -0.5268 -0.9004
  571MPD2    C4 8522   1.680   1.173  17.471 -0.0487 -0.4671  0.0250
  571MPD2    C5 8523   1.590   1.155  17.371 -0.1968 -0.9970  0.6498
  571MPD2     H 8524   1.488   1.372  17.674  0.3574  1.6202 -0.6216
  571MPD2    H1 8525   1.778   1.129  17.464 -0.1140 -0.3946 -1.3286
  571MPD2    H2 8526   1.398   1.164  17.295  1.1474 -0.5473 -0.1191
  571MPD2    H3 8527   1.621   1.090  17.291 -0.0004 -0.6937  0.4809
  571MPD2     N 8528   1.737   1.291  17.670 -0.3547  0.1307  0.4119
  571MPD2    H5 8529   1.831   1.260  17.646 -0.3342  2.0641 -1.9839
  571MPD2    N1 8530   1.283   1.310  17.497 -0.0181 -0.1528 -0.0798
  571MPD2    H7 8531   1.223   1.280  17.421  0.1611 -1.0566  0.1350
  572TMC3    C1 8532   1.830   1.425   0.104 -0.1292  0.1123  0.0505
  572TMC3    C2 8533   1.828   1.455   0.242 -0.0835  0.1603 -0.6646
  572TMC3    C3 8534   1.894   1.571   0.271 -0.0761  0.8123 -0.6429
  572TMC3    C4 8535   1.874   1.516   0.013  0.7508  1.3636 -0.3125
  572TMC3    C5 8536   1.929   1.637   0.055 -0.5161  0.3890  0.0692
  572TMC3    C6 8537   1.938   1.669   0.189 -0.3259 -0.9849 -1.3850
  572TMC3     C 8538   1.717   1.342   0.062  0.0398 -1.3616  0.0559
  572TMC3     O 8539   1.617   1.345   0.138  0.0409  0.4808 -0.4421
  572TMC3     H 8540   1.816   1.376   0.314  1.1664  0.0660 -0.5706
  572TMC3    H1 8541   1.872   1.501  17.642  0.1357 -0.7797 -0.0136
  572TMC3    H2 8542   1.992   1.753   0.231 -0.2257 -2.3450  1.2374
  572TMC3    C7 8543   1.956   1.731  17.685  0.1408 -0.6980 -0.5191
  572TMC3    C8 8544   1.962   1.561   0.398  0.4464 -0.4389  0.4219
  572TMC3    O1 8545   1.891   1.713  17.586 -0.0660 -0.1678  0.2829
  572TMC3    O2 8546   2.078   1.597   0.407 -0.0322 -0.7906  0.5264
  573MPD2     C 8547   2.226   1.511   0.108 -0.7577  0.0514  0.5488
  573MPD2    C1 8548   2.298   1.632   0.117  0.2414  0.1234  0.1166
  573MPD2    C2 8549   2.335   1.689  17.729 -0.6193  0.1612 -0.0895
  573MPD2    C3 8550   2.317   1.626  17.611 -0.2729  0.6685 -0.0566
  573MPD2    C4 8551   2.262   1.501  17.604 -0.3034  0.6753  0.4004
  573MPD2    C5 8552   2.216   1.441  17.722 -0.4988  0.9074 -0.3246
  573MPD2     H 8553   2.376   1.789  17.721 -0.6519  0.1251 -0.6677
  573MPD2    H1 8554   2.249   1.442  17.513  1.5204  1.6858 -0.5306
  573MPD2    H2 8555   2.184   1.468   0.198 -0.0600 -1.8459 -0.0127
  573MPD2    H3 8556   2.175   1.340  17.732 -1.7149  1.4878  0.6001
  573MPD2     N 8557   2.362   1.678  17.490  0.8352  0.7453 -0.0681
  573MPD2    H5 8558   2.360   1.618  17.408  1.3177  1.1682 -0.3907
  573MPD2    N1 8559   2.295   1.705   0.238  0.4299  0.0600  0.3788
  573MPD2    H7 8560   2.248   1.674   0.323  0.9773  1.3109  1.1472
  574TMC3    C1 8561   2.435   1.817  17.328  0.3059  0.3633 -0.2072
  574TMC3    C2 8562   2.408   1.939  17.269  0.4080 -0.7324  1.0262
  574TMC3    C3 8563   2.454   1.963  17.140  0.3084 -0.4939  0.2584
  574TMC3    C4 8564   2.474   1.706  17.257 -0.4334 -0.3563 -0.3173
  574TMC3    C5 8565   2.506   1.732  17.121  0.1917 -0.1658 -0.1905
  574TMC3    C6 8566   2.499   1.860  17.065 -0.0654 -0.2332 -0.2475
  574TMC3     C 8567   2.408   1.805  17.467  0.2072 -0.1134  0.1097
  574TMC3     O 8568   2.394   1.907  17.534  0.1377  0.2301  0.3831
  574TMC3     H 8569   2.357   2.011  17.332  2.1281 -0.6762  2.3339
  574TMC3    H1 8570   2.498   1.612  17.304  0.2765 -0.8768 -1.7341
  574TMC3    H2 8571   2.528   1.883  16.963  1.2343 -1.3720 -0.1352
  574TMC3    C7 8572   2.550   1.613  17.046  0.5894  0.5103  0.1514
  574TMC3    C8 8573   2.442   2.093  17.078 -0.5790  0.3102  0.3292
  574TMC3    O1 8574   2.579   1.511  17.104 -0.2177 -0.3498  0.0061
  574TMC3    O2 8575   2.499   2.112  16.970 -0.3848  0.6646  0.0263
  575TMC3    C1 8576   4.437   2.084  10.607 -0.4851  0.1065 -0.5457
  575TMC3    C2 8577   4.376   1.975  10.555  0.5963 -0.7086  1.5234
  575TMC3    C3 8578   4.309   1.994  10.436 -0.1171  0.4234  0.2756
  575TMC3    C4 8579   4.439   2.207  10.538  0.5336  0.1670  0.7880
  575TMC3    C5 8580   4.378   2.216  10.416 -1.1164 -0.3250 -0.4514
  575TMC3    C6 8581   4.315   2.107  10.361 -1.0849 -0.6358  1.3588
  575TMC3     C 8582   4.511   2.077  10.738 -0.1801 -0.3727 -0.1906
  575TMC3     O 8583   4.476   1.988  10.815  0.5784  0.1484  0.2442
  575TMC3     H 8584   4.388   1.880  10.607  3.1229 -0.7552  0.8634
  575TMC3    H1 8585   4.471   2.293  10.596  0.4695  0.4536  0.4035
  575TMC3    H2 8586   4.254   2.114  10.272  0.9332 -0.4526 -0.0267
  575TMC3    C7 8587   4.373   2.344  10.349 -0.0890 -0.6949 -0.5698
  575TMC3    C8 8588   4.253   1.872  10.371  0.4897  0.4496 -0.4460
  575TMC3    O1 8589   4.427   2.434  10.412  0.3192  0.1541 -0.5380
  575TMC3    O2 8590   4.157   1.890  10.300 -0.0326 -0.1949 -0.2463
  576MPD2     C 8591   3.729   4.620  12.690 -0.1910 -0.1999 -0.7011
  576MPD2    C1 8592   3.835   4.666  12.609 -0.3469 -0.7355  0.2377
  576MPD2    C2 8593   3.885   0.059  12.634 -0.2108 -0.0425 -0.3943
  576MPD2    C3 8594   3.835   0.136  12.735  0.5192  0.6965 -0.7698
  576MPD2    C4 8595   3.727   0.094  12.814 -0.0205  0.0016 -0.0385
  576MPD2    C5 8596   3.682   4.701  12.792 -0.1505  0.2786 -0.2795
  576MPD2     H 8597   3.972   0.094  12.580 -0.8152  1.2695 -0.5224
  576MPD2    H1 8598   3.679   0.160  12.886  0.9753  2.5109 -1.6807
  576MPD2    H2 8599   3.676   4.526  12.678 -1.7765  0.6404 -0.3853
  576MPD2    H3 8600   3.588   4.667  12.833 -1.0737  2.6878 -0.3992
  576MPD2     N 8601   3.908   0.257  12.764 -1.1206  0.5528 -0.2234
  576MPD2    H5 8602   3.987   0.270  12.701 -1.3494  2.3854 -0.1223
  576MPD2    N1 8603   3.891   4.594  12.501 -0.2154  0.4898 -0.6372
  576MPD2    H7 8604   3.981   4.630  12.471  0.4264  2.1005  3.1203
  577TMC3    C1 8605   3.937   4.417  12.355 -0.6296  0.3500  0.0392
  577TMC3    C2 8606   3.998   4.300  12.389  0.5888  0.1828  0.2413
  577TMC3    C3 8607   4.125   4.290  12.343  0.4282  0.4187 -0.3728
  577TMC3    C4 8608   3.988   4.513  12.271 -0.4831  0.5515  0.1623
  577TMC3    C5 8609   4.120   4.494  12.231 -0.7268 -0.0807  0.1773
  577TMC3    C6 8610   4.189   4.395  12.282 -0.1752 -0.3066  0.2006
  577TMC3     C 8611   3.849   4.473  12.454 -0.3983 -0.9096  0.4169
  577TMC3     O 8612   3.751   4.402  12.481  0.6027  0.2225 -0.5142
  577TMC3     H 8613   3.951   4.218  12.443  1.4169  0.2894  1.1371
  577TMC3    H1 8614   3.935   4.596  12.226 -0.3012 -0.2523 -1.5288
  577TMC3    H2 8615   4.290   4.392  12.243 -0.7978  0.9604 -1.4681
  577TMC3    C7 8616   4.174   4.565  12.112  0.5800 -0.0720 -0.1621
  577TMC3    C8 8617   4.192   4.168  12.372 -0.6987 -0.3400 -0.6646
  577TMC3    O1 8618   4.292   4.595  12.104  0.3645 -0.2933 -0.9455
  577TMC3    O2 8619   4.158   4.103  12.471  0.4253  0.5779  0.3010
  578MPD2     C 8620   2.775   0.145   1.310  0.4573 -0.2636 -0.2543
  578MPD2    C1 8621   2.782   0.034   1.224 -0.3686  0.8729  0.4110
  578MPD2    C2 8622   2.883   4.675   1.237  0.2146 -0.6103  0.2419
  578MPD2    C3 8623   2.981   4.696   1.337  0.0291 -0.1770 -0.8055
  578MPD2    C4 8624   2.969   0.065   1.426 -0.0587  0.3182 -0.2836
  578MPD2    C5 8625   2.868   0.157   1.413  0.4368  0.3524  0.2960
  578MPD2     H 8626   2.884   4.584   1.178 -0.8455 -0.9514  0.7560
  578MPD2    H1 8627   3.025   0.080   1.518 -2.3449 -1.8088  1.4493
  578MPD2    H2 8628   2.693   0.216   1.312  1.7149  1.1555  1.1731
  578MPD2    H3 8629   2.856   0.236   1.486 -0.1004  0.4529  0.0974
  578MPD2     N 8630   3.086   4.598   1.342 -0.2053  0.1505 -0.1107
  578MPD2    H5 8631   3.080   4.516   1.284 -0.8223 -0.6180  1.0400
  578MPD2    N1 8632   2.699   0.025   1.112  0.0030 -0.1615  0.2386
  578MPD2    H7 8633   2.635   0.104   1.108  0.1745  0.0523  1.7655
  579TMC3    C1 8634   3.286   4.482   1.426  0.1531  0.2681  0.3321
  579TMC3    C2 8635   3.391   4.473   1.509  0.5015 -0.3952  0.2767
  579TMC3    C3 8636   3.486   4.380   1.480  0.2904 -0.8967 -0.7011
  579TMC3    C4 8637   3.262   4.383   1.334 -0.7071 -0.0838  0.4444
  579TMC3    C5 8638   3.343   4.275   1.328 -0.6990  0.1603  0.0403
  579TMC3    C6 8639   3.461   4.277   1.397  0.2570  0.2287 -0.4247
  579TMC3     C 8640   3.191   4.593   1.437 -0.2463 -0.1406  0.1639
  579TMC3     O 8641   3.218   4.678   1.522  0.0723 -0.0128  0.1387
  579TMC3     H 8642   3.408   4.547   1.587 -0.4928  1.2708 -1.0681
  579TMC3    H1 8643   3.190   4.409   1.257  0.5488  0.6857 -0.4792
  579TMC3    H2 8644   3.530   4.193   1.389  0.2784  0.1179  0.9975
  579TMC3    C7 8645   3.302   4.164   1.236 -0.1455  0.7022  0.0556
  579TMC3    C8 8646   3.616   4.403   1.537  0.2219  0.4175  0.0705
  579TMC3    O1 8647   3.392   4.112   1.169 -0.8349 -0.3251 -0.7774
  579TMC3    O2 8648   3.629   4.473   1.637 -0.0825  0.1554 -0.2181
  580TMC3    C1 8649   2.340   3.652  11.999 -0.6796  0.0337 -0.4213
  580TMC3    C2 8650   2.430   3.739  11.939  0.2868 -0.5663  0.5062
  580TMC3    C3 8651   2.567   3.699  11.937 -0.9709 -0.3138 -0.2623
  580TMC3    C4 8652   2.378   3.529  12.045  0.0543  0.3554 -0.1458
  580TMC3    C5 8653   2.518   3.498  12.042  0.4437  0.0270 -0.4928
  580TMC3    C6 8654   2.612   3.581  11.992  0.0449 -0.0219 -0.1678
  580TMC3     C 8655   2.200   3.650  11.959  0.1940  0.2467  0.0574
  580TMC3     O 8656   2.122   3.567  12.012  0.2268  0.3475 -0.1011
  580TMC3     H 8657   2.402   3.838  11.906  0.1394 -0.5530  0.6745
  580TMC3    H1 8658   2.303   3.459  12.079 -0.6578  0.4523 -1.5254
  580TMC3    H2 8659   2.719   3.563  11.982  0.2357  1.0561 -0.1324
  580TMC3    C7 8660   2.554   3.394  12.133 -0.3439 -0.6583 -0.3447
  580TMC3    C8 8661   2.657   3.788  11.877 -0.5491 -0.3862 -0.3143
  580TMC3    O1 8662   2.501   3.372  12.245  0.1871 -0.2228 -1.2062
  580TMC3    O2 8663   2.622   3.905  11.858 -0.2808  0.1122 -0.2202
  581MPD2     C 8664   0.263   2.944  14.817 -1.2812 -0.0085  0.3330
  581MPD2    C1 8665   0.130   2.916  14.842  0.0325  0.0458 -0.5927
  581MPD2    C2 8666   0.035   2.983  14.771  0.3671  0.0089 -0.2645
  581MPD2    C3 8667   0.077   3.078  14.672 -0.2587 -0.1040 -0.5963
  581MPD2    C4 8668   0.204   3.097  14.644  0.1356 -0.8308  0.3686
  581MPD2    C5 8669   0.296   3.033  14.721 -0.6537  0.1788 -0.2206
  581MPD2     H 8670   4.664   2.971  14.794  0.3380  1.0744  0.1686
  581MPD2    H1 8671   0.247   3.164  14.570 -2.5776 -1.2558 -1.5975
  581MPD2    H2 8672   0.348   2.903  14.870 -1.4729  2.7221  2.7667
  581MPD2    H3 8673   0.402   3.053  14.710 -0.7603  1.0969  0.4143
  581MPD2     N 8674   4.718   3.153  14.593 -0.0684 -0.1043  0.5778
  581MPD2    H5 8675   4.621   3.123  14.598 -0.5861  1.1148 -1.8458
  581MPD2    N1 8676   0.091   2.836  14.954  0.5646 -0.3089 -0.4087
  581MPD2    H7 8677   4.725   2.832  14.973  0.5669 -1.2637 -0.6061
  582TMC3    C1 8678   0.116   2.709  15.158 -0.0525 -0.0620 -0.5570
  582TMC3    C2 8679   0.194   2.711  15.264  0.2041  0.2707 -0.3526
  582TMC3    C3 8680   0.119   2.707  15.382 -0.1438  0.8014  0.5113
  582TMC3    C4 8681   4.714   2.693  15.163 -0.2228  0.5797  0.1147
  582TMC3    C5 8682   4.646   2.700  15.278  0.0331 -0.4106  0.5387
  582TMC3    C6 8683   4.715   2.710  15.396  0.0851 -0.3995  0.6162
  582TMC3     C 8684   0.179   2.769  15.037  0.6933  0.0436  0.2003
  582TMC3     O 8685   0.298   2.751  15.027 -0.4308  0.4620  0.5278
  582TMC3     H 8686   0.296   2.748  15.258 -0.3359  1.7346 -0.5097
  582TMC3    H1 8687   4.653   2.685  15.073  0.1575  0.2039 -0.1113
  582TMC3    H2 8688   4.663   2.717  15.490 -0.1786 -0.3637  0.4667
  582TMC3    C7 8689   4.549   2.801  15.259 -0.5095  0.7791 -0.1006
  582TMC3    C8 8690   0.193   2.727  15.507  0.2010 -0.0411 -1.2753
  582TMC3    O1 8691   4.428   2.778  15.267  0.0777 -0.0497  0.0735
  582TMC3    O2 8692   0.124   2.772  15.599  0.1907 -0.2822  0.2502
  583MPD2     C 8693   0.394   0.013  16.779  0.0725 -0.6866 -1.1657
  583MPD2    C1 8694   0.356   0.125  16.708 -0.1904  0.5510  0.6096
  583MPD2    C2 8695   0.319   0.237  16.766 -0.2866 -0.2431 -0.2392
  583MPD2    C3 8696   0.299   0.235  16.901 -0.0995 -0.1255  0.5883
  583MPD2    C4 8697   0.335   0.126  16.982  0.5373  0.5042 -0.7508
  583MPD2    C5 8698   0.385   0.013  16.922  0.6423 -0.2194 -0.4028
  583MPD2     H 8699   0.290   0.326  16.711  2.5062  0.3974 -0.6742
  583MPD2    H1 8700   0.330   0.124  17.090 -1.5692  1.1672 -0.8431
  583MPD2    H2 8701   0.408   4.655  16.724 -0.4003 -1.0813 -0.6251
  583MPD2    H3 8702   0.421   4.660  16.975 -1.6253 -0.8942  0.0296
  583MPD2     N 8703   0.244   0.353  16.962 -0.0328  0.5137  0.4519
  583MPD2    H5 8704   0.234   0.434  16.902  2.6081 -0.4628 -1.3139
  583MPD2    N1 8705   0.364   0.125  16.567  0.6526  0.4607 -0.5350
  583MPD2    H7 8706   0.355   0.211  16.513 -0.1073 -0.2385 -1.5235
  584TMC3    C1 8707   0.139   0.494  17.124 -0.0095 -0.3270 -0.7546
  584TMC3    C2 8708   0.170   0.600  17.043 -0.6039  1.0010  0.2479
  584TMC3    C3 8709   0.117   0.722  17.085  0.4023  0.0123 -0.6347
  584TMC3    C4 8710   0.058   0.503  17.243  0.1118  0.0201 -0.1798
  584TMC3    C5 8711   0.017   0.629  17.276 -0.7275 -0.2222  0.9114
  584TMC3    C6 8712   0.042   0.738  17.196 -0.2609 -0.6178 -0.2547
  584TMC3     C 8713   0.195   0.362  17.093  0.5252 -0.5916 -0.5354
  584TMC3     O 8714   0.185   0.270  17.176 -1.1433 -0.1976 -0.0385
  584TMC3     H 8715   0.231   0.599  16.953 -0.4557 -0.0927  0.3573
  584TMC3    H1 8716   0.038   0.414  17.302 -0.1257  0.3118  0.1743
  584TMC3    H2 8717   4.729   0.834  17.212  0.9029 -0.0728 -0.0885
  584TMC3    C7 8718   4.667   0.642  17.393  0.0002 -0.4607 -0.1816
  584TMC3    C8 8719   0.159   0.839  17.001  0.7643 -0.0044  0.9797
  584TMC3    O1 8720   4.615   0.545  17.437 -0.6868 -0.3492 -0.0201
  584TMC3    O2 8721   0.175   0.814  16.880 -0.1454 -0.4331 -0.2551
  585MPD2     C 8722   3.928   4.258   0.202  0.4808  0.5462 -0.1771
  585MPD2    C1 8723   3.973   4.289   0.072 -0.3085  0.1350  1.0701
  585MPD2    C2 8724   4.027   4.190  17.726 -0.6395 -0.4815 -0.5118
  585MPD2    C3 8725   4.044   4.060   0.041  0.1692 -0.2083  0.4839
  585MPD2    C4 8726   4.009   4.032   0.168 -0.0283  0.2196 -0.1382
  585MPD2    C5 8727   3.939   4.126   0.244 -0.9710  0.5516 -0.1274
  585MPD2     H 8728   4.069   4.208  17.628  1.1540  0.0288  0.3542
  585MPD2    H1 8729   4.014   3.927   0.194 -0.5076  0.3776  0.5974
  585MPD2    H2 8730   3.896   4.329   0.277 -0.5691  0.5503 -0.6308
  585MPD2    H3 8731   3.895   4.099   0.339 -0.5274  2.5149  0.6322
  585MPD2     N 8732   4.110   3.956  17.701  0.4379 -0.1164 -0.4047
  585MPD2    H5 8733   4.106   3.860  17.733  5.1541  0.7523  2.8572
  585MPD2    N1 8734   3.968   4.424   0.032 -0.4551 -0.0958  0.0337
  585MPD2    H7 8735   3.957   4.494   0.105  1.7013 -1.1238  1.3633
  586TMC3    C1 8736   4.219   3.834  17.540 -0.4864 -0.3438  0.5441
  586TMC3    C2 8737   4.319   3.837  17.445 -0.1802  0.0952 -0.5182
  586TMC3    C3 8738   4.360   3.720  17.396  0.5158  0.0669 -0.0982
  586TMC3    C4 8739   4.157   3.719  17.581 -0.4727  0.0889  0.2456
  586TMC3    C5 8740   4.196   3.605  17.517 -0.4631  0.4229  0.1510
  586TMC3    C6 8741   4.307   3.596  17.436  0.5679  0.5154  0.1810
  586TMC3     C 8742   4.182   3.971  17.591 -0.6340 -0.3920 -0.1659
  586TMC3     O 8743   4.210   4.069  17.527 -0.1233 -0.2693  0.4946
  586TMC3     H 8744   4.359   3.927  17.400 -0.2228  0.4047  0.0727
  586TMC3    H1 8745   4.068   3.729  17.642 -1.0602 -2.2993 -0.2048
  586TMC3    H2 8746   4.332   3.500  17.394 -0.6795 -0.5417  1.8935
  586TMC3    C7 8747   4.079   3.550  17.449 -0.1371  0.1457  0.6191
  586TMC3    C8 8748   4.419   3.716  17.266 -0.1334 -0.0207 -0.8471
  586TMC3    O1 8749   3.972   3.546  17.515 -0.5451 -0.4632 -0.2631
  586TMC3    O2 8750   4.457   3.601  17.241 -0.2345 -0.7406 -0.0994
  587TMC3    C1 8751   1.785   2.295  16.086  0.8837 -0.2763 -0.2690
  587TMC3    C2 8752   1.777   2.427  16.055  0.0962  0.2854  0.6649
  587TMC3    C3 8753   1.893   2.492  16.022  0.8254 -0.2805  0.1962
  587TMC3    C4 8754   1.896   2.223  16.057 -0.0150 -0.7951 -0.0080
  587TMC3    C5 8755   2.006   2.291  16.004  0.7247  0.3228  0.8379
  587TMC3    C6 8756   2.006   2.428  15.986  0.3352 -0.0618  0.3887
  587TMC3     C 8757   1.692   2.234  16.182 -0.3477  0.0334  1.1118
  587TMC3     O 8758   1.750   2.144  16.236 -0.3991  0.0542 -0.1037
  587TMC3     H 8759   1.683   2.480  16.059  0.8079  1.6842 -1.3250
  587TMC3    H1 8760   1.903   2.116  16.073  0.1849 -1.2256 -2.9721
  587TMC3    H2 8761   2.091   2.486  15.951 -0.0030  0.4612  0.4269
  587TMC3    C7 8762   2.129   2.212  15.981  0.6995  0.5072 -0.7611
  587TMC3    C8 8763   1.886   2.629  15.989  0.1714  0.0696  0.2027
  587TMC3    O1 8764   2.138   2.105  16.038 -0.2453 -0.1275 -0.3343
  587TMC3    O2 8765   1.969   2.673  15.913  0.4508  0.5997 -0.3483
  588TMC3    C1 8766   4.445   4.647   9.770  0.4070 -0.0877  0.9057
  588TMC3    C2 8767   4.500   4.522   9.786 -0.2758 -0.1302  0.5695
  588TMC3    C3 8768   4.583   4.486   9.887 -0.3305 -0.1871  0.5241
  588TMC3    C4 8769   4.476   0.003   9.864  0.0716  0.1367  0.6099
  588TMC3    C5 8770   4.565   4.709   9.961 -0.5560  0.3867  0.6863
  588TMC3    C6 8771   4.617   4.585   9.978  0.6911 -0.1014  0.5809
  588TMC3     C 8772   4.355   4.694   9.665 -0.8173 -0.5348  0.0622
  588TMC3     O 8773   4.296   4.608   9.598 -0.0524 -0.5490  0.3126
  588TMC3     H 8774   4.469   4.445   9.716  0.1746 -0.3911  0.6572
  588TMC3    H1 8775   4.438   0.104   9.874  0.3317  0.2141  0.8068
  588TMC3    H2 8776   4.689   4.568  10.056  0.4082 -1.9699  0.4371
  588TMC3    C7 8777   4.596   0.082  10.066 -0.5026  0.4312  0.5543
  588TMC3    C8 8778   4.642   4.352   9.902 -0.0879  0.2241 -0.3638
  588TMC3    O1 8779   4.605   0.044  10.184  0.2377  0.5936  0.3735
  588TMC3    O2 8780   4.643   4.284   9.802 -0.6959  0.0092  0.5834
  589TMC3    C1 8781   3.600   2.871   1.035 -0.1807  0.5129  0.2559
  589TMC3    C2 8782   3.705   2.965   1.049  0.3478  0.0746 -0.5477
  589TMC3    C3 8783   3.821   2.940   0.987  0.0615 -0.7436 -0.2133
  589TMC3    C4 8784   3.624   2.757   0.960  0.1429 -0.7489 -0.6704
  589TMC3    C5 8785   3.742   2.743   0.892  0.2279 -0.4978  0.3196
  589TMC3    C6 8786   3.845   2.838   0.902  0.0189  0.1539  0.1203
  589TMC3     C 8787   3.478   2.878   1.112 -0.0705  0.6084  0.4107
  589TMC3     O 8788   3.405   2.779   1.109  0.5725 -0.1185  0.4340
  589TMC3     H 8789   3.705   3.062   1.097  0.5399  0.4027 -1.1999
  589TMC3    H1 8790   3.542   2.687   0.952 -0.3201 -0.1623 -1.0411
  589TMC3    H2 8791   3.946   2.817   0.868 -0.2358 -0.6202 -0.1619
  589TMC3    C7 8792   3.753   2.635   0.797 -0.3443  0.2994 -0.6130
  589TMC3    C8 8793   3.936   3.023   1.022  0.6702  0.2533  0.1972
  589TMC3    O1 8794   3.693   2.532   0.817  1.0796 -0.8532 -0.0059
  589TMC3    O2 8795   3.921   3.095   1.123 -0.1790 -0.1668 -0.1109
  590MPD2     C 8796   2.774   0.844  16.756  0.4744 -0.0510 -0.0976
  590MPD2    C1 8797   2.727   0.949  16.673 -0.2075  0.7605 -1.1280
  590MPD2    C2 8798   2.819   1.029  16.600 -0.6304  0.5546 -0.3317
  590MPD2    C3 8799   2.955   0.985  16.602  0.5981 -0.0810 -0.2204
  590MPD2    C4 8800   2.997   0.892  16.692  0.3232 -0.0510  0.4182
  590MPD2    C5 8801   2.908   0.825  16.773  0.2640  0.0734  0.0001
  590MPD2     H 8802   2.793   1.115  16.540 -0.2390  1.3521  0.6404
  590MPD2    H1 8803   3.099   0.856  16.696  1.4237  3.0195  0.5866
  590MPD2    H2 8804   2.711   0.776  16.813 -1.0388 -1.7669 -3.8262
  590MPD2    H3 8805   2.947   0.744  16.832  0.5371 -0.6494 -1.1754
  590MPD2     N 8806   3.038   1.058  16.519  0.2718  0.4628  0.3067
  590MPD2    H5 8807   2.985   1.113  16.452 -0.6359  0.2358  0.8487
  590MPD2    N1 8808   2.590   0.961  16.665 -0.5442 -0.3750 -0.1254
  590MPD2    H7 8809   2.535   0.906  16.730 -0.5785  0.4636  0.5519
  591TMC3    C1 8810   3.221   1.118  16.406 -0.0625 -0.0054  0.1194
  591TMC3    C2 8811   3.289   1.056  16.311  0.1474 -1.1674  0.3149
  591TMC3    C3 8812   3.313   1.127  16.196 -0.0174 -0.0937 -0.0689
  591TMC3    C4 8813   3.163   1.241  16.386  0.7378  0.3349 -0.3673
  591TMC3    C5 8814   3.190   1.300  16.269 -0.3951 -0.5955 -0.4841
  591TMC3    C6 8815   3.262   1.247  16.167 -0.0937  0.2328 -0.6632
  591TMC3     C 8816   3.173   1.044  16.518 -0.3701  0.3968 -0.2686
  591TMC3     O 8817   3.254   0.964  16.564  0.1830  0.0211 -0.7049
  591TMC3     H 8818   3.335   0.961  16.337  1.1040 -0.1699  2.2036
  591TMC3    H1 8819   3.106   1.293  16.462  2.5695  1.5642  0.1753
  591TMC3    H2 8820   3.282   1.296  16.072 -1.9159 -1.5803 -1.9989
  591TMC3    C7 8821   3.115   1.428  16.244 -0.2467  0.3824  0.4136
  591TMC3    C8 8822   3.318   1.037  16.090 -0.3329  0.0615  0.6941
  591TMC3    O1 8823   3.016   1.445  16.313 -0.0725  0.5605 -0.6602
  591TMC3    O2 8824   3.396   0.946  16.099  0.4031  0.2716 -0.2787
  592MPD2     C 8825   3.542   2.724  11.435  0.0788  0.2383  0.6008
  592MPD2    C1 8826   3.562   2.794  11.550  0.5164 -0.8435  0.3968
  592MPD2    C2 8827   3.553   2.734  11.674 -0.2183 -0.0694  0.1880
  592MPD2    C3 8828   3.528   2.597  11.676 -0.1822  0.6680  0.9595
  592MPD2    C4 8829   3.534   2.530  11.561  0.3426  0.2326 -0.1024
  592MPD2    C5 8830   3.532   2.590  11.437  0.4056 -0.1051  0.2832
  592MPD2     H 8831   3.552   2.798  11.762 -0.5580 -1.2560  1.0446
  592MPD2    H1 8832   3.533   2.422  11.553  2.6416  0.1688  0.3879
  592MPD2    H2 8833   3.540   2.774  11.338 -0.4894  0.8101  0.9033
  592MPD2    H3 8834   3.530   2.529  11.347  1.9771  0.6670 -0.2616
  592MPD2     N 8835   3.490   2.541  11.796 -0.3587  0.2999 -0.0075
  592MPD2    H5 8836   3.493   2.603  11.876  0.7508 -0.4812  0.5621
  592MPD2    N1 8837   3.577   2.937  11.534 -0.1002 -0.1208 -0.0737
  592MPD2    H7 8838   3.579   2.969  11.438  0.6845  0.5808  0.1761
  593TMC3    C1 8839   3.631   3.164  11.602 -0.4464  0.6564 -0.0196
  593TMC3    C2 8840   3.618   3.256  11.697  0.2958  0.6013 -0.0485
  593TMC3    C3 8841   3.590   3.384  11.664 -0.9059  0.0506 -0.3705
  593TMC3    C4 8842   3.618   3.194  11.468  0.0971 -0.5089 -0.1022
  593TMC3    C5 8843   3.596   3.321  11.434 -0.5548  0.0662  0.0267
  593TMC3    C6 8844   3.576   3.419  11.531  0.7494 -0.2427 -0.3481
  593TMC3     C 8845   3.626   3.021  11.636 -0.2404 -0.4941  0.2470
  593TMC3     O 8846   3.643   2.995  11.754 -0.1134  0.5421 -0.3374
  593TMC3     H 8847   3.619   3.234  11.803 -0.2476 -0.4853 -0.2691
  593TMC3    H1 8848   3.644   3.115  11.398  1.0897 -0.0855 -0.2126
  593TMC3    H2 8849   3.542   3.520  11.516  2.2698 -0.0328 -2.4234
  593TMC3    C7 8850   3.607   3.368  11.295 -0.2703 -0.0210  0.4146
  593TMC3    C8 8851   3.560   3.494  11.755 -0.4936 -0.2022  0.6503
  593TMC3    O1 8852   3.600   3.488  11.272 -0.1075 -0.5673  0.1771
  593TMC3    O2 8853   3.491   3.587  11.715  0.4857 -0.4717 -0.2445
  594MPD2     C 8854   2.031   1.592  13.940 -0.5258 -0.1967  0.1269
  594MPD2    C1 8855   2.005   1.611  14.069  0.0372 -0.0621  0.2850
  594MPD2    C2 8856   2.069   1.716  14.131  0.7149 -0.2347 -0.0615
  594MPD2    C3 8857   2.177   1.778  14.070 -0.4976 -0.3029  0.3344
  594MPD2    C4 8858   2.214   1.746  13.941  0.1158  0.1646  0.2435
  594MPD2    C5 8859   2.138   1.650  13.884 -0.3814 -0.0572 -0.1168
  594MPD2     H 8860   2.046   1.744  14.233 -1.5769  1.2151 -0.9575
  594MPD2    H1 8861   2.301   1.789  13.893 -0.8968  0.0105 -1.7325
  594MPD2    H2 8862   1.988   1.517  13.875  0.6763 -1.6179  0.9568
  594MPD2    H3 8863   2.169   1.620  13.784 -1.9606  1.6281 -1.1238
  594MPD2     N 8864   2.241   1.884  14.142 -0.3573  0.1579  0.3292
  594MPD2    H5 8865   2.199   1.916  14.228  0.9911 -1.9719  1.7894
  594MPD2    N1 8866   1.907   1.523  14.123  0.5794 -0.3733  0.4640
  594MPD2    H7 8867   1.861   1.457  14.061 -0.9912  1.2961 -0.1412
  595TMC3    C1 8868   2.569   2.197  14.268  0.7160  1.0354  0.5903
  595TMC3    C2 8869   2.529   2.096  14.188 -0.4589  0.5221 -0.1176
  595TMC3    C3 8870   2.393   2.060  14.175 -0.0205 -0.8954  0.3319
  595TMC3    C4 8871   2.490   2.243  14.371  0.0329  0.6060  0.3257
  595TMC3    C5 8872   2.358   2.200  14.362  0.3341 -0.4576 -0.1038
  595TMC3    C6 8873   2.308   2.118  14.259  0.5603  0.2738  0.0709
  595TMC3     C 8874   2.710   2.240  14.275 -0.6104 -0.3004  0.7196
  595TMC3     O 8875   2.751   2.296  14.379 -0.6004  0.2510 -0.0387
  595TMC3     H 8876   2.597   2.060  14.111 -0.0975  2.3780 -0.6571
  595TMC3    H1 8877   2.523   2.318  14.441  0.0733  3.9129 -3.2339
  595TMC3    H2 8878   2.201   2.117  14.243  0.4008  1.6307  1.0958
  595TMC3    C7 8879   2.256   2.248  14.458  0.3356  0.2182  0.8230
  595TMC3    C8 8880   2.361   1.943  14.106 -0.7795  0.5779 -0.5544
  595TMC3    O1 8881   2.141   2.257  14.416 -0.2054 -0.0871 -0.0686
  595TMC3    O2 8882   2.438   1.912  14.013  0.3642 -0.1192 -0.0030
  596MPD2     C 8883   1.194   4.651  16.738 -0.3396 -0.3845 -0.1367
  596MPD2    C1 8884   1.121   4.731  16.664 -0.5264 -0.2037  0.6462
  596MPD2    C2 8885   1.067   4.685  16.547 -0.4729  0.9384  0.1392
  596MPD2    C3 8886   1.108   4.563  16.495  0.2079 -0.4155  0.0115
  596MPD2    C4 8887   1.191   4.485  16.574 -0.5627  0.5414 -0.2654
  596MPD2    C5 8888   1.231   4.529  16.702 -0.7168  0.4286 -0.2198
  596MPD2     H 8889   0.995   0.016  16.500  1.6610  4.2888  1.5590
  596MPD2    H1 8890   1.231   4.388  16.544 -0.9314 -0.5654  2.7851
  596MPD2    H2 8891   1.238   4.686  16.830 -0.1346  1.0038 -0.7673
  596MPD2    H3 8892   1.299   4.468  16.761 -1.0895  0.3980  0.1813
  596MPD2     N 8893   1.071   4.525  16.355  0.0683 -0.6724  0.4850
  596MPD2    H5 8894   1.097   4.431  16.327 -3.4496 -0.6793 -2.6537
  596MPD2    N1 8895   1.083   0.135  16.707 -0.1403  0.5427  0.7392
  596MPD2    H7 8896   1.020   0.171  16.636  0.1017 -0.9177 -0.2220
  597TMC3    C1 8897   1.055   0.326  16.834 -0.4705 -0.7411 -0.3691
  597TMC3    C2 8898   1.056   0.393  16.720  0.1433 -0.0089 -0.3241
  597TMC3    C3 8899   1.016   0.522  16.721 -0.2242 -0.2958  0.2131
  597TMC3    C4 8900   1.010   0.383  16.952 -0.9530  0.3320 -0.0199
  597TMC3    C5 8901   0.956   0.505  16.947 -0.0346 -0.8730  0.4682
  597TMC3    C6 8902   0.964   0.584  16.832  0.4967 -0.0780 -0.4612
  597TMC3     C 8903   1.102   0.188  16.831 -0.3646  0.0122 -0.1406
  597TMC3     O 8904   1.139   0.139  16.937  0.7494  0.9312 -0.0070
  597TMC3     H 8905   1.098   0.349  16.630 -0.0403 -0.0044 -0.4113
  597TMC3    H1 8906   1.013   0.314  17.036  1.0734 -0.4565 -0.7234
  597TMC3    H2 8907   0.956   0.692  16.823  1.1616  0.1679  1.8548
  597TMC3    C7 8908   0.843   0.525  17.041  0.5129  0.2579 -0.3827
  597TMC3    C8 8909   1.064   0.625  16.636  0.3006 -0.0436 -0.1751
  597TMC3    O1 8910   0.801   0.424  17.097  0.5195  0.2661 -0.6129
  597TMC3    O2 8911   0.990   0.719  16.609  0.2278  0.0014  0.4094
  598TMC3    C1 8912   3.734   1.219  15.314  0.1018  1.1857 -0.3086
  598TMC3    C2 8913   3.607   1.174  15.337 -0.2389 -0.8063  0.3022
  598TMC3    C3 8914   3.533   1.165  15.221  0.0711  0.7024 -0.9827
  598TMC3    C4 8915   3.773   1.279  15.194 -1.1394 -0.1910 -0.1982
  598TMC3    C5 8916   3.691   1.276  15.089 -0.0744  0.3900  0.4845
  598TMC3    C6 8917   3.575   1.202  15.095 -0.1485 -0.4524 -0.6600
  598TMC3     C 8918   3.842   1.184  15.397  0.2726  0.5826 -0.3980
  598TMC3     O 8919   3.942   1.142  15.333  0.1017 -0.3010 -0.0332
  598TMC3     H 8920   3.581   1.112  15.421 -1.7467  0.2566  0.6117
  598TMC3    H1 8921   3.875   1.314  15.183 -1.4095  0.8176  0.5559
  598TMC3    H2 8922   3.528   1.177  15.002  1.1428 -0.7560 -1.2358
  598TMC3    C7 8923   3.723   1.339  14.966  0.2752  0.1707  0.0057
  598TMC3    C8 8924   3.422   1.077  15.228 -0.4729 -0.0220 -0.5219
  598TMC3    O1 8925   3.639   1.324  14.880 -0.5020  0.2996  0.1775
  598TMC3    O2 8926   3.405   1.021  15.337  0.4454 -0.3938 -0.2376
  599MPD2     C 8927   4.303   3.804  15.504  0.3711 -0.4816  1.0716
  599MPD2    C1 8928   4.233   3.690  15.527  0.4209  0.3572  0.4947
  599MPD2    C2 8929   4.111   3.700  15.595  0.2241  0.0956 -0.0599
  599MPD2    C3 8930   4.067   3.832  15.631 -0.3696 -0.0774 -0.1918
  599MPD2    C4 8931   4.138   3.948  15.595 -0.0002 -0.3315 -0.1568
  599MPD2    C5 8932   4.258   3.925  15.537  0.1135 -0.1887  0.0079
  599MPD2     H 8933   4.058   3.612  15.628 -0.4954  0.0562 -1.3163
  599MPD2    H1 8934   4.103   4.050  15.608 -0.4644 -0.2421 -2.1247
  599MPD2    H2 8935   4.399   3.796  15.453 -0.6825 -0.2288 -0.9565
  599MPD2    H3 8936   4.328   4.008  15.531 -3.2371  2.6708  0.2210
  599MPD2     N 8937   3.949   3.852  15.700  0.6076 -0.2871  0.1536
  599MPD2    H5 8938   3.944   3.943  15.745 -1.1328  0.3273 -1.2521
  599MPD2    N1 8939   4.300   3.563  15.506  0.5232  0.4385 -0.1763
  599MPD2    H7 8940   4.395   3.567  15.471 -0.4479 -2.1586 -3.1772
  600TMC3    C1 8941   3.760   3.796  15.835 -0.5457  0.0831 -0.1187
  600TMC3    C2 8942   3.713   3.696  15.915 -0.7299  0.1874 -1.2403
  600TMC3    C3 8943   3.656   3.715  16.041 -0.1993 -0.1616 -0.4949
  600TMC3    C4 8944   3.766   3.922  15.882  0.1747  0.3651 -0.3817
  600TMC3    C5 8945   3.701   3.942  16.002  0.6987 -0.7314 -0.1123
  600TMC3    C6 8946   3.646   3.841  16.083 -0.2350  0.2743 -0.4969
  600TMC3     C 8947   3.858   3.758  15.735  0.7220  1.1486 -0.3219
  600TMC3     O 8948   3.827   3.654  15.675  0.1839 -0.6804 -0.2118
  600TMC3     H 8949   3.724   3.595  15.877  1.9947  0.2111 -0.5287
  600TMC3    H1 8950   3.798   4.004  15.819 -1.1743 -1.0026 -2.8860
  600TMC3    H2 8951   3.596   3.870  16.175  2.5859  1.4035  0.6764
  600TMC3    C7 8952   3.699   4.078  16.051 -0.1384  0.5155 -0.3441
  600TMC3    C8 8953   3.541   3.630  16.062 -0.0897 -0.2979  0.3609
  600TMC3    O1 8954   3.612   4.105  16.132  0.2098 -0.3863 -0.3627
  600TMC3    O2 8955   3.501   3.564  15.971  0.7667 -0.0647  0.1206
  601MPD2     C 8956   2.092   2.197  17.541 -0.1380  0.3236 -0.3586
  601MPD2    C1 8957   1.984   2.116  17.508 -0.7856 -0.4366  0.1250
  601MPD2    C2 8958   1.991   1.987  17.545 -0.1995  0.2681  0.1703
  601MPD2    C3 8959   2.074   1.945  17.648  0.8397 -1.3268 -0.5931
  601MPD2    C4 8960   2.187   2.027  17.676 -0.5449  0.5380 -0.3218
  601MPD2    C5 8961   2.200   2.151  17.616  0.0909  0.6709  0.1303
  601MPD2     H 8962   1.914   1.920  17.509  0.4714 -0.5149  0.1921
  601MPD2    H1 8963   2.267   1.996   0.006 -1.3405 -0.6008  0.1279
  601MPD2    H2 8964   2.098   2.298  17.503  0.8735  0.0709 -0.8679
  601MPD2    H3 8965   2.289   2.208  17.636  0.1023  0.9831 -0.8194
  601MPD2     N 8966   2.049   1.823  17.716  0.5679  0.2488  0.5633
  601MPD2    H5 8967   2.103   1.814   0.066  1.0095 -0.1874  0.2440
  601MPD2    N1 8968   1.863   2.158  17.451 -0.0761  0.1820  0.2642
  601MPD2    H7 8969   1.788   2.091  17.454  0.5684 -0.5146  0.8465
  602TMC3    C1 8970   1.697   2.309  17.372  0.4888  0.1952  0.4883
  602TMC3    C2 8971   1.677   2.437  17.336  0.2260  0.2837  0.1665
  602TMC3    C3 8972   1.564   2.504  17.379  1.0579  0.8810  0.0496
  602TMC3    C4 8973   1.595   2.243  17.439 -0.9195 -0.3580 -0.5923
  602TMC3    C5 8974   1.479   2.307  17.461 -0.5836 -0.1169  0.0464
  602TMC3    C6 8975   1.459   2.443  17.435 -0.4047 -0.9164 -0.2294
  602TMC3     C 8976   1.835   2.283  17.400 -0.8958  0.3458 -0.6851
  602TMC3     O 8977   1.922   2.360  17.360  0.1503  0.3322  0.7457
  602TMC3     H 8978   1.763   2.484  17.290 -0.1179  2.5450  1.8314
  602TMC3    H1 8979   1.607   2.137  17.459  0.8005 -0.3705 -1.7394
  602TMC3    H2 8980   1.362   2.485  17.460  0.1667 -0.3779  1.0514
  602TMC3    C7 8981   1.367   2.221  17.429  0.0628 -0.3423 -0.2108
  602TMC3    C8 8982   1.540   2.632  17.318  0.1489 -0.1985 -0.4983
  602TMC3    O1 8983   1.399   2.113  17.387  0.0860  0.1735 -0.5202
  602TMC3    O2 8984   1.628   2.679  17.247 -0.6936 -0.6619  0.0885
  603TMC3    C1 8985   4.289   2.332  10.989  0.7923 -0.3949  0.7808
  603TMC3    C2 8986   4.382   2.294  11.078  0.7463 -0.0614  0.2716
  603TMC3    C3 8987   4.445   2.392  11.149  0.9016 -0.3111  0.6962
  603TMC3    C4 8988   4.272   2.457  10.945 -0.6652 -0.0697  0.7848
  603TMC3    C5 8989   4.354   2.550  11.008  0.0362  0.1986 -0.1037
  603TMC3    C6 8990   4.444   2.521  11.105  0.6019 -0.3888  0.1616
  603TMC3     C 8991   4.194   2.233  10.953  0.4320 -0.7618  0.0181
  603TMC3     O 8992   4.112   2.277  10.874  0.0233 -0.8993 -0.1858
  603TMC3     H 8993   4.407   2.192  11.102 -2.1890 -0.8116  0.1030
  603TMC3    H1 8994   4.200   2.488  10.870  0.4769 -1.2519 -0.7977
  603TMC3    H2 8995   4.493   2.601  11.159 -0.1829  0.0380  0.2344
  603TMC3    C7 8996   4.358   2.677  10.943 -0.3335 -0.0008  0.1038
  603TMC3    C8 8997   4.457   2.359  11.295  0.8658 -0.8643  0.4784
  603TMC3    O1 8998   4.414   2.754  11.017  0.3747  0.3915 -0.0424
  603TMC3    O2 8999   4.394   2.257  11.321  0.5249  0.5402 -0.2068
  604MPD2     C 9000   0.430   1.359  16.346  0.1570 -0.3747 -0.3732
  604MPD2    C1 9001   0.330   1.273  16.298 -1.0272  0.3107 -0.5350
  604MPD2    C2 9002   0.352   1.205  16.180  0.0628 -0.3970  0.2011
  604MPD2    C3 9003   0.469   1.242  16.113  0.2230 -0.2790 -0.5462
  604MPD2    C4 9004   0.562   1.335  16.150 -0.6702 -0.4148  0.1693
  604MPD2    C5 9005   0.540   1.395  16.274 -0.3049  0.7381  0.9676
  604MPD2     H 9006   0.284   1.132  16.138 -1.9050  1.0581  0.8837
  604MPD2    H1 9007   0.640   1.370  16.083 -0.6045  0.1186  0.5167
  604MPD2    H2 9008   0.418   1.411  16.440  1.2376 -0.4161 -0.2117
  604MPD2    H3 9009   0.611   1.472  16.302 -1.1832  2.7146 -2.1474
  604MPD2     N 9010   0.481   1.185  15.980 -0.4388 -0.0265 -0.2085
  604MPD2    H5 9011   0.397   1.132  15.958 -0.2562 -0.8227  1.0190
  604MPD2    N1 9012   0.220   1.252  16.381  0.2859  0.2650  0.0923
  604MPD2    H7 9013   0.207   1.316  16.459  1.4083 -0.1080  0.5863
  605TMC3    C1 9014   0.020   1.178  16.449 -0.2491 -0.2532 -0.0576
  605TMC3    C2 9015   0.055   1.236  16.571  0.3785 -0.9929 -0.2066
  605TMC3    C3 9016   4.714   1.333  16.627 -0.6124 -0.5190  0.2280
  605TMC3    C4 9017   4.627   1.203  16.406 -0.6572  0.4955 -0.6649
  605TMC3    C5 9018   4.546   1.290  16.473 -0.4150 -0.1542  0.4302
  605TMC3    C6 9019   4.594   1.367  16.575 -0.0778  0.3321  0.3315
  605TMC3     C 9020   0.119   1.172  16.347 -0.2765 -0.0016  0.7645
  605TMC3     O 9021   0.083   1.104  16.249 -0.4610 -0.1509 -0.0106
  605TMC3     H 9022   0.154   1.222  16.615  0.5790  2.0072  0.3215
  605TMC3    H1 9023   4.591   1.144  16.323  1.8321  0.1546 -1.4976
  605TMC3    H2 9024   4.535   1.447  16.618  0.3177 -1.0597  3.4960
  605TMC3    C7 9025   4.426   1.333  16.405  0.7159 -0.3780  0.4971
  605TMC3    C8 9026   0.063   1.453  16.644 -0.1534 -0.2045 -0.5665
  605TMC3    O1 9027   4.346   1.402  16.462 -0.2906 -0.2776  0.1969
  605TMC3    O2 9028   0.142   1.472  16.553  0.5109 -0.5439  0.2353
  606TMC3    C1 9029   1.383   0.934  17.662 -0.6048  0.6839  0.5135
  606TMC3    C2 9030   1.460   0.881   0.021  0.1939 -0.1798  0.2140
  606TMC3    C3 9031   1.571   0.811  17.722  0.7170 -0.8683  0.1325
  606TMC3    C4 9032   1.407   0.907  17.525  0.0175  0.5673  0.4431
  606TMC3    C5 9033   1.516   0.834  17.490  0.3472  0.2017 -0.1993
  606TMC3    C6 9034   1.599   0.785  17.589  0.3137 -0.2679 -0.2346
  606TMC3     C 9035   1.253   0.987  17.699  0.0169 -0.5396 -0.3015
  606TMC3     O 9036   1.251   1.036   0.078 -0.4189 -0.0829  0.3776
  606TMC3     H 9037   1.427   0.887   0.124 -2.3342  1.2334 -0.6928
  606TMC3    H1 9038   1.338   0.949  17.452 -0.6093 -0.7587  0.2658
  606TMC3    H2 9039   1.688   0.731  17.561  0.2624  0.0375 -1.0133
  606TMC3    C7 9040   1.485   0.746  17.380 -0.0752 -0.0159 -0.2380
  606TMC3    C8 9041   1.636   0.730   0.084  0.4743  0.8637  0.8630
  606TMC3    O1 9042   1.450   0.806  17.275 -0.5820 -0.0947  0.0209
  606TMC3    O2 9043   1.740   0.673   0.050 -0.0281 -0.3071 -0.1589
  607MPD2     C 9044   3.716   2.082  11.783 -0.4406 -0.0841 -0.1050
  607MPD2    C1 9045   3.777   2.156  11.880 -0.2916 -0.0227  0.0065
  607MPD2    C2 9046   3.777   2.110  12.011  0.0652  0.0698  0.0557
  607MPD2    C3 9047   3.699   2.007  12.047  0.4915 -0.0520 -0.1241
  607MPD2    C4 9048   3.632   1.940  11.951  0.2160 -0.1091  0.2521
  607MPD2    C5 9049   3.646   1.970  11.815 -0.8359  0.2810 -0.5160
  607MPD2     H 9050   3.835   2.162  12.087  1.4409  0.3157 -1.1515
  607MPD2    H1 9051   3.580   1.850  11.981 -2.9065  0.9161 -1.9683
  607MPD2    H2 9052   3.715   2.117  11.681  0.8034 -0.1137 -0.1289
  607MPD2    H3 9053   3.588   1.922  11.738 -0.6289 -0.0116 -0.4890
  607MPD2     N 9054   3.689   1.980  12.191  0.2487 -0.0559  0.3360
  607MPD2    H5 9055   3.754   2.033  12.248 -0.1467  0.2564  0.4944
  607MPD2    N1 9056   3.856   2.274  11.859  0.3825  0.1875 -0.5076
  607MPD2    H7 9057   3.902   2.306  11.944 -0.2908 -0.4206  0.0756
  608TMC3    C1 9058   3.926   2.474  11.775  0.0339  0.1037  0.0526
  608TMC3    C2 9059   3.930   2.513  11.902 -0.0565 -0.1101 -0.4301
  608TMC3    C3 9060   3.891   2.637  11.926 -0.1586 -1.0271 -0.4464
  608TMC3    C4 9061   3.917   2.558  11.668 -0.1432 -0.6943  0.2097
  608TMC3    C5 9062   3.890   2.691  11.689  0.7296  0.7565 -0.0200
  608TMC3    C6 9063   3.869   2.722  11.822 -0.4810  0.1223 -0.0810
  608TMC3     C 9064   3.874   2.343  11.742  0.6002  0.0386  0.0844
  608TMC3     O 9065   3.843   2.320  11.628  0.1880  0.1225  0.1876
  608TMC3     H 9066   3.943   2.441  11.983  3.6460 -0.7429 -1.5807
  608TMC3    H1 9067   3.916   2.519  11.567 -0.0348  0.6682 -0.3140
  608TMC3    H2 9068   3.824   2.819  11.841 -0.4939  0.3742 -1.3898
  608TMC3    C7 9069   3.933   2.789  11.592 -0.7511 -0.2265  0.0537
  608TMC3    C8 9070   3.800   2.654  12.042  0.1467 -0.2054  0.0539
  608TMC3    O1 9071   3.938   2.746  11.477  0.1608 -0.5003  0.3789
  608TMC3    O2 9072   3.713   2.741  12.022 -0.2093 -0.1135  0.4434
  609TMC3    C1 9073   1.654   1.901   9.763 -0.5421  0.2708  0.6157
  609TMC3    C2 9074   1.664   2.037   9.739 -0.2015 -0.6491  0.1746
  609TMC3    C3 9075   1.794   2.080   9.710 -0.5606 -0.1980 -0.6495
  609TMC3    C4 9076   1.757   1.812   9.737 -0.4518  0.3924 -0.1435
  609TMC3    C5 9077   1.886   1.863   9.706  0.2107 -0.6188 -0.5843
  609TMC3    C6 9078   1.908   1.997   9.707  0.6915 -0.1844  0.3630
  609TMC3     C 9079   1.554   1.860   9.861 -0.4100  0.3241 -0.1011
  609TMC3     O 9080   1.531   1.741   9.872 -0.1758 -0.1214  0.0238
  609TMC3     H 9081   1.581   2.106   9.745  0.3222  0.3448 -3.8115
  609TMC3    H1 9082   1.753   1.711   9.776 -2.2715  0.5146 -0.0117
  609TMC3    H2 9083   1.998   2.046   9.671  0.6426 -1.5383 -1.5636
  609TMC3    C7 9084   2.001   1.793   9.753  0.6618 -0.9645 -0.3685
  609TMC3    C8 9085   1.817   2.216   9.666 -0.1692 -0.4711  0.5171
  609TMC3    O1 9086   2.099   1.861   9.784 -0.5085  0.1457  0.2020
  609TMC3    O2 9087   1.717   2.285   9.650 -0.8744 -0.0673 -0.2048
  610TMC3    C1 9088   3.696   2.579  12.756 -0.6404  0.3264 -0.3436
  610TMC3    C2 9089   3.791   2.598  12.665  0.0416 -0.5175  0.6928
  610TMC3    C3 9090   3.898   2.517  12.659  0.3444  0.1195 -0.2544
  610TMC3    C4 9091   3.697   2.466  12.835  0.3646  0.2670 -0.5802
  610TMC3    C5 9092   3.793   2.375  12.808  0.2874  0.1121 -0.0518
  610TMC3    C6 9093   3.902   2.404  12.729  0.2001 -0.8942  0.0297
  610TMC3     C 9094   3.592   2.679  12.771  0.3761 -0.4941  0.0804
  610TMC3     O 9095   3.573   2.757  12.680  0.0518 -0.4191  0.3012
  610TMC3     H 9096   3.789   2.679  12.593  0.4509  1.0068  2.4033
  610TMC3    H1 9097   3.612   2.442  12.898  1.9454  1.0827  1.8901
  610TMC3    H2 9098   3.994   2.346  12.729  1.6118  1.3326  0.5365
  610TMC3    C7 9099   3.795   2.250  12.877 -0.4146 -0.0198  0.0998
  610TMC3    C8 9100   4.009   2.547  12.569 -0.0968 -0.3725  0.2198
  610TMC3    O1 9101   3.896   2.187  12.873  0.2622  0.2736 -0.0841
  610TMC3    O2 9102   4.030   2.666  12.558 -0.3786  0.0395  0.1803
  611MPD2     C 9103   3.804   2.174  10.134 -0.1513 -0.5605 -0.7036
  611MPD2    C1 9104   3.722   2.268  10.066  0.2541  0.1805 -0.0494
  611MPD2    C2 9105   3.754   2.404  10.066  0.0332 -0.2883  0.7969
  611MPD2    C3 9106   3.880   2.446  10.110  0.3566  0.4122 -0.1864
  611MPD2    C4 9107   3.965   2.345  10.159 -0.0689  0.0788 -0.2954
  611MPD2    C5 9108   3.920   2.219  10.179 -0.3952 -0.3671 -0.1728
  611MPD2     H 9109   3.686   2.482  10.034 -1.4012 -1.0550  1.9593
  611MPD2    H1 9110   4.062   2.382  10.190 -0.2763  1.3932 -1.2145
  611MPD2    H2 9111   3.781   2.068  10.134  0.5721 -0.7222  0.3451
  611MPD2    H3 9112   3.983   2.141  10.219 -1.3368 -2.0597 -1.9271
  611MPD2     N 9113   3.931   2.579  10.115 -0.1814 -0.1759  0.0758
  611MPD2    H5 9114   4.009   2.606  10.174  0.1280  0.5256 -0.6487
  611MPD2    N1 9115   3.594   2.220  10.023  0.4416  0.4635  0.4172
  611MPD2    H7 9116   3.579   2.120  10.029 -2.5018  0.7920 -1.3326
  612TMC3    C1 9117   3.917   2.812  10.072  0.0661 -0.1310 -0.1813
  612TMC3    C2 9118   4.007   2.839  10.168  0.0001  0.9354  0.2877
  612TMC3    C3 9119   4.018   2.966  10.224 -0.1991  0.6397  0.3150
  612TMC3    C4 9120   3.841   2.915  10.027 -0.3947  0.4661 -0.2631
  612TMC3    C5 9121   3.850   3.041  10.083  0.1835  0.3395 -0.2271
  612TMC3    C6 9122   3.945   3.073  10.177 -0.1895  0.0832 -0.2126
  612TMC3     C 9123   3.874   2.680  10.035  0.4162  0.0426 -0.5403
  612TMC3     O 9124   3.787   2.676   9.947 -0.1838 -0.1727 -0.2602
  612TMC3     H 9125   4.086   2.769  10.190  1.2617  1.4682 -2.5764
  612TMC3    H1 9126   3.764   2.897   9.953 -0.4354  0.7778 -0.2941
  612TMC3    H2 9127   3.976   3.176  10.190 -1.0728  0.5997 -2.0690
  612TMC3    C7 9128   3.757   3.147  10.037  1.0343 -0.0839 -0.2042
  612TMC3    C8 9129   4.119   2.998  10.321 -0.1036  0.4329  0.3510
  612TMC3    O1 9130   3.690   3.127   9.939  0.2856 -0.4047 -0.0047
  612TMC3    O2 9131   4.161   3.112  10.325  0.1871  0.6572  0.8244
  613MPD2     C 9132   2.943   4.252  15.315  0.2153 -0.0756 -1.0596
  613MPD2    C1 9133   2.914   4.145  15.232 -0.7032  0.0515  0.6015
  613MPD2    C2 9134   2.863   4.031  15.287  0.4202  0.2004 -0.1882
  613MPD2    C3 9135   2.825   4.026  15.418  0.9821  0.1449 -0.1109
  613MPD2    C4 9136   2.853   4.136  15.502 -0.8539 -0.2774  0.5771
  613MPD2    C5 9137   2.912   4.245  15.444 -0.0574 -0.2250 -0.1674
  613MPD2     H 9138   2.844   3.956  15.212  1.7526  0.0445 -0.3750
  613MPD2    H1 9139   2.839   4.131  15.609  0.0671 -2.7229  0.5650
  613MPD2    H2 9140   2.988   4.340  15.272  1.0603 -0.9176 -1.9204
  613MPD2    H3 9141   2.935   4.333  15.504  0.9193 -0.0352 -0.8375
  613MPD2     N 9142   2.743   3.921  15.474 -0.6022  0.3094  0.2611
  613MPD2    H5 9143   2.721   3.934  15.573 -1.9419  1.0519 -0.1286
  613MPD2    N1 9144   2.948   4.133  15.100  0.5620  0.0296 -0.0835
  613MPD2    H7 9145   2.920   4.047  15.054  0.9993  0.2368 -0.7343
  614TMC3    C1 9146   2.986   4.190  14.873 -0.3420  0.7411 -0.2194
  614TMC3    C2 9147   3.010   4.059  14.865 -0.0153 -0.2035  0.1945
  614TMC3    C3 9148   2.940   3.989  14.776 -0.1980 -0.2212 -0.5687
  614TMC3    C4 9149   2.895   4.259  14.802 -0.5852  0.5108 -0.1345
  614TMC3    C5 9150   2.823   4.187  14.712  0.6651 -0.3964  0.8010
  614TMC3    C6 9151   2.845   4.055  14.695  1.2186 -0.3648  0.1348
  614TMC3     C 9152   2.990   4.238  15.012 -0.1183 -0.0661 -0.1304
  614TMC3     O 9153   3.006   4.357  15.026  0.0741 -0.0606 -0.3034
  614TMC3     H 9154   3.097   4.022  14.920  0.3158  0.2927  0.0001
  614TMC3    H1 9155   2.877   4.363  14.827  0.3258  1.0109 -1.5583
  614TMC3    H2 9156   2.778   4.007  14.625  0.8448  2.0360 -1.1246
  614TMC3    C7 9157   2.751   4.261  14.604  0.7258 -0.3779 -0.5754
  614TMC3    C8 9158   2.887   3.879  14.858 -0.3774 -0.1597  0.4904
  614TMC3    O1 9159   2.752   4.207  14.494  0.3137 -0.1385  0.0843
  614TMC3    O2 9160   2.912   3.887  14.977 -0.4062 -0.4567  0.5628
  615MPD2     C 9161   1.813   1.822  16.591  0.1248 -0.6069 -0.6154
  615MPD2    C1 9162   1.817   1.901  16.478 -0.0933 -0.4487 -0.3127
  615MPD2    C2 9163   1.815   1.835  16.352 -0.3726 -0.0889 -0.7985
  615MPD2    C3 9164   1.823   1.698  16.336 -0.2863  0.1292  0.2267
  615MPD2    C4 9165   1.838   1.624  16.453  0.2041 -0.9908 -0.2529
  615MPD2    C5 9166   1.838   1.689  16.573 -0.2090 -0.4499  0.2498
  615MPD2     H 9167   1.813   1.898  16.264  1.2652 -0.9996 -1.4785
  615MPD2    H1 9168   1.860   1.519  16.461 -0.8684 -1.0223  2.1781
  615MPD2    H2 9169   1.828   1.853  16.694  2.9851  3.6708 -2.3437
  615MPD2    H3 9170   1.856   1.636  16.666  1.5836 -1.5703 -0.7420
  615MPD2     N 9171   1.825   1.642  16.200 -0.4053 -0.0341  0.0482
  615MPD2    H5 9172   1.832   1.541  16.195  0.8682  0.1415 -1.7553
  615MPD2    N1 9173   1.826   2.042  16.485 -0.0731  0.3475  0.3935
  615MPD2    H7 9174   1.824   2.084  16.392 -1.6796  1.0796  0.7736
  616TMC3    C1 9175   1.812   2.262  16.562 -0.1124  1.1824 -0.0099
  616TMC3    C2 9176   1.900   2.319  16.473  0.1166  0.3209 -0.2747
  616TMC3    C3 9177   1.897   2.454  16.448  0.0271 -0.1854  0.0392
  616TMC3    C4 9178   1.700   2.327  16.607 -0.1285  0.3442  0.5092
  616TMC3    C5 9179   1.683   2.465  16.564 -0.2141 -0.4192 -0.5427
  616TMC3    C6 9180   1.786   2.530  16.492 -0.2824  0.4623 -0.3109
  616TMC3     C 9181   1.826   2.119  16.598  0.0995 -0.0380  0.7725
  616TMC3     O 9182   1.801   2.081  16.715 -0.1807  0.3555  0.8236
  616TMC3     H 9183   1.962   2.250  16.416  3.4433  3.6111 -0.6199
  616TMC3    H1 9184   1.624   2.273  16.663 -0.9132 -0.6395 -1.5005
  616TMC3    H2 9185   1.795   2.638  16.482  0.2885  0.4567  0.1652
  616TMC3    C7 9186   1.551   2.524  16.579  0.1940  0.0002  0.1921
  616TMC3    C8 9187   1.994   2.515  16.357  0.4207 -0.0270  0.0921
  616TMC3    O1 9188   1.548   2.637  16.536 -0.4966 -0.0492 -0.0125
  616TMC3    O2 9189   1.959   2.621  16.311  0.5701  0.0035 -0.1021
  617MPD2     C 9190   4.590   4.426  13.652  0.9592 -0.2589 -0.2768
  617MPD2    C1 9191   4.621   4.291  13.638  0.6176 -0.5352  0.2211
  617MPD2    C2 9192   4.524   4.196  13.668 -0.0666 -0.4473 -0.1979
  617MPD2    C3 9193   4.394   4.232  13.683  1.4184 -0.0134  0.1361
  617MPD2    C4 9194   4.363   4.363  13.717  0.2319 -0.1575  0.0231
  617MPD2    C5 9195   4.463   4.458  13.698  0.1226 -0.0711 -0.4076
  617MPD2     H 9196   4.533   4.088  13.658 -0.1662 -0.5299  0.6019
  617MPD2    H1 9197   4.262   4.404  13.725  0.3120 -0.0361  0.4368
  617MPD2    H2 9198   4.651   4.512  13.625  1.1274 -0.7749 -1.5284
  617MPD2    H3 9199   4.437   4.562  13.710 -1.9783 -0.7544  1.0075
  617MPD2     N 9200   4.301   4.128  13.670 -0.4082 -0.4641 -0.3977
  617MPD2    H5 9201   4.330   4.031  13.668  0.2304 -0.2294 -2.5610
  617MPD2    N1 9202   0.014   4.257  13.584 -0.3779 -0.0936  0.1005
  617MPD2    H7 9203   0.076   4.331  13.554 -0.3213  0.7357  2.2874
  618TMC3    C1 9204   0.167   4.129  13.458 -0.3594  0.5272  0.1298
  618TMC3    C2 9205   0.262   4.032  13.484 -0.3559 -0.0703 -0.7017
  618TMC3    C3 9206   0.383   4.046  13.424 -0.3232  0.1527 -0.3576
  618TMC3    C4 9207   0.191   4.223  13.367  0.3291 -0.5538 -0.1922
  618TMC3    C5 9208   0.308   4.219  13.298  1.2178  0.2818 -0.8185
  618TMC3    C6 9209   0.415   4.136  13.327  0.2449  0.0036  0.0280
  618TMC3     C 9210   0.048   4.126  13.545  0.3324 -0.5015 -0.8113
  618TMC3     O 9211   0.016   4.024  13.600  0.3164 -0.3407  0.1563
  618TMC3     H 9212   0.247   3.957  13.561 -0.6932 -0.5869 -1.2709
  618TMC3    H1 9213   0.115   4.295  13.337 -1.9650 -2.6711  0.5177
  618TMC3    H2 9214   0.511   4.124  13.279 -0.4505  1.7853 -1.8095
  618TMC3    C7 9215   0.280   4.243  13.162  0.3524  0.2439 -0.3096
  618TMC3    C8 9216   0.483   3.951  13.467  0.0468  0.2210  0.7340
  618TMC3    O1 9217   0.167   4.210  13.127  0.0131  0.1950  0.4817
  618TMC3    O2 9218   0.490   3.929  13.588 -0.6743 -0.3506 -0.0350
  619MPD2     C 9219   1.261   0.703  13.846  0.0971 -0.2126 -0.0333
  619MPD2    C1 9220   1.229   0.740  13.715 -0.3978 -0.2046 -0.0361
  619MPD2    C2 9221   1.095   0.742  13.677 -0.4507  0.8188 -0.2800
  619MPD2    C3 9222   0.995   0.697  13.762  0.4563  0.3122  0.1127
  619MPD2    C4 9223   1.027   0.672  13.892  0.4732  0.7523  0.2784
  619MPD2    C5 9224   1.161   0.671  13.935  0.2030  0.4677 -0.5338
  619MPD2     H 9225   1.077   0.772  13.574 -1.3625  0.2360 -0.2893
  619MPD2    H1 9226   0.957   0.636  13.967  0.3248 -0.1586 -0.3061
  619MPD2    H2 9227   1.363   0.699  13.883  0.3107 -0.7170 -0.6880
  619MPD2    H3 9228   1.177   0.646  14.039 -0.9010 -1.3346 -0.7892
  619MPD2     N 9229   0.869   0.681  13.717 -1.0560  0.6635 -0.3801
  619MPD2    H5 9230   0.793   0.675  13.784 -0.4955 -2.1260 -0.0008
  619MPD2    N1 9231   1.327   0.782  13.620  0.3160  0.4163  0.1381
  619MPD2    H7 9232   1.290   0.825  13.535 -4.1246 -1.5873  1.0691
  620TMC3    C1 9233   1.519   0.892  13.550  0.3959 -0.5432  0.2373
  620TMC3    C2 9234   1.432   0.922  13.447 -0.3564  0.4061  0.1738
  620TMC3    C3 9235   1.408   1.056  13.414  0.2659 -0.0330  0.0631
  620TMC3    C4 9236   1.583   0.995  13.608 -0.0678 -0.2091  0.1485
  620TMC3    C5 9237   1.558   1.129  13.567  1.0213 -0.6081 -0.8227
  620TMC3    C6 9238   1.467   1.167  13.474  0.8341  0.3219  0.1747
  620TMC3     C 9239   1.463   0.793  13.642  0.3871  0.1698 -0.4404
  620TMC3     O 9240   1.533   0.756  13.736 -0.5524 -0.3455 -0.2183
  620TMC3     H 9241   1.388   0.837  13.396  2.0604 -0.1662 -0.9226
  620TMC3    H1 9242   1.636   0.976  13.701 -0.4856  1.1180  0.6618
  620TMC3    H2 9243   1.448   1.269  13.443 -1.3801  0.0939  0.7702
  620TMC3    C7 9244   1.668   1.220  13.595  0.6005  0.1198 -0.2366
  620TMC3    C8 9245   1.274   1.082  13.383  0.0456  0.2096 -0.3879
  620TMC3    O1 9246   1.776   1.168  13.614  0.4677 -0.2596 -0.3527
  620TMC3    O2 9247   1.235   1.197  13.416  0.0224  0.3809  0.8439
  621MPD2     C 9248   1.269   1.288  10.547 -0.2062 -0.1587 -0.2924
  621MPD2    C1 9249   1.285   1.248  10.421 -0.4861  0.3592  0.1809
  621MPD2    C2 9250   1.371   1.317  10.338 -0.1731  0.6471 -0.4418
  621MPD2    C3 9251   1.430   1.430  10.385  0.2900  0.0159 -0.0439
  621MPD2    C4 9252   1.409   1.474  10.515  0.8419  0.1317 -0.1302
  621MPD2    C5 9253   1.331   1.395  10.595  0.2188 -0.2021  0.6019
  621MPD2     H 9254   1.390   1.280  10.237 -2.3516  3.9177 -2.0468
  621MPD2    H1 9255   1.462   1.559  10.557 -0.0587 -0.5943  2.4548
  621MPD2    H2 9256   1.220   1.220  10.616  0.0302 -0.1716 -0.1340
  621MPD2    H3 9257   1.307   1.421  10.697  2.1553 -3.4447  1.8732
  621MPD2     N 9258   1.513   1.495  10.292  0.3756  0.0375 -0.2723
  621MPD2    H5 9259   1.535   1.447  10.205 -2.4450  0.1559 -1.0456
  621MPD2    N1 9260   1.214   1.142  10.356  0.1869  0.6945  1.1747
  621MPD2    H7 9261   1.239   1.128  10.259  0.5011 -0.8009  1.4706
  622TMC3    C1 9262   1.044   0.970  10.326  0.8024 -0.2977 -0.0941
  622TMC3    C2 9263   0.941   0.895  10.383  0.6866 -0.3969  0.4914
  622TMC3    C3 9264   0.877   0.822  10.294  0.7618  0.0254  0.0536
  622TMC3    C4 9265   1.071   0.974  10.192  0.5137  0.3789  0.3672
  622TMC3    C5 9266   1.001   0.893  10.110  0.3665  0.3831  0.1939
  622TMC3    C6 9267   0.904   0.808  10.152 -0.5952  0.6306  0.6292
  622TMC3     C 9268   1.123   1.065  10.415 -0.1492 -1.2109  0.3108
  622TMC3     O 9269   1.074   1.075  10.527  0.5640  0.5369  0.2199
  622TMC3     H 9270   0.912   0.894  10.488 -1.7677 -0.1679 -0.1773
  622TMC3    H1 9271   1.154   1.026  10.145 -0.4413  1.1833 -0.4293
  622TMC3    H2 9272   0.850   0.750  10.078 -1.4219  0.3642  1.4376
  622TMC3    C7 9273   0.977   0.941   9.972  0.3827 -0.1501  0.4038
  622TMC3    C8 9274   0.754   0.760  10.332  0.1660 -0.2445  0.3281
  622TMC3    O1 9275   0.939   0.854   9.892  0.1901  0.2496 -0.1702
  622TMC3    O2 9276   0.724   0.660  10.266  0.3288  0.0507  0.3219
  623MPD2     C 9277   0.514   1.727  15.793  0.2309 -0.6398  0.3916
  623MPD2    C1 9278   0.441   1.695  15.904 -0.3613 -0.4152  0.1878
  623MPD2    C2 9279   0.487   1.733  16.030 -0.0850  0.9497 -0.0096
  623MPD2    C3 9280   0.600   1.808  16.048  0.1915 -0.0891  0.4295
  623MPD2    C4 9281   0.669   1.845  15.935  0.1998 -0.5832  0.2255
  623MPD2    C5 9282   0.633   1.794  15.812  0.5782  0.7435  0.0091
  623MPD2     H 9283   0.429   1.714  16.120 -0.0496  1.2259  0.0741
  623MPD2    H1 9284   0.752   1.913  15.950  0.5068 -0.4276 -2.2306
  623MPD2    H2 9285   0.489   1.699  15.691  0.4710  0.1110  0.1285
  623MPD2    H3 9286   0.688   1.836  15.728 -2.1697  2.3415 -0.9808
  623MPD2     N 9287   0.633   1.853  16.181  0.0357 -0.0042  0.4596
  623MPD2    H5 9288   0.576   1.811  16.254  0.5360 -3.1146 -0.9132
  623MPD2    N1 9289   0.332   1.605  15.892  0.5747 -0.1136 -0.3810
  623MPD2    H7 9290   0.287   1.592  15.982  1.0906 -0.1139 -0.1221
  624TMC3    C1 9291   0.873   1.841  16.560  0.0326  0.1735 -0.3133
  624TMC3    C2 9292   0.752   1.806  16.625 -0.5303 -0.5704 -0.1049
  624TMC3    C3 9293   0.633   1.820  16.556  0.6802 -0.6574 -0.5813
  624TMC3    C4 9294   0.875   1.891  16.430  0.6353 -0.4657 -0.3008
  624TMC3    C5 9295   0.753   1.906  16.371  0.5167 -0.6214 -0.0914
  624TMC3    C6 9296   0.636   1.877  16.434  0.2228 -0.0760 -0.3209
  624TMC3     C 9297   0.993   1.815  16.633  0.0371  0.7334  0.0172
  624TMC3     O 9298   0.974   1.792  16.753  0.8290 -0.3702 -0.9510
  624TMC3     H 9299   0.749   1.746  16.715  0.2580 -1.6271 -0.7803
  624TMC3    H1 9300   0.966   1.922  16.381  0.6005  1.0484  0.5811
  624TMC3    H2 9301   0.536   1.894  16.395  0.6125  1.3213 -0.7073
  624TMC3    C7 9302   0.739   1.927  16.229 -0.3968 -0.7797  0.1509
  624TMC3    C8 9303   0.513   1.761  16.596  0.1644  0.3915  0.4203
  624TMC3    O1 9304   0.823   1.987  16.163  0.1617 -0.7092 -0.2461
  624TMC3    O2 9305   0.434   1.740  16.508 -0.2753 -0.2811  0.4563
  625MPD2     C 9306   0.981   2.694   0.439  0.0724 -0.0865 -0.1519
  625MPD2    C1 9307   1.021   2.832   0.430  0.5221  0.3798 -0.1437
  625MPD2    C2 9308   1.134   2.869   0.487  0.1399 -0.2432  0.0738
  625MPD2    C3 9309   1.228   2.781   0.540 -0.0477  0.0970 -0.5485
  625MPD2    C4 9310   1.184   2.644   0.548  0.6148  0.3584  0.1601
  625MPD2    C5 9311   1.055   2.609   0.514 -0.0278 -0.3519 -0.3216
  625MPD2     H 9312   1.179   2.967   0.472 -1.1713  0.1296 -1.3950
  625MPD2    H1 9313   1.252   2.572   0.591 -0.2231  0.1239  1.0787
  625MPD2    H2 9314   0.896   2.654   0.386  0.3947  0.7635 -1.3054
  625MPD2    H3 9315   1.026   2.504   0.509  1.9586 -0.8107 -2.1330
  625MPD2     N 9316   1.350   2.835   0.578  0.0663  0.3453 -0.5561
  625MPD2    H5 9317   1.359   2.936   0.579 -0.0728  0.3540 -0.2721
  625MPD2    N1 9318   0.946   2.929   0.359 -0.3450 -0.1704 -0.4100
  625MPD2    H7 9319   0.979   3.024   0.372  1.0795 -0.6728 -0.3327
  626TMC3    C1 9320   0.750   3.025   0.276  0.6099  0.4294  0.7179
  626TMC3    C2 9321   0.672   3.043   0.163  0.6689  0.4089 -0.7264
  626TMC3    C3 9322   0.616   3.169   0.139  0.1955 -0.0474 -0.0568
  626TMC3    C4 9323   0.753   3.114   0.375  0.1225 -0.8288 -0.7223
  626TMC3    C5 9324   0.688   3.233   0.353  0.4770 -0.5504  0.5388
  626TMC3    C6 9325   0.628   3.268   0.230  0.8280  0.0218  0.3690
  626TMC3     C 9326   0.835   2.904   0.281  0.1009 -0.2391  0.4118
  626TMC3     O 9327   0.794   2.798   0.226 -0.5824  0.7278 -0.6414
  626TMC3     H 9328   0.663   2.968   0.085  0.7073  1.6118 -1.8840
  626TMC3    H1 9329   0.820   3.104   0.460 -2.3255 -0.9313  1.1602
  626TMC3    H2 9330   0.601   3.369   0.199 -0.0167 -0.2294  0.2807
  626TMC3    C7 9331   0.650   3.321   0.470 -0.5318  0.3295  0.3215
  626TMC3    C8 9332   0.582   3.207   0.004 -0.0196  0.2361  0.0944
  626TMC3    O1 9333   0.715   3.309   0.572 -0.1577 -0.2617 -0.6150
  626TMC3    O2 9334   0.648   3.301  17.694 -0.5766 -0.0075 -0.5012
  627MPD2     C 9335   4.371   2.890  14.006 -0.2989  0.0554 -0.5110
  627MPD2    C1 9336   4.383   2.898  14.141 -0.4259  0.0921  0.0381
  627MPD2    C2 9337   4.335   2.793  14.216 -0.0572 -0.1196  0.3522
  627MPD2    C3 9338   4.273   2.678  14.162  0.3460 -0.5676 -0.6590
  627MPD2    C4 9339   4.265   2.675  14.023 -0.1991 -0.4414  0.1620
  627MPD2    C5 9340   4.305   2.782  13.951  0.4913 -0.3081  0.4977
  627MPD2     H 9341   4.353   2.810  14.321  0.8576 -2.1698  0.5328
  627MPD2    H1 9342   4.216   2.598  13.964  0.2620 -0.2463 -0.4758
  627MPD2    H2 9343   4.406   2.958  13.930  1.0918  0.2976  0.3522
  627MPD2    H3 9344   4.314   2.777  13.843  0.5203 -1.1355  0.5376
  627MPD2     N 9345   4.214   2.587  14.246  0.5093 -0.3681  0.0195
  627MPD2    H5 9346   4.211   2.611  14.345 -0.3773  2.3237 -0.6775
  627MPD2    N1 9347   4.446   3.004  14.214  0.8733  0.1761 -0.0006
  627MPD2    H7 9348   4.460   2.996  14.314  0.8542 -1.5819 -0.1386
  628TMC3    C1 9349   4.514   3.227  14.250 -0.2565  0.4265 -0.4432
  628TMC3    C2 9350   4.582   3.189  14.366 -0.0692 -0.2310 -0.7118
  628TMC3    C3 9351   4.640   3.299  14.429  0.0983 -0.3671  0.7167
  628TMC3    C4 9352   4.494   3.357  14.220  0.6883 -0.2539 -0.4370
  628TMC3    C5 9353   4.540   3.455  14.296 -0.3295  0.3940  0.3010
  628TMC3    C6 9354   4.626   3.429  14.397  0.4590 -0.0267  0.2138
  628TMC3     C 9355   4.473   3.130  14.157 -0.1517  0.4841 -0.9516
  628TMC3     O 9356   4.436   3.170  14.047 -0.2572 -0.4162 -0.1094
  628TMC3     H 9357   4.609   3.086  14.386 -2.4510 -0.6986  0.1536
  628TMC3    H1 9358   4.451   3.374  14.123  2.8660 -2.4229 -1.7948
  628TMC3    H2 9359   4.658   3.509  14.463 -0.5804  0.5136  0.0607
  628TMC3    C7 9360   4.464   3.577  14.310 -0.3256  0.4371 -0.2061
  628TMC3    C8 9361   0.007   3.268  14.524 -0.3476 -0.2097  0.0714
  628TMC3    O1 9362   4.439   3.616  14.425  0.2017  0.3002 -0.2778
  628TMC3    O2 9363   0.103   3.345  14.525  0.0873 -0.4140  0.3421
  629MPD2     C 9364   2.408   2.535  16.065  0.0022  0.7000  0.0376
  629MPD2    C1 9365   2.423   2.414  16.135  0.2135  0.8664  0.4352
  629MPD2    C2 9366   2.319   2.382  16.226 -0.0781  0.2459  0.5974
  629MPD2    C3 9367   2.211   2.468  16.242 -0.3441 -0.2447 -0.4632
  629MPD2    C4 9368   2.203   2.579  16.166  0.2382 -0.3527  0.1017
  629MPD2    C5 9369   2.300   2.614  16.081 -0.1588 -0.3227  0.9028
  629MPD2     H 9370   2.325   2.289  16.282  2.9145 -1.6126 -2.8702
  629MPD2    H1 9371   2.120   2.648  16.176 -0.7386 -0.7938 -4.6806
  629MPD2    H2 9372   2.473   2.575  15.989 -0.8514  0.1986 -0.9508
  629MPD2    H3 9373   2.292   2.708  16.027 -0.3011 -1.4821 -1.0784
  629MPD2     N 9374   2.109   2.436  16.335  0.2960  0.2771  0.5405
  629MPD2    H5 9375   2.119   2.358  16.399 -4.2070  0.1289  1.0417
  629MPD2    N1 9376   2.541   2.346  16.106  0.1802 -0.2491  0.2189
  629MPD2    H7 9377   2.608   2.390  16.042 -0.4452  0.2964 -0.0578
  630TMC3    C1 9378   2.702   2.175  16.097  0.5631 -0.2319  0.1450
  630TMC3    C2 9379   2.773   2.229  15.994  0.7861  0.5946  0.1527
  630TMC3    C3 9380   2.892   2.162  15.956  0.5781 -0.0019  0.1788
  630TMC3    C4 9381   2.747   2.057  16.147 -0.4035  0.6236  0.3167
  630TMC3    C5 9382   2.870   2.006  16.131  0.8978 -0.0708 -0.6306
  630TMC3    C6 9383   2.951   2.069  16.040 -0.4309  0.2169  0.5172
  630TMC3     C 9384   2.572   2.223  16.143  0.1849 -0.4337  0.1242
  630TMC3     O 9385   2.510   2.157  16.228  0.0162 -0.0148 -0.4749
  630TMC3     H 9386   2.729   2.312  15.940  0.3428  0.3576  0.1549
  630TMC3    H1 9387   2.695   2.020  16.235  1.3547  0.0128  1.0986
  630TMC3    H2 9388   3.050   2.036  16.011 -0.1862  0.4592  1.0732
  630TMC3    C7 9389   2.948   2.003  16.256 -0.0468  0.3282  0.4905
  630TMC3    C8 9390   3.000   2.243  15.901  0.0997 -0.3880  0.1302
  630TMC3    O1 9391   2.923   1.907  16.329  0.3189 -0.2854  0.2470
  630TMC3    O2 9392   3.106   2.251  15.959  0.0526  0.1228 -0.2559
  631MPD2     C 9393   1.060   1.339  15.681  0.8127  0.2127  0.0288
  631MPD2    C1 9394   1.156   1.378  15.585 -0.2234  0.4720  0.0396
  631MPD2    C2 9395   1.292   1.385  15.622  0.4352  0.2487 -0.3788
  631MPD2    C3 9396   1.332   1.343  15.745 -0.2940  0.1692 -0.5560
  631MPD2    C4 9397   1.239   1.311  15.841  0.0873 -0.8567 -0.6339
  631MPD2    C5 9398   1.106   1.299  15.804 -1.0037  0.3425 -0.3729
  631MPD2     H 9399   1.366   1.428  15.556  0.2072 -1.0925 -1.5074
  631MPD2    H1 9400   1.275   1.288  15.940  0.5592  1.1140 -0.3346
  631MPD2    H2 9401   0.952   1.335  15.673  0.7268  2.7169  0.1867
  631MPD2    H3 9402   1.037   1.266  15.881 -0.0219  2.3970  1.3951
  631MPD2     N 9403   1.472   1.353  15.774  0.0200 -0.4331  0.3323
  631MPD2    H5 9404   1.533   1.378  15.697  1.5026 -4.3645  0.2311
  631MPD2    N1 9405   1.110   1.427  15.458 -0.2652 -0.8282 -0.2036
  631MPD2    H7 9406   1.010   1.439  15.445 -0.2561 -0.3109  0.1947
  632TMC3    C1 9407   1.141   1.516  15.238 -1.2280 -1.4733  0.1965
  632TMC3    C2 9408   1.015   1.576  15.258 -0.2948  0.5001 -0.2853
  632TMC3    C3 9409   0.971   1.672  15.172  0.0427 -0.4217  0.7566
  632TMC3    C4 9410   1.213   1.544  15.128 -0.3505  0.3478 -0.4300
  632TMC3    C5 9411   1.167   1.636  15.040  0.2359 -0.5691  0.0332
  632TMC3    C6 9412   1.046   1.700  15.059  0.5442  0.1371  0.0883
  632TMC3     C 9413   1.193   1.436  15.347  0.2107 -0.2304 -0.9652
  632TMC3     O 9414   1.291   1.364  15.335 -0.4410  0.0057  0.9095
  632TMC3     H 9415   0.964   1.572  15.353  0.8815  0.4681  0.3546
  632TMC3    H1 9416   1.305   1.486  15.119 -1.6265 -1.7820  0.1453
  632TMC3    H2 9417   1.006   1.779  14.996  0.8902 -0.3609 -0.7546
  632TMC3    C7 9418   1.237   1.688  14.923  0.0429  0.2763  0.2565
  632TMC3    C8 9419   0.843   1.737  15.205 -0.1378 -0.5036 -1.0362
  632TMC3    O1 9420   1.180   1.762  14.845  0.0523  0.1239  0.5444
  632TMC3    O2 9421   0.781   1.699  15.302  0.4763 -0.4174 -0.1807
  633MPD2     C 9422   0.761   0.030  17.452 -0.8425 -0.0876 -0.5030
  633MPD2    C1 9423   0.824   4.698  17.348 -0.1079  0.8675  0.1994
  633MPD2    C2 9424   0.947   4.632  17.369  0.4855 -0.2897  0.1517
  633MPD2    C3 9425   1.011   4.657  17.489  1.2210  0.2076  0.1570
  633MPD2    C4 9426   0.951   4.720  17.590  0.0371  0.4445  0.6105
  633MPD2    C5 9427   0.831   0.046  17.571 -0.2687 -0.4580 -0.2967
  633MPD2     H 9428   0.997   4.563  17.302  0.6526  0.6309 -0.6677
  633MPD2    H1 9429   1.000   0.002  17.685 -0.3929  3.7748  0.2485
  633MPD2    H2 9430   0.670   0.087  17.439 -0.6982  0.1074 -0.6613
  633MPD2    H3 9431   0.792   0.112  17.648 -1.3140 -0.7644 -0.5564
  633MPD2     N 9432   1.138   4.611  17.521  0.0976 -0.2897  0.0174
  633MPD2    H5 9433   1.177   4.645  17.609 -0.0553 -0.5832  0.2012
  633MPD2    N1 9434   0.791   4.690  17.218 -0.4035 -0.0299 -0.0924
  633MPD2    H7 9435   0.848   4.632  17.157  0.0021 -0.5709  0.8030
  634TMC3    C1 9436   0.698   0.034  17.015 -0.4576 -0.6868 -0.3866
  634TMC3    C2 9437   0.740   4.653  16.951 -1.2317  0.0335  0.9132
  634TMC3    C3 9438   0.736   4.649  16.820 -0.4504  0.1966 -0.0214
  634TMC3    C4 9439   0.687   0.150  16.944  0.6045 -0.4787 -0.3970
  634TMC3    C5 9440   0.701   0.146  16.811  0.5021  0.0709 -0.0953
  634TMC3    C6 9441   0.729   0.027  16.747  0.8462  0.5765 -0.3471
  634TMC3     C 9442   0.689   0.030  17.159 -0.3826 -0.6324  0.3871
  634TMC3     O 9443   0.617   0.118  17.208  0.0626 -0.4173  0.8712
  634TMC3     H 9444   0.741   4.557  17.001 -0.3088 -1.0734 -1.2454
  634TMC3    H1 9445   0.674   0.245  16.995  1.9618 -0.1970 -0.5945
  634TMC3    H2 9446   0.725   0.025  16.639 -0.2270 -1.4908 -0.2736
  634TMC3    C7 9447   0.689   0.265  16.730  0.0635 -0.2554 -0.6198
  634TMC3    C8 9448   0.759   4.517  16.756 -0.1838 -0.4086  0.7921
  634TMC3    O1 9449   0.709   0.253  16.607  0.2081  0.3616 -0.3673
  634TMC3    O2 9450   0.839   4.448  16.818 -0.3698 -0.4799  0.2020
  635TMC3    C1 9451   1.079   1.392  17.572 -0.2586 -0.3804 -0.0773
  635TMC3    C2 9452   1.010   1.431  17.685 -0.4604  0.7635  0.0411
  635TMC3    C3 9453   0.875   1.444  17.679  0.6681  0.5598  0.1899
  635TMC3    C4 9454   1.025   1.382  17.447  0.6323  0.2217  0.0343
  635TMC3    C5 9455   0.882   1.389  17.449  1.1974  0.4942  0.9014
  635TMC3    C6 9456   0.812   1.416  17.564  0.0479 -0.0173  0.0777
  635TMC3     C 9457   1.220   1.382  17.594 -0.6078 -0.4516 -0.1712
  635TMC3     O 9458   1.259   1.439  17.694 -0.8386  0.6201  0.6272
  635TMC3     H 9459   1.057   1.459   0.043 -0.1641  3.4546 -0.9036
  635TMC3    H1 9460   1.086   1.367  17.359  1.1328  0.7396  0.2903
  635TMC3    H2 9461   0.706   1.431  17.548 -0.1593 -2.5171 -0.9115
  635TMC3    C7 9462   0.802   1.366  17.327 -1.0062  0.0353  0.3248
  635TMC3    C8 9463   0.807   1.555   0.009 -0.1844 -0.2817 -0.0501
  635TMC3    O1 9464   0.689   1.319  17.347  0.2062  0.1815 -0.8004
  635TMC3    O2 9465   0.687   1.572  17.718 -0.1603 -0.2213  0.2420
  636MPD2     C 9466   1.986   4.112  15.766  0.1925 -0.1598 -0.0497
  636MPD2    C1 9467   2.076   4.174  15.687  0.5184 -0.4443  0.2667
  636MPD2    C2 9468   2.177   4.095  15.636 -0.6168 -0.2760 -0.4517
  636MPD2    C3 9469   2.178   3.959  15.649 -0.1115  0.5802  0.6272
  636MPD2    C4 9470   2.083   3.902  15.727  0.3217 -0.0989  0.2228
  636MPD2    C5 9471   1.986   3.978  15.779 -0.0143 -0.2024  0.4230
  636MPD2     H 9472   2.248   4.142  15.568  0.4431  0.8733  1.4603
  636MPD2    H1 9473   2.066   3.797  15.750  2.6494 -0.7867 -1.1677
  636MPD2    H2 9474   1.900   4.154  15.816 -0.2642 -0.9437 -0.1853
  636MPD2    H3 9475   1.914   3.936  15.848 -0.2864  1.8131  1.3657
  636MPD2     N 9476   2.283   3.888  15.595 -0.3612  0.4029  0.0904
  636MPD2    H5 9477   2.365   3.939  15.563 -1.1732  1.2433 -0.6593
  636MPD2    N1 9478   2.072   4.311  15.659 -0.7159 -0.2988  0.4451
  636MPD2    H7 9479   2.141   4.345  15.593 -1.1073  1.5185  0.9738
  637TMC3    C1 9480   2.410   3.686  15.537 -0.2974 -0.6853 -0.3989
  637TMC3    C2 9481   2.529   3.752  15.564  0.1393 -0.8123 -0.0785
  637TMC3    C3 9482   2.638   3.704  15.497  0.8189 -0.1338  0.2064
  637TMC3    C4 9483   2.403   3.571  15.459 -0.4159  0.5575 -0.2320
  637TMC3    C5 9484   2.514   3.524  15.392 -0.4591  0.0360 -0.4648
  637TMC3    C6 9485   2.636   3.589  15.425 -0.2753  0.5789 -0.1323
  637TMC3     C 9486   2.289   3.746  15.590  0.1425 -0.1543  0.5853
  637TMC3     O 9487   2.201   3.663  15.595 -0.1926 -0.0524 -0.0792
  637TMC3     H 9488   2.526   3.844  15.622 -0.9410 -0.9330  0.0581
  637TMC3    H1 9489   2.308   3.519  15.450  0.5531 -1.1146 -0.9324
  637TMC3    H2 9490   2.724   3.548  15.378 -0.8251 -0.2537 -0.4399
  637TMC3    C7 9491   2.492   3.502  15.250 -0.1406 -0.2236 -0.5653
  637TMC3    C8 9492   2.700   3.809  15.414 -0.0924  0.1862 -0.4079
  637TMC3    O1 9493   2.391   3.442  15.215 -0.1913  0.4151  0.1078
  637TMC3    O2 9494   2.689   3.792  15.294  0.8967 -0.1266 -0.4003
  638MPD2     C 9495   1.638   3.642  14.788 -0.2197  0.3673 -0.5265
  638MPD2    C1 9496   1.657   3.520  14.737 -0.0248 -0.3119 -1.0313
  638MPD2    C2 9497   1.611   3.414  14.809 -1.1293  0.7121 -0.7766
  638MPD2    C3 9498   1.544   3.423  14.934 -0.6269 -0.5841  0.7206
  638MPD2    C4 9499   1.543   3.548  14.989  0.8545  0.2061  0.0522
  638MPD2    C5 9500   1.584   3.650  14.916  0.8347 -0.6884  0.1390
  638MPD2     H 9501   1.632   3.312  14.778  0.4334  1.4158 -2.0496
  638MPD2    H1 9502   1.514   3.562  15.092  3.8017  3.0728  0.4571
  638MPD2    H2 9503   1.692   3.727  14.750 -1.8450  0.7001 -2.0797
  638MPD2    H3 9504   1.570   3.734  14.982  1.4234 -2.1372  2.1268
  638MPD2     N 9505   1.497   3.303  14.993  0.6646  0.0316 -0.6553
  638MPD2    H5 9506   1.492   3.224  14.929 -0.6607 -0.1567 -0.3132
  638MPD2    N1 9507   1.722   3.495  14.615  0.3345 -0.1431 -0.0882
  638MPD2    H7 9508   1.737   3.401  14.581  0.0414  0.3254 -1.5334
  639TMC3    C1 9509   1.356   3.170  15.121 -0.8974  0.3965 -0.0330
  639TMC3    C2 9510   1.276   3.138  15.013  0.0593  0.7029  0.5596
  639TMC3    C3 9511   1.239   3.004  15.010 -0.4922 -0.4158  0.0100
  639TMC3    C4 9512   1.381   3.089  15.229 -0.5912 -0.8294  0.1468
  639TMC3    C5 9513   1.334   2.958  15.216 -0.2146 -0.4173  0.1759
  639TMC3    C6 9514   1.262   2.910  15.107 -0.3324 -0.6195 -0.3532
  639TMC3     C 9515   1.439   3.289  15.116 -0.4273 -0.1126  0.2606
  639TMC3     O 9516   1.439   3.371  15.210  0.2528 -0.0165  0.8666
  639TMC3     H 9517   1.247   3.204  14.932  1.4381  2.2191  1.2893
  639TMC3    H1 9518   1.461   3.124  15.294  0.0253 -0.1371 -0.9764
  639TMC3    H2 9519   1.277   2.807  15.080  1.9989 -0.2044 -0.6263
  639TMC3    C7 9520   1.447   2.870  15.254 -0.4584  0.2401 -0.4649
  639TMC3    C8 9521   1.192   2.950  14.883 -0.5387 -0.2489  1.2280
  639TMC3    O1 9522   1.462   2.846  15.375 -0.2686 -0.6595 -0.1041
  639TMC3    O2 9523   1.259   2.970  14.787 -0.2705 -0.9704 -0.2403
  640MPD2     C 9524   3.648   2.682   9.012  1.0916  0.0885 -0.3081
  640MPD2    C1 9525   3.519   2.647   9.045 -0.0780  0.9442 -0.6496
  640MPD2    C2 9526   3.416   2.738   9.044 -0.1370 -0.1550  0.4815
  640MPD2    C3 9527   3.449   2.863   9.011 -0.2779  0.2593 -0.2306
  640MPD2    C4 9528   3.578   2.899   8.969 -0.3002  0.2608  0.0904
  640MPD2    C5 9529   3.680   2.814   8.977  0.8010 -0.5958 -0.0584
  640MPD2     H 9530   3.320   2.708   9.086 -0.7790 -0.6053 -1.2760
  640MPD2    H1 9531   3.592   3.002   8.936  1.0408 -0.2988 -1.0724
  640MPD2    H2 9532   3.722   2.603   9.012  0.8057 -0.1786 -0.2010
  640MPD2    H3 9533   3.777   2.845   8.942 -0.0398  3.1015  0.9516
  640MPD2     N 9534   3.351   2.968   9.011 -0.5292 -0.1136 -0.0873
  640MPD2    H5 9535   3.385   3.052   8.968 -2.3535  1.2513  1.1276
  640MPD2    N1 9536   3.506   2.513   9.083  0.7607 -0.3979  0.9202
  640MPD2    H7 9537   3.594   2.470   9.111  0.4612 -0.8737  1.1350
  641TMC3    C1 9538   3.395   2.309   9.164  0.7125  0.6750  0.2597
  641TMC3    C2 9539   3.303   2.260   9.251  0.7384  0.0884  0.5741
  641TMC3    C3 9540   3.342   2.158   9.337  0.5018  0.0838  0.5187
  641TMC3    C4 9541   3.518   2.253   9.157 -0.4082  0.3317  0.0983
  641TMC3    C5 9542   3.553   2.146   9.236  0.3055  0.0723  0.7211
  641TMC3    C6 9543   3.466   2.102   9.328  0.7103 -0.3052  0.2235
  641TMC3     C 9544   3.382   2.449   9.111 -0.9148  0.0064 -0.1175
  641TMC3     O 9545   3.272   2.483   9.065  0.3686  0.2065 -0.5976
  641TMC3     H 9546   3.206   2.310   9.251  0.9670  0.5627 -0.9565
  641TMC3    H1 9547   3.583   2.280   9.074 -0.0831 -0.1373  0.2085
  641TMC3    H2 9548   3.488   2.016   9.391  0.4446 -0.3166  0.3044
  641TMC3    C7 9549   3.684   2.097   9.227 -0.2931  1.1527  0.0266
  641TMC3    C8 9550   3.263   2.119   9.452 -0.3784  0.2245 -0.6501
  641TMC3    O1 9551   3.766   2.173   9.180 -0.4435 -1.0964  0.3334
  641TMC3    O2 9552   3.316   2.027   9.513  0.0977  0.7185  0.5626
  642TMC3    C1 9553   3.287   3.565  12.099  0.7061 -0.0557 -0.4429
  642TMC3    C2 9554   3.416   3.597  12.123 -0.3611 -0.6607  0.3996
  642TMC3    C3 9555   3.512   3.502  12.152  0.1004  0.1672  0.4372
  642TMC3    C4 9556   3.243   3.438  12.105  0.0443 -0.4273 -0.6135
  642TMC3    C5 9557   3.343   3.345  12.124 -0.2958 -0.4719 -0.7869
  642TMC3    C6 9558   3.475   3.374  12.152 -0.9001 -0.2626  0.0348
  642TMC3     C 9559   3.199   3.668  12.065  0.3844 -0.3759 -0.3528
  642TMC3     O 9560   3.247   3.744  11.982  0.3481  0.1558  0.0572
  642TMC3     H 9561   3.442   3.701  12.107  1.4501 -1.4762 -1.9972
  642TMC3    H1 9562   3.148   3.406  12.064 -0.1782  1.0555 -1.2549
  642TMC3    H2 9563   3.548   3.296  12.170  0.5815  1.3715  1.1433
  642TMC3    C7 9564   3.314   3.203  12.137 -0.1711 -0.8863 -0.4147
  642TMC3    C8 9565   3.634   3.541  12.216 -0.4606 -0.1190  0.8682
  642TMC3    O1 9566   3.407   3.128  12.122  0.0180 -0.0142  0.3015
  642TMC3    O2 9567   3.720   3.456  12.231  0.2429 -0.4244  0.3371
  643TMC3    C1 9568   2.479   2.629   0.091  0.5585 -0.6218 -0.3600
  643TMC3    C2 9569   2.359   2.623   0.022 -0.2446  0.0268 -0.3795
  643TMC3    C3 9570   2.343   2.529  17.661 -0.0269  0.2331 -0.0788
  643TMC3    C4 9571   2.581   2.556   0.051 -0.6537  0.3732 -0.4036
  643TMC3    C5 9572   2.561   2.467  17.686 -0.7223  0.7382 -0.2778
  643TMC3    C6 9573   2.438   2.441  17.635  0.3074  0.0928 -0.1573
  643TMC3     C 9574   2.511   2.750   0.162  0.5383  0.9415 -0.6304
  643TMC3     O 9575   2.480   2.855   0.113 -0.2813 -0.0730  0.7276
  643TMC3     H 9576   2.273   2.685   0.043 -1.7517 -1.4017 -2.4374
  643TMC3    H1 9577   2.679   2.574   0.092 -0.2487 -1.5711 -0.5413
  643TMC3    H2 9578   2.431   2.391  17.540 -4.0792 -1.4935  1.0029
  643TMC3    C7 9579   2.668   2.488  17.583 -0.4863  0.2935 -0.0828
  643TMC3    C8 9580   2.319   2.593  17.538 -0.5708 -0.5066 -0.2356
  643TMC3    O1 9581   2.739   2.583  17.596  0.8384  0.0021 -0.0218
  643TMC3    O2 9582   2.276   2.537  17.440  0.4072 -0.2773  0.1710
  644MPD2     C 9583   3.832   3.169   9.341  0.2594  0.2590  0.0367
  644MPD2    C1 9584   3.697   3.140   9.325 -0.1160  0.4135  0.3796
  644MPD2    C2 9585   3.612   3.246   9.283  0.2494  0.3299 -0.9973
  644MPD2    C3 9586   3.662   3.374   9.262 -0.7699  0.0310 -0.1915
  644MPD2    C4 9587   3.799   3.391   9.274 -0.0201  0.1161  0.3677
  644MPD2    C5 9588   3.883   3.295   9.324 -0.7465 -0.2394 -0.4993
  644MPD2     H 9589   3.505   3.230   9.272 -0.2974  1.1165  2.8584
  644MPD2    H1 9590   3.850   3.484   9.250  1.9606 -1.4313 -1.4645
  644MPD2    H2 9591   3.900   3.087   9.363 -0.2585  0.2982  1.7563
  644MPD2    H3 9592   3.989   3.310   9.333 -0.9120  0.3939  0.3419
  644MPD2     N 9593   3.576   3.484   9.233  0.5078 -0.5478 -0.6698
  644MPD2    H5 9594   3.478   3.476   9.207  0.9309  0.1589 -2.5330
  644MPD2    N1 9595   3.642   3.011   9.358  0.3009 -0.3898 -0.1936
  644MPD2    H7 9596   3.708   2.940   9.389  1.4323  0.9369  0.4291
  645TMC3    C1 9597   3.508   3.697   9.186  0.5441  0.2838  0.0891
  645TMC3    C2 9598   3.377   3.664   9.223  0.2323 -0.5173  0.3777
  645TMC3    C3 9599   3.280   3.756   9.209  0.4960  0.2164  0.3752
  645TMC3    C4 9600   3.537   3.823   9.149  0.0084 -0.0314 -0.2424
  645TMC3    C5 9601   3.433   3.909   9.134  0.4446  0.0550 -0.7514
  645TMC3    C6 9602   3.303   3.877   9.159 -0.6654  0.3062  0.4364
  645TMC3     C 9603   3.613   3.616   9.223 -0.4753  0.0752  0.2128
  645TMC3     O 9604   3.721   3.676   9.223 -0.3120 -0.1540 -0.1473
  645TMC3     H 9605   3.364   3.579   9.288 -0.1911  0.7066  1.8820
  645TMC3    H1 9606   3.634   3.860   9.117 -1.0449  1.9558 -1.1271
  645TMC3    H2 9607   3.233   3.959   9.166  0.1398  1.1900 -2.0781
  645TMC3    C7 9608   3.456   4.034   9.057 -0.3437  0.2570 -0.0696
  645TMC3    C8 9609   3.150   3.694   9.231 -0.2344 -0.7995  0.1311
  645TMC3    O1 9610   3.361   4.077   8.994 -0.1645 -0.8533  0.3444
  645TMC3    O2 9611   3.145   3.614   9.319 -0.2716 -0.1144  0.2649
  646MPD2     C 9612   1.870   2.193  14.335 -0.4081 -0.0030  0.1196
  646MPD2    C1 9613   1.779   2.185  14.439  0.3643 -0.1437  0.0221
  646MPD2    C2 9614   1.661   2.254  14.429 -0.6534 -0.4115 -0.2095
  646MPD2    C3 9615   1.641   2.339  14.319 -0.1696  0.1087 -0.2673
  646MPD2    C4 9616   1.736   2.350  14.219 -0.1463 -0.9647  0.0468
  646MPD2    C5 9617   1.848   2.273  14.225 -0.7136  0.2142 -0.4856
  646MPD2     H 9618   1.588   2.247  14.509  0.0570 -0.9606  0.3895
  646MPD2    H1 9619   1.722   2.410  14.129  0.5384 -0.6429  0.1564
  646MPD2    H2 9620   1.959   2.131  14.331  0.4752  1.2873 -0.1920
  646MPD2    H3 9621   1.922   2.280  14.146 -0.5070  0.0094 -0.3112
  646MPD2     N 9622   1.519   2.414  14.302 -0.2495  0.7632  0.0982
  646MPD2    H5 9623   1.445   2.389  14.367  1.2750 -0.8641  1.2109
  646MPD2    N1 9624   1.818   2.099  14.542 -0.8021  0.7198  0.0579
  646MPD2    H7 9625   1.907   2.054  14.526 -0.4574  1.5723 -0.3954
  647TMC3    C1 9626   1.843   1.981  14.745 -0.9351 -0.3602 -0.5716
  647TMC3    C2 9627   1.791   1.884  14.827 -1.0015  0.3225  0.1166
  647TMC3    C3 9628   1.879   1.800  14.892  0.5970 -0.7453  0.3391
  647TMC3    C4 9629   1.977   1.984  14.717 -0.1172  0.9107 -0.4911
  647TMC3    C5 9630   2.056   1.886  14.773  0.5459 -0.2394  0.7905
  647TMC3    C6 9631   2.009   1.789  14.854 -0.2880 -0.0380 -0.0743
  647TMC3     C 9632   1.751   2.062  14.659  0.3434  0.1913 -0.3969
  647TMC3     O 9633   1.630   2.068  14.685 -0.4075  0.5335  0.1643
  647TMC3     H 9634   1.686   1.884  14.853 -1.2014 -0.6656 -0.6866
  647TMC3    H1 9635   2.027   2.060  14.657  1.4172  0.1855 -0.1311
  647TMC3    H2 9636   2.063   1.715  14.912  0.8156  0.1303 -0.8886
  647TMC3    C7 9637   2.195   1.908  14.775 -0.1602 -0.2688 -0.6060
  647TMC3    C8 9638   1.835   1.707  14.991 -0.2236 -0.3008 -0.4318
  647TMC3    O1 9639   2.241   1.875  14.885  0.7285  0.5987 -0.5898
  647TMC3    O2 9640   1.875   1.592  14.984 -0.6516 -0.2940  0.0346
  648TMC3    C1 9641   1.016   4.574  16.124  0.3661  0.9074 -0.2214
  648TMC3    C2 9642   1.010   4.442  16.088 -0.4449  0.8426 -0.2737
  648TMC3    C3 9643   1.003   4.413  15.955  0.1237  0.3000  0.6608
  648TMC3    C4 9644   1.013   4.670  16.032 -0.0199 -0.1320  0.6179
  648TMC3    C5 9645   0.998   4.646  15.897  0.3450 -0.7659 -0.6033
  648TMC3    C6 9646   0.993   4.516  15.858 -0.0493 -0.4441  0.0664
  648TMC3     C 9647   1.022   4.615  16.266 -0.2267 -0.1573 -0.3419
  648TMC3     O 9648   1.025   0.003  16.279 -0.5563  0.1517  0.3550
  648TMC3     H 9649   1.000   4.358  16.156 -0.5039  0.9130 -0.1968
  648TMC3    H1 9650   1.029   0.037  16.065 -1.1408  0.0097  0.6971
  648TMC3    H2 9651   0.980   4.497  15.752  2.6763  0.9810 -0.5476
  648TMC3    C7 9652   0.985   0.015  15.797  0.5120  0.7867  0.1498
  648TMC3    C8 9653   0.972   4.278  15.926  0.7534 -0.1550  0.0554
  648TMC3    O1 9654   1.007   4.716  15.683 -0.5845 -0.0315 -0.2194
  648TMC3    O2 9655   0.911   4.208  16.007 -0.5724 -0.2892 -0.1833
  649TMC3    C1 9656   0.186   1.036  13.155  0.6592 -0.3642  0.0366
  649TMC3    C2 9657   0.321   1.039  13.155 -0.5094 -0.0171  0.3689
  649TMC3    C3 9658   0.380   0.915  13.132 -0.2696 -0.6823  0.0627
  649TMC3    C4 9659   0.119   0.918  13.145 -0.1720  0.4473 -0.9842
  649TMC3    C5 9660   0.175   0.807  13.110 -0.1069  0.3558  0.3128
  649TMC3    C6 9661   0.311   0.805  13.099 -0.1672  0.8331 -0.1300
  649TMC3     C 9662   0.132   1.124  13.057  0.0356  0.3757 -0.5205
  649TMC3     O 9663   0.029   1.092  12.998 -0.0520 -0.0679  0.1902
  649TMC3     H 9664   0.377   1.122  13.196 -0.3854  0.9428 -1.7375
  649TMC3    H1 9665   0.011   0.916  13.155 -0.2882  0.3703 -2.2870
  649TMC3    H2 9666   0.363   0.711  13.086 -2.6660 -0.4209 -1.2056
  649TMC3    C7 9667   0.108   0.695  13.168 -0.1611 -1.2912 -0.2895
  649TMC3    C8 9668   0.524   0.917  13.113  0.4501 -0.1627 -0.9023
  649TMC3    O1 9669   0.044   0.725  13.265 -0.2441  0.0932 -0.3817
  649TMC3    O2 9670   0.590   0.816  13.139 -0.1590  0.0868 -0.0641
  650TMC3    C1 9671   2.496   2.580  12.614  0.5880  0.1437 -0.4862
  650TMC3    C2 9672   2.400   2.662  12.670  0.0016 -0.2698  0.4278
  650TMC3    C3 9673   2.371   2.779  12.606 -0.3322 -0.7024 -0.0423
  650TMC3    C4 9674   2.581   2.619  12.515 -0.5237 -0.5461  0.0469
  650TMC3    C5 9675   2.553   2.749  12.471  0.3317 -0.1424  0.8330
  650TMC3    C6 9676   2.452   2.829  12.514 -0.2628 -0.0462  0.0899
  650TMC3     C 9677   2.547   2.481  12.703  0.4333  0.0754  0.3548
  650TMC3     O 9678   2.531   2.499  12.823  0.0969 -0.1766  0.3894
  650TMC3     H 9679   2.345   2.625  12.756 -0.7157  1.3888  0.6640
  650TMC3    H1 9680   2.640   2.538  12.475  0.1982 -0.0795  0.1617
  650TMC3    H2 9681   2.413   2.896  12.439  2.6764 -1.8670 -3.0480
  650TMC3    C7 9682   2.627   2.781  12.357 -0.2606 -0.3089 -0.1098
  650TMC3    C8 9683   2.267   2.866  12.656  0.4437 -0.0411 -0.1579
  650TMC3    O1 9684   2.703   2.701  12.303  0.3191 -0.3970  0.0790
  650TMC3    O2 9685   2.168   2.823  12.714 -0.8214 -0.0709 -0.1558
  651MPD2     C 9686   1.190   4.083  10.918 -0.0675  0.5717  0.1547
  651MPD2    C1 9687   1.150   4.212  10.920 -0.4224 -0.2402 -0.6181
  651MPD2    C2 9688   1.243   4.310  10.900  0.7059 -0.2886 -0.1909
  651MPD2    C3 9689   1.374   4.278  10.867  0.3301  0.0554  0.3889
  651MPD2    C4 9690   1.416   4.152  10.866  0.0352  0.6040  0.4347
  651MPD2    C5 9691   1.327   4.055  10.903  0.3984 -0.4767  0.2104
  651MPD2     H 9692   1.217   4.414  10.885  0.0750 -0.3837  0.2436
  651MPD2    H1 9693   1.513   4.122  10.829  0.0841  1.1767  0.0970
  651MPD2    H2 9694   1.121   3.999  10.925  0.9644 -0.3366 -0.6017
  651MPD2    H3 9695   1.360   3.952  10.895  4.5249  0.8922 -0.4737
  651MPD2     N 9696   1.465   4.393  10.853  0.5803  0.0976  0.5805
  651MPD2    H5 9697   1.433   4.486  10.878  0.8803  0.5806 -0.8604
  651MPD2    N1 9698   1.012   4.248  10.922 -0.2139 -0.2148 -0.3320
  651MPD2    H7 9699   0.996   4.347  10.908 -0.7793 -0.3018 -0.2879
  652TMC3    C1 9700   1.850   4.607  10.717 -0.2521  0.4141  0.0037
  652TMC3    C2 9701   1.795   4.501  10.779 -0.5548  0.0511 -0.1847
  652TMC3    C3 9702   1.667   4.503  10.821  0.2243  0.5786  0.8914
  652TMC3    C4 9703   1.791   0.001  10.712  0.6247 -0.8890 -0.6642
  652TMC3    C5 9704   1.661   0.003  10.758  0.2191 -0.2736  0.0175
  652TMC3    C6 9705   1.597   4.625  10.810  0.0981  0.7716  0.4027
  652TMC3     C 9706   1.988   4.596  10.672 -0.0379 -0.5690 -0.3861
  652TMC3     O 9707   2.046   4.493  10.701  0.2551 -0.6012  0.3812
  652TMC3     H 9708   1.848   4.408  10.764  0.3283  0.8925 -2.2739
  652TMC3    H1 9709   1.852   0.089  10.695 -0.1917  0.1857  1.9580
  652TMC3    H2 9710   1.489   4.631  10.815  0.1438  1.5227  0.5187
  652TMC3    C7 9711   1.592   0.137  10.759 -0.6130  0.4441  0.6154
  652TMC3    C8 9712   1.601   4.376  10.831 -0.1379  0.3322 -0.7024
  652TMC3    O1 9713   1.489   0.129  10.824 -0.3108 -0.3071  0.0895
  652TMC3    O2 9714   1.664   4.274  10.804  0.0541 -0.0648 -0.1913
  653MPD2     C 9715   0.233   4.628  17.480 -0.2566 -0.4589 -0.2929
  653MPD2    C1 9716   0.189   0.000  17.409 -0.4639  0.4962 -0.0071
  653MPD2    C2 9717   0.162   4.706  17.279  0.2039  0.3098  0.2853
  653MPD2    C3 9718   0.189   4.586  17.219 -0.4132 -0.2758  0.6121
  653MPD2    C4 9719   0.229   4.479  17.296 -0.0425 -0.6545  0.1505
  653MPD2    C5 9720   0.244   4.498  17.428  0.7420 -0.0955 -0.1545
  653MPD2     H 9721   0.125   0.041  17.205 -1.1027 -0.0441  0.6058
  653MPD2    H1 9722   0.254   4.381  17.257 -1.8017 -2.0890  2.5824
  653MPD2    H2 9723   0.275   4.649  17.577 -1.1907 -0.3594  0.0943
  653MPD2    H3 9724   0.274   4.416  17.491 -4.3981 -0.8225  1.2781
  653MPD2     N 9725   0.175   4.575  17.079 -0.0042 -0.1083  0.4848
  653MPD2    H5 9726   0.136   4.658  17.037  0.1935 -0.1139  0.2950
  653MPD2    N1 9727   0.183   0.133  17.459 -0.3947 -0.2097  0.4045
  653MPD2    H7 9728   0.164   0.203  17.387 -0.2717 -0.5208  0.0696
  654TMC3    C1 9729   0.199   4.511  16.862  0.1667  0.2579 -1.0572
  654TMC3    C2 9730   0.101   4.596  16.816  0.5896 -0.5753 -0.1313
  654TMC3    C3 9731   0.067   4.589  16.682  0.1580  0.7545  0.3048
  654TMC3    C4 9732   0.262   4.423  16.780 -0.1461 -0.5668  0.8975
  654TMC3    C5 9733   0.232   4.419  16.648 -0.1100 -0.0676  0.3309
  654TMC3    C6 9734   0.129   4.506  16.596  0.3824  0.2588 -0.0041
  654TMC3     C 9735   0.217   4.473  16.997 -0.8543 -0.6878  0.0210
  654TMC3     O 9736   0.277   4.372  17.025 -0.7947 -0.3465  0.1220
  654TMC3     H 9737   0.035   4.650  16.882  0.2130  1.5339 -2.2184
  654TMC3    H1 9738   0.338   4.353  16.812 -1.3588 -1.9907  0.6693
  654TMC3    H2 9739   0.096   4.508  16.493 -1.1159  1.8422  0.5145
  654TMC3    C7 9740   0.301   4.332  16.563  0.2069 -0.0535  0.1372
  654TMC3    C8 9741   4.659   4.610  16.658 -0.9042  0.1520  0.2705
  654TMC3    O1 9742   0.303   4.369  16.449  0.2255 -0.4438  0.3699
  654TMC3    O2 9743   4.601   4.689  16.728  0.0102 -0.0431  0.5384
  655MPD2     C 9744   1.547   4.592  15.565 -0.6544 -0.2416 -0.2046
  655MPD2    C1 9745   1.501   4.702  15.500 -0.3770 -0.3522  0.5548
  655MPD2    C2 9746   1.502   4.692  15.363 -0.3174  0.0507 -0.8965
  655MPD2    C3 9747   1.539   4.577  15.297 -0.5192 -0.6105  0.2544
  655MPD2    C4 9748   1.599   4.479  15.375  0.2917  0.7847  0.0095
  655MPD2    C5 9749   1.600   4.486  15.508 -0.4618 -1.3707  0.5648
  655MPD2     H 9750   1.452   0.040  15.313 -3.3342 -0.8974  0.5795
  655MPD2    H1 9751   1.626   4.382  15.333 -1.4963  1.1214 -1.9529
  655MPD2    H2 9752   1.549   4.599  15.673  0.4111  2.3361 -0.3851
  655MPD2    H3 9753   1.630   4.399  15.565 -0.2239 -0.9630  1.0604
  655MPD2     N 9754   1.522   4.563  15.154 -0.2356  0.4052  0.1733
  655MPD2    H5 9755   1.553   4.474  15.116  0.2133  2.6463 -4.6190
  655MPD2    N1 9756   1.438   0.081  15.559  0.7315 -0.0581 -0.8671
  655MPD2    H7 9757   1.404   0.159  15.504  0.6745 -1.2852 -2.5909
  656TMC3    C1 9758   1.364   0.237  15.718  0.0086 -0.4895 -0.3098
  656TMC3    C2 9759   1.325   0.255  15.842 -0.0332 -0.5668  0.5710
  656TMC3    C3 9760   1.260   0.374  15.874 -0.1120 -0.3391 -0.1252
  656TMC3    C4 9761   1.346   0.332  15.619 -0.6847 -0.5518  0.4088
  656TMC3    C5 9762   1.278   0.446  15.643 -0.0600  0.2191 -0.5811
  656TMC3    C6 9763   1.235   0.471  15.775 -0.0440 -0.5537  1.0346
  656TMC3     C 9764   1.411   0.103  15.691 -0.4295 -0.0647  0.7455
  656TMC3     O 9765   1.425   0.023  15.783  0.2380 -0.2821 -0.0278
  656TMC3     H 9766   1.339   0.179  15.919 -0.3541  0.0162  1.2013
  656TMC3    H1 9767   1.377   0.307  15.519  0.0809  0.8542  0.2932
  656TMC3    H2 9768   1.167   0.554  15.794  2.5488  1.5246  1.2567
  656TMC3    C7 9769   1.250   0.532  15.529  0.2728  0.0945  0.2004
  656TMC3    C8 9770   1.196   0.381  16.006  0.2690 -0.5482 -0.0720
  656TMC3    O1 9771   1.291   0.499  15.421 -0.7161 -0.1882 -0.1178
  656TMC3    O2 9772   1.215   0.288  16.082 -0.1004  0.0840  0.0498
  657TMC3    C1 9773   0.370   4.150  14.813 -0.1480 -0.0282  0.5568
  657TMC3    C2 9774   0.434   4.220  14.915  0.5559  0.6413  0.5452
  657TMC3    C3 9775   0.415   4.359  14.926  0.5210 -0.0695 -0.3860
  657TMC3    C4 9776   0.286   4.218  14.723 -0.3228 -0.0309  0.2324
  657TMC3    C5 9777   0.274   4.357  14.739  0.1159  0.5813  0.5255
  657TMC3    C6 9778   0.335   4.422  14.842 -0.4260  0.2442  0.1975
  657TMC3     C 9779   0.381   4.003  14.800  0.1311  0.3840 -0.9609
  657TMC3     O 9780   0.284   3.953  14.749 -0.2648 -0.0964 -0.3949
  657TMC3     H 9781   0.490   4.164  14.989 -0.9989  1.4855  2.3385
  657TMC3    H1 9782   0.248   4.163  14.638 -0.6914  0.9470 -0.2418
  657TMC3    H2 9783   0.321   4.529  14.840 -1.6289  0.1155  2.1688
  657TMC3    C7 9784   0.167   4.432  14.675  0.5791 -0.7572  0.7794
  657TMC3    C8 9785   0.484   4.441  15.022  0.4037 -0.0905 -0.6363
  657TMC3    O1 9786   0.141   4.540  14.723 -0.1576  0.3238  0.0587
  657TMC3    O2 9787   0.468   4.560  15.013  0.5251  0.0758  0.3187
  658MPD2     C 9788   1.788   4.156  14.713 -0.2851 -0.8464  0.0230
  658MPD2    C1 9789   1.749   4.274  14.644  0.3813 -0.1952  0.2152
  658MPD2    C2 9790   1.776   4.281  14.506 -1.3843  0.0385  0.5070
  658MPD2    C3 9791   1.805   4.164  14.433  0.0821  0.4001 -0.0063
  658MPD2    C4 9792   1.825   4.046  14.500  0.2055 -0.7307 -0.2866
  658MPD2    C5 9793   1.836   4.048  14.637 -0.1778 -0.0562  0.1293
  658MPD2     H 9794   1.754   4.369  14.446 -0.6629  1.0579  1.7442
  658MPD2    H1 9795   1.854   3.953  14.451  0.3239  0.0006 -1.6192
  658MPD2    H2 9796   1.785   4.147  14.821 -1.0890 -0.1647  0.0563
  658MPD2    H3 9797   1.854   3.954  14.688 -2.5144 -0.3534  0.4066
  658MPD2     N 9798   1.802   4.159  14.290  0.0888  0.1686 -0.6221
  658MPD2    H5 9799   1.815   4.065  14.254  0.3666  0.0521 -0.2153
  658MPD2    N1 9800   1.669   4.367  14.721  0.0857 -0.4952 -0.1927
  658MPD2    H7 9801   1.636   4.344  14.815  1.8059 -2.3321 -0.0250
  659TMC3    C1 9802   1.537   4.551  14.739  0.7477 -0.6227 -0.1908
  659TMC3    C2 9803   1.539   4.542  14.878 -0.2695 -0.6676 -0.6786
  659TMC3    C3 9804   1.430   4.593  14.942  0.1594 -0.7276 -0.0436
  659TMC3    C4 9805   1.431   4.588  14.665  0.9258 -0.5067 -0.1685
  659TMC3    C5 9806   1.325   4.627  14.737 -0.4743  0.2979  0.6948
  659TMC3    C6 9807   1.320   4.629  14.874  0.9909 -0.1974 -0.3279
  659TMC3     C 9808   1.630   4.482  14.660 -0.6505 -0.0229 -0.3470
  659TMC3     O 9809   1.663   4.530  14.556  0.5054  0.2342  0.4776
  659TMC3     H 9810   1.631   4.523  14.931 -1.4844  0.4397  1.8114
  659TMC3    H1 9811   1.443   4.587  14.558  0.0332 -1.4979 -0.2578
  659TMC3    H2 9812   1.225   4.635  14.926  1.5817 -2.1168  0.9744
  659TMC3    C7 9813   1.197   4.633  14.665 -0.6833 -0.0468  0.0510
  659TMC3    C8 9814   1.453   4.654  15.074 -0.0036 -0.4670 -0.3269
  659TMC3    O1 9815   1.115   4.710  14.706  0.3354  0.6002 -0.3161
  659TMC3    O2 9816   1.399   0.028  15.094  0.4895  0.3784  0.2102
  660MPD2     C 9817   4.498   3.254  12.359 -0.0900  0.3773 -0.0150
  660MPD2    C1 9818   4.384   3.333  12.380 -0.6501  0.8909 -0.0892
  660MPD2    C2 9819   4.274   3.278  12.446 -1.0180 -0.8228 -0.1909
  660MPD2    C3 9820   4.287   3.150  12.499 -0.9301  0.6466 -0.1353
  660MPD2    C4 9821   4.397   3.077  12.480 -0.3811 -0.3951 -0.2253
  660MPD2    C5 9822   4.501   3.133  12.415  0.7596  0.5078  0.0708
  660MPD2     H 9823   4.186   3.340  12.462 -2.2492 -2.5134 -0.4288
  660MPD2    H1 9824   4.409   2.982  12.532  0.6177  0.2654  0.7580
  660MPD2    H2 9825   4.583   3.302  12.312 -0.0379  1.3757  1.0846
  660MPD2    H3 9826   4.590   3.073  12.402  2.4227  3.2625 -1.2806
  660MPD2     N 9827   4.181   3.088  12.573  0.1680 -0.2006  0.0202
  660MPD2    H5 9828   4.196   2.991  12.599 -0.9587 -0.0825  1.1164
  660MPD2    N1 9829   4.394   3.461  12.313 -0.3610  0.3074 -0.6552
  660MPD2    H7 9830   4.480   3.482  12.263 -0.4953 -1.9075 -1.8197
  661TMC3    C1 9831   4.322   3.658  12.221  0.1645  0.3364  0.1996
  661TMC3    C2 9832   4.418   3.638  12.125 -0.2948  1.2369 -0.1527
  661TMC3    C3 9833   4.405   3.720  12.014 -0.4997  0.3299 -0.5821
  661TMC3    C4 9834   4.216   3.735  12.196  0.1981 -0.2201  0.3429
  661TMC3    C5 9835   4.218   3.826  12.094  0.3509 -0.2350  0.2060
  661TMC3    C6 9836   4.316   3.820  11.997  0.7373  0.2171  0.1910
  661TMC3     C 9837   4.286   3.545  12.298 -0.0324 -0.0695 -0.3822
  661TMC3     O 9838   4.169   3.529  12.329 -0.1217 -0.0808 -0.4097
  661TMC3     H 9839   4.487   3.554  12.122 -0.6209  1.0409 -2.2606
  661TMC3    H1 9840   4.129   3.741  12.260  1.9200 -1.7301  2.8175
  661TMC3    H2 9841   4.320   3.887  11.912 -0.5333 -0.9152 -0.7703
  661TMC3    C7 9842   4.088   3.876  12.069  0.1431  0.7494  0.2609
  661TMC3    C8 9843   4.510   3.689  11.909  0.2458 -0.2638  0.7688
  661TMC3    O1 9844   4.075   3.991  12.028  0.2959 -0.7236 -0.2250
  661TMC3    O2 9845   4.598   3.614  11.946  0.1291  0.3527  0.4256
  662MPD2     C 9846   4.499   3.797  16.771  0.2769 -0.7506  0.5395
  662MPD2    C1 9847   4.462   3.680  16.835 -0.6449  0.5973  0.6801
  662MPD2    C2 9848   4.411   3.686  16.960  0.5929  0.3000  0.8774
  662MPD2    C3 9849   4.410   3.804  17.033 -0.2712  0.1595  0.4751
  662MPD2    C4 9850   4.438   3.921  16.968 -0.2361  0.5293  0.0167
  662MPD2    C5 9851   4.488   3.917  16.841 -0.4693  0.4840 -0.2724
  662MPD2     H 9852   4.381   3.594  17.009  1.3968  0.1254  1.0448
  662MPD2    H1 9853   4.425   4.019  17.013  0.8680  0.4132  0.5990
  662MPD2    H2 9854   4.522   3.800  16.666  2.9169  3.5054  1.2350
  662MPD2    H3 9855   4.505   4.004  16.780  0.8990  1.1695  1.0967
  662MPD2     N 9856   4.382   3.816  17.176  0.4200 -0.3039  0.7200
  662MPD2    H5 9857   4.334   3.900  17.208 -2.3432 -1.0768 -1.4350
  662MPD2    N1 9858   4.454   3.563  16.761 -0.0991  0.6758 -0.0231
  662MPD2    H7 9859   4.509   3.551  16.676  2.0620 -0.9579  1.5884
  663TMC3    C1 9860   4.357   3.367  16.667  0.0511 -0.0873  0.2436
  663TMC3    C2 9861   4.234   3.312  16.650  0.1868  1.0509 -0.0320
  663TMC3    C3 9862   4.219   3.187  16.600  0.5901 -0.4412 -0.2275
  663TMC3    C4 9863   4.469   3.295  16.650 -0.3830  0.1483 -0.6251
  663TMC3    C5 9864   4.454   3.172  16.599  1.3164 -0.1167 -0.7237
  663TMC3    C6 9865   4.328   3.112  16.590 -0.2562  0.2216 -0.2614
  663TMC3     C 9866   4.355   3.473  16.766  0.7214 -0.1215 -0.0115
  663TMC3     O 9867   4.259   3.466  16.838  0.2229 -0.4585  0.9123
  663TMC3     H 9868   4.146   3.375  16.658 -1.2333 -0.6833 -2.1147
  663TMC3    H1 9869   4.564   3.326  16.691 -0.6771  3.0308 -2.1429
  663TMC3    H2 9870   4.325   3.017  16.538 -0.8039  0.2193 -0.2281
  663TMC3    C7 9871   4.562   3.082  16.608  0.1555  0.1209 -0.2027
  663TMC3    C8 9872   4.099   3.121  16.646 -0.0123 -0.2156  0.5971
  663TMC3    O1 9873   4.672   3.127  16.581  0.2848  0.3687 -0.1118
  663TMC3    O2 9874   4.051   3.041  16.576 -0.3458 -0.4053 -0.5713
  664MPD2     C 9875   2.908   1.439  17.116  0.3691  0.4137  0.3839
  664MPD2    C1 9876   2.874   1.568  17.165 -0.0001 -0.2201  0.8046
  664MPD2    C2 9877   2.819   1.581  17.289 -0.6650  0.2705 -0.9274
  664MPD2    C3 9878   2.801   1.473  17.372  0.0776 -0.2811 -0.4471
  664MPD2    C4 9879   2.831   1.347  17.326  0.6818  1.0423  0.4637
  664MPD2    C5 9880   2.864   1.339  17.190 -1.0281  0.3373  0.1583
  664MPD2     H 9881   2.799   1.680  17.329 -2.0569 -0.9997  1.5465
  664MPD2    H1 9882   2.805   1.257  17.381  0.3021  0.1292 -1.2030
  664MPD2    H2 9883   2.950   1.416  17.019  1.9568 -1.1796  1.4481
  664MPD2    H3 9884   2.868   1.237  17.155  1.4511  0.3637  0.3546
  664MPD2     N 9885   2.752   1.507  17.505  0.0988 -0.2296 -0.2447
  664MPD2    H5 9886   2.760   1.606  17.525  1.1544 -0.4380  0.3814
  664MPD2    N1 9887   2.918   1.677  17.088  0.7243 -0.2916 -0.8564
  664MPD2    H7 9888   2.957   1.658  16.997 -1.2132  4.0334 -2.5541
  665TMC3    C1 9889   2.702   1.487  17.734 -0.3832  0.3344  0.0242
  665TMC3    C2 9890   2.604   1.447   0.087  0.2331 -0.3573  0.0481
  665TMC3    C3 9891   2.613   1.509   0.208  0.4918 -0.3655 -0.0836
  665TMC3    C4 9892   2.800   1.577   0.025 -0.1773 -0.3467  0.4169
  665TMC3    C5 9893   2.800   1.640   0.148 -0.0537 -0.4943  0.8315
  665TMC3    C6 9894   2.703   1.609   0.234 -0.3072 -0.0767  0.2383
  665TMC3     C 9895   2.715   1.421  17.607  0.9291 -0.5360 -0.4044
  665TMC3     O 9896   2.665   1.309  17.596 -0.6807  0.0903  0.3422
  665TMC3     H 9897   2.540   1.367   0.052 -0.6453  0.7237 -0.8207
  665TMC3    H1 9898   2.887   1.579  17.697 -0.7627 -1.2872 -0.4083
  665TMC3    H2 9899   2.710   1.651   0.334  2.1096  1.5231 -0.5978
  665TMC3    C7 9900   2.882   1.757   0.158  0.4261 -0.3889  0.3752
  665TMC3    C8 9901   2.531   1.464   0.323  0.0779 -0.3849 -0.0545
  665TMC3    O1 9902   2.920   1.802   0.051 -0.1911 -0.4469 -0.2614
  665TMC3    O2 9903   2.543   1.522   0.431  0.0602  0.5586 -0.0013
  666TMC3    C1 9904   1.680   1.637  10.211  0.9459  0.2302 -0.7212
  666TMC3    C2 9905   1.749   1.536  10.167 -0.6766 -0.4158  0.5680
  666TMC3    C3 9906   1.863   1.560  10.107 -0.3121  0.4423 -0.1451
  666TMC3    C4 9907   1.720   1.768  10.197 -0.3004 -0.7298  1.0393
  666TMC3    C5 9908   1.835   1.785  10.126 -0.2664  0.5157  0.0378
  666TMC3    C6 9909   1.911   1.687  10.074  0.3145 -0.5589  0.0728
  666TMC3     C 9910   1.580   1.608  10.315 -0.5911 -0.1820  0.4498
  666TMC3     O 9911   1.567   1.700  10.396  0.7580  0.0041  0.4947
  666TMC3     H 9912   1.711   1.438  10.195 -2.6030  0.1790  0.0423
  666TMC3    H1 9913   1.652   1.847  10.226 -0.7326 -0.0131 -1.9198
  666TMC3    H2 9914   1.997   1.713  10.013 -2.3232  0.6956 -3.1039
  666TMC3    C7 9915   1.866   1.919  10.098  0.1959  0.4027 -0.3860
  666TMC3    C8 9916   1.942   1.441  10.109 -0.5096 -0.1232 -0.6109
  666TMC3    O1 9917   1.769   1.989  10.088 -0.6479 -0.4430  0.6301
  666TMC3    O2 9918   1.884   1.333  10.080 -0.2382 -0.2962 -0.1887
  667MPD2     C 9919   3.589   1.757  14.337  0.0902  0.4356  0.3672
  667MPD2    C1 9920   3.524   1.708  14.451 -0.7431 -0.5457 -0.1317
  667MPD2    C2 9921   3.425   1.610  14.439 -0.7673  0.0630 -0.6979
  667MPD2    C3 9922   3.384   1.564  14.313 -0.0413 -0.1868 -0.4348
  667MPD2    C4 9923   3.451   1.622  14.207  0.9745 -0.8240  0.3048
  667MPD2    C5 9924   3.554   1.708  14.218  0.4459 -0.3020  0.2366
  667MPD2     H 9925   3.388   1.550  14.521 -1.4453  0.0114 -1.0383
  667MPD2    H1 9926   3.426   1.596  14.104  0.7360 -2.4607  0.7701
  667MPD2    H2 9927   3.656   1.842  14.336  0.9336 -0.1938  3.3952
  667MPD2    H3 9928   3.610   1.754  14.137 -1.6645 -2.5775 -2.4930
  667MPD2     N 9929   3.279   1.478  14.288  1.1582  0.2305 -0.2987
  667MPD2    H5 9930   3.260   1.461  14.190 -0.6240  2.1275 -0.2899
  667MPD2    N1 9931   3.556   1.753  14.580  0.6567  0.0552  0.2890
  667MPD2    H7 9932   3.516   1.706  14.661  1.4713  0.8792  1.1748
  668TMC3    C1 9933   3.651   1.872  14.754  0.1188 -0.9380  0.7757
  668TMC3    C2 9934   3.764   1.946  14.781  0.3589 -0.5335 -0.0900
  668TMC3    C3 9935   3.820   1.936  14.904  0.2929  0.6096  0.2120
  668TMC3    C4 9936   3.597   1.779  14.840 -0.4769 -0.0952  0.0429
  668TMC3    C5 9937   3.658   1.772  14.962 -0.2988 -0.4142 -0.3282
  668TMC3    C6 9938   3.774   1.844  14.990 -0.8030  0.3833 -0.5862
  668TMC3     C 9939   3.623   1.863  14.608  0.1253 -0.0151  0.6030
  668TMC3     O 9940   3.662   1.953  14.533 -0.1691  0.1714  0.1562
  668TMC3     H 9941   3.802   2.015  14.706 -0.7064 -0.7467 -0.8303
  668TMC3    H1 9942   3.501   1.733  14.821  0.0583 -1.6161  1.0832
  668TMC3    H2 9943   3.821   1.837  15.087 -2.6484  0.2341  0.2890
  668TMC3    C7 9944   3.602   1.702  15.077  0.1590  0.0278 -0.1872
  668TMC3    C8 9945   3.939   2.007  14.937 -0.4827 -0.7798  0.6470
  668TMC3    O1 9946   3.654   1.724  15.183 -0.1261 -0.4699  0.4837
  668TMC3    O2 9947   3.960   2.013  15.059  0.1199  0.2857 -0.1532
  669TMC3    C1 9948   1.670   1.333  14.482  0.0303  0.0163  0.0533
  669TMC3    C2 9949   1.548   1.360  14.430  0.3481  1.0944 -0.0695
  669TMC3    C3 9950   1.543   1.418  14.307  0.1268 -0.1215  0.2190
  669TMC3    C4 9951   1.788   1.365  14.416 -0.2632 -0.7589 -0.6222
  669TMC3    C5 9952   1.775   1.434  14.298  0.0449  0.1690 -0.2241
  669TMC3    C6 9953   1.653   1.454  14.235 -0.3916 -0.3611 -0.3575
  669TMC3     C 9954   1.663   1.272  14.616 -0.2794 -0.2045 -0.0563
  669TMC3     O 9955   1.553   1.249  14.656  0.1113 -0.4425  0.2942
  669TMC3     H 9956   1.452   1.331  14.472  0.3157  0.5621 -0.5225
  669TMC3    H1 9957   1.886   1.360  14.461 -0.2416  0.7562 -0.5047
  669TMC3    H2 9958   1.648   1.508  14.141  2.9895 -1.4510 -1.1627
  669TMC3    C7 9959   1.892   1.512  14.257 -0.0223 -0.1153  0.5519
  669TMC3    C8 9960   1.411   1.456  14.263  0.4201 -0.2172 -0.0298
  669TMC3    O1 9961   1.955   1.566  14.348  0.5936  0.6601 -0.0724
  669TMC3    O2 9962   1.331   1.366  14.282  0.2249  0.2163  0.0039
  670MPD2     C 9963   4.425   4.112  13.116  0.1105 -0.1537 -0.4621
  670MPD2    C1 9964   4.447   3.985  13.065  0.1844 -0.2888 -0.2817
  670MPD2    C2 9965   4.450   3.879  13.150  0.3788  0.2295  0.5706
  670MPD2    C3 9966   4.433   3.893  13.293  0.1060 -0.0518  0.8517
  670MPD2    C4 9967   4.413   4.026  13.341  0.5249  0.9763  0.0593
  670MPD2    C5 9968   4.406   4.128  13.249  0.1565 -0.6727 -0.2028
  670MPD2     H 9969   4.459   3.778  13.111  0.2119 -0.1111  1.3907
  670MPD2    H1 9970   4.391   4.048  13.445 -0.4879 -1.9575  0.4704
  670MPD2    H2 9971   4.430   4.204  13.059 -1.4820 -0.7454 -1.5697
  670MPD2    H3 9972   4.374   4.226  13.281 -0.0192 -0.8211  0.0706
  670MPD2     N 9973   4.422   3.775  13.370  0.5875  0.1632  0.0936
  670MPD2    H5 9974   4.442   3.691  13.318 -0.1408 -0.0769  0.2022
  670MPD2    N1 9975   4.471   3.972  12.924  0.2121  0.0852 -0.4323
  670MPD2    H7 9976   4.496   3.877  12.898 -2.4283 -0.7720  0.2099
  671TMC3    C1 9977   4.376   3.648  13.563 -0.0638  0.4456  0.1388
  671TMC3    C2 9978   4.398   3.628  13.698 -0.4979  0.2515  0.1085
  671TMC3    C3 9979   4.380   3.505  13.744 -0.6436  0.2411  0.1960
  671TMC3    C4 9980   4.322   3.554  13.486  0.5751 -0.5486 -0.2273
  671TMC3    C5 9981   4.299   3.434  13.539  0.3323  0.6421 -0.1778
  671TMC3    C6 9982   4.344   3.404  13.659 -0.2290  0.0896 -0.0969
  671TMC3     C 9983   4.404   3.781  13.513 -0.5290  0.0608  0.4255
  671TMC3     O 9984   4.403   3.872  13.596  0.7127 -0.8241 -0.0673
  671TMC3     H 9985   4.461   3.697  13.754 -1.4101  1.2667 -0.1134
  671TMC3    H1 9986   4.275   3.579  13.392 -0.3927 -0.4236  0.2902
  671TMC3    H2 9987   4.337   3.299  13.685  0.1656 -0.0903 -0.6928
  671TMC3    C7 9988   4.227   3.339  13.453 -0.6344 -0.7470 -0.4212
  671TMC3    C8 9989   4.469   3.468  13.845  0.4313 -0.0167 -0.4915
  671TMC3    O1 9990   4.141   3.392  13.388  0.1216 -0.2238 -0.5509
  671TMC3    O2 9991   4.470   3.540  13.945  0.5344 -0.2807 -0.0756
  672MPD2     C 9992   0.026   4.418   0.775  0.4119  0.3390 -0.6712
  672MPD2    C1 9993   0.135   4.348   0.734 -0.1256  0.0420 -0.7243
  672MPD2    C2 9994   0.260   4.378   0.787  0.1877 -0.2261  0.5532
  672MPD2    C3 9995   0.272   4.473   0.890  0.0960  0.4503  0.0928
  672MPD2    C4 9996   0.163   4.539   0.931  0.1123  0.4324 -0.1682
  672MPD2    C5 9997   0.046   4.510   0.871 -0.6468 -0.1296  0.3387
  672MPD2     H 9998   0.347   4.333   0.740 -0.9315 -0.2126 -1.5051
  672MPD2    H1 9999   0.163   4.615   1.009 -0.0340  0.7343 -0.4618
  672MPD2    H210000   4.658   4.401   0.741  0.2750  0.7687 -0.4776
  672MPD2    H310001   4.703   4.574   0.911  1.6760  1.0297  2.9026
  672MPD2     N10002   0.394   4.514   0.941 -0.5296  0.1360 -0.4161
  672MPD2    H510003   0.386   4.594   1.004  1.1586  0.6881 -0.8995
  672MPD2    N110004   0.118   4.266   0.619 -0.0772  0.5985 -0.2934
  672MPD2    H710005   0.022   4.269   0.584  0.3953 -1.9299 -1.8376
  673TMC3    C110006   0.163   4.130   0.426 -0.2924 -0.3804  0.1399
  673TMC3    C210007   0.235   4.023   0.381  0.0333 -0.3933 -0.5725
  673TMC3    C310008   0.236   3.995   0.249  0.4677  0.5916  0.2373
  673TMC3    C410009   0.091   4.203   0.341 -0.1575 -0.1072  0.0870
  673TMC3    C510010   0.084   4.166   0.208 -0.1465 -1.4026 -0.5253
  673TMC3    C610011   0.163   4.065   0.157  0.0603  0.4678  0.5216
  673TMC3     C10012   0.207   4.199   0.544  0.0320 -0.4200  0.3906
  673TMC3     O10013   0.321   4.168   0.572  0.3707  0.1927 -0.3204
  673TMC3     H10014   0.291   3.964   0.452  1.2309  0.9094 -0.4481
  673TMC3    H110015   0.055   4.298   0.378  2.1600  1.5771 -2.0228
  673TMC3    H210016   0.188   4.060   0.051 -0.3856  0.3460  0.4234
  673TMC3    C710017   0.016   4.236   0.101 -0.2302 -0.2389 -1.0119
  673TMC3    C810018   0.322   3.888   0.194  0.5267  0.4969 -0.3957
  673TMC3    O110019   0.003   4.199  17.720 -0.2065  0.5455 -0.3698
  673TMC3    O210020   0.271   3.824   0.105  0.2379  0.1585  0.0412
  674MPD2     C10021   4.569   4.501  17.016 -0.3484 -0.3134  0.6907
  674MPD2    C110022   4.548   4.400  17.114 -0.5040  0.0338 -0.0480
  674MPD2    C210023   4.475   4.432  17.231  0.6867  0.1011 -0.2708
  674MPD2    C310024   4.444   4.564  17.261 -0.0713 -0.5681  0.1831
  674MPD2    C410025   4.465   4.660  17.161  0.3362 -0.7707 -0.4654
  674MPD2    C510026   4.526   4.630  17.044 -0.4526 -0.1114  0.4474
  674MPD2     H10027   4.456   4.359  17.309  0.9727  0.9115  0.5562
  674MPD2    H110028   4.420   0.024  17.169  0.0426 -0.8502 -1.1439
  674MPD2    H210029   4.600   4.478  16.915 -1.4785  0.2372  0.2164
  674MPD2    H310030   4.554   4.700  16.966 -0.2448 -1.0623 -0.3303
  674MPD2     N10031   4.365   4.589  17.374  0.2848 -0.5942  0.4559
  674MPD2    H510032   4.347   4.506  17.429 -0.7621 -0.0915  0.8660
  674MPD2    N110033   4.608   4.274  17.092 -0.3390 -0.1208 -0.0742
  674MPD2    H710034   4.653   4.260  17.002  0.1959 -1.1851  0.3529
  675TMC3    C110035   4.686   4.054  17.126 -0.2640  0.0133  0.1818
  675TMC3    C210036   4.692   3.952  17.221 -0.2405 -0.5138 -0.4893
  675TMC3    C310037   0.076   3.883  17.236 -0.0273  0.1124 -0.5485
  675TMC3    C410038   0.052   4.080  17.037 -0.0454 -0.2697  0.5538
  675TMC3    C510039   0.164   4.000  17.051  0.0089  0.0041 -0.2258
  675TMC3    C610040   0.183   3.911  17.152  0.4212 -0.0755  0.4033
  675TMC3     C10041   4.605   4.167  17.175 -0.0001 -0.0448 -0.0850
  675TMC3     O10042   4.563   4.154  17.287  0.2877  0.4332  0.1266
  675TMC3     H10043   4.612   3.928  17.290 -1.1042 -1.7233 -1.9246
  675TMC3    H110044   0.048   4.165  16.970 -0.6914 -0.8216 -0.1183
  675TMC3    H210045   0.268   3.845  17.158  0.6678  0.3042  1.1332
  675TMC3    C710046   0.286   4.040  16.977 -0.1449  0.1083  0.4583
  675TMC3    C810047   0.063   3.763  17.318 -0.0074 -0.0722  0.0401
  675TMC3    O110048   0.258   4.114  16.881  0.3754 -0.6116  0.1664
  675TMC3    O210049   0.134   3.668  17.283 -0.2191 -0.2962  0.1790
  676MPD2     C10050   3.254   2.281  11.022 -0.3927  0.7880  0.8948
  676MPD2    C110051   3.170   2.223  11.116 -0.5560  0.1427  0.1987
  676MPD2    C210052   3.104   2.108  11.098 -0.4616  0.3660 -0.5097
  676MPD2    C310053   3.119   2.038  10.980  0.1537  0.5674 -0.3062
  676MPD2    C410054   3.207   2.084  10.887 -0.2208 -0.2476 -0.0015
  676MPD2    C510055   3.259   2.217  10.901  0.1126  0.3712  0.3074
  676MPD2     H10056   3.034   2.069  11.171 -0.5232  1.8810  0.2526
  676MPD2    H110057   3.223   2.034  10.792 -1.3363 -0.9326  0.1669
  676MPD2    H210058   3.304   2.377  11.033  0.4910  0.8158 -3.3945
  676MPD2    H310059   3.320   2.264  10.825 -0.9716 -1.8741 -1.9647
  676MPD2     N10060   3.046   1.920  10.944 -0.2295  0.9571 -0.3988
  676MPD2    H510061   3.072   1.878  10.856 -0.7283  3.6839 -1.8248
  676MPD2    N110062   3.149   2.288  11.240  0.1944 -0.2755 -0.8567
  676MPD2    H710063   3.078   2.246  11.299 -0.4257  0.4318 -1.0982
  677TMC3    C110064   3.175   2.431  11.423 -0.5408 -0.0499 -1.1998
  677TMC3    C210065   3.107   2.340  11.496  0.0452  0.3104 -0.2810
  677TMC3    C310066   3.064   2.376  11.624  0.3232 -0.5470  0.3314
  677TMC3    C410067   3.191   2.562  11.460 -0.0110  0.4614 -0.5683
  677TMC3    C510068   3.131   2.598  11.578 -0.7449 -0.2940 -0.4922
  677TMC3    C610069   3.083   2.505  11.665 -0.1282  0.4358  1.2791
  677TMC3     C10070   3.197   2.406  11.279  0.6108 -0.1827 -0.2361
  677TMC3     O10071   3.255   2.494  11.215 -0.4832 -0.6520  0.7078
  677TMC3     H10072   3.104   2.237  11.463  0.5748  0.5524 -1.0790
  677TMC3    H110073   3.260   2.627  11.408  1.6539 -1.8236 -1.2223
  677TMC3    H210074   3.033   2.542  11.754  0.5995 -1.2900  2.4005
  677TMC3    C710075   3.183   2.718  11.652 -0.2580  0.4719 -0.0580
  677TMC3    C810076   3.065   2.282  11.731 -0.6518 -0.4413  0.3949
  677TMC3    O110077   3.202   2.709  11.774  0.5278  0.1398 -0.0707
  677TMC3    O210078   3.051   2.326  11.844 -0.1899  0.1571  0.3662
  678MPD2     C10079   4.439   3.145   1.012 -0.4903 -0.3720  0.7592
  678MPD2    C110080   4.392   3.133   0.881  0.2356  0.4119 -0.0043
  678MPD2    C210081   4.260   3.099   0.851  0.0957  0.4741  0.1312
  678MPD2    C310082   4.169   3.077   0.956 -1.1682  0.2384  0.3491
  678MPD2    C410083   4.219   3.085   1.088 -0.0513 -0.1320 -0.0315
  678MPD2    C510084   4.352   3.115   1.115  0.5212 -0.8705  0.3769
  678MPD2     H10085   4.227   3.094   0.748 -0.1237 -1.7743  0.3041
  678MPD2    H110086   4.159   3.066   1.176 -0.6676 -0.2464 -0.4779
  678MPD2    H210087   4.540   3.180   1.031 -0.2300 -0.7312  0.0512
  678MPD2    H310088   4.396   3.134   1.212 -0.4203  1.2839  0.3809
  678MPD2     N10089   4.034   3.032   0.925 -0.3913 -0.1001 -0.3327
  678MPD2    H510090   4.002   3.015   0.830  0.3723  1.2139 -0.8196
  678MPD2    N110091   4.482   3.169   0.776 -0.1869 -0.7031 -0.2601
  678MPD2    H710092   4.440   3.163   0.684  2.7468 -1.9739 -1.5177
  679TMC3    C110093   0.138   3.264   0.537  0.2562  0.2051  0.4407
  679TMC3    C210094   0.067   3.197   0.636  0.4776  0.4378 -0.6636
  679TMC3    C310095   4.661   3.217   0.645  0.1738 -0.2834  0.3082
  679TMC3    C410096   0.064   3.331   0.445 -0.5642  0.1364  0.1933
  679TMC3    C510097   4.661   3.338   0.455  0.0734  0.6302 -0.1283
  679TMC3    C610098   4.589   3.294   0.560  0.4595 -0.1590 -0.2068
  679TMC3     C10099   0.235   3.184   0.470 -0.6615  0.8952 -0.2814
  679TMC3     O10100   0.214   3.166   0.351  0.1065  0.3515  0.1532
  679TMC3     H10101   0.116   3.122   0.697  0.6846 -1.6185 -3.3725
  679TMC3    H110102   0.111   3.374   0.357 -1.5266  1.4575  0.3194
  679TMC3    H210103   4.481   3.289   0.551  0.4370  0.3477 -0.2110
  679TMC3    C710104   4.596   3.312   0.327 -0.1471  0.1000 -0.2475
  679TMC3    C810105   4.612   3.197   0.777 -0.1401 -0.2823 -0.0137
  679TMC3    O110106   4.490   3.360   0.311 -0.2471  0.3526  0.1250
  679TMC3    O210107   4.688   3.190   0.872 -0.0295  0.0069  0.1221
  680MPD2     C10108   3.633   0.369  13.568 -0.2379  1.1539 -0.0448
  680MPD2    C110109   3.741   0.378  13.659  0.5521  0.3745 -1.1122
  680MPD2    C210110   3.717   0.428  13.786 -1.0102 -0.9755 -0.1067
  680MPD2    C310111   3.593   0.484  13.822  0.2027 -0.6805 -0.5262
  680MPD2    C410112   3.489   0.487  13.728  0.1731 -0.3914  0.2340
  680MPD2    C510113   3.513   0.424  13.614 -0.1361  0.9144 -0.2767
  680MPD2     H10114   3.799   0.432  13.856 -0.3542 -1.7833 -0.8218
  680MPD2    H110115   3.392   0.530  13.748  0.0775 -1.4525  2.1232
  680MPD2    H210116   3.648   0.320  13.472 -0.8832 -0.7856  0.8515
  680MPD2    H310117   3.431   0.434  13.543  0.9488 -2.5896 -2.0488
  680MPD2     N10118   3.575   0.550  13.952 -0.0055  0.1984 -0.1135
  680MPD2    H510119   3.479   0.580  13.967  0.1970  1.4828 -1.3304
  680MPD2    N110120   3.875   0.339  13.624 -0.2462  0.1012  0.3067
  680MPD2    H710121   3.943   0.343  13.700 -0.1091  1.0011  0.1443
  681TMC3    C110122   4.062   0.290  13.496  0.1688  0.4205  0.6315
  681TMC3    C210123   4.128   0.259  13.614 -0.1991 -0.8227 -0.2539
  681TMC3    C310124   4.265   0.265  13.608 -0.0650 -0.5010 -1.0803
  681TMC3    C410125   4.126   0.281  13.378  0.3868  0.0804 -0.3034
  681TMC3    C510126   4.263   0.290  13.374 -0.5141 -0.0774 -0.1282
  681TMC3    C610127   4.331   0.286  13.491 -0.3428  0.0664  0.0164
  681TMC3     C10128   3.921   0.315  13.496  0.2064  0.0397 -0.4645
  681TMC3     O10129   3.859   0.325  13.387  0.0029 -0.3303 -0.6407
  681TMC3     H10130   4.078   0.230  13.705 -0.9571  2.0985  0.2433
  681TMC3    H110131   4.068   0.292  13.286 -0.4661  0.4372  0.2702
  681TMC3    H210132   4.439   0.288  13.505 -0.4415  0.3791  0.7273
  681TMC3    C710133   4.323   0.300  13.242 -0.1175 -0.0920 -0.5622
  681TMC3    C810134   4.331   0.218  13.730  0.3215  0.3917  0.4357
  681TMC3    O110135   4.265   0.243  13.151 -0.3978  0.3395 -0.7046
  681TMC3    O210136   4.420   0.138  13.707  0.0086 -0.0152 -0.0063
  682MPD2     C10137   1.739   3.058  10.577  0.4770 -0.1555 -0.7465
  682MPD2    C110138   1.681   2.937  10.552  0.6249 -0.0235  0.3105
  682MPD2    C210139   1.603   2.878  10.647  0.3445 -0.5288 -0.1260
  682MPD2    C310140   1.554   2.941  10.753  0.8367 -0.2974  0.2157
  682MPD2    C410141   1.595   3.071  10.771  0.0659 -1.2178 -0.1802
  682MPD2    C510142   1.693   3.125  10.688  0.4076  0.0569  0.1206
  682MPD2     H10143   1.578   2.774  10.632  0.4387 -0.4141 -1.0599
  682MPD2    H110144   1.562   3.137  10.851 -0.3976  0.3787 -1.6894
  682MPD2    H210145   1.815   3.098  10.510  0.6395  1.5245  0.4383
  682MPD2    H310146   1.740   3.220  10.712  0.0894  0.2409  0.0088
  682MPD2     N10147   1.468   2.870  10.840 -0.1664  0.2833  0.4470
  682MPD2    H510148   1.452   2.911  10.932 -2.6594 -2.2550  1.1571
  682MPD2    N110149   1.702   2.856  10.447 -0.4344  0.0352  0.2092
  682MPD2    H710150   1.657   2.765  10.445 -2.0727  0.8306  0.6662
  683TMC3    C110151   1.447   2.542  11.104 -0.7030  0.4419  0.4290
  683TMC3    C210152   1.367   2.436  11.075  0.5791 -0.4092 -0.5653
  683TMC3    C310153   1.290   2.454  10.960 -0.5458 -0.5884 -0.8864
  683TMC3    C410154   1.445   2.662  11.037  0.0956 -0.6741 -0.7033
  683TMC3    C510155   1.372   2.667  10.926  0.6735  0.1735 -0.7915
  683TMC3    C610156   1.290   2.569  10.889  0.9563  0.2947 -0.1791
  683TMC3     C10157   1.505   2.544  11.240 -0.1974  0.3645  0.3226
  683TMC3     O10158   1.594   2.635  11.255 -0.8625  0.2829  0.0560
  683TMC3     H10159   1.355   2.342  11.128 -0.0585 -0.0320 -0.0388
  683TMC3    H110160   1.499   2.750  11.071  2.3592 -1.3851 -2.4600
  683TMC3    H210161   1.252   2.556  10.788 -1.7694 -1.4365  1.0444
  683TMC3    C710162   1.408   2.755  10.812 -0.2727 -0.6747 -0.2410
  683TMC3    C810163   1.209   2.347  10.908 -0.0764  0.2153 -0.5361
  683TMC3    O110164   1.364   2.717  10.702  0.4799 -0.2705 -0.4407
  683TMC3    O210165   1.103   2.371  10.848 -0.0108  0.1225  0.1571
  684MPD2     C10166   4.620   1.653  16.378  0.5292  0.0962 -0.2930
  684MPD2    C110167   4.597   1.714  16.254  0.2792  0.5850  0.0506
  684MPD2    C210168   4.575   1.850  16.257  0.0593 -0.3326  0.5283
  684MPD2    C310169   4.572   1.929  16.371 -0.4444 -0.9437 -0.3829
  684MPD2    C410170   4.604   1.868  16.486 -0.2330 -0.1193  0.8828
  684MPD2    C510171   4.620   1.733  16.494  0.6128 -0.2039 -0.1320
  684MPD2     H10172   4.563   1.897  16.160 -2.2330 -0.9910  0.4774
  684MPD2    H110173   4.619   1.920  16.580  2.0294  0.9622 -0.0661
  684MPD2    H210174   4.639   1.546  16.376 -0.7733 -0.1615  0.6596
  684MPD2    H310175   4.640   1.687  16.590 -0.6030 -0.5664 -0.0477
  684MPD2     N10176   4.558   2.069  16.364 -0.2267  0.4658  0.7034
  684MPD2    H510177   4.585   2.122  16.447  1.0258  3.3930 -1.5505
  684MPD2    N110178   4.602   1.656  16.128  0.4589  0.2211  0.1143
  684MPD2    H710179   4.604   1.721  16.050 -0.9131 -0.8760 -0.8625
  685TMC3    C110180   4.699   1.521  15.964  0.4134  0.5209  0.5752
  685TMC3    C210181   4.603   1.560  15.880  0.3017 -0.5856 -0.0030
  685TMC3    C310182   4.643   1.560  15.749 -0.0691  0.0912  0.4285
  685TMC3    C410183   0.094   1.498  15.928  0.8088  0.6333 -0.2932
  685TMC3    C510184   0.135   1.529  15.803 -0.3401 -0.1622 -0.5036
  685TMC3    C610185   0.037   1.545  15.706  0.2692 -0.4258  0.2419
  685TMC3     C10186   4.667   1.536  16.102 -0.8754 -0.1672 -0.4300
  685TMC3     O10187   0.002   1.467  16.171 -0.6539 -0.3581  0.3651
  685TMC3     H10188   4.501   1.558  15.917  0.8503  0.8772  1.5677
  685TMC3    H110189   0.157   1.458  16.007 -0.0468 -1.8480 -0.8705
  685TMC3    H210190   0.064   1.557  15.602  0.8488 -0.7638  0.3502
  685TMC3    C710191   0.271   1.566  15.775  0.1709 -0.0678 -0.7559
  685TMC3    C810192   4.530   1.544  15.655  0.6645  0.0753 -0.7493
  685TMC3    O110193   0.305   1.582  15.657 -0.8391  0.2137 -0.0382
  685TMC3    O210194   4.542   1.462  15.564  0.0836  0.0849 -0.0509
  686MPD2     C10195   1.461   1.977  15.496  0.0036  0.3482  0.2049
  686MPD2    C110196   1.448   1.876  15.584 -0.5725  0.2580  0.1846
  686MPD2    C210197   1.562   1.791  15.609  0.1945  0.7179 -0.5437
  686MPD2    C310198   1.678   1.803  15.531 -0.2919 -0.1598 -0.1390
  686MPD2    C410199   1.686   1.912  15.446  0.0956  0.6536  0.5422
  686MPD2    C510200   1.575   1.993  15.431 -0.2025 -0.2928 -0.6612
  686MPD2     H10201   1.550   1.693  15.654 -1.7820  0.4483 -1.6744
  686MPD2    H110202   1.778   1.937  15.394  0.6482 -0.2054  1.1231
  686MPD2    H210203   1.379   2.046  15.479  1.3088  1.6714 -0.7239
  686MPD2    H310204   1.581   2.077  15.362  2.0714 -0.0066 -0.1185
  686MPD2     N10205   1.798   1.724  15.537  0.5012 -0.1090 -0.4087
  686MPD2    H510206   1.863   1.740  15.460  1.1298 -0.9046 -0.0471
  686MPD2    N110207   1.329   1.874  15.662 -0.7160  0.0670 -0.3574
  686MPD2    H710208   1.262   1.945  15.635 -0.2247  0.7317  0.1858
  687TMC3    C110209   1.747   1.587  15.731 -0.2390  0.5434  0.6821
  687TMC3    C210210   1.687   1.464  15.752  0.1252 -0.1222 -0.0199
  687TMC3    C310211   1.654   1.430  15.880  0.2364 -0.2292  0.0215
  687TMC3    C410212   1.785   1.663  15.841  0.1626  0.0570 -0.2345
  687TMC3    C510213   1.774   1.613  15.967 -0.0916 -0.0080 -0.3150
  687TMC3    C610214   1.701   1.501  15.991  0.7825  0.0902 -0.2043
  687TMC3     C10215   1.806   1.599  15.602 -0.0408 -0.0041  0.3114
  687TMC3     O10216   1.896   1.518  15.577 -0.2465  0.3568  0.1934
  687TMC3     H10217   1.687   1.404  15.662  0.0515 -0.0042 -0.0991
  687TMC3    H110218   1.846   1.750  15.815 -3.2135  1.9438 -1.7946
  687TMC3    H210219   1.676   1.470  16.091 -0.1577 -0.2921 -0.5580
  687TMC3    C710220   1.798   1.705  16.078 -0.1734 -0.1711  0.1766
  687TMC3    C810221   1.531   1.360  15.899 -0.3438 -0.4764 -0.1639
  687TMC3    O110222   1.783   1.826  16.048  0.2758 -0.0399 -0.0660
  687TMC3    O210223   1.484   1.332  16.011  0.1365  0.0198  0.1156
  688MPD2     C10224   0.445   0.802  17.222 -0.5078  0.4847 -0.3407
  688MPD2    C110225   0.486   0.671  17.259 -0.0530  0.4770 -0.0436
  688MPD2    C210226   0.605   0.620  17.208  0.0009  0.2955  0.6200
  688MPD2    C310227   0.683   0.703  17.128 -0.8036  0.2337  0.0691
  688MPD2    C410228   0.638   0.830  17.100  0.1815 -0.7998 -0.3307
  688MPD2    C510229   0.517   0.871  17.147 -0.6475  0.4163 -0.1959
  688MPD2     H10230   0.631   0.522  17.245 -0.4349  0.4404  1.3082
  688MPD2    H110231   0.692   0.894  17.031 -0.3932  1.9086  1.7156
  688MPD2    H210232   0.342   0.828  17.245 -0.6925  0.4608 -1.1545
  688MPD2    H310233   0.480   0.972  17.134  0.1122  0.5076 -1.6840
  688MPD2     N10234   0.784   0.654  17.037 -0.0381  0.3193 -0.3576
  688MPD2    H510235   0.826   0.721  16.974 -2.6885 -0.0291 -2.5260
  688MPD2    N110236   0.419   0.587  17.355  0.1324  0.4886 -0.2237
  688MPD2    H710237   0.444   0.489  17.352  0.1235  0.4378  1.3483
  689TMC3    C110238   0.276   0.532  17.536  0.1375  0.5697  0.4152
  689TMC3    C210239   0.266   0.572  17.666  0.4984  0.7271 -0.5085
  689TMC3    C310240   0.214   0.494   0.026  0.6045  0.1904 -0.1653
  689TMC3    C410241   0.246   0.397  17.505  0.3059 -0.2715 -0.0600
  689TMC3    C510242   0.190   0.317  17.607 -0.1987  0.0555 -0.3952
  689TMC3    C610243   0.178   0.364  17.734 -0.2136 -0.0936  0.7054
  689TMC3     C10244   0.321   0.637  17.443  0.4482 -0.2286  0.2710
  689TMC3     O10245   0.277   0.747  17.467 -0.0028  0.3531  0.3987
  689TMC3     H10246   0.317   0.663  17.697 -0.0305 -0.0727  2.7882
  689TMC3    H110247   0.279   0.361  17.409  0.1046  0.1323 -0.2842
  689TMC3    H210248   0.125   0.301   0.068 -1.3526  0.1943  0.1038
  689TMC3    C710249   0.191   0.169  17.589 -0.3968  0.6832  1.1350
  689TMC3    C810250   0.180   0.549   0.156 -0.5081  0.3877  0.5396
  689TMC3    O110251   0.221   0.099  17.688 -0.4286  0.0347 -0.0644
  689TMC3    O210252   0.164   0.474   0.253  0.5202  0.0051  0.2082
  690MPD2     C10253   2.604   2.533  15.447  0.1502 -0.3143  0.2076
  690MPD2    C110254   2.618   2.429  15.357  0.2809 -0.2485 -0.6340
  690MPD2    C210255   2.718   2.440  15.264  0.1201 -0.1826  0.1699
  690MPD2    C310256   2.807   2.547  15.266  0.1202 -0.7016  0.8820
  690MPD2    C410257   2.796   2.644  15.363 -0.3359  0.5354  0.4729
  690MPD2    C510258   2.692   2.637  15.453  0.2393  0.3209 -0.3212
  690MPD2     H10259   2.732   2.362  15.189  1.0540 -0.2904  0.4620
  690MPD2    H110260   2.857   2.733  15.371 -0.2228  0.5912 -1.1530
  690MPD2    H210261   2.516   2.533  15.511 -1.2474 -2.5722 -1.7363
  690MPD2    H310262   2.678   2.714  15.527  1.1927  1.1861 -1.0363
  690MPD2     N10263   2.917   2.545  15.177 -0.1238  0.1020 -0.2302
  690MPD2    H510264   2.925   2.458  15.124 -0.4833 -0.7514  1.1066
  690MPD2    N110265   2.523   2.325  15.341  0.5460 -0.2575  0.4864
  690MPD2    H710266   2.556   2.236  15.306 -0.9171 -0.2816 -0.8403
  691TMC3    C110267   2.355   2.206  15.454 -0.6250 -0.0714 -0.4179
  691TMC3    C210268   2.245   2.219  15.537  0.1493 -0.5346 -0.3580
  691TMC3    C310269   2.189   2.101  15.578  0.0988 -0.2707 -0.0025
  691TMC3    C410270   2.417   2.088  15.413  0.3429 -0.2823 -0.0378
  691TMC3    C510271   2.357   1.972  15.461  0.1031 -0.5911 -0.0086
  691TMC3    C610272   2.246   1.980  15.545 -0.0558  0.1101  0.4602
  691TMC3     C10273   2.405   2.331  15.400 -0.2834  0.3854 -0.4459
  691TMC3     O10274   2.350   2.430  15.441  0.0869  0.5036  0.0927
  691TMC3     H10275   2.205   2.315  15.569 -0.3824 -0.9482  0.2370
  691TMC3    H110276   2.502   2.074  15.347  0.0781 -1.2728 -0.1675
  691TMC3    H210277   2.196   1.890  15.580 -0.2887 -1.6337 -4.2752
  691TMC3    C710278   2.425   1.845  15.447 -0.0522 -0.1984 -0.6712
  691TMC3    C810279   2.061   2.089  15.639 -0.2556  0.1699 -0.3022
  691TMC3    O110280   2.544   1.841  15.443 -0.0509 -0.0276  0.0224
  691TMC3    O210281   2.039   1.984  15.696 -0.2516  0.5545  0.2420
  692TMC3    C110282   4.354   3.341  15.547 -0.5758  0.4153  0.0469
  692TMC3    C210283   4.484   3.380  15.580 -0.0274  0.0100  0.7568
  692TMC3    C310284   4.580   3.290  15.589 -0.1668  0.8218  0.5257
  692TMC3    C410285   4.320   3.206  15.547  0.9848  0.3209  0.1343
  692TMC3    C510286   4.421   3.122  15.563 -0.5035  0.0369  0.6042
  692TMC3    C610287   4.550   3.153  15.588 -0.1122  0.5533  0.0664
  692TMC3     C10288   4.242   3.444  15.540  0.9410  0.2659  0.2641
  692TMC3     O10289   4.126   3.408  15.546 -0.2289  0.3362  0.4101
  692TMC3     H10290   4.518   3.482  15.565 -1.7596  0.2907 -1.2593
  692TMC3    H110291   4.219   3.167  15.539  1.5633 -0.9054 -1.1181
  692TMC3    H210292   4.638   3.091  15.576 -0.4715  0.1190 -0.2952
  692TMC3    C710293   4.384   2.983  15.565 -0.6852 -0.2149  0.0926
  692TMC3    C810294   4.675   3.322  15.692 -0.3631  0.4081 -0.8605
  692TMC3    O110295   4.282   2.946  15.503 -0.2132 -0.1725 -0.0687
  692TMC3    O210296   0.010   3.236  15.744 -0.5534  0.3362 -0.2805
  693MPD2     C10297   3.729   1.243  10.478 -1.3510  0.3370 -0.6364
  693MPD2    C110298   3.679   1.116  10.452  0.2934 -0.4028 -0.3920
  693MPD2    C210299   3.769   1.017  10.422 -0.3902  0.0689  0.3091
  693MPD2    C310300   3.904   1.040  10.421  0.2816  0.3331  0.2939
  693MPD2    C410301   3.953   1.168  10.438 -0.9079 -0.5320  0.1045
  693MPD2    C510302   3.864   1.273  10.462  0.9921  0.6061  0.5802
  693MPD2     H10303   3.733   0.915  10.427 -0.8053  0.2875  1.8649
  693MPD2    H110304   4.058   1.195  10.442 -1.2273  0.6570  0.5645
  693MPD2    H210305   3.667   1.331  10.483 -0.7740  0.5898  2.1923
  693MPD2    H310306   3.901   1.374  10.473  2.0963  0.5412 -2.7921
  693MPD2     N10307   4.008   0.937  10.414 -1.2062 -0.1462 -0.2098
  693MPD2    H510308   4.106   0.958  10.429 -0.6814 -2.5508 -0.3462
  693MPD2    N110309   3.541   1.082  10.480 -0.1367 -0.0901 -0.0376
  693MPD2    H710310   3.481   1.154  10.518 -0.0928  0.2179 -0.5475
  694TMC3    C110311   3.350   0.962  10.519 -0.7784  0.2313 -0.3702
  694TMC3    C210312   3.257   0.880  10.465  0.6301  0.0092  0.7556
  694TMC3    C310313   3.150   0.853  10.543  0.0924 -0.1723 -0.2647
  694TMC3    C410314   3.348   1.002  10.652 -0.3450 -0.6321  0.4115
  694TMC3    C510315   3.236   0.968  10.724  0.2206 -0.3476  0.7364
  694TMC3    C610316   3.129   0.908  10.664 -0.5882  0.1904  0.5309
  694TMC3     C10317   3.476   0.967  10.448  0.5561 -0.1581  0.2797
  694TMC3     O10318   3.505   0.874  10.371 -0.5239 -0.2846  0.3362
  694TMC3     H10319   3.270   0.852  10.360  3.1434 -2.7876  1.7830
  694TMC3    H110320   3.434   1.049  10.699  0.4587 -0.7228 -0.9511
  694TMC3    H210321   3.034   0.899  10.715 -0.6262 -1.2060  0.2127
  694TMC3    C710322   3.231   1.011  10.861  0.2747 -0.4102  0.8663
  694TMC3    C810323   3.039   0.789  10.484  0.8958  0.0432 -0.0366
  694TMC3    O110324   3.310   1.092  10.905  0.1398 -0.1209  0.3797
  694TMC3    O210325   2.937   0.786  10.553  0.0385 -0.3908 -0.5971
  695MPD2     C10326   0.436   3.391  12.991 -0.2502  0.2277 -0.5571
  695MPD2    C110327   0.356   3.289  13.035  0.0295  0.8769 -0.0509
  695MPD2    C210328   0.235   3.265  12.970  1.1283  0.1722 -0.1827
  695MPD2    C310329   0.185   3.355  12.875  0.3216  0.1343  0.4254
  695MPD2    C410330   0.279   3.448  12.828 -0.2098 -0.1314 -0.1134
  695MPD2    C510331   0.405   3.461  12.882 -0.0289 -0.8020 -0.6567
  695MPD2     H10332   0.172   3.185  13.006 -1.4901  1.6296 -1.5355
  695MPD2    H110333   0.266   3.505  12.737 -3.9850 -0.9085 -0.0584
  695MPD2    H210334   0.534   3.418  13.029 -0.0299  0.0598 -1.0152
  695MPD2    H310335   0.475   3.529  12.834  0.6488 -1.0893 -0.0851
  695MPD2     N10336   0.054   3.353  12.824  0.1681  0.3864  0.5356
  695MPD2    H510337   4.723   3.279  12.849  0.6922  0.3074  1.6832
  695MPD2    N110338   0.388   3.202  13.140  0.2455  0.0886 -0.1560
  695MPD2    H710339   0.312   3.143  13.172  0.8778 -1.0631 -0.7835
  696TMC3    C110340   4.599   3.406  12.698 -0.6920  0.9704  0.0850
  696TMC3    C210341   4.549   3.288  12.747  0.9208 -0.3249 -0.2369
  696TMC3    C310342   4.418   3.293  12.795  0.0454  1.1354 -0.0723
  696TMC3    C410343   4.523   3.517  12.686 -0.1210 -0.0111 -0.4259
  696TMC3    C510344   4.390   3.512  12.727  0.0646 -0.0028  1.0249
  696TMC3    C610345   4.330   3.396  12.780 -0.0056  0.0670  0.1044
  696TMC3     C10346   0.003   3.448  12.747 -0.7066  0.0320 -0.2708
  696TMC3     O10347   0.039   3.565  12.726  0.0830 -0.5848  0.1092
  696TMC3     H10348   4.613   3.201  12.753  1.7789  0.2847 -0.6203
  696TMC3    H110349   4.568   3.609  12.651  0.3722  0.4620  1.4646
  696TMC3    H210350   4.226   3.390  12.810 -0.0804 -1.5735 -0.4587
  696TMC3    C710351   4.315   3.639  12.733 -0.8267 -0.5730  0.4958
  696TMC3    C810352   4.376   3.173  12.863  0.2715  0.2355  0.2436
  696TMC3    O110353   4.348   3.723  12.651  0.0679 -0.4333  0.3764
  696TMC3    O210354   4.438   3.072  12.834 -0.0532 -0.3811  0.3310
  697MPD2     C10355   4.238   0.101  15.916 -0.5289 -0.0747 -0.5468
  697MPD2    C110356   4.208   0.110  15.779 -0.4900  0.2610 -0.4442
  697MPD2    C210357   4.212   0.238  15.721 -0.5116 -0.0284  0.4754
  697MPD2    C310358   4.256   0.346  15.785  0.4355 -0.4254 -0.4159
  697MPD2    C410359   4.297   0.336  15.914  0.1866  0.0493  0.4156
  697MPD2    C510360   4.278   0.216  15.980  0.5135 -0.6101  0.3189
  697MPD2     H10361   4.201   0.251  15.614 -0.4307  3.4512  0.8860
  697MPD2    H110362   4.315   0.420  15.980 -0.4690  0.7448 -0.2937
  697MPD2    H210363   4.209   0.014  15.972  0.5419 -0.5216 -0.6958
  697MPD2    H310364   4.281   0.214  16.089 -1.3757 -1.0972  0.3598
  697MPD2     N10365   4.257   0.471  15.713  0.4426  0.4783  0.0777
  697MPD2    H510366   4.219   0.471  15.619 -1.9785 -0.8567  1.0548
  697MPD2    N110367   4.177   0.006  15.695 -0.3516 -0.1463  0.4293
  697MPD2    H710368   4.160   0.034  15.599  3.6656 -0.7370 -0.4687
  698TMC3    C110369   4.331   0.676  15.646  0.4214  0.2587  0.1102
  698TMC3    C210370   4.455   0.698  15.608  0.1186  0.3004 -0.4677
  698TMC3    C310371   4.468   0.731  15.471 -0.0724 -0.8886  0.6151
  698TMC3    C410372   4.222   0.671  15.561 -0.0933 -0.5040 -0.3527
  698TMC3    C510373   4.241   0.708  15.433  0.8698  0.1281 -0.0308
  698TMC3    C610374   4.368   0.736  15.382  0.5220 -0.3680  0.1324
  698TMC3     C10375   4.324   0.580  15.756  0.0945 -0.1338 -0.1124
  698TMC3     O10376   4.391   0.597  15.858  0.2171 -0.2339 -0.1206
  698TMC3     H10377   4.534   0.691  15.681 -1.7998 -1.1493  1.4595
  698TMC3    H110378   4.123   0.667  15.605 -1.0602  1.2013 -2.4008
  698TMC3    H210379   4.372   0.738  15.274 -2.2833  1.6701  0.0641
  698TMC3    C710380   4.122   0.725  15.346 -0.2371  0.0547 -0.4018
  698TMC3    C810381   4.605   0.746  15.436  0.1808  0.2198 -0.8888
  698TMC3    O110382   4.021   0.669  15.389 -0.2623 -0.0323 -0.7729
  698TMC3    O210383   4.688   0.716  15.524 -0.1649  0.4093  0.4292
  699TMC3    C110384   3.984   3.049  12.682  0.0836  0.4433  0.9186
  699TMC3    C210385   4.034   2.977  12.787  0.0332 -0.0422  0.6214
  699TMC3    C310386   3.941   2.901  12.858 -0.2234  0.0128  0.3438
  699TMC3    C410387   3.848   3.061  12.663 -0.6222 -0.3003  0.5623
  699TMC3    C510388   3.756   2.991  12.743  0.0622 -0.7917  0.4121
  699TMC3    C610389   3.806   2.910  12.843  0.1697 -0.0617 -0.0780
  699TMC3     C10390   4.065   3.143  12.617  0.5016  0.5018  0.1608
  699TMC3     O10391   4.012   3.252  12.600 -0.2697  0.0076  0.6042
  699TMC3     H10392   4.139   2.995  12.803 -0.0630  0.2761  0.9010
  699TMC3    H110393   3.814   3.119  12.578 -1.5383 -0.2944  0.9395
  699TMC3    H210394   3.734   2.866  12.910  1.9716  0.9459  2.5224
  699TMC3    C710395   3.648   3.077  12.780 -0.0972 -0.2569 -0.1719
  699TMC3    C810396   3.993   2.820  12.965  0.6832  0.6838  0.7276
  699TMC3    O110397   3.632   3.090  12.902  0.5588 -0.1275  0.5436
  699TMC3    O210398   3.911   2.773  13.042 -0.1864  0.1777 -0.0540
  700TMC3    C110399   3.208   1.028  17.062  0.1282 -0.8598  0.1301
  700TMC3    C210400   3.300   0.932  17.024  1.1717 -0.2575  0.0133
  700TMC3    C310401   3.415   0.907  17.100 -0.5079  0.3541  0.0814
  700TMC3    C410402   3.249   1.121  17.156 -0.6548 -0.3241  0.0272
  700TMC3    C510403   3.373   1.111  17.210 -0.5722  0.1308 -1.4316
  700TMC3    C610404   3.457   1.007  17.184 -0.7814  0.8165  0.0247
  700TMC3     C10405   3.146   1.103  16.952  0.3208 -0.2472 -0.1582
  700TMC3     O10406   3.036   1.144  16.985 -0.6628 -0.3121  0.0695
  700TMC3     H10407   3.286   0.865  16.939  2.1272  1.0716 -1.1914
  700TMC3    H110408   3.175   1.190  17.194  0.0324 -0.2425  1.2263
  700TMC3    H210409   3.554   1.015  17.232 -1.1720  1.2621  0.7389
  700TMC3    C710410   3.436   1.235  17.246 -0.2718  0.3932 -0.3863
  700TMC3    C810411   3.493   0.785  17.072 -0.0207  0.1312 -0.9113
  700TMC3    O110412   3.537   1.243  17.314  0.4484  0.1037  0.5079
  700TMC3    O210413   3.609   0.775  17.113  0.6391 -0.0280  0.6414
  701TMC3    C110414   3.290   4.199  15.406  0.0248  0.2774  0.2043
  701TMC3    C210415   3.328   4.145  15.288  0.5740 -0.7991  0.0613
  701TMC3    C310416   3.459   4.163  15.245  0.2974 -0.5891 -0.2762
  701TMC3    C410417   3.375   4.283  15.476  0.3465  0.7844 -0.3227
  701TMC3    C510418   3.503   4.298  15.426 -0.9379  0.0241 -0.1083
  701TMC3    C610419   3.546   4.236  15.312 -0.2030 -0.0084 -0.1435
  701TMC3     C10420   3.207   4.126  15.500  0.3360  0.1276  0.0972
  701TMC3     O10421   3.188   4.181  15.609  0.4542  0.5688  0.3027
  701TMC3     H10422   3.250   4.111  15.220  2.7612 -5.8574  0.0563
  701TMC3    H110423   3.340   4.341  15.561  1.9882 -0.7081  1.3867
  701TMC3    H210424   3.640   4.257  15.263  0.5345 -0.8643  0.9057
  701TMC3    C710425   3.581   4.409  15.478 -0.1712  0.2354  0.0800
  701TMC3    C810426   3.506   4.104  15.118 -0.2170  0.2586 -0.5663
  701TMC3    O110427   3.632   4.489  15.398 -0.5949 -0.3150  0.2786
  701TMC3    O210428   3.609   4.147  15.075  0.4759  0.4865  0.2598
  702MPD2     C10429   3.021   1.541  10.351  0.3399  0.1844  0.2489
  702MPD2    C110430   3.007   1.664  10.418  0.5517  0.3116  0.6380
  702MPD2    C210431   3.044   1.783  10.364 -0.0494  0.6565 -0.4465
  702MPD2    C310432   3.099   1.776  10.239  0.0977  0.4626  0.1953
  702MPD2    C410433   3.117   1.656  10.175  0.4699  0.4654  0.0268
  702MPD2    C510434   3.070   1.540  10.223 -0.3775  0.2811  0.0172
  702MPD2     H10435   3.025   1.876  10.415 -2.7915  0.4115 -1.0200
  702MPD2    H110436   3.175   1.651  10.084 -1.0105 -0.6624 -0.8602
  702MPD2    H210437   2.999   1.443  10.392 -1.0107 -0.0292 -1.0088
  702MPD2    H310438   3.084   1.451  10.163  2.7591 -0.7497  2.3039
  702MPD2     N10439   3.142   1.900  10.180  0.0855 -0.5627 -0.4134
  702MPD2    H510440   3.137   1.986  10.233  0.0949 -0.6461 -0.2769
  702MPD2    N110441   2.950   1.670  10.554  0.3447 -0.4128 -0.0045
  702MPD2    H710442   2.950   1.764  10.590  1.5671 -0.5022  0.2203
  703TMC3    C110443   3.231   2.057  10.041 -0.2152  0.1945  0.1134
  703TMC3    C210444   3.127   2.147  10.068 -0.2591  0.4210  0.1331
  703TMC3    C310445   3.140   2.280  10.038 -0.2378  0.2240 -0.0683
  703TMC3    C410446   3.352   2.103   9.990  0.7931  0.2739 -0.6089
  703TMC3    C510447   3.361   2.238   9.971 -0.0472  0.2789 -0.7443
  703TMC3    C610448   3.256   2.329   9.994 -0.3920  0.6524 -0.2254
  703TMC3     C10449   3.216   1.920  10.069 -0.4340 -0.2362 -0.1299
  703TMC3     O10450   3.270   1.839   9.997  0.4103 -0.2842 -0.9078
  703TMC3     H10451   3.027   2.109  10.088  0.5522 -0.8980  1.6875
  703TMC3    H110452   3.429   2.030   9.971  2.4052  1.3759  1.6490
  703TMC3    H210453   3.251   2.434   9.968 -0.1597  0.7861  0.2656
  703TMC3    C710454   3.489   2.301   9.980  0.7591 -0.2046 -0.2955
  703TMC3    C810455   3.032   2.372  10.066  0.2851  0.2489 -0.8283
  703TMC3    O110456   3.481   2.424   9.977  0.1541 -0.5368 -0.0877
  703TMC3    O210457   3.037   2.473   9.996 -0.2036  0.2672 -0.4413
  704TMC3    C110458   0.574   0.893  12.152  0.3617  0.1614 -0.1000
  704TMC3    C210459   0.608   0.859  12.020  0.9211  0.1272  0.0281
  704TMC3    C310460   0.742   0.833  11.994 -0.0690 -0.4798  0.5104
  704TMC3    C410461   0.669   0.931  12.247  0.1056  0.1521  0.5237
  704TMC3    C510462   0.801   0.910  12.212  0.0468 -0.4990  0.0429
  704TMC3    C610463   0.840   0.863  12.086  0.6067 -0.4443 -0.0244
  704TMC3     C10464   0.487   0.791  12.218 -0.3365 -0.0539  0.1286
  704TMC3     O10465   0.526   0.772  12.332 -0.9673 -0.7048 -0.1942
  704TMC3     H10466   0.536   0.819  11.950 -0.9988  0.2041  1.9218
  704TMC3    H110467   0.653   0.955  12.352  1.6358 -1.6348  1.1811
  704TMC3    H210468   0.946   0.845  12.076  0.3232 -1.8941 -0.4301
  704TMC3    C710469   0.883   0.857  12.321 -0.4067  0.1905  0.7901
  704TMC3    C810470   0.770   0.754  11.878  0.3677  0.2862 -0.3561
  704TMC3    O110471   1.005   0.870  12.323  0.2547 -0.2001 -0.8228
  704TMC3    O210472   0.677   0.708  11.816  0.5065  0.4683  0.2564
  705MPD2     C10473   4.566   2.920  16.261  0.0083  0.2263 -0.9909
  705MPD2    C110474   4.622   3.049  16.260 -0.2260 -0.1295  0.0951
  705MPD2    C210475   4.532   3.154  16.265 -0.7064  0.1348  0.2075
  705MPD2    C310476   4.398   3.128  16.262  0.2029  0.1312  0.3982
  705MPD2    C410477   4.349   2.999  16.252 -0.2641  0.5544 -0.3314
  705MPD2    C510478   4.432   2.902  16.265 -0.4231 -0.0279 -0.9470
  705MPD2     H10479   4.579   3.252  16.261 -0.3503 -0.0538 -0.2681
  705MPD2    H110480   4.242   2.987  16.243 -0.2829  0.6074 -0.1778
  705MPD2    H210481   4.632   2.834  16.272 -1.1178 -0.3457  1.2179
  705MPD2    H310482   4.399   2.800  16.250 -1.9408  0.0916  1.6046
  705MPD2     N10483   4.298   3.227  16.245 -0.4533  0.0134 -0.3814
  705MPD2    H510484   4.204   3.188  16.234  0.0874 -1.7522  1.1906
  705MPD2    N110485   0.029   3.075  16.255 -0.0800 -0.3281 -0.3518
  705MPD2    H710486   0.063   3.170  16.239 -0.5190 -0.2603 -0.9180
  706TMC3    C110487   0.474   2.985  16.137  0.3866  0.2668  0.7758
  706TMC3    C210488   0.521   3.109  16.166 -0.0513  0.5025  0.5704
  706TMC3    C310489   0.435   3.195  16.227 -0.2930  0.6119  0.1662
  706TMC3    C410490   0.356   2.943  16.183  0.7826  0.0315 -0.1113
  706TMC3    C510491   0.270   3.030  16.246 -0.5651  0.6771 -0.1722
  706TMC3    C610492   0.307   3.160  16.258 -0.2668 -0.7485  0.0558
  706TMC3     C10493   0.543   2.896  16.045  0.1226  0.0661  0.1414
  706TMC3     O10494   0.670   2.896  16.038 -0.9046 -0.0961 -0.3400
  706TMC3     H10495   0.621   3.139  16.139  0.9205 -3.2311  0.0184
  706TMC3    H110496   0.316   2.843  16.170 -2.7491  1.6466 -1.7234
  706TMC3    H210497   0.235   3.237  16.282  1.2832  0.6973  0.0125
  706TMC3    C710498   0.132   2.980  16.263  0.0976  0.4834 -0.6664
  706TMC3    C810499   0.477   3.333  16.222  0.1072  0.7025  0.2178
  706TMC3    O110500   0.122   2.859  16.260 -0.2317 -0.6594  0.1108
  706TMC3    O210501   0.587   3.369  16.256 -0.3272  0.4100 -0.5260
  707TMC3    C110502   1.551   1.859   1.046 -0.1486 -0.5695  0.0277
  707TMC3    C210503   1.594   1.783   1.146 -0.0716 -0.0130 -0.1772
  707TMC3    C310504   1.513   1.764   1.253 -0.4729  0.1713 -0.0804
  707TMC3    C410505   1.429   1.931   1.046  0.4420  0.5155  0.0424
  707TMC3    C510506   1.350   1.906   1.157 -0.5311  0.3453 -0.2988
  707TMC3    C610507   1.390   1.826   1.260  0.3481  0.4515  0.0427
  707TMC3     C10508   1.652   1.882   0.944 -0.3440 -0.4322  0.6194
  707TMC3     O10509   1.771   1.882   0.976 -0.0523 -0.2884  0.3484
  707TMC3     H10510   1.688   1.730   1.135  0.5043  0.9263  0.2463
  707TMC3    H110511   1.398   1.999   0.967 -0.6871 -1.2270 -1.0183
  707TMC3    H210512   1.328   1.805   1.347 -1.4049  0.2735 -1.2503
  707TMC3    C710513   1.204   1.916   1.146 -0.2253 -0.1354  0.2181
  707TMC3    C810514   1.524   1.645   1.329 -0.1547  0.3856  0.6840
  707TMC3    O110515   1.146   1.838   1.216  0.0474 -0.3717 -0.0760
  707TMC3    O210516   1.417   1.603   1.374  0.0670 -0.2985  0.6769
  708MPD2     C10517   3.139   2.194  13.423 -0.1375  0.2390  0.2095
  708MPD2    C110518   3.117   2.103  13.521 -0.0509  0.6335  0.3095
  708MPD2    C210519   3.215   2.075  13.615  0.0346 -0.2851  0.0604
  708MPD2    C310520   3.333   2.140  13.613 -0.2103  0.3966  0.8611
  708MPD2    C410521   3.357   2.239  13.521  0.0324  0.1177 -0.2326
  708MPD2    C510522   3.262   2.262  13.422  0.1887 -0.3544 -0.2539
  708MPD2     H10523   3.194   1.994  13.684  1.4729 -1.3722 -0.7781
  708MPD2    H110524   3.445   2.302  13.515  1.0153 -1.2686 -0.1766
  708MPD2    H210525   3.058   2.212  13.353 -0.9994 -1.1904  0.8190
  708MPD2    H310526   3.274   2.344  13.352  1.5131 -0.3504 -0.0282
  708MPD2     N10527   3.423   2.102  13.711  0.1203  0.7168  0.2950
  708MPD2    H510528   3.404   2.023  13.772 -0.0806 -0.6962 -1.6173
  708MPD2    N110529   2.988   2.036  13.530  0.3922  0.4699 -0.2479
  708MPD2    H710530   2.979   1.963  13.601 -0.8344  0.7185 -0.1569
  709TMC3    C110531   2.805   1.924  13.454  0.3474  0.2629  0.1929
  709TMC3    C210532   2.817   1.811  13.375  0.2171  0.0290 -0.2203
  709TMC3    C310533   2.788   1.692  13.433 -0.4204  0.0207  0.8393
  709TMC3    C410534   2.784   1.914  13.589 -0.0348  0.1969  0.4028
  709TMC3    C510535   2.773   1.788  13.646  0.1003 -0.0995  0.2184
  709TMC3    C610536   2.772   1.679  13.568  0.4009 -1.0299  0.5650
  709TMC3     C10537   2.898   2.033  13.424  0.2820 -0.6512 -1.0572
  709TMC3     O10538   2.921   2.052  13.307  0.0233 -0.0756  0.0960
  709TMC3     H10539   2.840   1.841  13.274  0.6360  1.0002  0.1586
  709TMC3    H110540   2.784   2.005  13.649 -0.3691 -0.5039  1.4660
  709TMC3    H210541   2.744   1.583  13.610  0.5249 -1.7253 -0.9273
  709TMC3    C710542   2.889   1.783  13.732 -0.9042  0.2916  0.5317
  709TMC3    C810543   2.775   1.568  13.353 -0.1715  0.4505  0.6300
  709TMC3    O110544   2.992   1.824  13.681  0.1872 -0.4635 -0.2952
  709TMC3    O210545   2.747   1.470  13.412  0.4227 -0.6743  0.1493
  710TMC3    C110546   3.868   3.196  17.611  0.3993 -0.2479 -0.4206
  710TMC3    C210547   3.867   3.168  17.482 -0.0055 -0.5666 -0.0986
  710TMC3    C310548   3.984   3.129  17.431 -0.7132  0.0812  0.3827
  710TMC3    C410549   3.980   3.202  17.688 -0.0413  0.3691 -0.8173
  710TMC3    C510550   4.097   3.165  17.633 -0.2994 -0.8716  0.6685
  710TMC3    C610551   4.102   3.133  17.497 -0.5031 -0.3047 -0.0579
  710TMC3     C10552   3.740   3.198  17.672 -0.6320 -0.4707  0.5065
  710TMC3     O10553   3.661   3.104  17.637 -0.6027 -0.0676 -0.3057
  710TMC3     H10554   3.774   3.160  17.427  0.6781  1.7372 -1.5802
  710TMC3    H110555   3.998   3.245   0.050  0.5673  1.1514 -1.2706
  710TMC3    H210556   4.196   3.105  17.452  0.1433  1.4996  0.1942
  710TMC3    C710557   4.218   3.169  17.710 -0.5337 -0.2351 -0.5715
  710TMC3    C810558   3.997   3.136  17.286 -0.8247  0.3878 -0.2635
  710TMC3    O110559   4.204   3.197   0.094 -0.3221 -0.0549  0.0509
  710TMC3    O210560   4.112   3.146  17.246 -0.0512  0.0996  0.0434
  711TMC3    C110561   3.970   3.678  14.730  0.0639  0.0042 -0.6336
  711TMC3    C210562   4.045   3.602  14.821  0.8023 -0.1650 -0.6183
  711TMC3    C310563   4.102   3.669  14.927  0.2428  0.1358  0.5922
  711TMC3    C410564   3.967   3.813  14.740 -0.7927  0.0235 -0.7478
  711TMC3    C510565   4.023   3.871  14.853 -0.5624  0.1619  0.4314
  711TMC3    C610566   4.084   3.805  14.951  0.0384  0.8107  0.2287
  711TMC3     C10567   3.957   3.622  14.596 -0.7744  0.1621  0.0216
  711TMC3     O10568   3.873   3.672  14.520 -0.5499  0.5898 -0.5108
  711TMC3     H10569   4.048   3.494  14.815  0.5213 -0.1640 -0.7479
  711TMC3    H110570   3.910   3.869  14.667  1.8932  2.2797 -1.0990
  711TMC3    H210571   4.122   3.862  15.035  0.7389 -0.5747  0.8618
  711TMC3    C710572   4.035   4.020  14.877  0.7438  0.7040 -0.1831
  711TMC3    C810573   4.200   3.600  15.001  0.2241 -0.0326  0.7948
  711TMC3    O110574   3.967   4.059  14.971 -0.2918 -0.3342  0.0464
  711TMC3    O210575   4.196   3.475  14.994 -0.2147 -0.8930  0.2711
  712MPD2     C10576   0.722   0.081  12.977 -0.2671 -0.2834 -0.2769
  712MPD2    C110577   0.594   0.114  13.015 -0.4063  0.0027 -0.5765
  712MPD2    C210578   0.570   0.232  13.091 -0.1558 -0.0363  0.2441
  712MPD2    C310579   0.673   0.318  13.124  0.0264 -0.3462  0.7386
  712MPD2    C410580   0.798   0.291  13.069  0.3584  0.1660 -0.2278
  712MPD2    C510581   0.818   0.172  13.008  0.1965  0.2307 -0.3959
  712MPD2     H10582   0.479   0.242  13.149 -1.4201 -1.6013 -1.4637
  712MPD2    H110583   0.895   0.331  13.099  1.1980 -1.1146 -1.2720
  712MPD2    H210584   0.748   4.724  12.923 -3.4207 -0.1197 -2.0904
  712MPD2    H310585   0.920   0.141  12.990  0.7148  1.1824  0.8476
  712MPD2     N10586   0.658   0.417  13.221  0.3114  0.5623 -0.3926
  712MPD2    H510587   0.742   0.471  13.242  1.7963 -1.5082 -0.9980
  712MPD2    N110588   0.485   0.030  12.971 -0.0957  0.2082  0.2441
  712MPD2    H710589   0.396   0.061  13.010  0.5608  2.3488  0.0597
  713TMC3    C110590   0.566   0.552  13.382  0.8123 -0.4849  0.5300
  713TMC3    C210591   0.680   0.523  13.457 -0.5911 -0.7319  0.0606
  713TMC3    C310592   0.705   0.604  13.567 -0.1240 -0.0032  0.0123
  713TMC3    C410593   0.467   0.642  13.413 -0.0520 -0.4439  0.0078
  713TMC3    C510594   0.498   0.703  13.528 -0.2408  0.6455  0.0888
  713TMC3    C610595   0.614   0.694  13.603 -0.7477  0.0877 -0.0913
  713TMC3     C10596   0.544   0.454  13.285  0.4830  0.4338  0.3124
  713TMC3     O10597   0.427   0.449  13.247 -0.9663 -0.1518  0.3428
  713TMC3     H10598   0.765   0.465  13.424  0.3563  1.4558 -1.3351
  713TMC3    H110599   0.381   0.672  13.354 -0.0394 -2.1146 -0.8588
  713TMC3    H210600   0.640   0.761  13.684  1.6088  0.6337 -1.3155
  713TMC3    C710601   0.449   0.838  13.539 -0.6653  0.2348 -1.1850
  713TMC3    C810602   0.850   0.626  13.594  0.1792  0.5760  0.1693
  713TMC3    O110603   0.527   0.925  13.575  0.0215  0.2435 -0.5968
  713TMC3    O210604   0.935   0.592  13.512 -0.4799  0.1725 -0.0627
  714MPD2     C10605   2.598   3.933   1.366 -0.6879 -0.0148  0.0037
  714MPD2    C110606   2.613   3.843   1.262 -0.2073  1.1066 -0.6112
  714MPD2    C210607   2.508   3.806   1.186  0.0918  0.7119 -0.7053
  714MPD2    C310608   2.384   3.868   1.211 -0.2357  0.0994 -0.9372
  714MPD2    C410609   2.373   3.977   1.298  0.1383 -0.3430 -0.5454
  714MPD2    C510610   2.477   3.995   1.381  0.2247 -0.4096 -0.3041
  714MPD2     H10611   2.513   3.724   1.116 -3.0642  1.1671 -1.4810
  714MPD2    H110612   2.280   4.030   1.314  0.0613 -0.5917 -0.1698
  714MPD2    H210613   2.676   3.945   1.440  1.1851 -3.6490 -1.3661
  714MPD2    H310614   2.458   4.069   1.458  4.4331  0.3455  0.0354
  714MPD2     N10615   2.271   3.828   1.128  0.5822 -0.1510  0.1438
  714MPD2    H510616   2.286   3.741   1.077  1.0562  1.2805 -2.1566
  714MPD2    N110617   2.747   3.796   1.244  0.1337 -0.0439 -0.3918
  714MPD2    H710618   2.804   3.830   1.321  3.6929  1.0070 -3.4376
  715TMC3    C110619   2.936   3.667   1.190 -0.1497 -0.2740 -0.0536
  715TMC3    C210620   2.983   3.569   1.119  0.0311 -0.3749 -0.3652
  715TMC3    C310621   3.119   3.548   1.125 -0.3350 -0.5094  0.1693
  715TMC3    C410622   3.017   3.755   1.258 -0.2784  0.4929 -0.8417
  715TMC3    C510623   3.151   3.724   1.264  0.3257  0.6894  0.3866
  715TMC3    C610624   3.201   3.623   1.196  0.4113 -0.3437 -0.5198
  715TMC3     C10625   2.792   3.682   1.182 -0.0447 -0.3756  0.0264
  715TMC3     O10626   2.724   3.608   1.115 -0.2587 -0.6608  0.3472
  715TMC3     H10627   2.912   3.506   1.066 -0.6965  1.1582 -1.1982
  715TMC3    H110628   2.982   3.848   1.302  0.0355  0.3733 -0.3451
  715TMC3    H210629   3.304   3.592   1.212  0.1159  0.4095  2.9895
  715TMC3    C710630   3.243   3.784   1.357  0.0998  0.4143 -0.1553
  715TMC3    C810631   3.167   3.427   1.057 -0.1611  0.1706  0.0733
  715TMC3    O110632   3.358   3.753   1.353  0.1490  0.2435 -0.1280
  715TMC3    O210633   3.093   3.328   1.058 -0.2743  0.6147 -0.6262
  716MPD2     C10634   3.027   2.316   9.660 -0.5398  0.2551  0.3988
  716MPD2    C110635   3.101   2.203   9.610 -0.0857  0.3645 -0.2456
  716MPD2    C210636   3.086   2.080   9.673 -0.0698  0.7007 -0.1031
  716MPD2    C310637   2.991   2.063   9.769  0.1485  0.1060  0.4598
  716MPD2    C410638   2.912   2.173   9.805 -0.6777  0.2354  0.0529
  716MPD2    C510639   2.926   2.298   9.750 -0.0913  0.2681 -1.0512
  716MPD2     H10640   3.151   1.994   9.663  1.2469  1.7967 -0.9308
  716MPD2    H110641   2.825   2.165   9.868 -0.5626 -0.6433  0.1090
  716MPD2    H210642   3.035   2.418   9.623 -0.3555 -0.1719 -0.7274
  716MPD2    H310643   2.858   2.380   9.770 -0.4062 -0.8901  2.5067
  716MPD2     N10644   2.960   1.936   9.818 -0.3534 -0.1300  0.2794
  716MPD2    H510645   3.014   1.861   9.775 -0.2341  0.6764 -0.9871
  716MPD2    N110646   3.174   2.218   9.494  0.0128  0.1053 -0.0258
  716MPD2    H710647   3.183   2.306   9.445 -0.4803  1.1677  1.7884
  717TMC3    C110648   2.820   1.775   9.936 -0.5622  1.1068 -0.1755
  717TMC3    C210649   2.686   1.752   9.921  0.1812  0.2188 -0.0240
  717TMC3    C310650   2.645   1.631   9.890  0.3410 -0.6084 -0.3899
  717TMC3    C410651   2.913   1.673   9.915 -1.0734 -0.1517 -0.0212
  717TMC3    C510652   2.868   1.550   9.884 -0.1076 -0.7822 -0.4537
  717TMC3    C610653   2.733   1.526   9.879  0.4964 -0.8169  0.4637
  717TMC3     C10654   2.865   1.913   9.918  0.1832 -0.4636  0.5132
  717TMC3     O10655   2.802   1.983   9.997  0.2281  0.1280 -0.1954
  717TMC3     H10656   2.625   1.841   9.923  0.7292  0.5742  1.3180
  717TMC3    H110657   3.019   1.690   9.925 -1.2560  0.5364  0.7404
  717TMC3    H210658   2.697   1.423   9.876  0.2378 -0.7479  1.1294
  717TMC3    C710659   2.961   1.435   9.893 -0.1273  0.1456 -0.1789
  717TMC3    C810660   2.506   1.622   9.894 -0.2159 -0.8821  0.0017
  717TMC3    O110661   3.075   1.457   9.933 -0.7852 -0.3612 -0.4387
  717TMC3    O210662   2.447   1.710   9.951  0.0830 -0.3059 -0.2626
  718MPD2     C10663   2.055   0.723  12.126 -0.0690 -0.0111 -0.1050
  718MPD2    C110664   2.043   0.592  12.184 -0.1300 -0.8331 -0.1492
  718MPD2    C210665   1.968   0.565  12.301  0.4788 -0.8676 -0.1734
  718MPD2    C310666   1.925   0.672  12.369  0.8807  0.7640  1.0338
  718MPD2    C410667   1.938   0.802  12.317 -0.3927  0.0537 -0.3482
  718MPD2    C510668   1.999   0.826  12.200 -0.2180  0.0934 -0.1883
  718MPD2     H10669   1.957   0.465  12.343  0.9302 -0.0912  1.8170
  718MPD2    H110670   1.920   0.897  12.367 -2.2135 -0.0608 -0.7963
  718MPD2    H210671   2.103   0.744  12.032  2.2369  2.9079  1.7244
  718MPD2    H310672   2.013   0.926  12.162  1.1563  0.3135  0.8651
  718MPD2     N10673   1.882   0.649  12.503 -0.2073 -0.3908  0.6065
  718MPD2    H510674   1.889   0.551  12.527 -0.2969 -0.5957 -0.1971
  718MPD2    N110675   2.124   0.490  12.122 -0.2815  0.3924  0.2534
  718MPD2    H710676   2.161   0.501  12.028 -1.0732  1.5630  0.0874
  719TMC3    C110677   2.264   0.292  12.122  0.0435 -0.1324  0.0394
  719TMC3    C210678   2.298   0.190  12.209  0.2465  0.9910 -0.1467
  719TMC3    C310679   2.426   0.180  12.257 -0.3445  0.7194 -0.0776
  719TMC3    C410680   2.367   0.365  12.059 -0.0718 -0.1897  0.2195
  719TMC3    C510681   2.493   0.355  12.107  0.4469 -1.3534 -0.2208
  719TMC3    C610682   2.526   0.256  12.204  0.2561  0.0166  0.0735
  719TMC3     C10683   2.153   0.368  12.176 -0.1610  0.0595  0.1634
  719TMC3     O10684   2.131   0.327  12.285 -0.4516 -0.4086  0.3246
  719TMC3     H10685   2.220   0.127  12.251  0.3471  0.0065 -1.4454
  719TMC3    H110686   2.345   0.443  11.987 -0.5431  2.0148  2.7410
  719TMC3    H210687   2.623   0.246  12.252 -0.1692  0.4836  1.0369
  719TMC3    C710688   2.563   0.479  12.114  0.4080 -0.7114  0.8517
  719TMC3    C810689   2.425   0.165  12.402  0.8027  0.2586  0.1027
  719TMC3    O110690   2.494   0.577  12.083  0.4760 -0.4167  0.6506
  719TMC3    O210691   2.530   0.138  12.461 -0.3897  0.0217  0.5703
  720MPD2     C10692   0.736   2.312  13.997 -0.3268 -0.5538 -0.4378
  720MPD2    C110693   0.836   2.300  13.898 -0.3410 -0.1629  0.2619
  720MPD2    C210694   0.968   2.274  13.938 -0.6809 -0.0032 -0.6143
  720MPD2    C310695   1.000   2.224  14.066  0.2979  0.3787  0.2273
  720MPD2    C410696   0.895   2.216  14.161 -0.0458  0.1302  0.2361
  720MPD2    C510697   0.771   2.270  14.122  0.2669  0.3350  0.0885
  720MPD2     H10698   1.051   2.265  13.868  0.1638  5.5140 -0.3283
  720MPD2    H110699   0.921   2.193  14.264 -2.3610  0.1188  0.8102
  720MPD2    H210700   0.628   2.317  13.991 -0.1784 -0.5451 -2.9899
  720MPD2    H310701   0.685   2.262  14.188  0.2621 -0.4560 -0.0139
  720MPD2     N10702   1.131   2.189  14.086 -0.5624  0.1465  0.4605
  720MPD2    H510703   1.204   2.201  14.017 -2.2332 -0.6093 -1.4254
  720MPD2    N110704   0.805   2.329  13.767  0.0450  0.0691  0.1238
  720MPD2    H710705   0.888   2.332  13.709  0.6061 -1.9900  0.8362
  721TMC3    C110706   1.318   2.087  14.198  0.5275  0.2689  0.0510
  721TMC3    C210707   1.353   1.987  14.279 -0.3302  0.4402 -0.8472
  721TMC3    C310708   1.491   1.941  14.277  0.2607 -0.3048  0.1313
  721TMC3    C410709   1.399   2.140  14.097 -0.0805  0.2300  0.1166
  721TMC3    C510710   1.524   2.082  14.091  0.2048  0.4016 -0.5136
  721TMC3    C610711   1.567   1.977  14.172  0.2838 -0.1069 -0.7659
  721TMC3     C10712   1.177   2.131  14.204 -0.3202  1.0141 -0.6398
  721TMC3     O10713   1.106   2.080  14.289  0.6439 -0.3015  0.4568
  721TMC3     H10714   1.283   1.961  14.357 -1.6822  1.0394 -1.8415
  721TMC3    H110715   1.377   2.230  14.041 -0.8919 -0.3626 -0.5060
  721TMC3    H210716   1.668   1.938  14.167  1.1403  2.2306 -1.4445
  721TMC3    C710717   1.614   2.144  13.994 -0.2613  0.1151 -0.1777
  721TMC3    C810718   1.537   1.833  14.354  0.4956  0.1638  0.1157
  721TMC3    O110719   1.598   2.262  13.964 -0.0767 -0.0287 -0.1685
  721TMC3    O210720   1.636   1.772  14.319 -0.0962  0.2797  0.0938
  722MPD2     C10721   3.901   0.824  13.644  0.2829 -0.0091 -0.1065
  722MPD2    C110722   3.888   0.895  13.525 -0.1468  0.2056  0.1168
  722MPD2    C210723   3.765   0.907  13.459 -0.0137 -0.1161  0.1141
  722MPD2    C310724   3.655   0.833  13.502  0.0253  0.7559  0.2097
  722MPD2    C410725   3.665   0.771  13.626  0.3751  0.0295 -0.5084
  722MPD2    C510726   3.780   0.774  13.700 -0.0924  1.1713  0.2229
  722MPD2     H10727   3.760   0.974  13.374  0.7137  0.6154  0.6476
  722MPD2    H110728   3.583   0.725  13.680  2.9784  0.0362  3.5050
  722MPD2    H210729   3.991   0.810  13.702  1.2506 -3.5104 -2.4864
  722MPD2    H310730   3.772   0.718  13.792  0.1997  0.2857 -0.2863
  722MPD2     N10731   3.541   0.837  13.420  0.2243  0.4422  0.1229
  722MPD2    H510732   3.563   0.872  13.327  0.2408  0.8256  0.2681
  722MPD2    N110733   4.000   0.970  13.471  0.3499  0.1508 -0.1547
  722MPD2    H710734   3.978   1.021  13.386  1.7040  0.3223 -0.3902
  723TMC3    C110735   3.324   0.794  13.347  0.2162  0.0791 -0.4891
  723TMC3    C210736   3.240   0.688  13.343 -0.3952  0.1376 -0.0835
  723TMC3    C310737   3.206   0.632  13.225  0.4239 -0.6230  0.2808
  723TMC3    C410738   3.365   0.851  13.229  0.2161 -0.2493 -0.7994
  723TMC3    C510739   3.327   0.799  13.112  0.0416 -0.3469  0.0601
  723TMC3    C610740   3.250   0.685  13.104 -0.1635 -0.8622  0.0745
  723TMC3     C10741   3.415   0.800  13.462 -0.4477  0.4341  0.5159
  723TMC3     O10742   3.366   0.767  13.567  0.0382  0.5072  0.2401
  723TMC3     H10743   3.205   0.639  13.433  1.5781 -3.0378 -1.0622
  723TMC3    H110744   3.432   0.936  13.225  0.1746 -0.1821  0.0222
  723TMC3    H210745   3.220   0.652  13.005 -0.5140  3.0161 -1.1081
  723TMC3    C710746   3.337   0.881  12.990 -0.0103 -0.8517  0.4520
  723TMC3    C810747   3.130   0.512  13.221  0.4900 -0.7255 -0.0415
  723TMC3    O110748   3.334   0.824  12.883 -0.1107 -0.2152  0.0938
  723TMC3    O210749   3.023   0.514  13.280 -0.0656 -0.0260 -0.6177
  724TMC3    C110750   4.032   0.175   8.853  0.3355  1.2469  0.3014
  724TMC3    C210751   4.019   0.314   8.845 -0.0887 -0.3488 -0.0277
  724TMC3    C310752   4.133   0.394   8.859 -0.1253  0.4766 -0.1951
  724TMC3    C410753   4.144   0.124   8.902 -0.0133  0.0665  0.5766
  724TMC3    C510754   4.254   0.205   8.935 -0.8281 -0.2344 -0.1073
  724TMC3    C610755   4.253   0.335   8.908 -0.6696  0.4445  0.1324
  724TMC3     C10756   3.913   0.087   8.858  0.0159  0.2008 -0.4948
  724TMC3     O10757   3.924   4.711   8.804 -0.0380  0.7644  0.2204
  724TMC3     H10758   3.936   0.357   8.791 -0.3853  0.0243  0.7306
  724TMC3    H110759   4.142   0.019   8.930  3.0541 -0.1918 -0.1221
  724TMC3    H210760   4.348   0.384   8.890  0.5570 -1.8590  0.3503
  724TMC3    C710761   4.348   0.152   9.033  0.0065 -0.0662 -0.2823
  724TMC3    C810762   4.123   0.535   8.854  0.2891 -0.0053  0.2718
  724TMC3    O110763   4.369   0.031   9.030  0.2430 -0.3770  0.2461
  724TMC3    O210764   4.024   0.585   8.792  0.5144 -0.0319  0.6174
  725TMC3    C110765   1.746   2.402  12.825 -0.2870 -0.3737 -0.7100
  725TMC3    C210766   1.626   2.470  12.814  0.0634 -0.4089 -0.4010
  725TMC3    C310767   1.564   2.494  12.691  0.0458 -0.3947 -0.0725
  725TMC3    C410768   1.799   2.340  12.714  0.8851 -0.5072 -0.7159
  725TMC3    C510769   1.727   2.352  12.594  0.6520  0.2917  0.0710
  725TMC3    C610770   1.614   2.436  12.577 -0.3896  0.4511 -0.1319
  725TMC3     C10771   1.833   2.466  12.924 -0.7113 -0.0494 -0.1279
  725TMC3     O10772   1.790   2.570  12.975  0.1589  0.5187  0.0417
  725TMC3     H10773   1.588   2.531  12.895 -0.2757 -3.5804  1.8233
  725TMC3    H110774   1.891   2.284  12.719  0.7306 -0.6915  0.0085
  725TMC3    H210775   1.563   2.445  12.482  1.0627  3.1049 -0.6417
  725TMC3    C710776   1.758   2.277  12.470 -0.5016 -0.9804  0.5967
  725TMC3    C810777   1.450   2.589  12.686  0.6076 -0.0255 -0.2135
  725TMC3    O110778   1.731   2.335  12.364 -0.3973 -0.0076  0.5806
  725TMC3    O210779   1.393   2.623  12.790 -0.8497 -0.2717 -0.0192
  726MPD2     C10780   3.422   4.372   9.729  0.0294  0.1638  0.3178
  726MPD2    C110781   3.511   4.286   9.783  0.3658 -0.7032 -0.3298
  726MPD2    C210782   3.465   4.168   9.845 -0.6140  0.3164 -0.5505
  726MPD2    C310783   3.333   4.137   9.851  0.2840  0.5913 -0.3520
  726MPD2    C410784   3.241   4.227   9.802  0.1766  0.3620  0.3240
  726MPD2    C510785   3.289   4.340   9.735 -0.1036  0.9614 -0.5633
  726MPD2     H10786   3.529   4.114   9.914  0.8149  1.9197 -0.6236
  726MPD2    H110787   3.133   4.221   9.800  0.1001  1.7109 -0.0072
  726MPD2    H210788   3.451   4.460   9.672 -1.1712  0.1332 -0.3349
  726MPD2    H310789   3.219   4.409   9.689 -1.4373 -0.0012 -0.0116
  726MPD2     N10790   3.280   4.027   9.925 -0.2581  0.1515  0.0480
  726MPD2    H510791   3.179   4.031   9.939 -0.4133 -0.4423 -0.8831
  726MPD2    N110792   3.650   4.312   9.776  0.6060  0.1475 -0.8608
  726MPD2    H710793   3.706   4.230   9.794  2.1640  1.1447 -1.2117
  727TMC3    C110794   3.858   4.417   9.707  0.9133  0.6165  0.9927
  727TMC3    C210795   3.925   4.514   9.769 -0.3324 -0.0292  0.5984
  727TMC3    C310796   4.054   4.495   9.805  0.3705 -0.3384 -0.0794
  727TMC3    C410797   3.913   4.297   9.687  0.1963  0.5231  0.2257
  727TMC3    C510798   4.039   4.283   9.724 -0.1181  0.3181 -0.7329
  727TMC3    C610799   4.120   4.377   9.785 -0.5594 -0.2807 -0.2126
  727TMC3     C10800   3.712   4.429   9.731 -0.4198 -0.5313  0.4537
  727TMC3     O10801   3.665   4.540   9.719  0.6677 -0.0077  0.4622
  727TMC3     H10802   3.872   4.607   9.788  0.8440  0.8881 -0.6580
  727TMC3    H110803   3.857   4.218   9.636  0.2768  0.3514  0.4043
  727TMC3    H210804   4.222   4.358   9.817 -0.1726 -0.0192 -1.2878
  727TMC3    C710805   4.107   4.150   9.714 -0.0613  0.3408 -0.4060
  727TMC3    C810806   4.117   4.583   9.898  0.0319  0.0306 -0.2031
  727TMC3    O110807   4.225   4.149   9.742 -0.0631 -0.3043 -0.2297
  727TMC3    O210808   4.207   4.538   9.970  0.4842  0.1641 -0.0441
  728TMC3    C110809   3.112   2.626  15.078 -0.4880 -0.5423  0.0962
  728TMC3    C210810   3.239   2.663  15.113  0.5016  0.3267  0.8786
  728TMC3    C310811   3.317   2.700  15.011 -0.1059  0.0112 -0.3966
  728TMC3    C410812   3.075   2.604  14.943  0.2335  0.0926 -0.5930
  728TMC3    C510813   3.164   2.634  14.848 -0.2425 -0.3804 -0.8234
  728TMC3    C610814   3.288   2.687  14.875 -0.2004  0.0526 -0.4990
  728TMC3     C10815   3.004   2.652  15.170 -0.3554 -0.2528 -0.1398
  728TMC3     O10816   3.004   2.768  15.213  0.1796  0.1352 -0.4293
  728TMC3     H10817   3.263   2.673  15.219  1.2449  0.6809  0.6812
  728TMC3    H110818   2.976   2.570  14.915  0.3391 -0.9826  0.3208
  728TMC3    H210819   3.361   2.693  14.794  0.7565  1.5124  0.4742
  728TMC3    C710820   3.112   2.621  14.715  0.3923 -0.2288  0.1393
  728TMC3    C810821   3.445   2.753  15.053 -0.6916  0.7386  0.8157
  728TMC3    O110822   3.038   2.526  14.691 -0.0113  0.2631  0.2550
  728TMC3    O210823   3.472   2.739  15.173  0.4018  0.3909  0.0847
  729MPD2     C10824   1.417   3.853  17.087  0.3527 -0.4477  0.1913
  729MPD2    C110825   1.453   3.971  17.021 -1.1770 -0.2384 -0.5892
  729MPD2    C210826   1.484   4.078  17.101  0.4271  0.6603  0.0121
  729MPD2    C310827   1.493   4.078  17.237  0.7320 -0.4928 -0.1234
  729MPD2    C410828   1.464   3.958  17.300  0.1486  0.2034 -0.4318
  729MPD2    C510829   1.431   3.845  17.222  0.4227  0.5760 -0.4741
  729MPD2     H10830   1.493   4.177  17.059 -1.2471  0.3631 -1.0752
  729MPD2    H110831   1.449   3.955  17.407  0.8987 -1.1358 -0.3709
  729MPD2    H210832   1.377   3.764  17.040 -2.6186  1.3443 -0.6916
  729MPD2    H310833   1.396   3.755  17.272 -0.5664  0.8977 -0.5875
  729MPD2     N10834   1.506   4.193  17.311  0.1275  0.3124  0.1483
  729MPD2    H510835   1.489   4.191  17.411 -2.1693 -0.9262 -0.2576
  729MPD2    N110836   1.421   3.979  16.885 -0.3655 -0.0334  0.4862
  729MPD2    H710837   1.378   3.900  16.839 -2.8507  1.3971  0.3137
  730TMC3    C110838   1.516   4.421  17.357  0.0678 -0.0201  0.4233
  730TMC3    C210839   1.583   4.536  17.328  0.2434  0.4233 -0.0629
  730TMC3    C310840   1.538   4.651  17.382  0.1304  0.5325 -0.5362
  730TMC3    C410841   1.404   4.420  17.440 -0.1933  0.4501  0.1352
  730TMC3    C510842   1.356   4.537  17.492  0.2161  1.2706 -0.5143
  730TMC3    C610843   1.423   4.657  17.460  0.8476 -0.5278 -0.0281
  730TMC3     C10844   1.544   4.310  17.267  0.8601  0.6920 -1.1447
  730TMC3     O10845   1.614   4.329  17.167 -0.2842 -0.0021 -0.2092
  730TMC3     H10846   1.675   4.526  17.272 -0.1780 -1.5435 -0.4203
  730TMC3    H110847   1.342   4.333  17.456  1.5464 -1.1098 -1.6652
  730TMC3    H210848   1.366   0.012  17.482 -2.1345 -3.0308  2.4068
  730TMC3    C710849   1.219   4.537  17.444  0.1534 -0.6380 -0.1987
  730TMC3    C810850   1.558   0.029  17.298 -0.0136 -0.3536 -0.0509
  730TMC3    O110851   1.202   4.475  17.336 -0.3214 -1.0015 -0.1281
  730TMC3    O210852   1.579   0.005  17.181  0.2250 -0.4623 -0.0666
  731MPD2     C10853   0.596   2.348  12.324 -0.0924  0.0375  0.3507
  731MPD2    C110854   0.648   2.219  12.316 -0.5428 -0.1632  0.1733
  731MPD2    C210855   0.660   2.152  12.438  0.1473 -0.3476 -0.0630
  731MPD2    C310856   0.649   2.207  12.561  0.3248 -0.1417  0.0339
  731MPD2    C410857   0.611   2.340  12.564  0.0268 -0.6588 -0.3464
  731MPD2    C510858   0.582   2.406  12.446  0.6551  0.6107  0.8078
  731MPD2     H10859   0.687   2.047  12.434  0.7091 -0.2030 -0.1316
  731MPD2    H110860   0.598   2.401  12.653 -2.9197 -1.0303 -0.5188
  731MPD2    H210861   0.568   2.409  12.239 -1.4117 -2.1489 -0.7896
  731MPD2    H310862   0.547   2.508  12.449  1.3598  0.8681  0.3940
  731MPD2     N10863   0.687   2.132  12.668 -0.3708 -0.5460  0.3862
  731MPD2    H510864   0.737   2.047  12.644  0.3348 -0.0926  0.2441
  731MPD2    N110865   0.659   2.155  12.191 -0.0810  0.4605 -0.4528
  731MPD2    H710866   0.665   2.054  12.181  3.7400  0.8479 -1.9718
  732TMC3    C110867   0.675   2.150  11.956  0.7865  0.3236  0.2838
  732TMC3    C210868   0.569   2.066  11.946  0.3749  0.2781 -1.0379
  732TMC3    C310869   0.561   1.994  11.829  0.1874 -0.3024 -0.1723
  732TMC3    C410870   0.764   2.175  11.855  0.1279 -0.1471 -0.3362
  732TMC3    C510871   0.749   2.100  11.746 -0.7514  0.5178 -0.7120
  732TMC3    C610872   0.653   2.005  11.735  0.7682 -0.6027 -0.7226
  732TMC3     C10873   0.683   2.231  12.079 -0.1559 -0.1951 -0.2513
  732TMC3     O10874   0.716   2.348  12.063  0.1971  0.5235 -0.5798
  732TMC3     H10875   0.498   2.049  12.026 -0.1288 -1.6768 -1.9079
  732TMC3    H110876   0.843   2.248  11.863  0.8681 -0.9223 -0.5664
  732TMC3    H210877   0.630   1.948  11.646  0.1178 -0.7334 -0.4653
  732TMC3    C710878   0.825   2.118  11.620 -0.4654  0.7350 -0.2696
  732TMC3    C810879   0.457   1.895  11.809  0.0090 -0.1625  0.8641
  732TMC3    O110880   0.773   2.107  11.512  0.1112 -0.1890  0.3162
  732TMC3    O210881   0.442   1.843  11.699 -0.2236 -0.7632 -0.0114
  733TMC3    C110882   1.674   0.595  12.890  0.4021  0.2265 -0.3513
  733TMC3    C210883   1.688   0.673  12.776 -0.8570  0.5303  0.2134
  733TMC3    C310884   1.808   0.686  12.721  0.6196 -0.3583  0.4095
  733TMC3    C410885   1.781   0.531  12.946 -0.3316 -1.1453 -0.3449
  733TMC3    C510886   1.906   0.552  12.895  0.5973  0.0879 -0.2970
  733TMC3    C610887   1.927   0.636  12.784  0.0730  0.4144  0.6652
  733TMC3     C10888   1.530   0.579  12.930  0.2631 -0.4160  0.2801
  733TMC3     O10889   1.467   0.683  12.914  0.0011  1.0455  1.1409
  733TMC3     H10890   1.608   0.727  12.727  0.5797  2.1676 -0.3100
  733TMC3    H110891   1.774   0.468  13.034 -0.0592  2.0035  1.9186
  733TMC3    H210892   2.022   0.660  12.739 -1.2089 -0.6924 -2.5899
  733TMC3    C710893   2.008   0.446  12.918 -0.3994  0.2671 -0.6209
  733TMC3    C810894   1.817   0.739  12.586  0.0679 -0.4844  0.1978
  733TMC3    O110895   2.033   0.414  13.035 -0.8277 -0.2389  0.0169
  733TMC3    O210896   1.764   0.847  12.559  0.4124 -0.5325  0.7931
  734MPD2     C10897   3.503   2.450  12.407  0.6258  0.4367 -0.5422
  734MPD2    C110898   3.623   2.380  12.400 -0.1334  0.0095  0.4844
  734MPD2    C210899   3.729   2.423  12.317  0.2133 -1.1852 -0.4981
  734MPD2    C310900   3.710   2.531  12.239  0.4155  0.3806  0.5731
  734MPD2    C410901   3.591   2.600  12.247  0.5896  0.1120 -0.1137
  734MPD2    C510902   3.490   2.565  12.332 -0.2648 -0.1527 -0.4216
  734MPD2     H10903   3.820   2.365  12.317  3.2252  3.5485  1.3039
  734MPD2    H110904   3.576   2.689  12.186  3.7207 -1.1561 -2.7279
  734MPD2    H210905   3.424   2.415  12.472  2.0935 -0.3345  0.8227
  734MPD2    H310906   3.399   2.622  12.342 -0.0682  0.1157 -0.1605
  734MPD2     N10907   3.810   2.561  12.142  0.1145  0.0230  0.7354
  734MPD2    H510908   3.893   2.503  12.133 -0.3169 -0.1919 -1.9037
  734MPD2    N110909   3.637   2.261  12.481 -0.5493  0.1091  0.4017
  734MPD2    H710910   3.551   2.229  12.525 -0.6951 -0.1744 -0.0962
  735TMC3    C110911   3.711   2.053  12.515 -0.6012  0.6548  0.1457
  735TMC3    C210912   3.611   1.995  12.442  0.3980  0.5853  0.8603
  735TMC3    C310913   3.633   1.874  12.390  0.9758 -0.0899 -0.1382
  735TMC3    C410914   3.809   1.979  12.566 -0.0468  0.0822  0.7300
  735TMC3    C510915   3.829   1.846  12.528  0.4689  0.7152 -0.2285
  735TMC3    C610916   3.745   1.799  12.432  0.1598 -0.5392  0.5039
  735TMC3     C10917   3.749   2.186  12.485 -0.0527  0.2127 -0.3608
  735TMC3     O10918   3.870   2.211  12.491  0.2160 -0.0198 -0.3180
  735TMC3     H10919   3.536   2.057  12.395 -1.5016 -1.8900  0.6239
  735TMC3    H110920   3.882   2.015  12.637 -1.9912  0.3598  2.5795
  735TMC3    H210921   3.754   1.707  12.375  2.3276 -0.7208  1.1249
  735TMC3    C710922   3.963   1.814  12.501 -0.1840  0.3162 -0.7086
  735TMC3    C810923   3.610   1.881  12.250 -0.0952 -0.1095  0.2269
  735TMC3    O110924   4.036   1.899  12.460  0.5417  0.6769  0.4739
  735TMC3    O210925   3.534   1.803  12.195  0.6717 -0.1896  0.3987
  736MPD2     C10926   4.013   1.468  12.370 -0.0073  0.1060 -0.1760
  736MPD2    C110927   4.049   1.604  12.389  0.5303  0.2373 -0.6787
  736MPD2    C210928   4.144   1.660  12.311 -0.6836  0.1968  0.4137
  736MPD2    C310929   4.197   1.585  12.211 -0.3964  0.0950 -0.2082
  736MPD2    C410930   4.173   1.451  12.197  0.3234 -0.0774  0.1118
  736MPD2    C510931   4.085   1.392  12.280  0.3035  0.6377 -0.2101
  736MPD2     H10932   4.163   1.766  12.322 -1.0088  0.3092 -0.1140
  736MPD2    H110933   4.212   1.387  12.119  1.4148  0.6761  0.0459
  736MPD2    H210934   3.928   1.424  12.419  2.0742 -1.5228  1.9274
  736MPD2    H310935   4.073   1.284  12.271  1.0266  0.6402 -1.2001
  736MPD2     N10936   4.290   1.634  12.114 -0.2177 -0.2290  0.0105
  736MPD2    H510937   4.339   1.575  12.047 -0.6873  1.9159 -2.2403
  736MPD2    N110938   3.969   1.678  12.478 -0.0981  0.1843  0.3152
  736MPD2    H710939   3.894   1.624  12.518  0.2552 -0.9965 -0.6342
  737TMC3    C110940   4.416   1.790  11.988  0.8907 -0.3237 -0.0219
  737TMC3    C210941   4.485   1.905  12.002  0.6235  0.2171 -0.1416
  737TMC3    C310942   4.557   1.941  11.887 -0.9088 -0.5740  0.4453
  737TMC3    C410943   4.423   1.699  11.891  0.5992 -0.2779 -0.0109
  737TMC3    C510944   4.509   1.730  11.786  0.2944 -0.0089  0.6748
  737TMC3    C610945   4.582   1.848  11.789  0.8910  0.1644 -0.2423
  737TMC3     C10946   4.326   1.769  12.101 -0.1127 -0.8526 -0.0547
  737TMC3     O10947   4.285   1.864  12.165 -0.0637  0.3027 -0.1463
  737TMC3     H10948   4.447   1.973  12.078  0.4157 -0.1837  0.1161
  737TMC3    H110949   4.354   1.616  11.880  1.0766 -0.6382 -0.3300
  737TMC3    H210950   4.637   1.886  11.704 -1.0195  0.1594 -1.4737
  737TMC3    C710951   4.541   1.632  11.676 -0.2990  0.1272 -0.5525
  737TMC3    C810952   4.581   2.081  11.870  0.0068 -0.4634 -1.0342
  737TMC3    O110953   4.510   1.518  11.705 -0.2319 -0.1760  0.2511
  737TMC3    O210954   4.555   2.146  11.969 -0.8026 -0.1833  0.0622
  738MPD2     C10955   0.115   0.742  15.265 -0.0118  0.3644 -0.7805
  738MPD2    C110956   4.733   0.811  15.237  0.4374 -0.6000 -0.6133
  738MPD2    C210957   4.713   0.877  15.118  0.1891 -0.2989  0.1996
  738MPD2    C310958   0.076   0.876  15.014 -0.0478 -0.1120 -0.1814
  738MPD2    C410959   0.194   0.801  15.035  0.2733  0.8849 -0.3716
  738MPD2    C510960   0.209   0.739  15.160 -0.0257 -0.1492 -0.1717
  738MPD2     H10961   4.620   0.933  15.106 -0.1858 -1.0265 -0.3279
  738MPD2    H110962   0.256   0.782  14.949 -0.3281  0.0663 -0.6224
  738MPD2    H210963   0.127   0.670  15.345 -0.8870  0.3517 -0.6642
  738MPD2    H310964   0.289   0.669  15.180  1.7504  1.9620  0.0644
  738MPD2     N10965   0.051   0.927  14.882 -0.3428 -0.0412  0.2897
  738MPD2    H510966   0.125   0.911  14.814  0.3739  0.7659  0.8761
  738MPD2    N110967   4.615   0.805  15.316  0.0180 -0.0530 -0.2957
  738MPD2    H710968   4.533   0.853  15.280 -0.8454 -1.3667 -0.0820
  739TMC3    C110969   4.654   1.010  14.694 -0.7181 -1.1257 -0.0506
  739TMC3    C210970   4.537   0.988  14.632 -0.5984 -0.3446  0.1489
  739TMC3    C310971   4.534   1.034  14.504 -0.4709 -0.7045 -0.1256
  739TMC3    C410972   0.035   1.059  14.637 -0.1247 -0.1645 -1.0091
  739TMC3    C510973   0.030   1.096  14.502  1.0082 -0.1758  0.2273
  739TMC3    C610974   4.642   1.087  14.434 -0.2080  0.5343  0.3094
  739TMC3     C10975   4.656   0.963  14.833 -0.3078  0.0625 -0.1267
  739TMC3     O10976   4.551   0.953  14.893  0.0368 -0.2557 -0.2067
  739TMC3     H10977   4.448   0.964  14.689 -1.4845 -0.4931 -1.3002
  739TMC3    H110978   0.122   1.089  14.695 -0.7775  0.9443 -0.6080
  739TMC3    H210979   4.646   1.121  14.331 -1.1501  2.6563  0.9617
  739TMC3    C710980   0.129   1.190  14.462 -0.2482  0.1052 -0.2089
  739TMC3    C810981   4.398   1.047  14.443  0.0569 -0.6861  0.0341
  739TMC3    O110982   0.203   1.238  14.546 -0.4444 -0.5788 -0.1821
  739TMC3    O210983   4.308   0.977  14.489  0.2943 -0.1745  0.0148
  740TMC3    C110984   0.239   2.405  14.201 -0.1900  0.1865 -0.4358
  740TMC3    C210985   0.293   2.282  14.180 -0.2855  1.3209 -0.6633
  740TMC3    C310986   0.321   2.261  14.048  0.9259  0.4612 -0.0337
  740TMC3    C410987   0.211   2.502  14.106  0.3164 -0.3560 -0.0816
  740TMC3    C510988   0.245   2.472  13.980  0.0513 -0.2260  0.0637
  740TMC3    C610989   0.302   2.350  13.946 -0.4180 -0.1741 -0.5656
  740TMC3     C10990   0.225   2.462  14.336 -0.9025  0.3383 -0.9640
  740TMC3     O10991   0.251   2.579  14.355  0.4240 -0.2675 -0.3573
  740TMC3     H10992   0.304   2.212  14.262  1.0326  0.7873 -1.2957
  740TMC3    H110993   0.169   2.597  14.138  1.3339 -0.0808  0.4506
  740TMC3    H210994   0.337   2.330  13.846 -1.1659  0.4444 -0.9503
  740TMC3    C710995   0.236   2.573  13.877 -0.4120  0.5955  0.3479
  740TMC3    C810996   0.412   2.156  14.022  0.1212 -0.2316 -0.1198
  740TMC3    O110997   0.158   2.658  13.904 -0.2035  1.0676  0.1369
  740TMC3    O210998   0.473   2.126  14.125 -0.0102  0.2738 -0.4101
  741TMC3    C110999   0.258   1.241  14.975 -0.3911  0.0155 -0.5881
  741TMC3    C211000   0.135   1.299  14.955 -0.2023  0.5603 -0.8728
  741TMC3    C311001   0.032   1.261  15.032  0.8763 -0.3761 -0.3806
  741TMC3    C411002   0.283   1.151  15.078 -0.0744 -0.5629 -0.0094
  741TMC3    C511003   0.178   1.127  15.166  0.3147  0.0769  0.3911
  741TMC3    C611004   0.053   1.175  15.137  0.7431  0.2783  0.1606
  741TMC3     C11005   0.371   1.256  14.889 -0.0983  0.0404 -0.3033
  741TMC3     O11006   0.435   1.152  14.869 -0.9074  0.3720 -0.4867
  741TMC3     H11007   0.114   1.359  14.867  1.1884 -0.5696 -1.9687
  741TMC3    H111008   0.386   1.121  15.095  0.6433  1.5493 -0.7040
  741TMC3    H211009   4.706   1.144  15.202 -1.2538  2.1329 -1.4177
  741TMC3    C711010   0.204   1.064  15.290  0.0197 -0.0139  0.3145
  741TMC3    C811011   4.625   1.269  14.982 -0.1845  0.5989  0.9514
  741TMC3    O111012   0.115   1.072  15.371  0.0871  0.2739  0.1368
  741TMC3    O211013   4.615   1.287  14.859  0.3116 -0.6646 -0.0213
  742TMC3    C111014   4.537   0.116  15.286  0.1340 -0.2475 -0.7602
  742TMC3    C211015   4.445   0.104  15.188 -0.3463 -0.3939  0.3506
  742TMC3    C311016   4.495   0.115  15.060  0.3278  0.0995 -0.0409
  742TMC3    C411017   4.668   0.158  15.267  0.0506 -0.1220  0.2253
  742TMC3    C511018   4.710   0.194  15.136 -0.2247 -0.4002 -0.0995
  742TMC3    C611019   4.623   0.151  15.035 -0.9120 -0.5649 -0.0701
  742TMC3     C11020   4.510   0.061  15.413 -0.0142 -0.6442  0.0657
  742TMC3     O11021   4.407   0.091  15.474 -0.2492 -0.2390  0.6996
  742TMC3     H11022   4.359   0.042  15.211 -1.7861  1.9963  1.4167
  742TMC3    H111023   4.733   0.173  15.353  0.3099 -1.3445  0.2482
  742TMC3    H211024   4.652   0.168  14.932 -1.9165  1.7536  0.0156
  742TMC3    C711025   0.113   0.203  15.102 -0.0455  0.3234 -0.9460
  742TMC3    C811026   4.415   0.079  14.946  0.5685 -0.3252  0.7298
  742TMC3    O111027   0.137   0.139  15.003  0.4756  0.4384 -0.4637
  742TMC3    O211028   4.479   0.055  14.847  0.5897 -0.6924  0.4001
  743MPD2     C11029   2.678   1.060   1.374  0.4747  0.0077 -0.2254
  743MPD2    C111030   2.666   1.152   1.272 -0.3697 -0.1279  0.5937
  743MPD2    C211031   2.774   1.230   1.237  0.0730  0.0115 -0.3474
  743MPD2    C311032   2.899   1.201   1.283  0.6713 -0.9366  0.4017
  743MPD2    C411033   2.915   1.092   1.372 -0.5293 -0.0378 -0.5001
  743MPD2    C511034   2.803   1.030   1.426  0.4796 -0.0576  0.8537
  743MPD2     H11035   2.760   1.315   1.171  0.6576 -0.7607 -1.4788
  743MPD2    H111036   3.006   1.079   1.429 -0.4432 -1.0759 -0.8723
  743MPD2    H211037   2.591   0.999   1.399  0.5881  0.0559  0.2867
  743MPD2    H311038   2.825   0.949   1.495 -1.8858  1.1893  3.0732
  743MPD2     N11039   3.006   1.288   1.252  0.3982 -0.0518 -0.6199
  743MPD2    H511040   2.986   1.358   1.181  1.3145 -0.0864 -0.9122
  743MPD2    N111041   2.537   1.160   1.219 -0.0966 -0.2028 -0.0700
  743MPD2    H711042   2.471   1.096   1.262 -0.7494  0.4932 -0.0479
  744TMC3    C111043   2.354   1.242   1.082 -0.5784 -0.6716 -0.6069
  744TMC3    C211044   2.264   1.217   1.182  0.1050 -0.4632 -0.7450
  744TMC3    C311045   2.132   1.190   1.144  0.4198 -0.3668  0.8029
  744TMC3    C411046   2.315   1.249   0.950  0.1744 -1.0821  0.5116
  744TMC3    C511047   2.183   1.214   0.917 -0.0988  0.1266  0.6770
  744TMC3    C611048   2.090   1.187   1.012  0.2005 -0.0801 -0.6162
  744TMC3     C11049   2.497   1.236   1.112 -0.1087  0.1151  1.2781
  744TMC3     O11050   2.566   1.296   1.037 -0.4700  0.1205  0.5573
  744TMC3     H11051   2.286   1.239   1.286 -1.6761 -1.0496 -0.2520
  744TMC3    H111052   2.389   1.269   0.874  0.4170  0.6901  1.2118
  744TMC3    H211053   1.988   1.157   0.990 -0.1797  0.4860  0.3455
  744TMC3    C711054   2.137   1.211   0.781  0.3152 -0.4851  0.7611
  744TMC3    C811055   2.031   1.245   1.224 -0.0757  0.0387  0.2965
  744TMC3    O111056   2.039   1.145   0.760 -0.6641 -0.8344 -0.1719
  744TMC3    O211057   2.060   1.359   1.265  0.5460 -0.1209 -0.2539
  745TMC3    C111058   0.345   4.629  12.827  0.2571  0.2184 -0.2247
  745TMC3    C211059   0.247   4.632  12.926 -0.0972  0.9493 -0.0627
  745TMC3    C311060   0.120   4.642  12.886  0.0781 -0.1846  0.1874
  745TMC3    C411061   0.320   4.653  12.696  0.5033 -0.2417 -0.0490
  745TMC3    C511062   0.190   4.669  12.657 -0.2982 -0.0541  0.1376
  745TMC3    C611063   0.091   4.658  12.753 -0.0519  0.1784  0.2923
  745TMC3     C11064   0.485   4.667  12.870  0.1855  0.2486  0.3471
  745TMC3     O11065   0.575   4.632  12.792  0.0207 -0.3382 -0.3294
  745TMC3     H11066   0.284   4.605  13.024 -1.5772 -1.1667 -0.0772
  745TMC3    H111067   0.392   4.671  12.617 -0.2165 -0.4622 -0.7668
  745TMC3    H211068   4.723   4.668  12.719  1.9129  1.6293 -5.1969
  745TMC3    C711069   0.168   0.067  12.606 -0.3886 -0.3233  0.1479
  745TMC3    C811070   0.020   4.588  12.978 -0.3002 -0.6980 -0.9926
  745TMC3    O111071   0.067   0.091  12.543 -0.6070 -0.3170  0.0182
  745TMC3    O211072   4.656   4.542  12.923  0.1133 -0.4278 -0.3026
  746TMC3    C111073   2.879   1.746  10.955 -0.1298 -0.4067 -0.4108
  746TMC3    C211074   2.921   1.704  10.833 -0.1833 -0.3871 -0.6617
  746TMC3    C311075   2.841   1.618  10.761 -0.3703 -0.5082 -0.4506
  746TMC3    C411076   2.756   1.709  11.008  0.5288  0.1700 -0.2251
  746TMC3    C511077   2.694   1.606  10.946  0.6251  0.1909  0.3553
  746TMC3    C611078   2.735   1.560  10.817 -0.2910 -0.0930  0.0952
  746TMC3     C11079   2.942   1.861  11.019 -0.0271  0.5820 -0.0696
  746TMC3     O11080   2.888   1.909  11.121  0.3857  0.1074 -0.0365
  746TMC3     H11081   3.002   1.752  10.779  2.2740 -2.2449  1.3915
  746TMC3    H111082   2.705   1.784  11.066 -0.6099  1.2867 -2.6808
  746TMC3    H211083   2.679   1.482  10.768  0.5299 -0.4369 -0.2985
  746TMC3    C711084   2.544   1.597  10.956 -0.5711 -0.1260 -0.4919
  746TMC3    C811085   2.875   1.578  10.626  0.3009  0.1031 -0.2165
  746TMC3    O111086   2.487   1.531  10.867  0.0268 -0.1567  0.2563
  746TMC3    O211087   2.834   1.468  10.598 -0.9269 -0.3249 -0.3009
  747TMC3    C111088   0.143   1.992  10.747  0.3994 -1.5266 -0.3924
  747TMC3    C211089   0.081   1.876  10.794 -0.2280 -0.0072 -0.1473
  747TMC3    C311090   0.111   1.845  10.926 -0.5877  0.7857  0.1098
  747TMC3    C411091   0.219   2.075  10.824 -0.3760  0.8075  0.4129
  747TMC3    C511092   0.256   2.035  10.954  1.0128 -0.2035 -0.3629
  747TMC3    C611093   0.201   1.920  11.006  0.0567  0.3236 -0.6998
  747TMC3     C11094   0.110   2.033  10.613  0.4786 -0.2290  0.3647
  747TMC3     O11095   0.146   2.143  10.578 -0.0889  0.0360 -0.4634
  747TMC3     H11096   0.025   1.807  10.732  1.9810 -2.5089  0.5992
  747TMC3    H111097   0.252   2.169  10.781 -1.6180  0.7553 -0.6551
  747TMC3    H211098   0.239   1.890  11.103  1.5454  1.2395 -0.9950
  747TMC3    C711099   0.358   2.108  11.033  0.5682 -0.2821  0.0628
  747TMC3    C811100   0.034   1.735  10.986 -0.4972  0.0340  0.3373
  747TMC3    O111101   0.371   2.082  11.152  0.2827  0.1417 -0.4036
  747TMC3    O211102   4.705   1.653  10.927  0.3116 -0.0920  0.1839
  748MPD2     C11103   2.027   2.563   0.420  0.2120  0.4184 -0.8764
  748MPD2    C111104   1.993   2.563   0.552 -0.3221  0.3550 -0.1219
  748MPD2    C211105   2.061   2.649   0.637  0.2564 -0.0245  0.3786
  748MPD2    C311106   2.160   2.734   0.594  0.4054 -0.5571  0.5638
  748MPD2    C411107   2.203   2.718   0.464 -0.1202  1.0304 -0.9997
  748MPD2    C511108   2.140   2.629   0.376 -0.6294  0.1387 -0.1933
  748MPD2     H11109   2.039   2.644   0.743 -0.7427 -1.6576  0.0900
  748MPD2    H111110   2.286   2.763   0.411  1.3211 -0.5409 -0.0988
  748MPD2    H211111   1.974   2.491   0.358  1.7729 -0.2910 -1.3971
  748MPD2    H311112   2.171   2.615   0.273  0.8772  0.7303  0.1719
  748MPD2     N11113   2.231   2.820   0.686  0.6173  0.2501 -0.3208
  748MPD2    H511114   2.232   2.796   0.784  0.3735 -0.3613 -0.4644
  748MPD2    N111115   1.885   2.479   0.586  0.4335 -0.2700  0.0761
  748MPD2    H711116   1.860   2.411   0.514  2.7624  1.6423 -2.5690
  749TMC3    C111117   2.387   2.990   0.738  0.1115 -0.0080 -0.7685
  749TMC3    C211118   2.453   2.921   0.834 -0.0658  0.0979  0.1979
  749TMC3    C311119   2.529   2.992   0.914  0.2954 -0.1338 -0.4717
  749TMC3    C411120   2.396   3.127   0.718 -0.1577 -0.3573 -0.8291
  749TMC3    C511121   2.475   3.198   0.801 -0.3048  0.1028 -0.4587
  749TMC3    C611122   2.538   3.131   0.906  0.3800  0.2359 -0.7572
  749TMC3     C11123   2.320   2.917   0.633  0.0241  0.3453  0.2916
  749TMC3     O11124   2.302   2.978   0.527  0.4493 -0.1763  1.0873
  749TMC3     H11125   2.449   2.813   0.835 -0.5802  0.1154 -0.0183
  749TMC3    H111126   2.338   3.179   0.642 -2.1167 -1.4973 -0.1125
  749TMC3    H211127   2.603   3.188   0.970  0.6464 -0.3055 -0.5435
  749TMC3    C711128   2.470   3.341   0.793  0.2317 -0.3962 -0.1651
  749TMC3    C811129   2.610   2.930   1.020  0.2171  0.2079  0.3217
  749TMC3    O111130   2.491   3.407   0.894  0.3391  0.0025 -0.1224
  749TMC3    O211131   2.625   3.002   1.118 -0.2388 -0.0879 -0.2448
  750MPD2     C11132   2.535   3.543  10.992 -0.2979  0.1279  0.4127
  750MPD2    C111133   2.414   3.546  10.938  0.6397 -0.3694 -0.5779
  750MPD2    C211134   2.365   3.448  10.854 -0.3344 -0.2759  0.7750
  750MPD2    C311135   2.453   3.336  10.834 -0.0465  0.4764 -0.1165
  750MPD2    C411136   2.574   3.338  10.891 -0.5520 -0.0232  0.3202
  750MPD2    C511137   2.614   3.435  10.970  0.2836 -0.0068 -0.3095
  750MPD2     H11138   2.266   3.445  10.812 -1.0189  0.7353  2.2988
  750MPD2    H111139   2.633   3.248  10.880 -0.0156  0.4153 -0.3477
  750MPD2    H211140   2.572   3.618  11.061  1.5644 -0.5542  0.1504
  750MPD2    H311141   2.712   3.433  11.016 -0.3196  0.5137  0.9924
  750MPD2     N11142   2.431   3.231  10.748 -0.0883  0.6892 -0.0022
  750MPD2    H511143   2.511   3.170  10.733 -0.5732 -0.1406  0.8116
  750MPD2    N111144   2.333   3.653  10.978 -0.0196 -0.2006 -0.3467
  750MPD2    H711145   2.376   3.710  11.050  0.9175 -0.1520 -0.9449
  751TMC3    C111146   2.344   3.104  10.574  0.1256  0.3243  0.2141
  751TMC3    C211147   2.243   3.026  10.532 -0.0409 -0.4035  0.0259
  751TMC3    C311148   2.272   2.923  10.448  0.3660  0.7158  0.0946
  751TMC3    C411149   2.476   3.077  10.544 -0.2269  0.2156 -0.2509
  751TMC3    C511150   2.502   2.986  10.447  0.3681 -0.4493 -0.0301
  751TMC3    C611151   2.398   2.908  10.408  0.0054 -0.3768  0.2804
  751TMC3     C11152   2.315   3.199  10.679  0.4992 -0.6180  0.4754
  751TMC3     O11153   2.200   3.244  10.681 -0.5967 -0.5309  0.0460
  751TMC3     H11154   2.144   3.048  10.571  1.4104  1.3611  2.7473
  751TMC3    H111155   2.560   3.128  10.589 -0.7076 -0.4728  1.4218
  751TMC3    H211156   2.422   2.817  10.355 -0.6155  0.4541 -1.4384
  751TMC3    C711157   2.638   2.930  10.443  0.5176  0.0967 -0.2182
  751TMC3    C811158   2.185   2.803  10.423  0.0578 -0.3279  0.1714
  751TMC3    O111159   2.733   3.005  10.423  0.0230  0.6660 -0.1707
  751TMC3    O211160   2.217   2.742  10.319  0.2610 -0.1355  0.0510
  752TMC3    C111161   1.797   0.172  16.898  0.3188 -0.1387  0.3982
  752TMC3    C211162   1.889   0.084  16.952 -0.1517  0.1255  0.4736
  752TMC3    C311163   1.964   0.133  17.056 -0.4044  0.4310 -0.4670
  752TMC3    C411164   1.788   0.303  16.935  0.5679  0.2368 -0.1149
  752TMC3    C511165   1.868   0.351  17.035  0.6757 -0.0666 -0.0342
  752TMC3    C611166   1.959   0.267  17.095  0.6998 -0.0458  0.1994
  752TMC3     C11167   1.752   0.145  16.764  0.5240  0.4779  0.3566
  752TMC3     O11168   1.709   0.241  16.704 -0.5106 -0.0530  0.1181
  752TMC3     H11169   1.908   4.717  16.917 -1.5284 -0.7162  2.1042
  752TMC3    H111170   1.726   0.378  16.887  0.7579  0.9593  0.7811
  752TMC3    H211171   2.029   0.298  17.172  0.0335 -2.5912  1.8105
  752TMC3    C711172   1.862   0.494  17.064 -0.6690  0.1935  0.3647
  752TMC3    C811173   2.042   0.043  17.145 -0.5189  0.3590 -0.3624
  752TMC3    O111174   1.824   0.566  16.973 -0.0325  0.6334 -0.1565
  752TMC3    O211175   2.137   0.097  17.207  0.3740  0.3076 -0.1737
  753TMC3    C111176   3.578   4.538  14.139 -0.0272  0.8465 -0.2021
  753TMC3    C211177   3.468   4.577  14.212  0.5659  0.4452  0.0176
  753TMC3    C311178   3.347   4.555  14.154 -0.2850  0.0789  0.3246
  753TMC3    C411179   3.568   4.477  14.019 -0.2009  0.3194  0.2630
  753TMC3    C511180   3.443   4.476  13.960  0.7651 -0.0931 -0.3491
  753TMC3    C611181   3.330   4.507  14.028  0.1460  0.3474 -0.6785
  753TMC3     C11182   3.717   4.566  14.182 -0.0253 -0.5763  0.2299
  753TMC3     O11183   3.802   4.485  14.135  0.6328  0.5871  1.1719
  753TMC3     H11184   3.482   4.635  14.303 -1.6426  0.3476  0.4094
  753TMC3    H111185   3.658   4.446  13.968  0.1779  3.4533 -0.9618
  753TMC3    H211186   3.234   4.519  13.979 -1.0836 -0.3441  1.5369
  753TMC3    C711187   3.437   4.437  13.817 -0.1796 -0.5024  0.3615
  753TMC3    C811188   3.239   4.648  14.192  0.5318 -0.1736 -0.1914
  753TMC3    O111189   3.334   4.466  13.760  0.0449  0.0430 -0.3269
  753TMC3    O211190   3.146   4.672  14.115 -0.6000  0.2120  0.1412
  754MPD2     C11191   2.682   3.685  12.875  0.4051 -1.4327 -0.0204
  754MPD2    C111192   2.702   3.563  12.937 -0.8603  0.0995  0.6228
  754MPD2    C211193   2.595   3.476  12.956  0.4621 -0.0281  0.0681
  754MPD2    C311194   2.472   3.504  12.885 -0.6860 -0.5680 -0.0117
  754MPD2    C411195   2.464   3.618  12.813  0.1177  0.3718  0.4526
  754MPD2    C511196   2.569   3.705  12.796  0.7167 -0.7341  0.6051
  754MPD2     H11197   2.605   3.380  13.006  2.7715  1.3452  2.2590
  754MPD2    H111198   2.375   3.635  12.752 -0.0826 -2.1204  0.0549
  754MPD2    H211199   2.762   3.757  12.863 -1.5181  0.6097 -0.8391
  754MPD2    H311200   2.570   3.786  12.724 -1.9177  0.3577  1.7898
  754MPD2     N11201   2.361   3.433  12.908 -0.3906  0.0091 -0.0609
  754MPD2    H511202   2.271   3.472  12.880  0.2412  0.5698 -1.3141
  754MPD2    N111203   2.832   3.553  13.000  0.6179 -0.1717 -0.7512
  754MPD2    H711204   2.903   3.616  12.965  1.3839 -0.7337 -0.2175
  755MPD2     C11205   1.518   3.598  12.797  0.5864 -0.3278 -0.9203
  755MPD2    C111206   1.505   3.496  12.892 -0.0753 -0.4226  0.1716
  755MPD2    C211207   1.618   3.435  12.946  0.2132 -0.2990  1.0817
  755MPD2    C311208   1.744   3.469  12.898 -0.2290 -0.0911 -0.2755
  755MPD2    C411209   1.758   3.564  12.795  0.1248 -0.4706  0.6889
  755MPD2    C511210   1.643   3.629  12.751  0.0139  0.1279 -0.4115
  755MPD2     H11211   1.599   3.356  13.018  0.4688  0.5572  2.0689
  755MPD2    H111212   1.854   3.605  12.765  0.0014 -1.2577 -0.7569
  755MPD2    H211213   1.434   3.653  12.756 -0.1447 -0.9999 -0.3165
  755MPD2    H311214   1.655   3.713  12.683  0.0464 -0.0265 -0.5964
  755MPD2     N11215   1.867   3.405  12.934 -0.2082  0.1721  0.1041
  755MPD2    H511216   1.953   3.435  12.889 -0.8820  3.0886  0.7850
  755MPD2    N111217   1.381   3.453  12.945 -0.3730 -0.3246 -0.1445
  755MPD2    H711218   1.383   3.366  12.996 -0.4409 -2.0012 -3.0185
  756MPD2     C11219   2.081   0.396  10.020  0.5089 -0.5560 -0.4405
  756MPD2    C111220   2.027   0.271   9.995  0.2522 -0.6739 -0.3153
  756MPD2    C211221   1.935   0.263   9.897 -0.1912  0.1135  0.0288
  756MPD2    C311222   1.894   0.377   9.827  0.6254  1.3694 -0.0384
  756MPD2    C411223   1.953   0.494   9.846 -0.5633  0.4646  0.0591
  756MPD2    C511224   2.046   0.502   9.948  0.2174 -0.9521  0.0520
  756MPD2     H11225   1.892   0.166   9.877  1.8985 -1.0807  1.3945
  756MPD2    H111226   1.931   0.585   9.793  1.6810 -0.6415 -2.7708
  756MPD2    H211227   2.146   0.416  10.105 -1.9379 -1.9562  1.7543
  756MPD2    H311228   2.073   0.605   9.970 -1.6216 -0.6813  1.0679
  756MPD2     N11229   1.777   0.370   9.738 -0.3219  0.0184  0.1002
  756MPD2    H511230   1.717   0.289   9.736 -0.8392  0.3881  0.6433
  756MPD2    N111231   2.064   0.149  10.062  0.1826  0.2898  0.4276
  756MPD2    H711232   2.014   0.069  10.025 -0.1023 -0.0369  1.5260
  757MPD2     C11233   1.154   0.040  10.205 -0.1369 -0.9590  0.4459
  757MPD2    C111234   1.264   4.719  10.133 -0.2814 -0.2239 -0.2476
  757MPD2    C211235   1.323   0.060  10.030 -0.4179  0.3959  0.9129
  757MPD2    C311236   1.279   0.185  10.000 -0.6859  0.2365 -0.1883
  757MPD2    C411237   1.172   0.243  10.074  0.9708  0.3896 -0.5022
  757MPD2    C511238   1.123   0.169  10.179  0.5531  0.4800 -0.6026
  757MPD2     H11239   1.410   0.023   9.976 -1.8764  0.1240 -1.2000
  757MPD2    H111240   1.144   0.348  10.069  0.3594  0.1892 -1.2425
  757MPD2    H211241   1.111   4.721  10.290  0.1571 -0.4916  0.8842
  757MPD2    H311242   1.043   0.219  10.233 -0.4344 -0.8363 -0.8573
  757MPD2     N11243   1.341   0.246   9.885  0.0325 -0.2887  0.2261
  757MPD2    H511244   1.408   0.185   9.841 -1.7426 -1.3600 -0.9692
  757MPD2    N111245   1.298   4.589  10.167  0.2295 -0.0050  0.6251
  757MPD2    H711246   1.243   4.541  10.238 -0.1426  1.4500  1.3074
  758MPD2     C11247   1.986   3.346  15.602 -0.0322 -0.0093  0.1855
  758MPD2    C111248   2.090   3.296  15.668 -0.0649 -0.1974  0.8178
  758MPD2    C211249   2.084   3.304  15.805 -0.6682  0.3663  0.2816
  758MPD2    C311250   1.985   3.362  15.877 -0.5858  0.2414 -0.1833
  758MPD2    C411251   1.887   3.422  15.806  0.3176 -1.3949  0.0848
  758MPD2    C511252   1.878   3.413  15.669 -0.3065 -0.7064  0.0751
  758MPD2     H11253   2.169   3.254  15.851 -1.4853 -0.2326  1.1311
  758MPD2    H111254   1.805   3.476  15.853  1.2544  0.6532 -0.6401
  758MPD2    H211255   1.976   3.345  15.494  1.3431 -0.4222  0.0643
  758MPD2    H311256   1.792   3.454  15.617  0.5389  0.2892 -0.5461
  758MPD2     N11257   1.993   3.369  16.022  0.2797  0.0704  0.1708
  758MPD2    H511258   1.916   3.421  16.064  2.1518  3.0534 -0.0584
  758MPD2    N111259   2.198   3.235  15.596  0.7773 -0.3544 -0.3847
  758MPD2    H711260   2.179   3.213  15.498  0.5664 -0.6887 -0.2686
  759MPD2     C11261   0.636   1.469  11.112 -0.2027  1.1776  0.0731
  759MPD2    C111262   0.600   1.364  11.027  0.3578 -0.3531 -0.1377
  759MPD2    C211263   0.663   1.353  10.903  0.3552  0.7585  1.3336
  759MPD2    C311264   0.752   1.445  10.867  0.0238 -1.2785  0.5227
  759MPD2    C411265   0.781   1.551  10.954 -0.1720 -0.4164 -0.6758
  759MPD2    C511266   0.734   1.555  11.079  0.1933 -0.4848  0.1680
  759MPD2     H11267   0.631   1.276  10.833  0.3608  1.0947  0.9607
  759MPD2    H111268   0.873   1.605  10.935  0.0106  0.0528  1.6042
  759MPD2    H211269   0.598   1.473  11.213 -1.8196  3.1377 -0.6235
  759MPD2    H311270   0.781   1.624  11.148 -0.0016  1.4133 -1.5962
  759MPD2     N11271   0.826   1.428  10.745  0.1732  0.0941 -0.1271
  759MPD2    H511272   0.815   1.336  10.704 -1.0470 -0.3673  1.2329
  759MPD2    N111273   0.501   1.264  11.053 -0.5261 -0.0900  0.2308
  759MPD2    H711274   0.488   1.183  10.994  0.3953 -1.6949  2.2007
  760MPD2     C11275   1.039   3.844  11.613 -0.1443  0.2209 -0.4019
  760MPD2    C111276   1.006   3.814  11.742  0.3150 -0.2135 -0.7357
  760MPD2    C211277   1.058   3.701  11.799  0.4289  0.9894  0.1358
  760MPD2    C311278   1.138   3.612  11.721 -0.0012 -0.3481 -0.3574
  760MPD2    C411279   1.152   3.634  11.586  1.0128  0.0577 -0.0510
  760MPD2    C511280   1.105   3.756  11.533 -0.1113  0.5302 -0.1085
  760MPD2     H11281   1.034   3.685  11.904  1.6722 -1.3240  0.0565
  760MPD2    H111282   1.200   3.558  11.525  1.0991 -0.5371  0.7635
  760MPD2    H211283   1.000   3.930  11.559  0.1800  0.6353  0.0339
  760MPD2    H311284   1.121   3.773  11.427 -1.2040 -1.1158 -0.5389
  760MPD2     N11285   1.198   3.497  11.773  0.8774 -0.1706  0.1121
  760MPD2    H511286   1.245   3.427  11.716 -1.8157 -1.1514 -0.9127
  760MPD2    N111287   0.931   3.897  11.830  0.3042  0.1544  0.3581
  760MPD2    H711288   0.887   3.859  11.913  2.1519  1.4890  1.9268
  761MPD2     C11289   1.856   2.444  10.551 -0.4132  0.2343 -0.2109
  761MPD2    C111290   1.969   2.443  10.476 -0.2809  0.6715  0.0050
  761MPD2    C211291   2.042   2.560  10.459  0.8438  0.4766 -0.2045
  761MPD2    C311292   2.006   2.675  10.531 -0.2859 -0.4305  0.2674
  761MPD2    C411293   1.898   2.671  10.618 -0.3093  0.2582 -0.9876
  761MPD2    C511294   1.821   2.556  10.624  0.4133 -0.2326  0.5072
  761MPD2     H11295   2.125   2.554  10.390  1.6533  2.0734  0.6216
  761MPD2    H111296   1.866   2.756  10.678 -0.3231 -0.2350 -0.2916
  761MPD2    H211297   1.785   2.362  10.551 -1.1055  0.8273  0.2486
  761MPD2    H311298   1.724   2.547  10.671  0.3327 -0.0401  0.3749
  761MPD2     N11299   2.083   2.791  10.520  0.0702 -0.7500 -0.5381
  761MPD2    H511300   2.078   2.871  10.582  3.0461  0.6864 -2.1636
  761MPD2    N111301   2.025   2.316  10.436  0.0172 -0.0894 -0.5574
  761MPD2    H711302   1.970   2.234  10.460  0.2815  0.4465  1.8893
  762MPD2     C11303   2.560   2.476  10.225  0.0218 -0.0916  0.2040
  762MPD2    C111304   2.603   2.367  10.296  0.1564  0.4253  1.0243
  762MPD2    C211305   2.733   2.329  10.280  0.0358 -0.1259  0.3474
  762MPD2    C311306   2.812   2.383  10.177 -1.2430 -0.2965  0.6439
  762MPD2    C411307   2.770   2.496  10.112  0.0484  0.6321  0.1927
  762MPD2    C511308   2.641   2.536  10.135  0.0247  0.3956  0.4164
  762MPD2     H11309   2.765   2.239  10.332 -0.8486 -1.3853 -1.2753
  762MPD2    H111310   2.834   2.553  10.046  0.8188  1.6872  1.8512
  762MPD2    H211311   2.459   2.514  10.236 -0.2588 -0.2820 -1.6642
  762MPD2    H311312   2.599   2.619  10.080  0.7261 -1.2512 -2.6029
  762MPD2     N11313   2.938   2.325  10.154 -0.3698  0.3692  0.2785
  762MPD2    H511314   2.952   2.238  10.204  3.7353  1.7512  1.4670
  762MPD2    N111315   2.515   2.305  10.393  0.2288 -0.0941 -0.0763
  762MPD2    H711316   2.417   2.332  10.387 -0.0344 -0.7336  1.2623
  763MPD2     C11317   4.320   3.124  15.931  0.1767  0.5368  0.3767
  763MPD2    C111318   4.199   3.160  15.878 -0.8874  0.5341  0.0795
  763MPD2    C211319   4.168   3.291  15.873  0.1701  0.4233  0.1542
  763MPD2    C311320   4.258   3.387  15.915 -0.6180 -0.1298 -0.8264
  763MPD2    C411321   4.386   3.351  15.959  0.5718  0.1149  0.1259
  763MPD2    C511322   4.414   3.219  15.966 -0.6773  0.4692 -0.8268
  763MPD2     H11323   4.073   3.321  15.830 -0.1050  0.0275  0.4834
  763MPD2    H111324   4.451   3.423  16.006 -2.5625  3.5179 -0.7683
  763MPD2    H211325   4.361   3.027  15.956  0.6530  0.9967  1.3722
  763MPD2    H311326   4.509   3.189  16.009  0.0524  2.0161 -1.3538
  763MPD2     N11327   4.229   3.520  15.914 -0.5485  0.2962  0.2319
  763MPD2    H511328   4.309   3.580  15.927 -0.7053  0.2698  1.2961
  763MPD2    N111329   4.120   3.053  15.821 -0.1328  0.0436  0.6843
  763MPD2    H711330   4.043   3.081  15.762 -0.0217 -0.9578  0.0724
  764MPD2     C11331   2.514   0.185  17.484  0.0182  0.5515 -0.2562
  764MPD2    C111332   2.398   0.173  17.417 -0.0833 -0.6830 -0.4663
  764MPD2    C211333   2.289   0.121  17.481 -0.8139 -0.5532 -0.3819
  764MPD2    C311334   2.289   0.066  17.607 -0.8621 -0.0718  0.2775
  764MPD2    C411335   2.406   0.080  17.679 -0.4703 -0.0631 -1.0486
  764MPD2    C511336   2.519   0.140  17.618 -0.1700 -0.5151 -0.5376
  764MPD2     H11337   2.192   0.133  17.435 -0.6682 -2.1820 -1.1109
  764MPD2    H111338   2.417   0.041   0.044 -1.6256  0.9748 -0.5184
  764MPD2    H211339   2.607   0.230  17.451  0.0469  0.9567  0.3777
  764MPD2    H311340   2.608   0.155  17.678 -1.0911  0.3587  0.6195
  764MPD2     N11341   2.175   0.014  17.664  0.0385 -0.2788  0.2135
  764MPD2    H511342   2.091   0.014  17.607  0.2485  1.3315 -0.0768
  764MPD2    N111343   2.381   0.180  17.279  1.0264  0.6463 -0.4408
  764MPD2    H711344   2.296   0.138  17.242  1.0051 -0.0977  0.4401
  765MPD2     C11345   1.600   2.251  15.788  0.7420  0.1826  0.6580
  765MPD2    C111346   1.670   2.358  15.751  0.9020 -0.5231 -0.0389
  765MPD2    C211347   1.802   2.340  15.698 -0.8224  0.2049 -0.3398
  765MPD2    C311348   1.855   2.216  15.686 -0.2468 -0.3944 -0.2331
  765MPD2    C411349   1.775   2.107  15.721  0.4100 -0.3600 -0.3139
  765MPD2    C511350   1.657   2.131  15.776  0.8523 -0.2895  0.5454
  765MPD2     H11351   1.854   2.428  15.663 -0.0050  0.5843  1.7939
  765MPD2    H111352   1.808   2.005  15.705  3.7853  0.6817 -0.1067
  765MPD2    H211353   1.499   2.257  15.827  0.5671  0.2890  0.1884
  765MPD2    H311354   1.590   2.047  15.792  0.4339 -0.3358 -1.4285
  765MPD2     N11355   1.985   2.210  15.637  0.3396  0.1541  0.3835
  765MPD2    H511356   2.028   2.299  15.614 -1.0418  0.1027 -2.3449
  765MPD2    N111357   1.596   2.483  15.757 -0.0761 -0.5750 -0.5264
  765MPD2    H711358   1.506   2.477  15.803 -0.6160  1.1881 -1.3714
  766MPD2     C11359   1.011   2.630  15.361 -0.4177 -0.2926 -0.1269
  766MPD2    C111360   1.152   2.623  15.365  0.0403 -0.6491  0.3618
  766MPD2    C211361   1.224   2.576  15.251 -0.0043 -0.6249 -0.6933
  766MPD2    C311362   1.147   2.546  15.138 -0.6548  0.8974  0.0635
  766MPD2    C411363   1.012   2.553  15.141 -0.1485 -0.4979  0.5937
  766MPD2    C511364   0.945   2.591  15.250  0.3623 -0.5629  1.1029
  766MPD2     H11365   1.330   2.596  15.240 -0.3567  1.5645 -0.1522
  766MPD2    H111366   0.949   2.527  15.056  0.8151 -1.5829  0.2170
  766MPD2    H211367   0.964   2.654  15.455  0.3599 -1.1767  0.4858
  766MPD2    H311368   0.837   2.581  15.251  0.1658  1.2714 -1.5650
  766MPD2     N11369   1.214   2.510  15.017  0.0123  0.0994  0.0229
  766MPD2    H511370   1.154   2.512  14.934  0.4021  1.1467 -0.2374
  766MPD2    N111371   1.231   2.665  15.472  1.1673 -0.4218 -0.5302
  766MPD2    H711372   1.329   2.640  15.469  1.4717  0.7291 -0.1337
  767MPD2     C11373   0.895   2.764  14.798  0.6246 -1.2226 -0.4117
  767MPD2    C111374   1.025   2.802  14.788 -0.1794  0.1176 -0.3330
  767MPD2    C211375   1.094   2.771  14.667 -0.2480 -0.0464  0.4918
  767MPD2    C311376   1.024   2.712  14.564  0.1756  1.0240 -0.4991
  767MPD2    C411377   0.886   2.685  14.576 -0.8216 -0.2346  0.3033
  767MPD2    C511378   0.831   2.707  14.692 -0.0952 -0.5865  0.1555
  767MPD2     H11379   1.194   2.804  14.643 -1.4985  1.7053 -2.3573
  767MPD2    H111380   0.823   2.642  14.499  1.8511 -4.1157  0.2967
  767MPD2    H211381   0.845   2.777  14.893  0.8461 -1.6331 -0.2394
  767MPD2    H311382   0.733   2.663  14.710 -0.3748  0.4452  1.1734
  767MPD2     N11383   1.094   2.685  14.441 -0.1547 -0.2280 -0.3850
  767MPD2    H511384   1.191   2.712  14.434 -0.0284 -0.2864  1.3069
  767MPD2    N111385   1.079   2.881  14.892  0.5366 -0.9084  0.2822
  767MPD2    H711386   1.023   2.885  14.976 -1.0024 -0.8631 -0.7256
  768MPD2     C11387   2.410   1.625  10.355 -0.9772 -0.2061 -0.8988
  768MPD2    C111388   2.324   1.558  10.449 -0.0911 -0.2757  0.4834
  768MPD2    C211389   2.382   1.453  10.515  0.0881  0.3626  0.5723
  768MPD2    C311390   2.511   1.426  10.500 -0.0140  0.4520 -0.4375
  768MPD2    C411391   2.590   1.494  10.406  0.0948 -0.5579 -0.0079
  768MPD2    C511392   2.539   1.595  10.333  0.4420  0.7122  0.2753
  768MPD2     H11393   2.304   1.396  10.564 -0.0205  0.6345  0.7117
  768MPD2    H111394   2.696   1.478  10.394  0.0021 -1.1360 -0.0901
  768MPD2    H211395   2.372   1.715  10.309  1.6199  0.9130 -0.8308
  768MPD2    H311396   2.603   1.646  10.263  1.2411  2.1881  2.0855
  768MPD2     N11397   2.579   1.334  10.581  0.0728  0.4988 -0.1987
  768MPD2    H511398   2.679   1.336  10.564  0.5509  1.3506  2.7151
  768MPD2    N111399   2.194   1.598  10.491 -0.3977  0.4665 -0.0125
  768MPD2    H711400   2.137   1.532  10.543  1.1738 -1.2405 -0.4814
  769MPD2     C11401   3.446   3.823  14.700 -1.1849  0.3778 -0.0695
  769MPD2    C111402   3.343   3.785  14.789 -0.1844  0.2344  1.0263
  769MPD2    C211403   3.334   3.854  14.907 -0.0129  0.1222  0.4941
  769MPD2    C311404   3.435   3.944  14.941 -0.4670  0.4394  0.0240
  769MPD2    C411405   3.538   3.980  14.849 -0.4975 -0.2433 -0.0562
  769MPD2    C511406   3.543   3.912  14.730  0.4900 -0.1241  0.0331
  769MPD2     H11407   3.256   3.832  14.978  0.4825 -3.0516  0.0405
  769MPD2    H111408   3.618   4.051  14.866 -0.2202 -0.9421  1.5416
  769MPD2    H211409   3.452   3.773  14.604 -2.7054  2.1241 -1.0819
  769MPD2    H311410   3.615   3.941  14.654  0.5761 -1.0650 -0.2433
  769MPD2     N11411   3.427   4.004  15.070  0.2142  0.3503 -0.0333
  769MPD2    H511412   3.360   3.964  15.135 -1.2565  1.3640 -0.9338
  769MPD2    N111413   3.248   3.684  14.745 -0.2801  0.2915  0.0267
  769MPD2    H711414   3.257   3.647  14.650  0.6887  3.9833 -1.3407
  770MPD2     C11415   2.322   3.114  14.946  0.9223 -0.8206  0.0882
  770MPD2    C111416   2.350   3.098  14.814 -0.0577  0.5617  0.3430
  770MPD2    C211417   2.463   3.158  14.759 -0.0748 -0.2228 -0.0538
  770MPD2    C311418   2.552   3.221  14.842 -0.4566  0.1389  0.3653
  770MPD2    C411419   2.524   3.237  14.979  0.4045 -0.3113 -0.2717
  770MPD2    C511420   2.411   3.183  15.029 -0.4310  0.5865 -0.2996
  770MPD2     H11421   2.484   3.143  14.654 -1.1176 -0.0158 -0.2968
  770MPD2    H111422   2.595   3.289  15.042  1.2983 -0.0962 -1.4515
  770MPD2    H211423   2.228   3.075  14.984  0.4725  0.1328 -0.0521
  770MPD2    H311424   2.390   3.184  15.136 -0.6205  1.5564 -0.3469
  770MPD2     N11425   2.667   3.277  14.777 -0.2647  0.2464 -0.3675
  770MPD2    H511426   2.679   3.275  14.676 -4.3595  0.3825 -0.8614
  770MPD2    N111427   2.246   3.029  14.741 -0.4764  0.6344 -0.2066
  770MPD2    H711428   2.160   2.995  14.784  0.5231 -0.4636  0.9471
  771MPD2     C11429   3.747   1.826  13.605  0.0846  0.2995 -0.2811
  771MPD2    C111430   3.711   1.944  13.533  0.0027  0.4435  0.3795
  771MPD2    C211431   3.592   1.944  13.466 -0.0504 -0.2618 -0.6145
  771MPD2    C311432   3.499   1.837  13.465  0.2816 -0.0226 -0.7098
  771MPD2    C411433   3.527   1.734  13.556  0.1234  0.0177  0.2312
  771MPD2    C511434   3.645   1.732  13.628  0.2479  0.2402 -0.3903
  771MPD2     H11435   3.569   2.034  13.410  2.1534  1.7484  1.7225
  771MPD2    H111436   3.458   1.652  13.572 -0.3798  0.0591 -1.6314
  771MPD2    H211437   3.849   1.814  13.639 -0.0212  2.2099  0.7271
  771MPD2    H311438   3.671   1.647  13.691 -1.2414 -0.8913 -1.3080
  771MPD2     N11439   3.389   1.844  13.376  0.1854 -0.3605 -0.4467
  771MPD2    H511440   3.384   1.927  13.317 -0.3032 -1.7949 -2.4201
  771MPD2    N111441   3.787   2.056  13.525 -0.9694 -0.2957 -0.2711
  771MPD2    H711442   3.739   2.135  13.483  0.7528  0.8947  0.0125
  772MPD2     C11443   3.724   2.725  13.872  0.0480  0.5256 -1.1234
  772MPD2    C111444   3.673   2.608  13.811 -0.1138  0.0034 -0.2354
  772MPD2    C211445   3.535   2.593  13.798 -0.7436 -0.4312 -0.1317
  772MPD2    C311446   3.450   2.689  13.849 -1.2635 -0.2376  0.6013
  772MPD2    C411447   3.501   2.795  13.919 -0.1721 -0.1870  0.5604
  772MPD2    C511448   3.638   2.807  13.934 -0.7703  0.3173 -0.1733
  772MPD2     H11449   3.499   2.512  13.736 -0.5155  1.7111 -3.0230
  772MPD2    H111450   3.438   2.869  13.966  1.9415  1.0389  1.4677
  772MPD2    H211451   3.827   2.756  13.889 -0.1372  0.3365  0.3555
  772MPD2    H311452   3.681   2.897  13.976 -0.8410 -0.5861  1.8599
  772MPD2     N11453   3.312   2.691  13.830 -0.6585  0.6789  0.0411
  772MPD2    H511454   3.265   2.772  13.869  1.1310  1.2464  1.0284
  772MPD2    N111455   3.757   2.505  13.749 -0.4587 -0.5928  0.2398
  772MPD2    H711456   3.712   2.425  13.707  0.6353 -0.6530 -0.8420
  773MPD2     C11457   3.012   3.372   0.245 -0.9655  0.4904 -0.1685
  773MPD2    C111458   2.933   3.285   0.173  0.0417  0.5407  0.0965
  773MPD2    C211459   2.954   3.154   0.209  0.3736 -0.6162 -0.2223
  773MPD2    C311460   3.032   3.119   0.316  0.8284 -0.1602  0.2630
  773MPD2    C411461   3.094   3.214   0.392  0.8216  0.3026 -0.2842
  773MPD2    C511462   3.082   3.340   0.357 -0.3575  0.2592 -0.4568
  773MPD2     H11463   2.901   3.070   0.165  0.1665  0.4963 -2.0835
  773MPD2    H111464   3.149   3.186   0.480 -0.1126 -0.9401 -0.0949
  773MPD2    H211465   3.036   3.472   0.210 -1.4078  0.6379 -0.0466
  773MPD2    H311466   3.145   3.411   0.409  1.5419 -0.7293 -1.4101
  773MPD2     N11467   3.044   2.985   0.339 -0.0506  0.6059  0.1512
  773MPD2    H511468   2.995   2.916   0.283  3.2487 -1.5651 -0.0625
  773MPD2    N111469   2.849   3.314   0.064 -1.0627 -0.0156 -0.6321
  773MPD2    H711470   2.793   3.235   0.034 -1.2193 -0.5644  1.0977
  774MPD2     C11471   2.587   2.676  13.514 -0.1827  0.2341 -0.0888
  774MPD2    C111472   2.491   2.750  13.455  0.6469  0.0748 -0.0587
  774MPD2    C211473   2.511   2.884  13.447  0.4002 -0.1593 -0.9285
  774MPD2    C311474   2.631   2.942  13.487  0.2702  0.0475 -0.4517
  774MPD2    C411475   2.725   2.855  13.540 -0.5351  0.5134  0.5516
  774MPD2    C511476   2.701   2.728  13.571  0.1730 -0.2048 -0.0893
  774MPD2     H11477   2.442   2.948  13.392  0.0376 -0.6875 -1.0851
  774MPD2    H111478   2.829   2.874  13.566  0.3180 -3.0184 -0.2318
  774MPD2    H211479   2.563   2.572  13.531  3.3231 -0.5678 -0.0625
  774MPD2    H311480   2.782   2.663  13.602  0.1852 -0.7867 -1.3499
  774MPD2     N11481   2.659   3.070  13.433 -0.8053  0.7137  0.3968
  774MPD2    H511482   2.577   3.107  13.387 -1.3544 -0.4114  0.4700
  774MPD2    N111483   2.365   2.690  13.418 -0.1860 -0.0360 -0.1485
  774MPD2    H711484   2.342   2.595  13.443  0.8446 -0.1662  0.3131
  775MPD2     C11485   3.553   3.901  15.521  0.1621  0.6077 -0.2860
  775MPD2    C111486   3.567   4.000  15.611 -0.0299  0.7535 -0.5038
  775MPD2    C211487   3.672   4.089  15.601  0.1670 -0.4802 -0.2472
  775MPD2    C311488   3.758   4.078  15.493 -0.4024  0.1357  0.4433
  775MPD2    C411489   3.732   3.988  15.394  0.1325 -0.3400  0.5699
  775MPD2    C511490   3.626   3.907  15.406  0.2804 -0.0193 -0.2191
  775MPD2     H11491   3.680   4.170  15.673 -0.8718 -2.1570  1.7503
  775MPD2    H111492   3.785   3.978  15.300 -0.2076 -3.5899  0.7362
  775MPD2    H211493   3.486   3.816  15.529 -0.0990  0.9755  1.4687
  775MPD2    H311494   3.606   3.843  15.321  0.8989 -1.1714  0.5156
  775MPD2     N11495   3.858   4.178  15.474 -0.5490 -0.4007  0.1691
  775MPD2    H511496   3.896   4.193  15.381 -2.0826  1.9616 -0.0795
  775MPD2    N111497   3.473   3.994  15.716  0.4762 -0.2298  1.0053
  775MPD2    H711498   3.410   3.915  15.728 -2.2929  1.8808  0.1959
  776MPD2     C11499   2.641   4.139  11.234  0.0524 -0.5116 -0.2472
  776MPD2    C111500   2.516   4.179  11.196 -0.6516  0.4711 -0.7465
  776MPD2    C211501   2.482   4.308  11.191  0.7223 -0.6634  0.4231
  776MPD2    C311502   2.578   4.406  11.211 -0.3523 -0.5797 -0.5728
  776MPD2    C411503   2.700   4.365  11.248  0.1181  0.4702 -0.4782
  776MPD2    C511504   2.730   4.234  11.268 -0.1633  0.3157 -0.1982
  776MPD2     H11505   2.382   4.332  11.156  0.4883 -0.2765  1.3773
  776MPD2    H111506   2.779   4.437  11.266  0.0379  0.3542  0.3569
  776MPD2    H211507   2.668   4.035  11.250 -0.6558 -0.5969  0.3650
  776MPD2    H311508   2.828   4.197  11.292 -0.0531  0.0886 -0.9953
  776MPD2     N11509   2.564   4.542  11.186  0.2937  0.2706  0.2891
  776MPD2    H511510   2.648   4.598  11.199  1.7596 -1.7232 -0.6797
  776MPD2    N111511   2.422   4.083  11.164  0.8236  0.0351  0.2634
  776MPD2    H711512   2.444   3.985  11.150  1.1234  0.1513 -0.1012
  777MPD2     C11513   3.094   2.117   0.429 -0.3377 -0.2958  0.1964
  777MPD2    C111514   3.075   2.016   0.516 -0.6362 -0.0828  0.2143
  777MPD2    C211515   3.011   1.904   0.465 -0.7554  0.0463  0.3930
  777MPD2    C311516   2.972   1.898   0.334 -0.1386  0.3735 -0.5703
  777MPD2    C411517   2.979   2.008   0.253 -0.3518  0.2659  0.5367
  777MPD2    C511518   3.054   2.115   0.300  0.3938  0.2143  0.4686
  777MPD2     H11519   2.990   1.819   0.528 -0.4647  1.8248  2.8694
  777MPD2    H111520   2.952   2.001   0.149 -2.0836 -0.1282  1.0062
  777MPD2    H211521   3.142   2.210   0.457 -0.5246 -0.6098  1.5816
  777MPD2    H311522   3.058   2.203   0.237 -2.0692 -1.6283 -2.2282
  777MPD2     N11523   2.909   1.780   0.290  0.2137 -0.1111 -0.0987
  777MPD2    H511524   2.884   1.711   0.360 -1.9493 -1.1050 -1.8498
  777MPD2    N111525   3.101   2.044   0.654  0.2255 -0.0185  0.0588
  777MPD2    H711526   3.139   2.132   0.688  0.0373 -0.5341  1.6153
  778MPD2     C11527   4.116   2.239  14.962 -0.5994  0.1360 -0.7509
  778MPD2    C111528   4.101   2.166  14.851  0.0062  0.4372 -0.3588
  778MPD2    C211529   4.173   2.190  14.734 -0.8544  0.3520 -0.3494
  778MPD2    C311530   4.267   2.292  14.736 -0.0777  0.1330  0.1895
  778MPD2    C411531   4.298   2.355  14.856 -0.6189  0.3236  0.3152
  778MPD2    C511532   4.217   2.333  14.964 -0.9782  0.3702  0.5974
  778MPD2     H11533   4.159   2.126  14.648 -0.3313 -1.4672  0.9422
  778MPD2    H111534   4.369   2.435  14.872 -0.5041  0.7948 -2.5160
  778MPD2    H211535   4.057   2.234  15.053 -0.7112 -0.7296 -0.8749
  778MPD2    H311536   4.245   2.385  15.055 -2.5883  0.1784  1.2011
  778MPD2     N11537   4.351   2.304  14.625  0.1887 -0.4904  0.7730
  778MPD2    H511538   4.342   2.239  14.548  0.3337  1.3028 -0.7616
  778MPD2    N111539   4.001   2.065  14.836 -0.6267 -0.5150 -0.3314
  778MPD2    H711540   3.996   2.011  14.751  0.4230 -0.9287 -0.1328
  779MPD2     C11541   3.280   0.899  14.713  0.9031 -0.1345  0.3559
  779MPD2    C111542   3.389   0.880  14.800 -0.5877  0.2290  0.9389
  779MPD2    C211543   3.499   0.965  14.794 -0.2802  0.0975 -0.4531
  779MPD2    C311544   3.510   1.059  14.696  0.1518  0.1947 -0.2149
  779MPD2    C411545   3.396   1.085  14.626  0.3150  0.2950  0.3667
  779MPD2    C511546   3.281   1.005  14.635  0.1133  0.8920 -0.9009
  779MPD2     H11547   3.590   0.953  14.852 -0.5822  1.2689  0.2607
  779MPD2    H111548   3.391   1.172  14.561  0.3348 -1.4981 -2.0103
  779MPD2    H211549   3.189   0.841  14.725  1.1175 -0.3353  1.0032
  779MPD2    H311550   3.202   1.028  14.565  0.1231  1.8009 -0.6209
  779MPD2     N11551   3.634   1.113  14.671  0.1481  0.0492 -0.5591
  779MPD2    H511552   3.715   1.076  14.721  0.5303  0.7816 -0.6308
  779MPD2    N111553   3.405   0.769  14.882 -0.0939 -0.4943  1.0460
  779MPD2    H711554   3.483   0.772  14.947  0.0311  1.5935  0.7951
  780MPD2     C11555   3.604   1.124   0.680  0.0961  1.0013 -0.3809
  780MPD2    C111556   3.483   1.100   0.624  0.5548  0.4014  0.2634
  780MPD2    C211557   3.459   1.149   0.494  0.2882 -0.0204  0.2761
  780MPD2    C311558   3.551   1.226   0.428 -0.1763 -0.4323  0.2221
  780MPD2    C411559   3.675   1.246   0.489  0.0106  0.1921  0.5609
  780MPD2    C511560   3.701   1.197   0.618 -1.0543 -0.9008  0.8306
  780MPD2     H11561   3.362   1.143   0.446  0.0470  2.4683  0.4385
  780MPD2    H111562   3.753   1.301   0.437 -1.6047  2.8468  0.9990
  780MPD2    H211563   3.625   1.094   0.782  1.0538 -0.8268 -1.1315
  780MPD2    H311564   3.792   1.222   0.670  0.3246 -0.9203 -1.5708
  780MPD2     N11565   3.517   1.273   0.297 -0.1124 -0.1167  0.0930
  780MPD2    H511566   3.427   1.245   0.260 -0.6913  1.1204  0.5839
  780MPD2    N111567   3.383   1.038   0.700  0.2418  0.4887 -0.2727
  780MPD2    H711568   3.410   1.017   0.796 -2.7369 -0.9728  0.2513
  781MPD2     C11569   0.057   2.795  11.840  0.8844 -0.8451 -0.2722
  781MPD2    C111570   0.149   2.738  11.928 -0.5174 -0.4374 -0.1803
  781MPD2    C211571   0.256   2.672  11.883 -0.2065 -0.5663  0.2499
  781MPD2    C311572   0.295   2.662  11.753  0.3783 -0.9908 -0.4874
  781MPD2    C411573   0.201   2.706  11.663  0.0468  0.6725 -0.2787
  781MPD2    C511574   0.092   2.776  11.707 -1.0957  0.8496 -0.2405
  781MPD2     H11575   0.305   2.614  11.960  0.9026  0.4320  0.3018
  781MPD2    H111576   0.222   2.696  11.557 -0.3960  1.1296 -0.4130
  781MPD2    H211577   4.711   2.862  11.867  0.9419  0.0535 -2.3514
  781MPD2    H311578   0.023   2.815  11.633  2.1571  3.6415 -1.8123
  781MPD2     N11579   0.413   2.612  11.705  0.7383  0.4862  0.2683
  781MPD2    H511580   0.428   2.621  11.605 -0.5590 -0.3289 -0.0014
  781MPD2    N111581   0.135   2.735  12.066  0.4565  0.1438  0.1566
  781MPD2    H711582   0.216   2.708  12.120  0.2444 -0.3254  0.2363
  782MPD2     C11583   2.974   3.065   9.890 -0.8566  0.2165 -0.5535
  782MPD2    C111584   3.088   3.069   9.964 -0.2693 -0.6143 -0.3327
  782MPD2    C211585   3.136   3.190  10.020 -0.8055 -0.2722  0.2419
  782MPD2    C311586   3.065   3.307   9.992  0.9781 -0.1977 -0.5924
  782MPD2    C411587   2.956   3.308   9.909 -0.7637 -0.1209  0.6856
  782MPD2    C511588   2.914   3.187   9.862  0.3543 -0.1441 -0.1418
  782MPD2     H11589   3.212   3.200  10.096 -0.3669  3.0801 -0.6556
  782MPD2    H111590   2.890   3.392   9.892  0.2689  0.5206 -0.1681
  782MPD2    H211591   2.935   2.970   9.857  1.9673 -1.3702  0.6066
  782MPD2    H311592   2.831   3.182   9.793  1.1519 -0.7165 -1.0469
  782MPD2     N11593   3.126   3.429  10.042 -0.1807 -0.0240 -0.5369
  782MPD2    H511594   3.192   3.430  10.119  0.4488 -0.2862 -1.0710
  782MPD2    N111595   3.149   2.945  10.003  0.0735 -0.4423  0.0630
  782MPD2    H711596   3.115   2.852   9.982 -1.7304  0.1230  0.4535
  783MPD2     C11597   2.724   2.591  10.573 -0.2471 -0.0899  0.0635
  783MPD2    C111598   2.743   2.710  10.514  0.3926  0.6008  0.1960
  783MPD2    C211599   2.865   2.735  10.449  0.1051  0.1567 -0.1140
  783MPD2    C311600   2.960   2.640  10.438 -0.2597 -0.4487 -0.0277
  783MPD2    C411601   2.944   2.526  10.518  0.1055 -0.3575  0.0427
  783MPD2    C511602   2.832   2.502  10.585 -0.7858  0.0302 -0.0057
  783MPD2     H11603   2.890   2.819  10.386  0.1836  0.3089  0.1199
  783MPD2    H111604   3.012   2.443  10.531 -0.4345 -0.2437  3.5617
  783MPD2    H211605   2.634   2.577  10.632  1.3340  1.0721  2.7464
  783MPD2    H311606   2.823   2.415  10.650 -0.4973 -0.1311 -0.1825
  783MPD2     N11607   3.071   2.660  10.354 -0.5608 -0.1992 -0.3846
  783MPD2    H511608   3.064   2.747  10.302 -1.5067  0.0438  0.1448
  783MPD2    N111609   2.634   2.801  10.496  0.3033 -0.0974 -0.1953
  783MPD2    H711610   2.547   2.769  10.537  0.3171  1.2191  0.8334
  784MPD2     C11611   0.728   3.592   0.200  0.4542  0.1997 -0.2141
  784MPD2    C111612   0.742   3.674   0.307 -0.5252  0.5511  0.4751
  784MPD2    C211613   0.642   3.767   0.331 -0.1575  0.0869 -0.2926
  784MPD2    C311614   0.533   3.770   0.246  0.3454  0.5669 -0.2731
  784MPD2    C411615   0.521   3.688   0.141 -0.2814 -0.0233  0.0736
  784MPD2    C511616   0.625   3.607   0.118  0.3295 -0.4737 -0.1853
  784MPD2     H11617   0.653   3.830   0.419  2.6298 -0.4414 -0.2454
  784MPD2    H111618   0.431   3.678   0.082  0.1408  2.4940 -0.9933
  784MPD2    H211619   0.795   3.509   0.181 -1.6097 -1.2296 -1.1446
  784MPD2    H311620   0.621   3.533   0.039 -0.8901  0.7573 -1.2707
  784MPD2     N11621   0.434   3.870   0.263 -0.4632  0.5175  0.5464
  784MPD2    H511622   0.463   3.940   0.330  0.3481 -0.0609  0.8027
  784MPD2    N111623   0.859   3.684   0.388  0.3255 -0.8015 -0.7218
  784MPD2    H711624   0.864   3.759   0.457  0.2528 -0.5653 -0.9709
  785MPD2     C11625   0.664   2.494  10.152  0.6792  0.0919 -0.1636
  785MPD2    C111626   0.579   2.458  10.254 -0.3037 -0.6288 -0.4414
  785MPD2    C211627   0.452   2.421  10.222  0.5099 -0.1081  0.2096
  785MPD2    C311628   0.421   2.398  10.090  0.1160 -0.2081  0.2826
  785MPD2    C411629   0.514   2.414   9.988 -0.3738 -0.4092 -0.4677
  785MPD2    C511630   0.631   2.461  10.021  0.0427  0.0540  0.4705
  785MPD2     H11631   0.373   2.408  10.295 -1.5895  3.2008 -1.5042
  785MPD2    H111632   0.490   2.395   9.884  0.7510 -1.3520 -0.5614
  785MPD2    H211633   0.768   2.517  10.168  0.4316 -0.3231  1.9663
  785MPD2    H311634   0.695   2.493   9.939 -1.4160  0.7332 -0.3865
  785MPD2     N11635   0.288   2.349  10.062 -0.4868 -0.1672 -0.2009
  785MPD2    H511636   0.226   2.350  10.142 -1.4946  0.8511 -0.9883
  785MPD2    N111637   0.621   2.481  10.387 -0.2268 -0.1676 -0.1870
  785MPD2    H711638   0.711   2.527  10.396 -0.5913  0.3864  0.5284
  786MPD2     C11639   3.989   4.731  14.671 -0.7897  1.0248 -0.0788
  786MPD2    C111640   4.122   0.008  14.630 -0.2133  0.1065 -0.6191
  786MPD2    C211641   4.219   0.020  14.734  0.2923  0.7821  0.6571
  786MPD2    C311642   4.183   0.036  14.868 -0.1473 -0.5477 -0.0384
  786MPD2    C411643   4.053   0.029  14.902 -0.1594 -0.8611  0.4752
  786MPD2    C511644   3.959   0.010  14.807  0.2745 -0.0662  0.7104
  786MPD2     H11645   4.319   0.035  14.697 -0.1425  0.3206 -0.6962
  786MPD2    H111646   4.023   0.033  15.006 -0.3996 -3.8898  0.5400
  786MPD2    H211647   3.904   4.729  14.603 -0.8452 -0.2327  0.0273
  786MPD2    H311648   3.856   0.005  14.839  0.1018  0.8393  0.2788
  786MPD2     N11649   4.278   0.062  14.970  0.9265  0.1626 -0.2293
  786MPD2    H511650   4.250   0.073  15.067  0.4206  0.4838 -0.4097
  786MPD2    N111651   4.174   0.011  14.497 -0.2925 -0.2150  0.2909
  786MPD2    H711652   4.271   0.038  14.484  0.1032 -1.4492  0.6093
  787MPD2     C11653   4.251   4.201  14.083 -0.0591  0.2483 -0.3306
  787MPD2    C111654   4.358   4.289  14.069  0.0602  0.3985  0.9497
  787MPD2    C211655   4.490   4.243  14.037 -0.3546  0.5598  0.3883
  787MPD2    C311656   4.498   4.112  14.000  0.2080  0.1082 -0.6138
  787MPD2    C411657   4.389   4.028  14.007 -0.8194 -0.8739  1.0994
  787MPD2    C511658   4.266   4.070  14.059 -0.3051  0.5496  0.2603
  787MPD2     H11659   4.576   4.309  14.040  0.3215 -0.2913 -0.7294
  787MPD2    H111660   4.392   3.924  13.974 -0.1714 -0.5671  0.1843
  787MPD2    H211661   4.160   4.242  14.125  0.3738  1.1085 -0.2235
  787MPD2    H311662   4.191   3.999  14.093  0.7164 -0.8348 -0.3441
  787MPD2     N11663   4.624   4.061  13.967 -0.4360 -0.0930 -0.2514
  787MPD2    H511664   4.700   4.126  13.948 -0.0998 -0.2688  0.5036
  787MPD2    N111665   4.335   4.421  14.102  0.2243  0.0604 -0.8385
  787MPD2    H711666   4.239   4.449  14.112  0.1907 -0.6697  0.9389
  788MPD2     C11667   1.620   3.454   0.829  0.4935 -0.8161  0.3943
  788MPD2    C111668   1.657   3.434   0.696  0.2890  0.0784  0.3367
  788MPD2    C211669   1.663   3.542   0.609  0.0147 -0.0335  0.3173
  788MPD2    C311670   1.633   3.665   0.660  0.6223  0.8488  0.5060
  788MPD2    C411671   1.602   3.680   0.796  0.1221  0.0281  0.1277
  788MPD2    C511672   1.595   3.575   0.879 -0.8461 -0.3323  0.5984
  788MPD2     H11673   1.691   3.523   0.506  0.5339  2.4181  0.0006
  788MPD2    H111674   1.580   3.770   0.853 -3.0771 -0.8217  0.2200
  788MPD2    H211675   1.609   3.373   0.900 -1.6615  0.7049  1.7921
  788MPD2    H311676   1.570   3.584   0.984  1.3354 -2.8294  1.3502
  788MPD2     N11677   1.635   3.774   0.573 -0.0678 -0.1935 -0.3882
  788MPD2    H511678   1.669   3.750   0.481  2.7988  0.2194  0.5631
  788MPD2    N111679   1.672   3.298   0.641 -0.1873  0.1413  0.2753
  788MPD2    H711680   1.703   3.292   0.544 -0.7413 -0.4935  0.1386
  789MPD2     C11681   1.792   2.905  15.914 -0.1682 -0.1843 -0.0641
  789MPD2    C111682   1.755   2.841  16.032 -0.3845  0.9769 -0.8005
  789MPD2    C211683   1.684   2.920  16.127  0.9563  0.1100 -0.3242
  789MPD2    C311684   1.669   3.056  16.109 -0.7026 -0.1538  0.1007
  789MPD2    C411685   1.714   3.111  15.991 -0.6384 -0.3582 -0.2778
  789MPD2    C511686   1.777   3.036  15.898  0.8561  0.5470  0.1316
  789MPD2     H11687   1.653   2.867  16.217  0.5878 -0.5060 -0.8132
  789MPD2    H111688   1.727   3.217  15.969 -1.5834 -0.0623  0.6056
  789MPD2    H211689   1.850   2.853  15.838  0.9784  0.3483  0.4486
  789MPD2    H311690   1.827   3.086  15.816 -0.5109 -1.4467 -1.8999
  789MPD2     N11691   1.612   3.145  16.208 -0.1620  0.0113  0.2415
  789MPD2    H511692   1.611   3.242  16.180 -0.4567 -0.0255  0.1317
  789MPD2    N111693   1.785   2.701  16.057 -0.2266  0.2139  0.2514
  789MPD2    H711694   1.730   2.649  16.124 -0.4150 -0.4046 -0.3870
  790MPD2     C11695   2.838   4.563  13.526  0.7049 -0.1922 -0.1966
  790MPD2    C111696   2.747   4.486  13.590  0.0348  0.1753  0.5239
  790MPD2    C211697   2.662   4.419  13.497 -0.3345 -0.2992 -0.0336
  790MPD2    C311698   2.676   4.413  13.355 -0.0404 -0.3467 -0.4414
  790MPD2    C411699   2.767   4.503  13.303  0.0602  0.3632 -0.0212
  790MPD2    C511700   2.841   4.577  13.392  0.5392  0.6831  0.3370
  790MPD2     H11701   2.585   4.351  13.531  0.7252 -1.0824  0.8238
  790MPD2    H111702   2.775   4.537  13.200  1.2967  0.6964  0.1845
  790MPD2    H211703   2.906   4.619  13.589 -2.0994  0.3212  2.3427
  790MPD2    H311704   2.899   4.657  13.347  0.3568  0.5598 -0.1220
  790MPD2     N11705   2.585   4.346  13.273 -0.3259 -0.0676 -0.6500
  790MPD2    H511706   2.524   4.286  13.326  0.8436 -1.7263 -1.1876
  790MPD2    N111707   2.747   4.483  13.732  0.0022 -0.6307  1.1537
  790MPD2    H711708   2.826   4.514  13.788  0.8547  0.3043 -0.5567
  791MPD2     C11709   2.078   4.588  12.865  0.2732 -0.4075 -0.2374
  791MPD2    C111710   2.075   4.452  12.891 -0.4999 -0.1126 -0.6883
  791MPD2    C211711   1.953   4.386  12.884  0.3614  0.1766 -0.7670
  791MPD2    C311712   1.839   4.457  12.855 -0.7803 -0.2409  0.0696
  791MPD2    C411713   1.845   4.590  12.822 -1.0946 -0.4689  0.4101
  791MPD2    C511714   1.961   4.656  12.825  0.1024 -0.5580  0.1062
  791MPD2     H11715   1.939   4.289  12.929  1.1652 -0.2066 -1.3677
  791MPD2    H111716   1.755   4.645  12.796 -0.5490 -0.8944 -2.3571
  791MPD2    H211717   2.168   4.648  12.866 -0.5508  0.8213  0.3578
  791MPD2    H311718   1.955   0.029  12.810  0.8026 -0.4752  0.4032
  791MPD2     N11719   1.732   4.369  12.841 -0.4014  0.3552  0.2733
  791MPD2    H511720   1.745   4.269  12.854  1.2670  0.5921  0.3581
  791MPD2    N111721   2.193   4.386  12.928 -0.0407  0.2340 -0.4152
  791MPD2    H711722   2.268   4.445  12.963  1.7666 -2.2326 -0.1316
  792MPD2     C11723   2.882   4.001  10.981  0.1508 -0.2050 -0.6609
  792MPD2    C111724   2.785   4.069  10.915  0.0459 -0.1093 -0.2303
  792MPD2    C211725   2.681   3.997  10.864  0.3031  0.3117  0.4624
  792MPD2    C311726   2.687   3.857  10.858  0.8098 -0.1112 -0.0559
  792MPD2    C411727   2.787   3.789  10.918  0.3720 -0.2227 -0.1625
  792MPD2    C511728   2.883   3.860  10.984  0.5269  0.2571  0.1247
  792MPD2     H11729   2.607   4.061  10.817  0.2360  0.1196  0.3057
  792MPD2    H111730   2.804   3.682  10.920  1.1296 -0.0957  0.2151
  792MPD2    H211731   2.965   4.057  11.025 -0.7610  0.4544  0.2184
  792MPD2    H311732   2.969   3.810  11.028  0.1597 -2.4061 -2.2358
  792MPD2     N11733   2.592   3.789  10.784 -0.0775  0.0306 -0.1603
  792MPD2    H511734   2.617   3.692  10.764  1.3406  0.0556  1.5100
  792MPD2    N111735   2.791   4.208  10.903 -0.1033 -0.5751  0.4405
  792MPD2    H711736   2.879   4.251  10.930 -0.3417 -0.8097  1.5905
  793MPD2     C11737   1.936   4.108  10.196  0.1889  0.4414 -0.3101
  793MPD2    C111738   2.022   4.154  10.290  0.3347 -0.1928 -0.2378
  793MPD2    C211739   2.068   4.078  10.393  0.1101 -0.0864 -0.3439
  793MPD2    C311740   2.035   3.944  10.397 -0.1900 -0.2638  0.6076
  793MPD2    C411741   1.929   3.899  10.315  0.4948 -0.2717  0.2088
  793MPD2    C511742   1.885   3.981  10.216  0.0739  0.3751 -0.1048
  793MPD2     H11743   2.129   4.122  10.470 -0.0591  0.2467 -0.4019
  793MPD2    H111744   1.886   3.799  10.310  0.0078 -0.1295  1.3602
  793MPD2    H211745   1.899   4.174  10.118 -1.7938 -0.0846  0.1837
  793MPD2    H311746   1.806   3.941  10.154  1.5615  0.1745 -1.8866
  793MPD2     N11747   2.104   3.859  10.491  0.1351  0.4467  0.3755
  793MPD2    H511748   2.165   3.906  10.557  0.3419  0.2391  0.3350
  793MPD2    N111749   2.079   4.285  10.293 -0.1000  0.4263  0.7010
  793MPD2    H711750   2.153   4.302  10.361 -0.9695  1.1620  1.4610
  794MPD2     C11751   2.644   3.989  17.246 -0.0841 -0.8322 -0.0300
  794MPD2    C111752   2.607   3.862  17.198 -0.7589  0.5862 -0.0958
  794MPD2    C211753   2.531   3.860  17.081 -0.7615 -0.1128  0.7186
  794MPD2    C311754   2.485   3.980  17.030  0.3906 -0.0017 -1.2362
  794MPD2    C411755   2.507   4.100  17.089  0.3149  0.3659  1.2888
  794MPD2    C511756   2.594   4.106  17.197 -0.3879 -0.5001  0.1902
  794MPD2     H11757   2.499   3.763  17.044 -1.1111 -0.5621  2.2001
  794MPD2    H111758   2.464   4.189  17.045 -1.0774 -1.0175 -0.1428
  794MPD2    H211759   2.696   3.986  17.341 -0.6576 -0.9335  0.2794
  794MPD2    H311760   2.617   4.201  17.245  0.2093 -0.0569 -0.9846
  794MPD2     N11761   2.401   3.983  16.919 -0.3653  0.2618 -0.0762
  794MPD2    H511762   2.363   4.075  16.901  1.9204  0.9272 -1.5885
  794MPD2    N111763   2.648   3.736  17.254  0.0433 -0.4172  0.6586
  794MPD2    H711764   2.631   3.657  17.193 -1.5684 -0.7707  1.5753
  795MPD2     C11765   0.103   1.208  13.454 -0.1816  0.3327 -0.6212
  795MPD2    C111766   0.041   1.086  13.455  0.0425  0.6155  0.7548
  795MPD2    C211767   0.111   0.971  13.483  0.5393 -0.4455 -0.2399
  795MPD2    C311768   0.247   0.968  13.501  0.5252 -0.1608  0.0552
  795MPD2    C411769   0.309   1.097  13.495  0.0878 -0.0276  0.5729
  795MPD2    C511770   0.239   1.213  13.474 -0.6009  0.3190 -0.3869
  795MPD2     H11771   0.058   0.879  13.506 -0.7607  0.2569 -0.4563
  795MPD2    H111772   0.417   1.109  13.506 -0.4112  3.7830  1.4270
  795MPD2    H211773   0.053   1.303  13.442 -1.1774  0.1837  2.3931
  795MPD2    H311774   0.283   1.312  13.473 -1.6991  0.8377  1.3003
  795MPD2     N11775   0.315   0.843  13.514 -0.1088 -0.2727  0.3212
  795MPD2    H511776   0.265   0.756  13.497  1.2703 -0.9978 -0.0368
  795MPD2    N111777   4.638   1.070  13.428  0.0283  0.5692  0.5910
  795MPD2    H711778   4.610   0.972  13.432  1.5936  0.1338  0.7452
  796MPD2     C11779   4.463   2.501  15.697  0.3528  0.7537  0.2787
  796MPD2    C111780   4.499   2.584  15.805  1.0289 -0.2549  0.2416
  796MPD2    C211781   4.510   2.723  15.787 -0.2731 -0.9786 -0.7450
  796MPD2    C311782   4.471   2.774  15.665  0.3459  0.1371 -0.4243
  796MPD2    C411783   4.421   2.691  15.567 -0.0988  0.4705  0.1815
  796MPD2    C511784   4.423   2.557  15.585  0.7789  0.3463 -0.1525
  796MPD2     H11785   4.551   2.792  15.859 -0.3099 -0.9864 -0.7166
  796MPD2    H111786   4.365   2.725  15.481  0.1304 -0.4660 -0.3315
  796MPD2    H211787   4.458   2.393  15.712 -2.4087  0.6943 -1.0626
  796MPD2    H311788   4.391   2.491  15.505 -1.6414  1.1347  0.1910
  796MPD2     N11789   4.474   2.915  15.641  0.2301 -0.4089  1.2388
  796MPD2    H511790   4.535   2.962  15.708  0.2014  0.7883  0.4301
  796MPD2    N111791   4.539   2.509  15.924 -0.4075 -0.7837  0.6183
  796MPD2    H711792   4.534   2.408  15.917 -1.7276 -0.7056  0.4037
  797MPD2     C11793   1.104   2.106  17.352 -0.3907 -0.1065  0.0064
  797MPD2    C111794   1.132   2.235  17.354 -0.1698 -0.0256 -0.3199
  797MPD2    C211795   1.043   2.327  17.304  0.2373  0.3866  0.3245
  797MPD2    C311796   0.927   2.285  17.249 -0.4786  0.2651  0.7458
  797MPD2    C411797   0.905   2.151  17.220  0.6624 -0.3568  0.1515
  797MPD2    C511798   0.998   2.064  17.270  0.1884  0.5603 -0.1957
  797MPD2     H11799   1.074   2.430  17.317 -0.3107  0.6986 -0.8307
  797MPD2    H111800   0.823   2.105  17.165 -1.2228  0.4248  2.2951
  797MPD2    H211801   1.166   2.029  17.395  0.5587 -0.1870 -1.4969
  797MPD2    H311802   0.994   1.956  17.265  1.1856  0.3738  2.9130
  797MPD2     N11803   0.839   2.382  17.206 -0.5879 -1.3527 -0.3218
  797MPD2    H511804   0.863   2.476  17.238  0.3808 -0.3990 -3.7954
  797MPD2    N111805   1.242   2.282  17.422 -0.4566 -0.5664 -0.0632
  797MPD2    H711806   1.241   2.384  17.423  3.9721 -0.5012 -2.3251
  798MPD2     C11807   1.203   2.881  17.027  0.3077  0.1864 -0.1069
  798MPD2    C111808   1.137   2.801  17.115  0.4215  0.1241  0.6564
  798MPD2    C211809   1.201   2.739  17.221  0.4274  0.6071  0.2919
  798MPD2    C311810   1.343   2.750  17.226  0.2248 -0.2175 -0.6647
  798MPD2    C411811   1.407   2.826  17.134 -0.0028  0.5387 -0.4134
  798MPD2    C511812   1.341   2.898  17.037 -0.2365 -0.2282 -0.0056
  798MPD2     H11813   1.147   2.682  17.297 -1.9180  2.3339 -0.0694
  798MPD2    H111814   1.514   2.843  17.138  0.0076  0.0909  1.1404
  798MPD2    H211815   1.149   2.930  16.947  0.3017  1.1836  0.5223
  798MPD2    H311816   1.390   2.957  16.960 -2.3464  1.6862  0.1025
  798MPD2     N11817   1.407   2.671  17.324  0.0865  0.5372 -0.0364
  798MPD2    H511818   1.347   2.613  17.381  0.4823 -1.1966 -1.3901
  798MPD2    N111819   0.998   2.803  17.097 -0.5905 -0.5288 -0.0591
  798MPD2    H711820   0.955   2.854  17.021 -2.2245  0.5768  1.5816
  799MPD2     C11821   4.195   3.712  14.304 -0.5834  0.7190  1.2303
  799MPD2    C111822   4.263   3.662  14.185 -0.1117  0.2847 -0.3761
  799MPD2    C211823   4.208   3.666  14.056 -0.0145 -0.0512 -0.3250
  799MPD2    C311824   4.089   3.728  14.039  0.0992  0.4553  0.1131
  799MPD2    C411825   4.020   3.767  14.157 -0.5116  0.6271  0.3752
  799MPD2    C511826   4.069   3.756  14.280  0.5805  0.2722  0.2799
  799MPD2     H11827   4.267   3.634  13.971 -0.1841 -0.5268 -0.2671
  799MPD2    H111828   3.919   3.806  14.155 -0.8146 -0.2459 -1.7912
  799MPD2    H211829   4.237   3.702  14.403 -0.2986 -0.1625  1.0250
  799MPD2    H311830   4.006   3.787  14.363  0.8386 -0.1693  0.6364
  799MPD2     N11831   4.033   3.762  13.915 -0.2561 -0.1859 -0.4822
  799MPD2    H511832   3.976   3.846  13.911  1.4386  0.9018 -2.2696
  799MPD2    N111833   4.387   3.591  14.197  0.4887 -0.1952 -0.5595
  799MPD2    H711834   4.419   3.549  14.110 -0.5631 -1.3412 -0.3956
  800MPD2     C11835   4.488   4.686  13.393 -0.2575  0.2765  0.1421
  800MPD2    C111836   4.619   4.702  13.419  0.0142  0.5516  0.5459
  800MPD2    C211837   4.718   4.674  13.320  0.2097  0.5326  0.7915
  800MPD2    C311838   4.680   4.620  13.204 -0.1622 -0.1970 -0.2450
  800MPD2    C411839   4.548   4.584  13.188 -0.9027 -0.8796  0.2845
  800MPD2    C511840   4.455   4.619  13.279  0.1656 -0.4624 -0.0155
  800MPD2     H11841   0.089   4.695  13.335  0.2286  0.1324  1.2445
  800MPD2    H111842   4.512   4.535  13.098  1.3303 -1.4841 -0.2682
  800MPD2    H211843   4.398   4.703  13.451  0.1087 -1.6915  1.3079
  800MPD2    H311844   4.352   4.598  13.252  0.2972  0.0930 -0.9575
  800MPD2     N11845   0.045   4.621  13.108 -0.0421  0.1418  0.3304
  800MPD2    H511846   0.134   4.666  13.130 -0.6376  1.2619  0.4592
  800MPD2    N111847   4.656   0.040  13.536 -0.2170 -0.3626  0.3860
  800MPD2    H711848   4.584   0.086  13.591 -1.0950 -1.2064 -0.0485
  801MPD2     C11849   4.405   0.666  13.850  0.4581  0.5842 -0.8082
  801MPD2    C111850   4.476   0.599  13.941  0.1359  0.3156 -0.2496
  801MPD2    C211851   4.446   0.629  14.080  0.0080  0.2104  0.4398
  801MPD2    C311852   4.334   0.708  14.116 -0.3737  0.2071  0.3042
  801MPD2    C411853   4.259   0.764  14.015 -0.1894  0.2407  0.0783
  801MPD2    C511854   4.299   0.741  13.884 -1.0028 -0.6773 -0.2778
  801MPD2     H11855   4.512   0.578  14.149  0.1036  0.4609  0.5341
  801MPD2    H111856   4.171   0.825  14.033 -0.7147 -0.4494 -0.1402
  801MPD2    H211857   4.433   0.661  13.746  0.5784  3.7133 -0.9360
  801MPD2    H311858   4.241   0.783  13.803  1.1337 -0.9760 -1.9491
  801MPD2     N11859   4.292   0.723  14.251  0.3091 -0.4582  0.4483
  801MPD2    H511860   4.204   0.771  14.267  0.7482  0.3174  0.5217
  801MPD2    N111861   4.572   0.503  13.915 -0.0925  0.9084  0.1639
  801MPD2    H711862   4.612   0.455  13.995 -0.2313  0.2418 -0.1682
  802MPD2     C11863   4.450   1.790   0.408  0.3004  0.0329  0.0339
  802MPD2    C111864   4.452   1.858   0.286  0.4590  0.0556  0.3880
  802MPD2    C211865   4.539   1.819   0.184 -0.6245 -0.9700  0.6170
  802MPD2    C311866   4.614   1.710   0.201  0.3178  0.1979 -0.4817
  802MPD2    C411867   4.605   1.638   0.316 -0.3039 -0.1258  0.0962
  802MPD2    C511868   4.525   1.674   0.417  0.3456 -0.3063  0.5177
  802MPD2     H11869   4.536   1.866   0.086 -1.4828 -0.4421  0.8970
  802MPD2    H111870   4.653   1.542   0.323 -2.8984 -1.3171  1.4621
  802MPD2    H211871   4.385   1.815   0.491  1.6375  0.3615  0.9829
  802MPD2    H311872   4.498   1.602   0.493  0.1142 -1.2554 -0.4723
  802MPD2     N11873   4.689   1.655   0.098  0.0487  0.3024  0.0295
  802MPD2    H511874   4.711   1.557   0.109  2.2558  0.8938  0.8733
  802MPD2    N111875   4.366   1.969   0.255 -0.0555 -0.1125 -0.1163
  802MPD2    H711876   4.391   2.009   0.165  0.0450 -0.6931 -0.3483
  803MPD2     C11877   0.374   4.588  11.686  0.2532  0.1625 -0.1178
  803MPD2    C111878   0.466   4.691  11.719 -0.6273  0.3304 -1.0425
  803MPD2    C211879   0.475   4.732  11.850  0.0406 -0.0773  0.0939
  803MPD2    C311880   0.386   4.685  11.947 -0.1275 -0.5208  0.6340
  803MPD2    C411881   0.294   4.590  11.912 -0.1450  0.3411 -0.3384
  803MPD2    C511882   0.290   4.541  11.786  0.1988 -0.4997 -0.2171
  803MPD2     H11883   0.552   0.070  11.877  1.1600 -0.4760 -1.9881
  803MPD2    H111884   0.224   4.555  11.987 -0.4100  1.8403  0.1203
  803MPD2    H211885   0.369   4.539  11.589 -2.6984  0.4868 -0.1301
  803MPD2    H311886   0.224   4.456  11.770  0.9762 -1.2439  0.5607
  803MPD2     N11887   0.378   4.728  12.078 -0.1529  0.0270 -0.2382
  803MPD2    H511888   0.312   4.683  12.141 -2.8619  3.0101 -0.9826
  803MPD2    N111889   0.563   0.012  11.632  0.1806 -0.1237 -0.3255
  803MPD2    H711890   0.611   0.099  11.653  0.1291  0.0710 -1.0251
  804MPD2     C11891   0.286   1.083  16.889 -0.4475  0.0085 -0.4779
  804MPD2    C111892   0.255   1.065  17.020 -0.2013 -0.1839  0.4387
  804MPD2    C211893   0.287   1.165  17.115 -0.0479 -0.5644 -0.9316
  804MPD2    C311894   0.330   1.293  17.076  1.1119 -0.3479  0.7057
  804MPD2    C411895   0.338   1.310  16.939 -0.2109  0.1537  0.7984
  804MPD2    C511896   0.329   1.209  16.844  1.4152  0.8526  0.3090
  804MPD2     H11897   0.283   1.156  17.223  0.6203 -1.2562 -0.9679
  804MPD2    H111898   0.350   1.407  16.893 -0.8410  0.4762  1.3176
  804MPD2    H211899   0.277   1.000  16.819 -1.2260 -0.8970  0.6986
  804MPD2    H311900   0.351   1.230  16.740  1.2818  0.5339  0.2179
  804MPD2     N11901   0.370   1.384  17.173  0.2517  0.0825  0.5258
  804MPD2    H511902   0.351   1.361  17.271 -0.0594 -0.2685  0.3832
  804MPD2    N111903   0.191   0.949  17.073 -0.2187  0.3518 -0.0785
  804MPD2    H711904   0.172   0.943  17.173  2.6535  1.9010  0.5614
  805MPD2     C11905   4.434   3.503  15.144 -0.2040 -0.2396  0.0583
  805MPD2    C111906   4.402   3.629  15.133  0.1214 -0.1714  1.0624
  805MPD2    C211907   4.480   3.725  15.202 -0.0860 -0.1468 -0.3175
  805MPD2    C311908   4.577   3.676  15.287 -1.0005  0.0009 -0.0264
  805MPD2    C411909   4.597   3.537  15.301  0.0834 -0.3030  0.4983
  805MPD2    C511910   4.526   3.452  15.226 -0.0525 -0.2022 -0.4723
  805MPD2     H11911   4.445   3.827  15.206 -0.1373 -0.1577 -0.4911
  805MPD2    H111912   4.670   3.491  15.367 -0.6537 -0.1199  1.4267
  805MPD2    H211913   4.380   3.425  15.090 -1.1011 -0.0144  0.6348
  805MPD2    H311914   4.539   3.346  15.240 -0.9231  0.0007  1.8971
  805MPD2     N11915   4.649   3.776  15.360  0.4156  0.5444 -0.0502
  805MPD2    H511916   4.629   3.871  15.328 -0.4645  0.5875  0.6417
  805MPD2    N111917   4.297   3.679  15.056  0.0516 -0.1125 -0.2362
  805MPD2    H711918   4.297   3.781  15.059  2.2102 -0.1226  0.1199
  806MPD2     C11919   4.550   3.502  17.683  0.0931  0.2101 -0.0912
  806MPD2    C111920   4.566   3.630  17.727  0.5922  0.4743 -0.1175
  806MPD2    C211921   4.623   3.719  17.645  0.1032 -0.2144 -0.2838
  806MPD2    C311922   4.686   3.681  17.524 -0.9103 -0.6435 -0.2892
  806MPD2    C411923   4.690   3.545  17.491 -0.4640  0.1891 -0.3925
  806MPD2    C511924   4.621   3.454  17.568 -0.0513  0.6740 -0.9377
  806MPD2     H11925   4.639   3.819  17.682 -3.2335  0.2804 -0.2064
  806MPD2    H111926   0.016   3.516  17.406 -1.8062 -1.0163 -0.9303
  806MPD2    H211927   4.492   3.435   0.009  1.7520 -0.5135  0.6473
  806MPD2    H311928   4.613   3.348  17.549  0.8868  0.0776  2.0622
  806MPD2     N11929   4.726   3.786  17.435 -0.2637 -0.0959 -0.5720
  806MPD2    H511930   4.697   3.878  17.467  1.8747  0.8121 -1.2750
  806MPD2    N111931   4.524   3.655   0.123 -0.3288 -0.4470  0.3273
  806MPD2    H711932   4.470   3.580   0.167  2.3412 -2.4541  0.1505
  807MPD2     C11933   4.102   3.449   0.732 -0.2049  0.5451  0.1821
  807MPD2    C111934   4.204   3.525   0.785  0.6431 -0.2312  0.7126
  807MPD2    C211935   4.209   3.539   0.922  0.2331 -0.1401  0.1369
  807MPD2    C311936   4.123   3.479   1.006  0.0556  0.2393 -0.9093
  807MPD2    C411937   4.029   3.395   0.953  0.3075  0.0180  0.1581
  807MPD2    C511938   4.016   3.383   0.815  0.1758 -0.9570  0.0705
  807MPD2     H11939   4.279   3.613   0.962 -2.1560  1.7018  0.8817
  807MPD2    H111940   3.973   3.326   1.014  0.7755 -1.3764 -1.0039
  807MPD2    H211941   4.088   3.430   0.626  1.8646 -0.8378  0.1533
  807MPD2    H311942   3.948   3.313   0.768 -1.4907  0.6556  0.0526
  807MPD2     N11943   4.131   3.509   1.144  0.0218 -0.2299  0.6517
  807MPD2    H511944   4.208   3.571   1.168  0.6410 -2.0806  3.4941
  807MPD2    N111945   4.304   3.578   0.704 -0.9144  0.2998  0.2218
  807MPD2    H711946   4.369   3.637   0.755 -0.0542  0.0213 -0.5481
  808MPD2     C11947   4.687   1.585   9.476 -0.1188 -0.1704  0.4093
  808MPD2    C111948   4.715   1.496   9.582  0.5220  0.3040 -0.5468
  808MPD2    C211949   0.016   1.539   9.709  0.1531  0.8969  0.1164
  808MPD2    C311950   0.026   1.674   9.736 -0.6397 -0.0123  0.4743
  808MPD2    C411951   0.002   1.757   9.629 -0.5883  0.1402  0.0978
  808MPD2    C511952   4.706   1.717   9.502 -0.4421 -0.4744 -0.0595
  808MPD2     H11953   0.027   1.460   9.783 -0.1049  0.0030 -0.7998
  808MPD2    H111954   0.010   1.864   9.645  2.5048 -0.5424  3.2332
  808MPD2    H211955   4.663   1.561   9.373  0.4032 -1.3773  0.5668
  808MPD2    H311956   4.703   1.790   9.422  1.4006 -0.0693  0.2597
  808MPD2     N11957   0.073   1.728   9.854 -0.3013  0.0698 -0.1364
  808MPD2    H511958   0.066   1.829   9.857  1.5412  0.2128 -1.0523
  808MPD2    N111959   4.707   1.357   9.559 -0.5867  0.0792  0.6190
  808MPD2    H711960   0.004   1.302   9.638 -0.7825 -3.2440 -1.6380
  809MPD2     C11961   0.937   2.147  10.134 -0.4224 -0.5347  0.4351
  809MPD2    C111962   0.874   2.065  10.040 -0.2048 -0.0405  0.1904
  809MPD2    C211963   0.739   2.035  10.048  0.3780  0.1667  0.8550
  809MPD2    C311964   0.660   2.082  10.157 -0.5308  0.3305  0.3358
  809MPD2    C411965   0.719   2.171  10.246 -0.0046 -0.5935  0.2199
  809MPD2    C511966   0.855   2.197  10.232  0.2294  0.1351 -0.6215
  809MPD2     H11967   0.699   1.971   9.970  1.2147 -0.4319  0.9136
  809MPD2    H111968   0.665   2.221  10.326 -1.9206 -2.4836  0.0846
  809MPD2    H211969   1.042   2.175  10.138 -0.7581  0.8673 -1.0496
  809MPD2    H311970   0.897   2.267  10.302 -0.4618  0.6207 -0.6979
  809MPD2     N11971   0.534   2.029  10.187  0.2657 -0.1735 -0.2569
  809MPD2    H511972   0.495   2.049  10.279 -1.0208 -1.8940 -0.4244
  809MPD2    N111973   0.947   1.998   9.938  0.3807 -0.8979  0.0382
  809MPD2    H711974   0.897   1.934   9.876  1.1460 -0.0475 -1.4508
  810MPD2     C11975   4.231   4.333  11.112  0.1800  0.7166 -0.2837
  810MPD2    C111976   4.299   4.330  10.993 -0.0813 -0.4769 -0.1592
  810MPD2    C211977   4.286   4.446  10.918 -0.4770 -0.9314 -0.9288
  810MPD2    C311978   4.216   4.556  10.956 -0.0716  0.0213 -0.5769
  810MPD2    C411979   4.149   4.557  11.073 -0.3384 -0.5033 -0.4267
  810MPD2    C511980   4.162   4.444  11.154 -1.0225  0.2144  0.5873
  810MPD2     H11981   4.343   4.448  10.826 -0.3567 -0.3129 -0.8409
  810MPD2    H111982   4.102   4.645  11.114 -0.3778 -0.4167 -0.6581
  810MPD2    H211983   4.233   4.238  11.164 -0.5133  1.0102  0.2733
  810MPD2    H311984   4.103   4.435  11.244 -2.3352 -0.5319 -0.3490
  810MPD2     N11985   4.204   4.669  10.873  0.2552  0.2380  0.1105
  810MPD2    H511986   4.168   0.018  10.920 -1.0939 -0.2605 -0.0449
  810MPD2    N111987   4.388   4.217  10.956  0.2679 -0.3675 -0.4887
  810MPD2    H711988   4.379   4.128  11.005 -0.5006 -1.0583 -1.8970
  811MPD2     C11989   0.033   3.937  10.175  0.2198 -0.6599  0.1066
  811MPD2    C111990   4.731   4.036  10.266  0.2390  1.0746  0.0867
  811MPD2    C211991   4.701   4.168  10.216  0.4282 -0.3740 -0.6885
  811MPD2    C311992   4.703   4.189  10.082 -1.3498  0.1533  0.0643
  811MPD2    C411993   0.009   4.088   9.999 -0.2752 -0.5552 -0.2174
  811MPD2    C511994   0.043   3.965  10.043  0.3911  0.5162 -0.4986
  811MPD2     H11995   4.659   4.244  10.281  0.1402 -0.8371 -0.3281
  811MPD2    H111996   0.016   4.102   9.891 -1.2147 -0.1510 -0.2298
  811MPD2    H211997   0.057   3.838  10.213  0.3696 -0.1497  1.3394
  811MPD2    H311998   0.062   3.886   9.972 -0.8440  0.2564 -0.5336
  811MPD2     N11999   4.670   4.315  10.035 -0.7120 -0.3221 -0.8967
  811MPD2    H512000   4.640   4.380  10.107  2.4520  0.9402 -0.7356
  811MPD2    N112001   4.707   3.999  10.397 -0.0959  0.4581  0.0754
  811MPD2    H712002   4.715   3.900  10.418 -0.3147  0.3643 -0.2831
  812MPD2     C12003   3.287   4.190  11.923  0.1836 -0.8625 -0.2807
  812MPD2    C112004   3.240   4.273  12.022 -0.3420  0.2751  0.4606
  812MPD2    C212005   3.269   4.234  12.156 -0.2137 -0.5337 -0.1813
  812MPD2    C312006   3.304   4.108  12.181 -0.5184  0.1455  0.8951
  812MPD2    C412007   3.361   4.032  12.080 -0.2066 -1.0307 -0.7909
  812MPD2    C512008   3.358   4.077  11.955 -0.2944 -0.0717  0.3479
  812MPD2     H12009   3.236   4.297  12.238  0.1243 -1.0602  0.3504
  812MPD2    H112010   3.406   3.938  12.111 -0.2540 -0.7526  0.1201
  812MPD2    H212011   3.262   4.205  11.819 -4.7926 -2.8180  0.6237
  812MPD2    H312012   3.405   4.008  11.886  2.0961 -0.4097  2.2954
  812MPD2     N12013   3.307   4.069  12.320 -0.8027 -0.1907 -0.2963
  812MPD2    H512014   3.282   4.147  12.381  1.4422 -0.9213  1.5535
  812MPD2    N112015   3.195   4.403  11.984  0.1066 -0.0320  0.0855
  812MPD2    H712016   3.173   4.420  11.886  0.1762 -0.8436 -0.0726
  813MPD2     C12017   2.577   1.124  12.638 -0.4305 -0.3180 -0.3610
  813MPD2    C112018   2.561   1.262  12.645 -0.3543 -1.1261  0.6031
  813MPD2    C212019   2.509   1.308  12.768 -0.0036  0.1458  0.0663
  813MPD2    C312020   2.490   1.225  12.876 -0.3755 -0.2652 -0.1631
  813MPD2    C412021   2.497   1.089  12.865 -0.3633  0.4546 -0.2348
  813MPD2    C512022   2.544   1.045  12.744  0.0622 -0.5613  0.3465
  813MPD2     H12023   2.496   1.415  12.782  1.2278  0.0385  2.1511
  813MPD2    H112024   2.467   1.025  12.947 -0.9453 -0.1772 -0.9313
  813MPD2    H212025   2.642   1.078  12.565  0.3746  3.6510 -2.1165
  813MPD2    H312026   2.552   0.938  12.730 -0.0231 -0.5369  0.1234
  813MPD2     N12027   2.466   1.291  13.002  0.6261 -0.9963 -0.1340
  813MPD2    H512028   2.447   1.391  13.006 -0.4017 -1.3079  2.4900
  813MPD2    N112029   2.607   1.346  12.540  0.3116  0.5688  0.3615
  813MPD2    H712030   2.661   1.300  12.468  0.2258  0.3814  0.4172
  814MPD2     C12031   3.024   2.797  12.274 -0.4910  0.0886 -0.0714
  814MPD2    C112032   3.141   2.810  12.204  0.0503 -0.1178 -0.6800
  814MPD2    C212033   3.197   2.933  12.169  0.0194 -0.0966  0.1115
  814MPD2    C312034   3.129   3.050  12.190 -0.3146  0.6007  0.1452
  814MPD2    C412035   3.015   3.042  12.261 -0.7360 -0.6299 -0.2631
  814MPD2    C512036   2.969   2.920  12.312  0.7562 -0.0807 -0.4425
  814MPD2     H12037   3.295   2.931  12.124 -0.9074 -1.1966 -1.8337
  814MPD2    H112038   2.967   3.133  12.296  1.1283  0.5378 -0.7142
  814MPD2    H212039   2.985   2.704  12.313 -0.2539  0.3829  0.8832
  814MPD2    H312040   2.884   2.924  12.380  0.7226  1.0464 -0.5591
  814MPD2     N12041   3.180   3.180  12.170 -0.7936 -0.5075  0.0097
  814MPD2    H512042   3.121   3.256  12.203  1.1853  0.9902  0.0824
  814MPD2    N112043   3.212   2.699  12.154  0.2443  0.2688 -0.4144
  814MPD2    H712044   3.296   2.721  12.101  0.0213 -0.2208 -0.9679
  815MPD2     C12045   3.337   1.408  11.565  0.2892 -0.6411  0.1078
  815MPD2    C112046   3.308   1.268  11.587 -0.1468  0.8213  0.1032
  815MPD2    C212047   3.180   1.248  11.641 -0.2238  0.0643 -0.4804
  815MPD2    C312048   3.101   1.351  11.677 -0.1872 -0.7049  0.4267
  815MPD2    C412049   3.135   1.476  11.647  0.1958  0.2290  0.8095
  815MPD2    C512050   3.255   1.511  11.601 -0.2076  0.3643  0.1021
  815MPD2     H12051   3.140   1.148  11.642  0.3736 -0.1729 -0.6377
  815MPD2    H112052   3.062   1.554  11.663 -0.8667 -0.7149  0.5944
  815MPD2    H212053   3.436   1.434  11.529  0.0041 -0.9682 -0.9139
  815MPD2    H312054   3.280   1.611  11.567  1.5795 -0.0344  0.1980
  815MPD2     N12055   2.974   1.324  11.731 -0.6783  0.5982 -0.1453
  815MPD2    H512056   2.951   1.225  11.738 -1.3471  0.8442  1.0371
  815MPD2    N112057   3.398   1.171  11.542 -0.7066  0.3058 -0.4339
  815MPD2    H712058   3.490   1.199  11.508 -1.0314  2.2297  0.2799
  816MPD2     C12059   3.352   0.449  17.065  0.5118 -0.1587  0.6908
  816MPD2    C112060   3.448   0.547  17.030  0.0503 -0.3046  0.6323
  816MPD2    C212061   3.566   0.507  16.976  0.4318 -0.5371  0.0922
  816MPD2    C312062   3.586   0.375  16.956  0.3792  0.1007  0.1677
  816MPD2    C412063   3.499   0.281  16.999  0.1904 -0.4964  0.4189
  816MPD2    C512064   3.375   0.317  17.042  0.2610 -0.8697 -0.4333
  816MPD2     H12065   3.638   0.580  16.941  0.1623 -0.2503  0.1423
  816MPD2    H112066   3.512   0.175  16.986  0.0404 -0.3063 -1.2333
  816MPD2    H212067   3.259   0.480  17.112  1.8035  0.4111  2.8639
  816MPD2    H312068   3.314   0.239  17.086 -1.4700  1.7519  1.8219
  816MPD2     N12069   3.701   0.344  16.883  0.1428  0.6480 -0.2410
  816MPD2    H512070   3.754   0.420  16.842  2.6160 -0.2207  1.3155
  816MPD2    N112071   3.409   0.679  17.054  0.3172  0.0483  0.0003
  816MPD2    H712072   3.309   0.694  17.065  0.7678  0.8974  2.9712
  817MPD2     C12073   3.777   2.055   9.623  0.3841 -0.6720  0.6883
  817MPD2    C112074   3.638   2.064   9.644 -0.3263  0.2683 -0.1732
  817MPD2    C212075   3.578   2.184   9.613 -0.0617  0.1337  0.3277
  817MPD2    C312076   3.652   2.283   9.559  0.8077 -0.4666  0.1862
  817MPD2    C412077   3.785   2.274   9.523 -0.6017  0.2061  0.1740
  817MPD2    C512078   3.845   2.159   9.566 -0.1956 -0.3365  0.0531
  817MPD2     H12079   3.474   2.201   9.635 -0.2415 -1.7112  0.8917
  817MPD2    H112080   3.852   2.348   9.480 -0.5451 -0.8675 -1.5887
  817MPD2    H212081   3.845   1.972   9.642  1.0901 -0.0536  0.8589
  817MPD2    H312082   3.951   2.150   9.545 -0.1086 -2.4424  1.4144
  817MPD2     N12083   3.583   2.399   9.533 -0.2804 -0.5821  0.2493
  817MPD2    H512084   3.483   2.392   9.548  0.0557 -1.5554  2.0679
  817MPD2    N112085   3.567   1.955   9.703  0.1074  0.3697  0.2718
  817MPD2    H712086   3.466   1.961   9.693  0.1093 -1.7377 -1.1087
  818MPD2     C12087   2.173   2.329  10.037  0.6584 -0.0042 -0.0420
  818MPD2    C112088   2.044   2.314  10.084  0.2997 -1.0730  0.6173
  818MPD2    C212089   1.984   2.189  10.097 -0.3769 -0.7061  0.4339
  818MPD2    C312090   2.054   2.079  10.064 -0.0408 -0.7334 -0.0427
  818MPD2    C412091   2.187   2.091  10.032  0.0857  0.4730  0.2674
  818MPD2    C512092   2.244   2.211  10.010 -0.1746 -0.0195 -0.8707
  818MPD2     H12093   1.894   2.188  10.156 -1.0133 -1.9411 -0.5514
  818MPD2    H112094   2.252   2.005  10.019 -0.3926  0.4703 -2.1651
  818MPD2    H212095   2.230   2.420  10.029  0.2838  0.0352 -2.1175
  818MPD2    H312096   2.350   2.225   9.990 -0.8443  1.8370 -3.1177
  818MPD2     N12097   2.000   1.944  10.075  0.4491 -0.9476 -0.0822
  818MPD2    H512098   2.074   1.875  10.072  1.5936  0.2583  0.3193
  818MPD2    N112099   1.967   2.427  10.104 -0.0072 -0.6302 -0.4852
  818MPD2    H712100   1.871   2.406  10.126  0.8704 -3.2200  0.8259
  819MPD2     C12101   0.350   3.965  15.198 -0.0854 -0.0832 -1.1874
  819MPD2    C112102   0.296   3.834  15.212 -0.6090  0.4745  0.0302
  819MPD2    C212103   0.331   3.767  15.326  0.1290 -0.5263 -0.1426
  819MPD2    C312104   0.416   3.822  15.419 -0.3595 -0.0767  0.9061
  819MPD2    C412105   0.469   3.949  15.396 -0.2652  0.0449  0.4993
  819MPD2    C512106   0.437   4.022  15.286 -0.0334  0.7941 -0.2181
  819MPD2     H12107   0.307   3.662  15.340  0.8236 -1.1499 -3.7135
  819MPD2    H112108   0.542   3.995  15.461  0.0587  0.1226  0.0796
  819MPD2    H212109   0.329   4.035  15.118 -0.5619  0.0858 -0.9093
  819MPD2    H312110   0.487   4.112  15.252  1.1169 -0.4330 -1.7677
  819MPD2     N12111   0.456   3.741  15.521 -0.1478  0.0760  0.0876
  819MPD2    H512112   0.429   3.644  15.513 -0.6733  0.0568  2.0535
  819MPD2    N112113   0.204   3.796  15.110  0.4820 -0.1740 -0.4686
  819MPD2    H712114   0.178   3.865  15.041 -1.0662 -0.3657 -0.0780
  820MPD2     C12115   4.194   4.089  14.558  0.3584  0.8208 -0.2035
  820MPD2    C112116   4.195   4.039  14.691 -0.5844  0.1877 -0.5272
  820MPD2    C212117   4.292   3.946  14.731 -0.2696  0.2078  0.5147
  820MPD2    C312118   4.389   3.900  14.644  0.4716 -0.1587  0.3104
  820MPD2    C412119   4.381   3.940  14.509  0.3824  0.2494  0.2433
  820MPD2    C512120   4.280   4.026  14.470  0.3900 -0.1197 -0.2776
  820MPD2     H12121   4.297   3.912  14.834 -1.8345 -0.5142  0.3444
  820MPD2    H112122   4.445   3.899  14.432  1.7842 -0.9993  2.0612
  820MPD2    H212123   4.115   4.153  14.521 -1.5729 -1.9033 -0.8011
  820MPD2    H312124   4.261   4.048  14.365  2.7181 -1.0292 -0.8917
  820MPD2     N12125   4.505   3.822  14.678  0.1612 -0.1316 -0.3118
  820MPD2    H512126   4.557   3.787  14.599  0.7017  2.2540 -1.0038
  820MPD2    N112127   4.094   4.091  14.773  0.4497 -0.2802 -0.3143
  820MPD2    H712128   4.084   4.192  14.769  3.0387  0.1381  3.8984
  821MPD2     C12129   0.157   0.362  12.568 -0.1261 -0.1976 -0.2229
  821MPD2    C112130   0.268   0.295  12.631  0.5036  0.1629 -0.0410
  821MPD2    C212131   0.369   0.374  12.673 -0.2299 -0.0804  0.0459
  821MPD2    C312132   0.365   0.512  12.656 -0.2059  0.5439  0.3783
  821MPD2    C412133   0.267   0.570  12.594  0.0930  0.5922 -0.0306
  821MPD2    C512134   0.164   0.500  12.542  0.0320  0.4032 -0.1517
  821MPD2     H12135   0.441   0.323  12.735  0.3502  2.3307  1.3413
  821MPD2    H112136   0.267   0.669  12.551 -0.6154  1.1272  1.1919
  821MPD2    H212137   0.066   0.316  12.530  0.4502 -1.5155 -0.0222
  821MPD2    H312138   0.084   0.547  12.486  1.3102  2.1129 -0.5469
  821MPD2     N12139   0.470   0.588  12.699 -0.0090  0.3604  0.2955
  821MPD2    H512140   0.458   0.687  12.681  0.1339  0.2845 -0.2382
  821MPD2    N112141   0.267   0.155  12.646 -0.2534  0.1688 -0.5105
  821MPD2    H712142   0.333   0.118  12.715 -2.7805 -3.6068 -0.1152
  822MPD2     C12143   0.947   0.285  15.670 -0.0881 -0.3219 -0.4892
  822MPD2    C112144   0.915   0.253  15.798 -0.3629  0.4178 -0.0344
  822MPD2    C212145   0.843   0.347  15.873  0.9120 -0.2124  0.0025
  822MPD2    C312146   0.811   0.474  15.823  0.0973 -0.3548  0.2213
  822MPD2    C412147   0.852   0.510  15.695  0.9249  0.1057  0.0071
  822MPD2    C512148   0.907   0.408  15.621  0.0734 -0.3365  0.3979
  822MPD2     H12149   0.813   0.319  15.973  1.4049 -0.6486  0.0274
  822MPD2    H112150   0.826   0.602  15.643 -1.5450 -0.0402  0.9946
  822MPD2    H212151   0.996   0.217  15.601  0.5722 -0.5732  0.2289
  822MPD2    H312152   0.924   0.430  15.516 -1.8893  2.7879  0.7232
  822MPD2     N12153   0.751   0.561  15.910  0.6576  0.5039  0.2122
  822MPD2    H512154   0.717   0.519  15.996 -1.1861 -1.1916 -1.3552
  822MPD2    N112155   0.939   0.131  15.856 -0.4825 -0.5964  0.5610
  822MPD2    H712156   0.909   0.122  15.953 -0.5518  2.0531  0.7827
  823MPD2     C12157   0.471   0.733  16.665  1.1096  0.4550  0.2374
  823MPD2    C112158   0.518   0.642  16.567 -0.1815  0.2699  0.3277
  823MPD2    C212159   0.569   0.521  16.606 -1.2413  0.1517  0.0564
  823MPD2    C312160   0.572   0.480  16.736  0.2619  0.2485 -0.6733
  823MPD2    C412161   0.527   0.571  16.834 -0.2259 -0.0965 -0.3809
  823MPD2    C512162   0.473   0.689  16.794  0.2703  0.0486  0.2555
  823MPD2     H12163   0.593   0.453  16.525  0.3050 -0.7040  1.2280
  823MPD2    H112164   0.535   0.556  16.941 -0.1526  0.7172 -0.2678
  823MPD2    H212165   0.434   0.831  16.639 -0.1437 -0.6939 -2.2930
  823MPD2    H312166   0.438   0.754  16.872  1.4363  0.8994  0.0767
  823MPD2     N12167   0.620   0.363  16.791 -0.1501  0.0535  0.3646
  823MPD2    H512168   0.584   0.343  16.884 -0.9853  0.8998  0.2282
  823MPD2    N112169   0.517   0.702  16.436 -0.3442 -0.5817 -0.0466
  823MPD2    H712170   0.502   0.803  16.431  1.1895 -0.2915  1.4484
  824MPD2     C12171   0.978   4.012  15.803 -0.0060  0.0271 -0.4536
  824MPD2    C112172   1.061   4.115  15.763 -0.1352  0.3849 -0.3409
  824MPD2    C212173   1.163   4.089  15.675  0.3733 -0.1822 -0.8596
  824MPD2    C312174   1.182   3.967  15.625 -0.1082 -0.3798  0.5380
  824MPD2    C412175   1.087   3.866  15.644 -0.0176 -0.0089 -0.2106
  824MPD2    C512176   0.990   3.893  15.740  0.0817  0.0832 -0.0363
  824MPD2     H12177   1.223   4.162  15.622  0.4981 -0.2469 -0.8075
  824MPD2    H112178   1.094   3.765  15.606  1.6263 -0.7660  2.1133
  824MPD2    H212179   0.893   4.026  15.868 -1.2308 -1.4866 -1.7469
  824MPD2    H312180   0.920   3.817  15.772  0.4405 -0.5145 -0.6479
  824MPD2     N12181   1.302   3.952  15.551 -0.0486  0.2423  0.0697
  824MPD2    H512182   1.382   4.014  15.560  0.6645 -0.6054 -0.4537
  824MPD2    N112183   1.053   4.243  15.815 -0.8259 -0.1150 -0.6726
  824MPD2    H712184   1.125   4.310  15.789 -1.7198  0.4600 -1.6401
  825MPD2     C12185   2.098   4.102  15.322  0.8058  0.1515 -0.9186
  825MPD2    C112186   1.967   4.125  15.293  0.4475  0.1073 -0.4261
  825MPD2    C212187   1.934   4.242  15.223 -0.0631  0.3134 -0.1332
  825MPD2    C312188   2.038   4.325  15.174 -0.5402 -0.2367  0.1559
  825MPD2    C412189   2.163   4.296  15.218 -0.8216  0.5045  0.1439
  825MPD2    C512190   2.195   4.194  15.303  0.5108  0.7187  0.5483
  825MPD2     H12191   1.832   4.276  15.212 -0.0403  0.4131 -0.0383
  825MPD2    H112192   2.244   4.352  15.174 -1.2918  0.9837 -0.1084
  825MPD2    H212193   2.124   4.023  15.390 -0.1097  0.4301 -0.2570
  825MPD2    H312194   2.298   4.175  15.329  0.6445  1.4158  0.5131
  825MPD2     N12195   2.035   4.434  15.081 -0.1037  0.3397  0.6176
  825MPD2    H512196   2.117   4.488  15.057 -0.6092  1.2543  0.9781
  825MPD2    N112197   1.868   4.038  15.336 -0.1873  0.5413 -0.3133
  825MPD2    H712198   1.900   3.963  15.395 -3.2459 -0.5522 -0.0293
  826MPD2     C12199   1.328   3.422  13.294 -0.1751 -0.4854  0.9796
  826MPD2    C112200   1.336   3.557  13.268 -0.1611 -0.0948 -0.2013
  826MPD2    C212201   1.218   3.631  13.269 -0.1952 -0.5093 -0.1378
  826MPD2    C312202   1.099   3.584  13.317 -0.1878 -0.0803  0.8717
  826MPD2    C412203   1.093   3.452  13.344  0.3059  0.3566  0.5990
  826MPD2    C512204   1.201   3.370  13.329 -0.1690  0.2793  0.3700
  826MPD2     H12205   1.238   3.737  13.261  0.5366 -0.5689  0.8125
  826MPD2    H112206   1.005   3.415  13.396 -0.5377  2.5663  0.7581
  826MPD2    H212207   1.409   3.352  13.276 -1.0729 -0.8282 -1.7625
  826MPD2    H312208   1.180   3.265  13.342  2.2103  0.0316  2.1525
  826MPD2     N12209   0.989   3.662  13.352  0.8396 -0.2229 -0.6681
  826MPD2    H512210   0.914   3.625  13.409  1.0729  0.2394 -0.0589
  826MPD2    N112211   1.465   3.612  13.248  0.2493  0.3823  0.4297
  826MPD2    H712212   1.546   3.552  13.235 -0.7401 -0.7277 -0.6285
  827MPD2     C12213   2.268   0.812   9.823 -0.0682 -0.2206  0.3863
  827MPD2    C112214   2.203   0.829   9.942 -0.2396 -0.4623 -0.3493
  827MPD2    C212215   2.088   0.908   9.942 -0.1181  0.0156  0.5516
  827MPD2    C312216   2.042   0.950   9.824  0.5661  0.2437  0.0916
  827MPD2    C412217   2.117   0.943   9.708 -0.5109  0.5730 -0.1092
  827MPD2    C512218   2.231   0.874   9.706  0.4454 -0.7502  0.2741
  827MPD2     H12219   2.030   0.927  10.031 -0.8949 -2.2993  0.5193
  827MPD2    H112220   2.087   0.983   9.612  0.1922 -1.6682 -1.2588
  827MPD2    H212221   2.351   0.742   9.816  0.7146  0.7822 -0.2333
  827MPD2    H312222   2.284   0.868   9.611  1.0660 -1.7128  0.6852
  827MPD2     N12223   1.911   1.015   9.833  0.0816  0.3820 -0.0208
  827MPD2    H512224   1.883   1.025   9.930  0.8640  0.0256  0.2457
  827MPD2    N112225   2.258   0.767  10.058 -0.0953  0.5939  0.1790
  827MPD2    H712226   2.353   0.738  10.042  0.6560  3.0684  0.1032
  828MPD2     C12227   0.935   1.230  11.803  0.0678 -0.2834  0.0855
  828MPD2    C112228   0.829   1.148  11.789 -0.1283  0.4436 -0.6732
  828MPD2    C212229   0.830   1.045  11.702 -0.2841 -0.1799 -0.3884
  828MPD2    C312230   0.934   1.035  11.604 -0.8169 -0.1420 -0.0160
  828MPD2    C412231   1.037   1.121  11.620  0.3097 -0.5582  0.2979
  828MPD2    C512232   1.043   1.218  11.716 -0.4488 -0.3556  0.5159
  828MPD2     H12233   0.739   0.986  11.689 -1.8532  1.8012  1.6353
  828MPD2    H112234   1.124   1.119  11.556 -2.0071 -2.3560 -2.8299
  828MPD2    H212235   0.938   1.322  11.861 -0.0627 -0.1968 -0.0445
  828MPD2    H312236   1.123   1.289  11.730 -1.1300  0.8623 -1.7578
  828MPD2     N12237   0.941   0.940  11.499 -0.4197 -0.8403 -0.4284
  828MPD2    H512238   1.024   0.936  11.440 -1.2093  4.2427 -1.9730
  828MPD2    N112239   0.709   1.164  11.864  0.1261 -0.5991  0.1815
  828MPD2    H712240   0.620   1.124  11.837 -0.3260  1.2247 -1.0514
  829MPD2     C12241   0.078   1.150  11.399 -0.2711  0.2212  0.2456
  829MPD2    C112242   0.074   1.075  11.515  0.0521  0.7455  0.0481
  829MPD2    C212243   0.122   1.131  11.633 -0.8440  0.2161 -0.0064
  829MPD2    C312244   0.195   1.251  11.628 -1.0179 -0.0459 -0.0195
  829MPD2    C412245   0.196   1.329  11.508 -1.0093  0.0028 -0.0212
  829MPD2    C512246   0.139   1.272  11.397  0.2477  0.0494 -0.1178
  829MPD2     H12247   0.123   1.080  11.728 -0.6998  0.1768 -0.0283
  829MPD2    H112248   0.239   1.428  11.501 -1.4178  0.1946  0.1901
  829MPD2    H212249   0.049   1.101  11.307  2.1249 -1.6081  0.4449
  829MPD2    H312250   0.143   1.330  11.305  2.6610 -1.7986 -1.1548
  829MPD2     N12251   0.270   1.303  11.736 -0.2844  0.4354 -0.9113
  829MPD2    H512252   0.330   1.385  11.727  0.8451 -0.3500 -0.5473
  829MPD2    N112253   0.025   0.947  11.504  0.0867  0.0728  0.3874
  829MPD2    H712254   4.713   0.917  11.419  1.9343  0.9023 -0.8949
  830MPD2     C12255   1.078   3.285  15.662 -0.9712 -0.0952 -0.4582
  830MPD2    C112256   0.972   3.332  15.587 -0.7519 -0.1271 -0.2033
  830MPD2    C212257   0.997   3.368  15.456 -0.1701  0.0784  0.3901
  830MPD2    C312258   1.132   3.371  15.413 -0.3741 -1.1710 -0.0866
  830MPD2    C412259   1.230   3.319  15.491 -0.0243 -0.2479 -0.2892
  830MPD2    C512260   1.202   3.273  15.614 -0.2889  0.4415  0.6326
  830MPD2     H12261   0.926   3.422  15.395  3.0251  2.3057 -1.3588
  830MPD2    H112262   1.333   3.327  15.457 -0.1889 -1.5176 -1.1107
  830MPD2    H212263   1.064   3.237  15.759  0.2271  0.1892 -0.1432
  830MPD2    H312264   1.283   3.250  15.683 -0.0218  1.0065  0.5092
  830MPD2     N12265   1.172   3.426  15.293 -0.0083 -0.1049 -0.1652
  830MPD2    H512266   1.272   3.426  15.275  0.1370  0.3750  0.6652
  830MPD2    N112267   0.848   3.325  15.652 -0.4324 -0.5238 -0.3877
  830MPD2    H712268   0.849   3.323  15.753  1.8863 -0.7991 -0.4123
  831MPD2     C12269   1.007   0.625  16.190 -0.4476 -0.0751  0.4117
  831MPD2    C112270   1.041   0.506  16.137 -0.2434 -0.0326 -0.5307
  831MPD2    C212271   0.963   0.392  16.173  0.1668 -0.4165  0.4903
  831MPD2    C312272   0.869   0.400  16.271  0.3022 -0.0228  0.0374
  831MPD2    C412273   0.857   0.515  16.342 -0.2438 -0.0284 -0.3691
  831MPD2    C512274   0.927   0.628  16.299  0.1791  0.3153  0.5366
  831MPD2     H12275   0.980   0.305  16.109 -1.3599 -0.1431 -0.2940
  831MPD2    H112276   0.787   0.526  16.424 -0.1476  1.8875 -0.5502
  831MPD2    H212277   1.065   0.714  16.168  1.0678 -0.6738  2.0222
  831MPD2    H312278   0.913   0.713  16.365 -0.3753  0.0712  0.7304
  831MPD2     N12279   0.779   0.298  16.293 -0.2668  0.2421 -0.5212
  831MPD2    H512280   0.709   0.315  16.364  1.1315 -2.2485  1.4797
  831MPD2    N112281   1.123   0.496  16.020  0.5935  0.1099 -0.4480
  831MPD2    H712282   1.150   0.581  15.971 -0.4007  0.5483 -0.2526
  832MPD2     C12283   4.247   1.779  17.224  0.3065 -0.0556 -0.3198
  832MPD2    C112284   4.244   1.870  17.127 -0.2195 -0.3511  0.6742
  832MPD2    C212285   4.155   1.849  17.021 -0.2673  0.2251  0.4751
  832MPD2    C312286   4.072   1.739  17.018  0.1622 -0.4453  0.3756
  832MPD2    C412287   4.088   1.644  17.111  0.0003 -0.4436 -0.8030
  832MPD2    C512288   4.182   1.664  17.206  0.1441 -0.5746  0.4788
  832MPD2     H12289   4.133   1.936  16.960 -0.3745 -0.0739  0.0845
  832MPD2    H112290   4.025   1.556  17.121 -0.7534  0.2299  0.3096
  832MPD2    H212291   4.320   1.794  17.303 -0.3626  0.8977  0.1277
  832MPD2    H312292   4.197   1.589  17.282 -0.4642 -2.5955 -1.3969
  832MPD2     N12293   3.974   1.722  16.920 -0.3644  0.8389 -0.0796
  832MPD2    H512294   3.910   1.648  16.948 -0.8082  1.0663 -0.4976
  832MPD2    N112295   4.317   1.989  17.151 -0.2662 -0.7007 -0.0873
  832MPD2    H712296   4.350   2.001  17.246 -1.1892 -0.5139  0.2054
  833MPD2     C12297   1.707   2.832  12.687 -0.3518 -0.7548 -0.9744
  833MPD2    C112298   1.672   2.927  12.587 -0.1067  0.2290 -0.1902
  833MPD2    C212299   1.727   2.905  12.461 -0.2341  0.2083  0.3063
  833MPD2    C312300   1.805   2.792  12.431 -0.1190  0.7852  0.0473
  833MPD2    C412301   1.836   2.708  12.535 -0.4090  0.8658  0.3190
  833MPD2    C512302   1.792   2.732  12.661  0.2097  0.1221  0.4910
  833MPD2     H12303   1.708   2.979  12.385 -2.6855 -1.1654 -0.4271
  833MPD2    H112304   1.905   2.625  12.522 -1.7773 -0.2995  0.4645
  833MPD2    H212305   1.677   2.848  12.790  1.6074  0.1045 -0.5290
  833MPD2    H312306   1.832   2.671  12.741 -1.0310  1.8161  2.3881
  833MPD2     N12307   1.863   2.773  12.302  0.4633 -0.6164  0.3990
  833MPD2    H512308   1.886   2.678  12.277 -0.5820 -0.3646 -1.5466
  833MPD2    N112309   1.612   3.053  12.620 -0.3276  0.0661 -0.3661
  833MPD2    H712310   1.587   3.054  12.719  0.4536 -0.0020 -0.1659
  834MPD2     C12311   1.356   2.401  11.541 -0.2453  0.2233  0.0842
  834MPD2    C112312   1.440   2.472  11.465 -0.1707  1.0041 -0.2432
  834MPD2    C212313   1.541   2.544  11.526  0.1138  0.0186 -0.5569
  834MPD2    C312314   1.555   2.546  11.662 -0.3428 -0.0708  0.5153
  834MPD2    C412315   1.459   2.484  11.738 -0.8205 -0.6458 -0.4931
  834MPD2    C512316   1.361   2.413  11.677  0.3867  0.0997  0.0905
  834MPD2     H12317   1.628   2.591  11.481  1.5026 -1.3834  0.6952
  834MPD2    H112318   1.463   2.477  11.846  0.8678  0.4296 -0.4897
  834MPD2    H212319   1.279   2.345  11.490  1.0186  0.5331 -2.1705
  834MPD2    H312320   1.299   2.348  11.738 -0.2288  0.1440 -0.5004
  834MPD2     N12321   1.664   2.617  11.724 -0.0884 -0.3637  0.4738
  834MPD2    H512322   1.726   2.667  11.662  1.1002 -0.7572  1.3416
  834MPD2    N112323   1.424   2.470  11.328 -0.8696  0.1068  0.4188
  834MPD2    H712324   1.342   2.423  11.292  0.4486 -0.7581 -1.4699
  835MPD2     C12325   1.124   0.784  10.724 -0.0493  0.3410  0.6283
  835MPD2    C112326   1.046   0.809  10.835 -0.3594 -0.0905  0.2226
  835MPD2    C212327   1.103   0.876  10.941  0.6742  0.8222  1.1219
  835MPD2    C312328   1.234   0.923  10.941  0.3620  0.0775  0.4548
  835MPD2    C412329   1.307   0.900  10.826  0.1596  0.2105 -0.5340
  835MPD2    C512330   1.250   0.836  10.720  0.7599  0.3210 -0.1862
  835MPD2     H12331   1.038   0.907  11.021 -2.3825  1.0105 -1.4413
  835MPD2    H112332   1.408   0.929  10.797 -0.2970  0.9984 -1.3223
  835MPD2    H212333   1.091   0.740  10.631  0.9515  0.7775  0.0691
  835MPD2    H312334   1.312   0.827  10.631  1.3922  0.2188  0.2661
  835MPD2     N12335   1.305   0.995  11.046  0.3728  0.3343  0.0104
  835MPD2    H512336   1.402   1.017  11.023  0.0475 -0.4013 -2.1117
  835MPD2    N112337   0.919   0.755  10.859 -0.1180  0.0476  0.4879
  835MPD2    H712338   0.879   0.769  10.951 -2.7861 -0.8318 -0.5236
  836MPD2     C12339   1.336   1.587  11.521 -0.1508  0.0123  0.0561
  836MPD2    C112340   1.331   1.472  11.595  0.2834  0.2715 -0.5033
  836MPD2    C212341   1.298   1.477  11.726 -0.3869 -0.6121  0.2072
  836MPD2    C312342   1.281   1.600  11.791 -0.5345  0.5046 -0.2109
  836MPD2    C412343   1.292   1.715  11.717 -0.4876  0.1519  0.0031
  836MPD2    C512344   1.310   1.704  11.587 -0.3010 -0.4011  0.3619
  836MPD2     H12345   1.293   1.384  11.781  1.0440 -0.5371  0.4634
  836MPD2    H112346   1.270   1.815  11.752  2.1822  0.9166 -0.5276
  836MPD2    H212347   1.364   1.576  11.416  1.0505 -1.7634  0.5530
  836MPD2    H312348   1.312   1.796  11.530  1.7258 -1.5809 -1.4734
  836MPD2     N12349   1.228   1.615  11.915  0.0442  0.6130 -0.2766
  836MPD2    H512350   1.220   1.709  11.952 -0.0205  0.1597  0.8525
  836MPD2    N112351   1.352   1.353  11.526 -0.0142  0.3632 -0.0962
  836MPD2    H712352   1.357   1.361  11.425  1.1790 -1.7388 -0.2027
  837MPD2     C12353   4.602   0.336  10.222 -0.3115 -0.0852  0.1556
  837MPD2    C112354   4.588   0.328  10.085 -0.6537  0.4253  0.9881
  837MPD2    C212355   4.563   0.445  10.018  0.2487  0.1940 -0.5533
  837MPD2    C312356   4.518   0.563  10.079 -0.4543 -0.5254  0.5184
  837MPD2    C412357   4.528   0.574  10.215  0.2630  0.5090 -0.2307
  837MPD2    C512358   4.581   0.461  10.279  0.5866 -0.0317  0.0264
  837MPD2     H12359   4.560   0.440   9.909  1.2783  0.4141 -0.5863
  837MPD2    H112360   4.475   0.640  10.283 -0.3042  0.7240 -0.8825
  837MPD2    H212361   4.622   0.252  10.288  0.3569 -1.0162 -1.2417
  837MPD2    H312362   4.588   0.477  10.386  0.3600 -0.1721  0.0611
  837MPD2     N12363   4.429   0.648   9.997  0.3054 -0.4408  0.0299
  837MPD2    H512364   4.398   0.613   9.906  2.9230  0.6023 -1.2767
  837MPD2    N112365   4.588   0.208  10.014 -0.4986 -0.0689 -0.2995
  837MPD2    H712366   4.587   0.207   9.912 -0.4743 -2.3468 -0.2828
  838MPD2     C12367   2.986   3.918  11.534  0.4393 -0.8038  0.6155
  838MPD2    C112368   2.977   3.784  11.530 -0.6312 -0.1996  0.3433
  838MPD2    C212369   2.910   3.718  11.625  0.0785 -0.1096  0.1950
  838MPD2    C312370   2.843   3.783  11.725 -0.4162 -0.2964 -0.1393
  838MPD2    C412371   2.867   3.918  11.730  0.4515 -0.2535 -0.8157
  838MPD2    C512372   2.932   3.989  11.634 -0.2243  0.2242  0.6737
  838MPD2     H12373   2.891   3.613  11.604 -0.6102 -0.1604  1.0673
  838MPD2    H112374   2.821   3.981  11.805  0.2856 -0.2450 -0.9254
  838MPD2    H212375   3.030   3.972  11.451  1.4968 -2.4587  0.1048
  838MPD2    H312376   2.945   4.096  11.645  1.2099  0.0411  0.7939
  838MPD2     N12377   2.754   3.721  11.815 -0.3846 -0.1445 -0.2307
  838MPD2    H512378   2.745   3.620  11.816  0.5411 -0.2153  0.9423
  838MPD2    N112379   3.041   3.707  11.428  0.3890  0.0532  0.5226
  838MPD2    H712380   3.019   3.608  11.426 -0.2649  0.2294 -0.8701
  839MPD2     C12381   3.271   2.990  11.730 -0.3468 -0.1986  0.2176
  839MPD2    C112382   3.234   2.954  11.603 -0.2015  0.0514  0.3043
  839MPD2    C212383   3.234   3.048  11.498  0.5739  0.1569 -0.1874
  839MPD2    C312384   3.258   3.181  11.528 -0.4302  0.0699 -0.2371
  839MPD2    C412385   3.290   3.217  11.661 -0.0337  0.5173  0.5583
  839MPD2    C512386   3.296   3.122  11.755  0.6948 -0.4814  0.3206
  839MPD2     H12387   3.214   3.011  11.399 -1.5548  2.3116 -0.5410
  839MPD2    H112388   3.296   3.323  11.682 -2.0606  0.7993 -0.3237
  839MPD2    H212389   3.283   2.913  11.806 -1.4991 -2.3586 -1.7796
  839MPD2    H312390   3.328   3.154  11.853  1.2469 -1.2736  0.3926
  839MPD2     N12391   3.254   3.288  11.433  0.7876  0.1356 -0.6085
  839MPD2    H512392   3.260   3.382  11.473  0.9669 -0.8273  1.6406
  839MPD2    N112393   3.198   2.822  11.569 -0.1194 -0.4081  0.1754
  839MPD2    H712394   3.163   2.808  11.475 -0.6741 -1.2702  0.5052
  840MPD2     C12395   2.810   0.497  10.127  0.0588 -0.3032 -0.3101
  840MPD2    C112396   2.763   0.548  10.245  0.3376  0.2167 -0.1942
  840MPD2    C212397   2.843   0.629  10.326  0.9596 -0.2153  0.0736
  840MPD2    C312398   2.969   0.662  10.282 -0.4004  1.0846 -0.5323
  840MPD2    C412399   3.011   0.616  10.161  0.6174  0.1690  0.0434
  840MPD2    C512400   2.933   0.536  10.081 -0.2141  0.5574 -0.2142
  840MPD2     H12401   2.795   0.679  10.409  2.1021 -0.2459  0.7554
  840MPD2    H112402   3.111   0.646  10.132  1.5573 -1.2893  1.7468
  840MPD2    H212403   2.748   0.434  10.065  0.6616  0.4523 -1.6954
  840MPD2    H312404   2.987   0.502   9.993  1.0167 -0.6851  1.0298
  840MPD2     N12405   3.055   0.748  10.356  0.2485 -0.2543  0.0665
  840MPD2    H512406   3.141   0.772  10.308 -0.1073 -0.5053 -0.6963
  840MPD2    N112407   2.636   0.520  10.280 -0.5256  0.2509 -0.6798
  840MPD2    H712408   2.587   0.463  10.212 -0.0765 -0.3053 -0.5352
  841MPD2     C12409   2.587   1.156  13.638  0.5741 -0.1188 -0.4627
  841MPD2    C112410   2.603   1.052  13.728  0.0937  0.4562 -0.2765
  841MPD2    C212411   2.676   1.072  13.842 -0.5906 -0.5632 -0.1840
  841MPD2    C312412   2.748   1.186  13.863 -0.0624 -0.4511  0.0297
  841MPD2    C412413   2.744   1.286  13.766 -0.4940 -0.4477  0.2404
  841MPD2    C512414   2.662   1.270  13.656 -1.1038 -0.4047  0.3127
  841MPD2     H12415   2.684   0.992  13.914  1.4815 -1.2071 -1.1547
  841MPD2    H112416   2.789   1.383  13.782 -0.2833 -0.7515  1.4571
  841MPD2    H212417   2.540   1.163  13.541  1.0080 -2.4250 -0.8366
  841MPD2    H312418   2.651   1.353  13.587 -1.7695 -0.9398 -0.2255
  841MPD2     N12419   2.816   1.206  13.982 -0.3697 -0.6917  0.3599
  841MPD2    H512420   2.815   1.127  14.045 -0.5396  0.1959  1.4531
  841MPD2    N112421   2.524   0.935  13.716 -0.0309  0.1290 -0.2257
  841MPD2    H712422   2.533   0.869  13.792  1.0891  0.7391  0.1725
  842MPD2     C12423   3.238   2.204  16.322  0.0393 -0.1120  0.1698
  842MPD2    C112424   3.137   2.128  16.359 -0.0884 -0.2620 -0.0745
  842MPD2    C212425   3.150   2.059  16.482  0.2434  0.0700 -0.0028
  842MPD2    C312426   3.256   2.084  16.572  0.6067 -0.7761  0.0795
  842MPD2    C412427   3.357   2.157  16.526 -0.3272 -0.0457  0.1270
  842MPD2    C512428   3.356   2.203  16.402 -0.0763 -0.2814 -0.8765
  842MPD2     H12429   3.065   1.997  16.511 -0.0957 -0.5646 -2.3097
  842MPD2    H112430   3.446   2.184  16.582 -0.5838 -1.4152  1.2024
  842MPD2    H212431   3.236   2.238  16.220  0.6914 -0.4400  0.0455
  842MPD2    H312432   3.441   2.257  16.364 -0.0666  1.4496  1.5503
  842MPD2     N12433   3.254   2.041  16.702 -0.5338  0.1402  0.0343
  842MPD2    H512434   3.328   2.060  16.769 -0.2891 -1.4247  0.2072
  842MPD2    N112435   3.043   2.099  16.258  0.8079 -0.4821 -0.1451
  842MPD2    H712436   3.061   2.158  16.177 -0.1227 -0.1910 -0.1380
  843MPD2     C12437   0.537   2.888  17.289 -0.0202 -0.0075  0.9205
  843MPD2    C112438   0.593   2.985  17.207  1.0251 -0.1391 -0.5847
  843MPD2    C212439   0.684   3.071  17.266 -0.1326 -0.5046 -0.2997
  843MPD2    C312440   0.737   3.048  17.393 -0.5537 -0.0576  0.3502
  843MPD2    C412441   0.701   2.934  17.465 -0.1454 -0.4026 -0.4545
  843MPD2    C512442   0.597   2.860  17.409 -0.2145 -0.0489  0.4047
  843MPD2     H12443   0.722   3.153  17.205  1.9305 -0.0272  1.6086
  843MPD2    H112444   0.738   2.921  17.566 -3.6686 -0.8768  0.7530
  843MPD2    H212445   0.458   2.824  17.253  1.9796 -0.9409 -1.8060
  843MPD2    H312446   0.554   2.772  17.455 -0.0297  0.4524  1.5396
  843MPD2     N12447   0.831   3.121  17.463  0.0362  0.8230 -0.2188
  843MPD2    H512448   0.860   3.091  17.555 -0.2575  1.9584  0.2354
  843MPD2    N112449   0.543   2.996  17.075 -0.4048 -0.4935  0.3379
  843MPD2    H712450   0.467   2.934  17.050 -0.5574  0.4265 -1.4774
  844MPD2     C12451   3.941   0.918  16.379 -0.3747 -0.1612 -0.3828
  844MPD2    C112452   3.936   1.011  16.282 -0.2054  0.3924 -0.0095
  844MPD2    C212453   3.966   1.140  16.320  0.6916  0.5523  0.0917
  844MPD2    C312454   3.995   1.184  16.448 -0.0087 -0.4603 -0.0949
  844MPD2    C412455   4.006   1.080  16.538  0.6977  0.0259 -0.3054
  844MPD2    C512456   3.961   0.959  16.509 -0.2099  0.4211  0.1700
  844MPD2     H12457   3.956   1.219  16.246 -0.8916 -0.2901 -0.6031
  844MPD2    H112458   4.050   1.089  16.637 -1.4809 -0.0617  0.6725
  844MPD2    H212459   3.917   0.813  16.366  1.2624 -0.2702 -2.4392
  844MPD2    H312460   3.957   0.880  16.583 -0.0358 -0.2643 -0.5457
  844MPD2     N12461   4.031   1.320  16.474  0.2182  0.0550  0.7564
  844MPD2    H512462   4.054   1.381  16.396 -1.9608 -1.2773 -0.9442
  844MPD2    N112463   3.902   0.984  16.153  0.0216  0.1139 -0.1500
  844MPD2    H712464   3.884   1.061  16.089  1.0796  0.4835 -0.0004
  845MPD2     C12465   4.148   2.313  16.309 -0.2658 -0.5004 -0.2988
  845MPD2    C112466   4.213   2.295  16.428 -0.1189  0.4525  0.6261
  845MPD2    C212467   4.231   2.165  16.481  0.3061  0.2932 -0.3400
  845MPD2    C312468   4.181   2.053  16.413  0.0066  0.3086  1.0405
  845MPD2    C412469   4.104   2.071  16.305  0.4324  0.4511 -0.4476
  845MPD2    C512470   4.087   2.198  16.259 -0.1883 -0.2097 -0.2964
  845MPD2     H12471   4.286   2.139  16.571 -0.6737  0.1372  0.2236
  845MPD2    H112472   4.062   1.981  16.262 -0.4002 -0.1682  1.7017
  845MPD2    H212473   4.128   2.413  16.271 -0.6880 -0.4029  0.1622
  845MPD2    H312474   4.033   2.208  16.166 -0.8957 -1.8347 -0.0630
  845MPD2     N12475   4.201   1.924  16.468 -0.1123  0.2990 -0.2352
  845MPD2    H512476   4.238   1.930  16.562 -3.2102 -0.2750  1.0022
  845MPD2    N112477   4.262   2.409  16.489 -0.3388 -0.2682 -0.2512
  845MPD2    H712478   4.226   2.500  16.461 -3.4942 -0.9127  1.6889
  846MPD2     C12479   0.382   2.803  13.451  0.3846 -0.0246 -0.1115
  846MPD2    C112480   0.495   2.730  13.500 -0.4738  0.2920  0.1966
  846MPD2    C212481   0.476   2.665  13.617 -0.2026 -0.2767  0.4501
  846MPD2    C312482   0.352   2.657  13.673 -0.4600 -0.5891 -0.5803
  846MPD2    C412483   0.244   2.736  13.633  0.5515 -0.2588 -0.5107
  846MPD2    C512484   0.271   2.821  13.531 -0.3250 -0.9719 -0.4093
  846MPD2     H12485   0.554   2.603  13.660  1.2296  1.6176  0.5662
  846MPD2    H112486   0.154   2.743  13.694 -0.1740  1.5173 -1.7825
  846MPD2    H212487   0.379   2.871  13.366 -0.4673  2.0652  1.5844
  846MPD2    H312488   0.198   2.896  13.504 -0.3986 -0.2855  1.6354
  846MPD2     N12489   0.341   2.571  13.789  0.3115  0.2065  0.3390
  846MPD2    H512490   0.422   2.521  13.824  0.1266 -0.2524  0.1062
  846MPD2    N112491   0.625   2.735  13.435 -0.0715 -0.2115  0.0205
  846MPD2    H712492   0.700   2.681  13.476 -0.1088  0.0032  0.3772
  847MPD2     C12493   0.764   3.514  14.254 -0.0242  0.2978 -0.2779
  847MPD2    C112494   0.862   3.612  14.269  0.8467 -0.1994  0.0425
  847MPD2    C212495   0.973   3.606  14.192  0.8228 -0.2809 -0.0626
  847MPD2    C312496   0.984   3.513  14.089  0.2807 -0.8006 -0.1358
  847MPD2    C412497   0.881   3.421  14.068 -0.5665  0.3736  0.3091
  847MPD2    C512498   0.779   3.420  14.158  0.4147 -0.6583  0.2442
  847MPD2     H12499   1.055   3.673  14.214  0.7506 -0.8867  2.1263
  847MPD2    H112500   0.878   3.353  13.983 -0.3322  0.5188  0.1855
  847MPD2    H212501   0.675   3.506  14.315  1.4283  0.8518  1.9349
  847MPD2    H312502   0.713   3.336  14.176  0.7587 -0.8643  0.5304
  847MPD2     N12503   1.099   3.498  14.005  1.1046 -0.3777 -0.0595
  847MPD2    H512504   1.105   3.416  13.945  1.4401  0.2965 -0.9376
  847MPD2    N112505   0.862   3.720  14.368 -0.1708 -0.1910 -0.3208
  847MPD2    H712506   0.936   3.789  14.368  2.4271 -2.9792  1.3299
  848MPD2     C12507   3.400   1.898  16.200  0.4193  0.3551 -0.3467
  848MPD2    C112508   3.527   1.937  16.239 -0.7152  0.3578  0.2600
  848MPD2    C212509   3.611   2.013  16.152 -0.8732 -0.8773 -0.1005
  848MPD2    C312510   3.565   2.042  16.028  0.0542  1.4240 -0.1447
  848MPD2    C412511   3.434   2.005  15.994  0.1207 -0.6759  0.5858
  848MPD2    C512512   3.350   1.931  16.079 -0.0418 -0.6696 -0.1668
  848MPD2     H12513   3.710   2.052  16.174 -1.5918  0.2090  1.1771
  848MPD2    H112514   3.395   2.026  15.895  1.2747  0.4603  0.3694
  848MPD2    H212515   3.343   1.826  16.258  1.1706 -1.1010 -1.4304
  848MPD2    H312516   3.258   1.888  16.041  1.0992  0.4407 -4.2388
  848MPD2     N12517   3.636   2.127  15.934  0.0993  0.5602 -0.0050
  848MPD2    H512518   3.586   2.141  15.847 -2.0510 -1.1119  0.9617
  848MPD2    N112519   3.572   1.881  16.356  0.2103  0.0148 -0.0651
  848MPD2    H712520   3.509   1.840  16.425 -0.0580 -0.5766 -0.6630
  849MPD2     C12521   2.897   1.685  14.086  0.3719  0.2587 -0.0182
  849MPD2    C112522   2.941   1.752  13.976 -0.3704 -0.0013 -0.0488
  849MPD2    C212523   3.063   1.823  13.972 -0.2861  0.2055 -0.2271
  849MPD2    C312524   3.146   1.820  14.083 -0.3625  0.7400  0.3850
  849MPD2    C412525   3.090   1.766  14.199 -0.3861 -0.0255  0.1374
  849MPD2    C512526   2.976   1.691  14.202  0.6331  0.3514 -0.0803
  849MPD2     H12527   3.098   1.875  13.883 -0.9723 -1.3178 -1.3803
  849MPD2    H112528   3.144   1.765  14.294 -0.6614 -3.3246  0.2583
  849MPD2    H212529   2.805   1.629  14.090  0.0130  0.7243 -2.1212
  849MPD2    H312530   2.945   1.649  14.297 -0.2243 -0.0407 -0.5384
  849MPD2     N12531   3.267   1.880  14.093  0.4353  0.1013  0.1445
  849MPD2    H512532   3.302   1.895  14.187 -1.8189 -1.0229  1.1421
  849MPD2    N112533   2.858   1.743  13.862  0.2150  0.5255 -0.0805
  849MPD2    H712534   2.765   1.709  13.882  0.5889 -0.7642 -0.5165
  850MPD2     C12535   0.866   4.385  14.377 -0.1052  0.0818  0.4513
  850MPD2    C112536   0.843   4.491  14.461  0.7047 -0.3096 -0.0263
  850MPD2    C212537   0.954   4.557  14.511  0.7642  0.3576  0.4374
  850MPD2    C312538   1.077   4.516  14.478 -0.7407  0.1876  0.3576
  850MPD2    C412539   1.094   4.404  14.398  0.1878  0.3342  0.2245
  850MPD2    C512540   0.987   4.345  14.344  0.6689  0.5457 -0.5746
  850MPD2     H12541   0.944   4.647  14.570  0.5145 -0.4557  1.6228
  850MPD2    H112542   1.194   4.367  14.377 -0.8548 -0.3772 -3.5091
  850MPD2    H212543   0.778   4.341  14.331 -0.9632  1.8553  0.3840
  850MPD2    H312544   0.993   4.257  14.281 -1.6029 -0.8247  1.1355
  850MPD2     N12545   1.196   4.554  14.548  0.4230  0.7076 -0.4467
  850MPD2    H512546   1.281   4.505  14.525  0.6758  0.7526  0.3680
  850MPD2    N112547   0.707   4.528  14.488 -0.2881 -0.0768  0.1191
  850MPD2    H712548   0.643   4.478  14.427  0.6853  0.0159 -0.9703
  851MPD2     C12549   1.204   4.352  15.187  0.1504 -0.0251 -0.5467
  851MPD2    C112550   1.108   4.307  15.096 -0.3930 -0.4162  0.7790
  851MPD2    C212551   1.113   4.179  15.055 -0.3472 -0.0948  0.2221
  851MPD2    C312552   1.203   4.087  15.107  0.0176  0.1729 -0.0355
  851MPD2    C412553   1.287   4.133  15.208 -0.4580  0.4305  0.4453
  851MPD2    C512554   1.294   4.267  15.245  0.2866 -0.0676  0.0987
  851MPD2     H12555   1.045   4.150  14.976 -0.7884  1.1891  0.1444
  851MPD2    H112556   1.358   4.059  15.244 -1.4104  0.3527  2.1704
  851MPD2    H212557   1.228   4.458  15.197 -0.1879 -0.0663  0.6463
  851MPD2    H312558   1.364   4.305  15.318  0.0175  2.5681 -1.0121
  851MPD2     N12559   1.206   3.959  15.063 -0.4975  0.0369  0.1294
  851MPD2    H512560   1.125   3.927  15.012 -0.8352  2.1561 -0.6815
  851MPD2    N112561   1.022   4.410  15.044  0.0568 -0.0503 -0.1094
  851MPD2    H712562   1.031   4.508  15.069  1.8542 -0.3744  0.5064
  852MPD2     C12563   4.708   2.984   9.820 -0.3480  0.1679  0.2755
  852MPD2    C112564   0.059   2.926   9.912  0.1611 -0.1390 -0.7636
  852MPD2    C212565   0.160   2.999   9.966  0.5308  0.2278  0.3771
  852MPD2    C312566   0.184   3.130   9.924 -0.0945  0.7223  0.2159
  852MPD2    C412567   0.100   3.184   9.831  0.1639 -0.1734 -0.4993
  852MPD2    C512568   4.727   3.119   9.782  0.7773 -0.0854  0.7050
  852MPD2     H12569   0.216   2.961  10.051 -0.7413  0.0516  1.1404
  852MPD2    H112570   0.117   3.287   9.800  2.3884 -0.5788 -0.5903
  852MPD2    H212571   4.616   2.938   9.786  0.7045 -0.4639 -1.7493
  852MPD2    H312572   4.669   3.177   9.712  2.2412 -0.0195 -0.4500
  852MPD2     N12573   0.290   3.197   9.997  0.0383  0.4643 -0.3992
  852MPD2    H512574   0.327   3.152  10.080 -2.0105 -0.1434  0.1829
  852MPD2    N112575   0.048   2.795   9.956  0.2402  0.1503  0.2540
  852MPD2    H712576   0.090   2.779  10.047 -0.8498  1.9675  1.0605
  853MPD2     C12577   2.366   1.571  12.209 -0.2012  0.4777 -0.1158
  853MPD2    C112578   2.384   1.700  12.179  0.0661 -0.6106  0.1720
  853MPD2    C212579   2.415   1.731  12.045 -0.3480  0.1024 -0.3527
  853MPD2    C312580   2.419   1.637  11.945  0.2116 -0.0673 -0.1229
  853MPD2    C412581   2.401   1.506  11.977 -0.6413 -0.0214 -0.1804
  853MPD2    C512582   2.367   1.476  12.110 -0.4374 -0.4192  0.1829
  853MPD2     H12583   2.441   1.833  12.019  1.2616 -0.0269  0.7521
  853MPD2    H112584   2.425   1.428  11.904  2.3597  0.6518  0.0623
  853MPD2    H212585   2.349   1.541  12.311  0.4788  1.1651  0.1924
  853MPD2    H312586   2.346   1.371  12.126  1.6695 -1.0540 -1.1494
  853MPD2     N12587   2.462   1.659  11.814  0.1098  0.2360 -0.0830
  853MPD2    H512588   2.472   1.578  11.754  0.8162  0.0733  0.2593
  853MPD2    N112589   2.376   1.799  12.277 -0.3828 -0.4482  0.2168
  853MPD2    H712590   2.363   1.765  12.371  0.6893 -2.4128 -0.3316
  854MPD2     C12591   3.518   2.009  12.886 -0.1215  0.2741 -0.6131
  854MPD2    C112592   3.641   2.069  12.922 -0.3393 -0.9057  0.0169
  854MPD2    C212593   3.721   1.996  13.004  0.6107  0.6322 -0.2888
  854MPD2    C312594   3.683   1.875  13.059  0.1925 -0.1671 -0.6449
  854MPD2    C412595   3.573   1.816  13.007 -0.1420  0.2299  0.5336
  854MPD2    C512596   3.489   1.888  12.926  0.4221 -0.2702  1.0691
  854MPD2     H12597   3.809   2.044  13.046 -1.1769  3.6944 -0.0725
  854MPD2    H112598   3.548   1.720  13.051  1.1935 -1.0257 -1.4953
  854MPD2    H212599   3.438   2.072  12.849 -0.8664 -0.6360 -0.5450
  854MPD2    H312600   3.399   1.837  12.897  0.1802  1.3687 -1.0836
  854MPD2     N12601   3.765   1.797  13.153  0.7907  0.3156  0.1590
  854MPD2    H512602   3.724   1.707  13.175  0.5763 -0.3457 -2.8223
  854MPD2    N112603   3.671   2.195  12.871  0.0229 -0.2139  0.2041
  854MPD2    H712604   3.592   2.247  12.833  0.6268 -0.1193 -0.9089
  855MPD2     C12605   3.435   1.217  13.705 -0.2167 -0.0304 -0.1465
  855MPD2    C112606   3.567   1.206  13.742  0.1099 -0.4288  0.6205
  855MPD2    C212607   3.656   1.267  13.660 -0.5640 -0.2275 -0.5802
  855MPD2    C312608   3.617   1.354  13.562 -0.3813  0.2630 -0.0372
  855MPD2    C412609   3.486   1.373  13.539 -0.6401 -0.6372  0.5258
  855MPD2    C512610   3.396   1.301  13.606 -0.1387 -0.1020  0.0026
  855MPD2     H12611   3.761   1.245  13.674 -0.5172 -0.3384 -1.1119
  855MPD2    H112612   3.453   1.438  13.458  3.3258  1.5174  0.6701
  855MPD2    H212613   3.359   1.169  13.765 -1.4413  2.3248  0.1960
  855MPD2    H312614   3.290   1.319  13.592  0.3772  1.4041 -2.1111
  855MPD2     N12615   3.707   1.425  13.481  0.0375  0.5067  0.1372
  855MPD2    H512616   3.675   1.484  13.405 -2.8564 -3.1895 -1.5292
  855MPD2    N112617   3.616   1.112  13.831 -0.1302 -0.2641 -0.0309
  855MPD2    H712618   3.716   1.107  13.847 -0.3397 -0.0601  1.3258
  856MPD2     C12619   2.372   2.448  14.095 -0.3940 -0.1216 -0.0952
  856MPD2    C112620   2.317   2.562  14.152  0.2293 -0.3814  0.6186
  856MPD2    C212621   2.185   2.590  14.134 -0.6682 -0.2212  0.2899
  856MPD2    C312622   2.096   2.518  14.050 -0.7037  0.0469 -0.4152
  856MPD2    C412623   2.142   2.396  14.009  0.5216  0.0762 -0.0237
  856MPD2    C512624   2.278   2.363  14.027  0.8990  0.2053 -0.4324
  856MPD2     H12625   2.154   2.688  14.171 -0.6937 -0.4286  0.8101
  856MPD2    H112626   2.079   2.323  13.960  0.6281  0.9616 -1.4725
  856MPD2    H212627   2.475   2.420  14.112  0.0128 -0.2514 -2.7329
  856MPD2    H312628   2.310   2.267  13.989  2.6825  0.0197  1.5645
  856MPD2     N12629   1.966   2.565  14.008 -0.3874 -0.5421  0.8119
  856MPD2    H512630   1.912   2.500  13.953 -1.8390 -0.0323  1.6246
  856MPD2    N112631   2.401   2.666  14.206  0.1201  0.1375  0.3372
  856MPD2    H712632   2.351   2.753  14.221 -0.7543 -0.1511 -0.8477
  857MPD2     C12633   3.034   0.042  13.056 -0.1484 -0.3757 -0.1461
  857MPD2    C112634   3.147   0.089  12.996 -0.2468  0.0970  0.3265
  857MPD2    C212635   3.211   0.200  13.042  0.4330  0.2240  0.4811
  857MPD2    C312636   3.143   0.282  13.134  0.3635  0.1424 -0.2520
  857MPD2    C412637   3.032   0.233  13.200  0.0090  0.7913 -0.0971
  857MPD2    C512638   2.982   0.111  13.160 -0.0876 -0.1344 -0.1028
  857MPD2     H12639   3.302   0.242  13.002  1.5288 -1.7605  0.8604
  857MPD2    H112640   2.988   0.286  13.283 -0.8064  0.8641 -0.5796
  857MPD2    H212641   2.996   4.679  13.025 -0.0245 -0.2449 -0.6960
  857MPD2    H312642   2.893   0.069  13.205 -0.2778  0.5196  0.1366
  857MPD2     N12643   3.195   0.412  13.151  0.3791 -0.3932  0.7104
  857MPD2    H512644   3.287   0.440  13.119 -0.8827 -0.2945 -2.7642
  857MPD2    N112645   3.181   0.016  12.876 -0.3940 -0.1321  0.4795
  857MPD2    H712646   3.122   4.672  12.852 -0.0925 -0.3888  0.5647
  858MPD2     C12647   3.884   4.099  16.433  0.0870 -0.0134  0.0584
  858MPD2    C112648   4.022   4.082  16.428  0.2166  0.4737 -0.1352
  858MPD2    C212649   4.101   4.154  16.515 -0.1380 -0.1713 -0.5715
  858MPD2    C312650   4.038   4.229  16.619  0.1651 -0.6755 -0.5211
  858MPD2    C412651   3.903   4.243  16.624  0.3626 -0.7886  0.2564
  858MPD2    C512652   3.830   4.188  16.523 -0.2789 -0.1882 -0.9509
  858MPD2     H12653   4.208   4.159  16.503  0.1218  0.3511  2.0799
  858MPD2    H112654   3.850   4.300  16.700  0.5463  1.8849 -1.6106
  858MPD2    H212655   3.821   4.055  16.357 -1.5278 -0.1065  1.4337
  858MPD2    H312656   3.729   4.228  16.518  0.3841  1.6440  0.3197
  858MPD2     N12657   4.107   4.312  16.712  0.9089  0.0963 -0.4557
  858MPD2    H512658   4.055   4.371  16.776  1.1343 -2.4219  2.0222
  858MPD2    N112659   4.093   4.002  16.336 -0.5532  0.1444  0.3598
  858MPD2    H712660   4.194   4.007  16.348 -0.8079  4.0275  1.0393
  859MPD2     C12661   2.894   1.444  15.538  0.2051 -0.2385 -0.0627
  859MPD2    C112662   2.850   1.444  15.407 -0.2426 -0.6250  0.1550
  859MPD2    C212663   2.794   1.326  15.364 -0.5897 -0.6242  0.4843
  859MPD2    C312664   2.787   1.208  15.437  0.5466  0.4214 -0.5940
  859MPD2    C412665   2.843   1.214  15.560 -0.0465  0.2141 -0.1710
  859MPD2    C512666   2.881   1.335  15.612 -0.0526 -0.4640  0.9385
  859MPD2     H12667   2.751   1.326  15.264 -1.6024 -1.0085  0.9283
  859MPD2    H112668   2.836   1.128  15.626  2.1316  2.0909  2.5035
  859MPD2    H212669   2.944   1.531  15.578  1.9100 -0.5760 -1.4494
  859MPD2    H312670   2.920   1.329  15.713  1.1440 -0.3213  0.4843
  859MPD2     N12671   2.738   1.083  15.384 -0.4805  0.4665 -0.1928
  859MPD2    H512672   2.750   1.004  15.447  2.4683  0.6004 -0.5463
  859MPD2    N112673   2.857   1.563  15.332 -0.3903  0.8819 -0.1861
  859MPD2    H712674   2.906   1.643  15.371  0.3842  0.4180 -0.2167
  860MPD2     C12675   0.227   1.691  11.817 -0.5787  0.1932 -0.2929
  860MPD2    C112676   0.256   1.780  11.920  0.5010 -0.3318 -0.2592
  860MPD2    C212677   0.179   1.770  12.036 -0.4322 -0.0848 -0.0458
  860MPD2    C312678   0.070   1.686  12.041  0.1212 -0.1157 -0.1548
  860MPD2    C412679   0.043   1.598  11.940 -0.1710 -0.6430 -0.0313
  860MPD2    C512680   0.123   1.603  11.832 -0.0154  0.1065 -0.5328
  860MPD2     H12681   0.208   1.840  12.114  1.5108  0.3262 -1.1334
  860MPD2    H112682   4.682   1.546  11.935 -0.9719  0.9187 -1.0145
  860MPD2    H212683   0.281   1.698  11.723 -1.1975  0.6680 -0.6093
  860MPD2    H312684   0.102   1.533  11.752 -3.9763  0.9742 -0.2672
  860MPD2     N12685   4.734   1.701  12.161  0.0797  0.6266  0.2724
  860MPD2    H512686   0.023   1.765  12.236  0.7082  2.5219 -1.5667
  860MPD2    N112687   0.369   1.874  11.920 -0.2521 -0.8313 -0.1083
  860MPD2    H712688   0.385   1.915  12.011  1.8220 -1.0116 -0.4043
  861MPD2     C12689   3.785   4.635  10.873  0.3536 -0.3201  1.1731
  861MPD2    C112690   3.669   4.671  10.939  0.6586 -0.3437  0.0892
  861MPD2    C212691   3.577   4.734  10.854  0.0136  0.0469 -0.5578
  861MPD2    C312692   3.597   0.023  10.723 -0.6189 -0.2008  0.2323
  861MPD2    C412693   3.708   4.709  10.660 -0.0283  0.5483  0.3805
  861MPD2    C512694   3.809   4.652  10.739 -0.0901 -0.0360  0.2885
  861MPD2     H12695   3.483   0.038  10.893 -0.2298 -1.4911  0.3493
  861MPD2    H112696   3.724   4.734  10.556 -2.0079 -2.4753 -0.6745
  861MPD2    H212697   3.866   4.591  10.930 -0.7992 -3.6453  0.2273
  861MPD2    H312698   3.907   4.633  10.696 -0.8860  1.9333 -2.3731
  861MPD2     N12699   3.514   0.113  10.645 -0.9023 -0.1072 -0.1745
  861MPD2    H512700   3.543   0.117  10.548 -0.4763  0.9575 -0.0043
  861MPD2    N112701   3.642   4.648  11.074 -0.5678  0.0819 -0.1750
  861MPD2    H712702   3.551   4.678  11.107 -1.2850 -0.1163 -1.9841
  862MPD2     C12703   3.146   0.274  10.083  0.5509  0.7460 -1.0224
  862MPD2    C112704   3.259   0.210  10.128 -0.4915 -0.0374  0.0913
  862MPD2    C212705   3.271   0.073  10.105  0.2036  0.0668 -0.4373
  862MPD2    C312706   3.170   0.003  10.037 -0.2782  0.3198  0.0445
  862MPD2    C412707   3.058   0.070   9.998 -0.1260 -0.1594  0.5605
  862MPD2    C512708   3.046   0.204  10.017  0.4422 -0.1188 -0.3917
  862MPD2     H12709   3.360   0.021  10.140 -0.0149  0.6977  1.0342
  862MPD2    H112710   2.982   0.020   9.939  0.3614 -1.1405  0.7577
  862MPD2    H212711   3.130   0.381  10.092  0.3437  0.5314  1.3737
  862MPD2    H312712   2.950   0.248   9.992  0.1136 -1.8099 -2.1285
  862MPD2     N12713   3.185   4.598  10.010 -0.3038  0.1485  0.2197
  862MPD2    H512714   3.102   4.540  10.005  0.8254 -1.5886  1.2328
  862MPD2    N112715   3.352   0.269  10.214 -0.1960  0.2232  0.1002
  862MPD2    H712716   3.414   0.202  10.258  0.5980  0.2179 -1.0068
  863MPD2     C12717   2.571   3.057  16.386 -0.3864  0.2308  0.5684
  863MPD2    C112718   2.512   3.137  16.480 -0.0182  0.5219 -0.3237
  863MPD2    C212719   2.565   3.137  16.614  1.1275  0.2903 -0.3609
  863MPD2    C312720   2.673   3.058  16.650 -0.1176 -0.1006  0.2412
  863MPD2    C412721   2.716   2.964  16.560 -0.2720 -0.5065  0.3109
  863MPD2    C512722   2.664   2.967  16.431  0.7206 -0.0770 -0.3763
  863MPD2     H12723   2.523   3.204  16.688  0.0997 -1.3971  0.5751
  863MPD2    H112724   2.792   2.894  16.592  0.5088  0.3457  0.3556
  863MPD2    H212725   2.546   3.038  16.282 -1.0303 -1.1544  0.9744
  863MPD2    H312726   2.698   2.886  16.366  2.9392 -0.7175  1.5635
  863MPD2     N12727   2.721   3.048  16.778 -0.1208  0.1500  0.4807
  863MPD2    H512728   2.784   2.971  16.795  0.2470  0.2995 -0.2046
  863MPD2    N112729   2.414   3.230  16.438 -0.0422  0.0348  0.5518
  863MPD2    H712730   2.407   3.244  16.338 -1.0999  3.1753  1.0604
  864MPD2     C12731   3.098   4.603  17.097 -0.2796  0.0196  0.2553
  864MPD2    C112732   3.188   4.516  17.047  0.2197 -0.1121  0.3120
  864MPD2    C212733   3.288   4.556  16.960 -0.8419 -0.0398  0.1541
  864MPD2    C312734   3.284   4.692  16.916  0.0725  0.2163  0.2229
  864MPD2    C412735   3.183   0.047  16.953  0.2985 -0.7069  0.1686
  864MPD2    C512736   3.099   0.005  17.053  0.1835 -0.4447 -0.3028
  864MPD2     H12737   3.358   4.490  16.909  0.3836  1.4248 -0.0522
  864MPD2    H112738   3.183   0.149  16.919  1.5212 -1.2049 -1.2968
  864MPD2    H212739   3.027   4.571  17.172  0.8126  2.2205  2.2091
  864MPD2    H312740   3.021   0.063  17.100  0.5738  0.0014 -0.2057
  864MPD2     N12741   3.364   0.009  16.809 -0.0800 -0.1947 -0.5938
  864MPD2    H512742   3.339   0.096  16.763  1.8189 -0.3489 -1.9129
  864MPD2    N112743   3.174   4.381  17.085 -0.2150  0.0433  0.4673
  864MPD2    H712744   3.084   4.366  17.128 -0.1892 -0.3724  0.3749
  865MPD2     C12745   3.202   4.683  15.853  0.0092 -0.2753  0.1702
  865MPD2    C112746   3.203   4.604  15.968  0.3867  1.0399  0.1067
  865MPD2    C212747   3.250   4.658  16.090  0.7988  0.0360  1.0305
  865MPD2    C312748   3.299   0.057  16.089  0.0712  0.5156  0.3047
  865MPD2    C412749   3.301   0.127  15.976 -0.5056 -0.2163 -0.3236
  865MPD2    C512750   3.250   0.076  15.863 -0.1484 -0.5548 -0.0855
  865MPD2     H12751   3.243   4.595  16.178 -0.4512  1.0219  1.6331
  865MPD2    H112752   3.343   0.227  15.960  0.2368  0.0961  3.6792
  865MPD2    H212753   3.167   4.650  15.756 -2.0427  0.2744  0.7067
  865MPD2    H312754   3.253   0.137  15.773 -0.4259  0.7632  0.8019
  865MPD2     N12755   3.368   0.109  16.206 -0.2017  0.5419  0.5780
  865MPD2    H512756   3.451   0.167  16.193 -0.6551  1.0636 -0.0118
  865MPD2    N112757   3.170   4.466  15.955 -0.3864  0.5153  0.6777
  865MPD2    H712758   3.156   4.428  15.862 -0.4706 -0.2244  0.9957
  866MPD2     C12759   4.393   0.153  11.424 -0.1133  0.1272  1.3375
  866MPD2    C112760   4.381   0.095  11.299 -0.5592 -0.5466 -0.1255
  866MPD2    C212761   4.280   0.139  11.217 -0.2503  0.6078  0.0731
  866MPD2    C312762   4.178   0.219  11.273  0.1404  0.7291  0.4197
  866MPD2    C412763   4.193   0.269  11.400 -0.6309 -0.3397 -0.1175
  866MPD2    C512764   4.299   0.236  11.474  0.9622 -0.1191  0.5439
  866MPD2     H12765   4.272   0.099  11.117  0.1425  2.6435 -0.7757
  866MPD2    H112766   4.108   0.328  11.432  1.3666  2.9900 -1.0176
  866MPD2    H212767   4.477   0.124  11.486  0.4796  0.5464  0.7434
  866MPD2    H312768   4.292   0.266  11.578 -1.0223  2.2527 -0.2680
  866MPD2     N12769   4.064   0.253  11.200 -0.4589  0.2028 -0.1686
  866MPD2    H512770   4.003   0.325  11.237  0.8281  2.1346 -1.8442
  866MPD2    N112771   4.469   4.731  11.261 -0.8591  0.7585  0.9712
  866MPD2    H712772   4.514   4.683  11.338 -0.7348 -0.4939  0.1222
  867MPD2     C12773   2.007   4.514  16.443 -0.0000 -0.3939  0.1668
  867MPD2    C112774   2.051   4.458  16.561  0.5529 -0.9478  0.1658
  867MPD2    C212775   2.104   4.543  16.663 -0.4092 -0.8109  0.0270
  867MPD2    C312776   2.091   4.684  16.647 -0.5166  0.1966  0.6260
  867MPD2    C412777   2.039   0.003  16.528  0.5018 -0.4488 -0.5083
  867MPD2    C512778   1.991   4.656  16.427 -0.5506  0.0284 -0.4046
  867MPD2     H12779   2.157   4.502  16.747 -1.3824 -0.9971  0.5532
  867MPD2    H112780   2.037   0.110  16.510  0.0164 -0.3722  0.0119
  867MPD2    H212781   1.990   4.450  16.358 -0.4621 -0.6634  0.4617
  867MPD2    H312782   1.961   4.690  16.328  0.6246  0.7682 -0.5076
  867MPD2     N12783   2.163   0.044  16.721  0.3478 -0.3610 -0.3404
  867MPD2    H512784   2.165   0.143  16.699 -2.2330 -0.0453  0.8603
  867MPD2    N112785   2.079   4.320  16.565  0.2253 -0.0122  0.0442
  867MPD2    H712786   2.060   4.262  16.484 -2.0646 -0.1919  0.7068
  868MPD2     C12787   3.569   3.381  12.592 -0.1848 -0.2133  0.3441
  868MPD2    C112788   3.563   3.289  12.697  0.0988 -0.4688 -0.3174
  868MPD2    C212789   3.502   3.329  12.813  0.3367 -0.0096 -0.5251
  868MPD2    C312790   3.465   3.459  12.844  0.0953  1.4669  0.2286
  868MPD2    C412791   3.471   3.549  12.739  0.2134 -0.4523  0.0273
  868MPD2    C512792   3.519   3.509  12.617 -0.1125  0.0710 -0.2456
  868MPD2     H12793   3.483   3.255  12.890  0.2204  0.8972  0.3119
  868MPD2    H112794   3.455   3.656  12.751  2.4004 -0.2550  1.0261
  868MPD2    H212795   3.623   3.367  12.499  1.7227  0.8485  1.2878
  868MPD2    H312796   3.510   3.573  12.530 -1.4061  0.2621  0.0322
  868MPD2     N12797   3.421   3.497  12.978 -0.5866 -0.3456 -0.0945
  868MPD2    H512798   3.439   3.428  13.050  3.2880  0.1788 -0.5392
  868MPD2    N112799   3.604   3.152  12.673 -0.0008  0.0740 -0.1969
  868MPD2    H712800   3.628   3.122  12.579 -1.0478 -3.0698  0.5553
  869MPD2     C12801   4.309   2.488   0.330  0.2147  0.7382  0.7942
  869MPD2    C112802   4.413   2.414   0.368  0.9977  0.0869  0.0951
  869MPD2    C212803   4.528   2.411   0.292  0.2340  0.2108 -0.4482
  869MPD2    C312804   4.533   2.484   0.172  0.6373 -0.5153  0.9806
  869MPD2    C412805   4.422   2.552   0.141 -0.0998 -0.3036 -0.5489
  869MPD2    C512806   4.309   2.558   0.211  0.5895  0.1552  0.3897
  869MPD2     H12807   4.611   2.348   0.322 -1.6131 -1.6161  0.8439
  869MPD2    H112808   4.414   2.605   0.047  1.2532  0.1982 -0.3750
  869MPD2    H212809   4.215   2.489   0.384 -1.0326 -1.7612 -1.3250
  869MPD2    H312810   4.216   2.598   0.173  0.7979 -0.2102 -0.5137
  869MPD2     N12811   4.660   2.506   0.099  0.2764  0.0421 -0.3658
  869MPD2    H512812   4.657   2.560   0.013 -0.5784 -0.5512 -0.7083
  869MPD2    N112813   4.400   2.336   0.486 -0.3119 -0.1896  0.3769
  869MPD2    H712814   4.319   2.368   0.538 -0.3119  0.0828  0.2108
  870MPD2     C12815   0.570   0.143   1.517  0.0473  0.3521 -0.9542
  870MPD2    C112816   0.479   0.079   1.436  0.3852 -0.6475  0.1064
  870MPD2    C212817   0.355   0.139   1.402  0.5561  0.0545 -0.2749
  870MPD2    C312818   0.325   0.257   1.467  0.0540 -0.0929  0.1221
  870MPD2    C412819   0.412   0.322   1.547 -0.2203  1.0096  0.0727
  870MPD2    C512820   0.536   0.264   1.569  0.0505  0.8918 -0.1192
  870MPD2     H12821   0.276   0.086   1.351 -0.9765 -0.7131  2.8738
  870MPD2    H112822   0.400   0.420   1.594 -0.8433  0.7636  0.4244
  870MPD2    H212823   0.674   0.111   1.524  0.0822  0.7424  0.3578
  870MPD2    H312824   0.615   0.322   1.616  0.1664 -1.4634  2.6157
  870MPD2     N12825   0.197   0.306   1.442 -0.0201  0.4423  0.0661
  870MPD2    H512826   0.138   0.251   1.380  3.7167 -1.1375 -2.0871
  870MPD2    N112827   0.518   4.685   1.387 -0.0465 -0.4292  0.0030
  870MPD2    H712828   0.604   4.658   1.432  0.1801  0.8006  0.3078
  871MPD2     C12829   0.679   4.418  16.414 -0.1620 -0.3850  0.1247
  871MPD2    C112830   0.742   4.414  16.536  0.1333  0.3097  0.0366
  871MPD2    C212831   0.852   4.336  16.552  0.1966 -1.0090  0.2484
  871MPD2    C312832   0.887   4.251  16.450  0.5358  0.2977 -0.6899
  871MPD2    C412833   0.828   4.255  16.325  0.2111 -0.5010  0.0350
  871MPD2    C512834   0.723   4.343  16.307  0.5301  0.1851 -0.1119
  871MPD2     H12835   0.916   4.343  16.639 -0.1974 -1.9838  0.6197
  871MPD2    H112836   0.848   4.176  16.254  1.0395  1.1293 -1.5260
  871MPD2    H212837   0.589   4.477  16.404 -0.7185 -0.6700  3.6286
  871MPD2    H312838   0.669   4.353  16.214 -1.5022 -2.1216  0.8454
  871MPD2     N12839   1.007   4.177  16.457  0.6697  0.2494  0.3545
  871MPD2    H512840   1.039   4.141  16.368 -1.3198 -1.3438  0.2722
  871MPD2    N112841   0.698   4.506  16.632  0.3052  0.1475  0.4092
  871MPD2    H712842   0.616   4.561  16.608  1.7592  1.6019 -1.2144
  872MPD2     C12843   2.056   2.127  13.732  0.8899  0.2541  0.0067
  872MPD2    C112844   1.957   2.222  13.729  0.5708 -0.1598 -0.3405
  872MPD2    C212845   1.838   2.205  13.801  0.3954  0.0363  0.3617
  872MPD2    C312846   1.816   2.084  13.871  0.8134  0.2379 -0.3155
  872MPD2    C412847   1.914   1.985  13.860  0.8283  0.2938  0.3592
  872MPD2    C512848   2.034   2.011  13.803 -1.4736 -0.1850 -0.1025
  872MPD2     H12849   1.762   2.282  13.801 -1.8789 -2.2098  0.2582
  872MPD2    H112850   1.908   1.886  13.903  1.3352 -0.4124 -1.1988
  872MPD2    H212851   2.153   2.141  13.685  0.3221 -1.1799 -1.5798
  872MPD2    H312852   2.107   1.931  13.803 -0.5880  0.6345  3.0334
  872MPD2     N12853   1.709   2.055  13.950  0.5883 -0.1477 -0.6995
  872MPD2    H512854   1.709   1.960  13.987  1.4359  1.0657  2.3793
  872MPD2    N112855   1.971   2.343  13.658  0.4797  0.2667 -0.2568
  872MPD2    H712856   1.902   2.415  13.672  1.4290  1.4165 -1.5067
  873MPD2     C12857   3.923   2.652   0.473  0.3430  1.4225 -0.4244
  873MPD2    C112858   3.842   2.600   0.569 -0.0976  0.6560 -0.2704
  873MPD2    C212859   3.772   2.485   0.539 -1.1788 -0.4391  0.2659
  873MPD2    C312860   3.783   2.434   0.410 -0.0165 -0.7856 -0.0290
  873MPD2    C412861   3.874   2.476   0.322 -0.7211 -0.4211  0.3725
  873MPD2    C512862   3.944   2.582   0.354  0.2251  0.0564 -0.6658
  873MPD2     H12863   3.710   2.438   0.615 -0.4495  1.0982  1.8236
  873MPD2    H112864   3.879   2.437   0.221  0.5296  0.2421  0.1819
  873MPD2    H212865   3.994   2.732   0.493 -0.6302  2.1389  0.1521
  873MPD2    H312866   4.003   2.628   0.276 -0.9743  3.3483  0.3786
  873MPD2     N12867   3.698   2.327   0.359  0.4852 -0.1437  0.0693
  873MPD2    H512868   3.695   2.303   0.260 -0.8862 -1.3006  0.3855
  873MPD2    N112869   3.839   2.667   0.692  0.4284  0.0013  0.1209
  873MPD2    H712870   3.903   2.745   0.705 -0.0890  0.6432 -1.2296
  874MPD2     C12871   2.986   2.446  15.585 -0.0217 -0.7965 -1.0185
  874MPD2    C112872   3.046   2.378  15.693 -0.4956 -0.0456  0.7881
  874MPD2    C212873   3.183   2.389  15.704  0.0943 -0.3112 -0.1663
  874MPD2    C312874   3.265   2.446  15.607  0.0753  0.2862  0.1822
  874MPD2    C412875   3.213   2.507  15.502 -0.3955 -0.3903 -0.1934
  874MPD2    C512876   3.077   2.511  15.501 -0.0760  0.1670  0.1432
  874MPD2     H12877   3.227   2.323  15.778 -1.7514  0.8416  1.9756
  874MPD2    H112878   3.276   2.557  15.429  0.6747  0.8122  1.5530
  874MPD2    H212879   2.880   2.459  15.570  0.1411 -1.8667 -3.1084
  874MPD2    H312880   3.036   2.556  15.411  0.2356 -0.3434 -0.2597
  874MPD2     N12881   3.412   2.437  15.609  0.4409 -0.1325 -0.2778
  874MPD2    H512882   3.457   2.496  15.540 -1.3795 -1.1180 -2.3132
  874MPD2    N112883   2.962   2.306  15.779 -0.2443 -0.1395  0.3430
  874MPD2    H712884   2.863   2.301  15.759  0.3063 -1.1911 -2.1586
  875MPD2     C12885   3.957   0.687  14.864 -0.6876  1.4048 -0.7246
  875MPD2    C112886   3.900   0.651  14.986  0.1793  0.0696  0.1857
  875MPD2    C212887   3.959   0.689  15.101  0.0496 -0.3062 -0.4906
  875MPD2    C312888   4.079   0.755  15.099  0.2472  0.6661  0.2102
  875MPD2    C412889   4.127   0.807  14.981 -0.4597  1.0397  0.1867
  875MPD2    C512890   4.076   0.759  14.866  0.0956  0.5351  0.1623
  875MPD2     H12891   3.919   0.659  15.197 -2.9164  2.6056 -0.7934
  875MPD2    H112892   4.219   0.862  14.972 -0.2996  0.8108  0.4176
  875MPD2    H212893   3.914   0.656  14.769  1.2981 -0.5647 -0.9920
  875MPD2    H312894   4.128   0.765  14.771  0.2685 -0.5979  0.1894
  875MPD2     N12895   4.159   0.770  15.213 -0.8527 -0.1246  0.2476
  875MPD2    H512896   4.249   0.817  15.203 -1.0417  0.0473 -0.6545
  875MPD2    N112897   3.787   0.568  14.995 -0.1307 -0.2798  0.3226
  875MPD2    H712898   3.744   0.565  15.087 -0.5220  0.6973  0.1689
  876MPD2     C12899   2.935   1.726  15.866  0.7476  0.2996  0.2357
  876MPD2    C112900   3.069   1.707  15.851 -0.6090 -0.0318  0.6320
  876MPD2    C212901   3.139   1.629  15.946 -0.0012  0.1845 -0.5866
  876MPD2    C312902   3.081   1.584  16.060 -1.0946 -0.4156 -0.8555
  876MPD2    C412903   2.940   1.604  16.066  0.1566 -0.1464  1.1845
  876MPD2    C512904   2.866   1.671  15.974  0.4637 -0.5547 -0.1233
  876MPD2     H12905   3.238   1.595  15.919 -0.2737 -0.7719 -0.3736
  876MPD2    H112906   2.884   1.569  16.151  1.2068  0.6502  2.2031
  876MPD2    H212907   2.876   1.786  15.797 -0.4726  0.8318  1.7494
  876MPD2    H312908   2.764   1.697  15.998  1.6438  0.8369  3.3856
  876MPD2     N12909   3.164   1.493  16.136 -0.4890 -0.9790  0.4515
  876MPD2    H512910   3.256   1.477  16.096 -0.7668  1.5573 -1.2267
  876MPD2    N112911   3.140   1.772  15.751 -1.0623  0.5080  0.5629
  876MPD2    H712912   3.082   1.827  15.687  0.0023  1.1382  0.1259
  877MPD2     C12913   3.029   2.189  15.180 -0.7066 -0.0898 -0.2136
  877MPD2    C112914   3.158   2.238  15.203 -0.0148  0.2371  0.0066
  877MPD2    C212915   3.229   2.287  15.093  0.2351  0.4902 -0.0483
  877MPD2    C312916   3.169   2.280  14.968 -0.0642 -0.1921  0.0631
  877MPD2    C412917   3.041   2.239  14.947  0.0517  0.8276 -0.6526
  877MPD2    C512918   2.968   2.205  15.056 -0.4472  0.6718 -0.2823
  877MPD2     H12919   3.333   2.316  15.101  0.5330 -0.7895  0.5482
  877MPD2    H112920   3.008   2.239  14.844  1.3213  0.2182 -1.0502
  877MPD2    H212921   2.970   2.135  15.253 -1.6951  0.6946 -0.4366
  877MPD2    H312922   2.864   2.174  15.048 -0.4042  0.0603  1.5950
  877MPD2     N12923   3.240   2.310  14.849  0.1664  0.0663  0.2088
  877MPD2    H512924   3.184   2.295  14.766  1.2444  1.3383 -0.7512
  877MPD2    N112925   3.224   2.215  15.321 -0.2664  0.0973  0.4877
  877MPD2    H712926   3.324   2.228  15.332  0.0073 -2.2820  0.8862
  878MPD2     C12927   2.885   1.294  12.932  0.4291 -0.8987 -0.7046
  878MPD2    C112928   2.904   1.425  12.899  0.2133 -0.2090 -0.2023
  878MPD2    C212929   2.886   1.524  12.995  0.0884  0.2236 -0.6295
  878MPD2    C312930   2.837   1.489  13.121  0.2403 -0.6571 -0.4846
  878MPD2    C412931   2.815   1.357  13.148 -0.1660 -0.1963 -0.9873
  878MPD2    C512932   2.841   1.258  13.055 -0.0018  0.1986 -0.1411
  878MPD2     H12933   2.906   1.629  12.975 -2.0512  0.3646 -1.9572
  878MPD2    H112934   2.771   1.328  13.242  2.2453 -0.8385 -0.0430
  878MPD2    H212935   2.889   1.218  12.855  1.7558 -0.7946 -0.7414
  878MPD2    H312936   2.818   1.156  13.086 -0.9196  0.8344  1.2990
  878MPD2     N12937   2.819   1.581  13.220 -0.0932 -0.5953 -0.3605
  878MPD2    H512938   2.845   1.673  13.184 -0.4643 -1.1364 -1.9790
  878MPD2    N112939   2.940   1.457  12.764 -0.1887 -0.4600 -0.7323
  878MPD2    H712940   2.956   1.391  12.688  0.0745  0.4715 -1.4801
  879MPD2     C12941   3.065   3.324  16.798 -0.5250 -0.5946  1.0149
  879MPD2    C112942   3.149   3.214  16.803  0.8696 -0.0788 -0.1811
  879MPD2    C212943   3.142   3.115  16.711 -1.0080 -0.7668 -0.7145
  879MPD2    C312944   3.054   3.128  16.605 -0.3367  0.6056  0.2192
  879MPD2    C412945   2.974   3.238  16.597  0.0026 -0.8440 -0.5270
  879MPD2    C512946   2.983   3.344  16.690  0.1764  0.5910  0.0641
  879MPD2     H12947   3.203   3.026  16.719  1.7919  1.2741  0.6402
  879MPD2    H112948   2.895   3.249  16.524 -1.1385 -0.6944  0.7490
  879MPD2    H212949   3.065   3.401  16.874 -0.5570  1.3708 -0.9867
  879MPD2    H312950   2.917   3.428  16.674  0.3128  0.0438 -3.3522
  879MPD2     N12951   3.038   3.020  16.507  0.4451  0.2619 -0.2971
  879MPD2    H512952   2.988   3.044  16.422 -0.7181  0.8527  0.5535
  879MPD2    N112953   3.243   3.220  16.910  0.6139  0.0164  0.1167
  879MPD2    H712954   3.232   3.297  16.975 -0.8868 -0.4159  0.3908
  880MPD2     C12955   4.624   4.706  17.677 -0.0901 -0.3298  0.1642
  880MPD2    C112956   4.621   4.705   0.078 -0.1182 -0.3407  0.2202
  880MPD2    C212957   4.626   4.582   0.140 -0.2689  0.5141 -0.0753
  880MPD2    C312958   4.667   4.464   0.079 -0.6598 -0.3536 -0.2259
  880MPD2    C412959   4.680   4.473  17.681 -1.1901  0.4683  0.4057
  880MPD2    C512960   4.644   4.585  17.615  1.3502 -0.1699  0.3287
  880MPD2     H12961   4.599   4.578   0.245 -3.5350  1.2599 -0.8786
  880MPD2    H112962   4.689   4.384  17.620  1.2476  0.8856  0.1372
  880MPD2    H212963   4.618   0.064  17.620 -1.2991 -0.9316 -0.6841
  880MPD2    H312964   4.642   4.572  17.507 -1.6231 -1.3578  0.5406
  880MPD2     N12965   4.688   4.347   0.155 -0.2754 -0.0668  0.7065
  880MPD2    H512966   4.671   4.346   0.255 -1.1498 -1.0466  0.5439
  880MPD2    N112967   4.597   0.092   0.147  1.0339  0.2674  0.0331
  880MPD2    H712968   4.593   0.176   0.091 -1.3462  1.9798  2.8255
  881MPD2     C12969   4.643   0.959  17.592 -0.1546 -0.3923 -0.8410
  881MPD2    C112970   4.622   0.825  17.560 -0.0465  0.5536  0.1992
  881MPD2    C212971   4.586   0.742  17.667  0.5693 -0.9112 -0.2929
  881MPD2    C312972   4.553   0.780   0.057 -0.2033  0.3724  0.0084
  881MPD2    C412973   4.546   0.919   0.075  0.3622 -0.9384  0.7616
  881MPD2    C512974   4.591   1.003  17.711 -0.1065 -0.0883 -0.0835
  881MPD2     H12975   4.578   0.636  17.643 -1.0546 -0.5958 -1.1427
  881MPD2    H112976   4.534   0.968   0.172  1.9970  0.7558  0.1127
  881MPD2    H212977   4.689   1.027  17.522  0.6206  0.2535  0.3046
  881MPD2    H312978   4.612   1.105   0.003 -0.5618  0.1805 -0.7111
  881MPD2     N12979   4.525   0.689   0.165  0.2187  0.3899 -0.4776
  881MPD2    H512980   4.467   0.723   0.241  2.5208  0.7025  1.1600
  881MPD2    N112981   4.667   0.771  17.436 -0.0189  0.1949 -0.2911
  881MPD2    H712982   4.706   0.837  17.371 -1.6089  0.7381 -0.6900
  882MPD2     C12983   3.179   2.271  14.065  0.7228 -0.2580 -0.2136
  882MPD2    C112984   3.133   2.291  14.192 -0.5896  0.0121  0.4640
  882MPD2    C212985   3.000   2.270  14.223  0.5680  0.5624 -1.1895
  882MPD2    C312986   2.912   2.230  14.124  0.4652  0.4930  0.4947
  882MPD2    C412987   2.956   2.205  14.001  0.2116  0.1006  0.1142
  882MPD2    C512988   3.090   2.228  13.969  0.7159 -0.6045 -0.1726
  882MPD2     H12989   2.961   2.298  14.320  2.3594 -0.8624 -0.0663
  882MPD2    H112990   2.886   2.170  13.926  1.7220  1.3902 -1.8788
  882MPD2    H212991   3.276   2.307  14.033  1.7948  1.9167  5.3287
  882MPD2    H312992   3.123   2.222  13.866 -2.2706 -1.0772 -1.0936
  882MPD2     N12993   2.774   2.225  14.155  0.4201 -0.9929 -0.1641
  882MPD2    H512994   2.713   2.215  14.074  0.9308 -2.3677 -0.3804
  882MPD2    N112995   3.230   2.338  14.291 -0.0906  0.7706 -0.0542
  882MPD2    H712996   3.327   2.343  14.262 -0.4244  1.4764 -1.0455
  883MPD2     C12997   0.146   2.002  16.099  0.4503 -0.0818  0.0038
  883MPD2    C112998   0.230   2.054  15.996  0.1238  0.7381 -0.4909
  883MPD2    C212999   0.347   2.125  16.032  0.5106  0.4050 -0.7269
  883MPD2    C313000   0.377   2.150  16.164 -0.0984  0.4966  0.1551
  883MPD2    C413001   0.302   2.089  16.267 -0.2647 -0.1498  0.3867
  883MPD2    C513002   0.192   2.010  16.232  0.2475 -0.3897 -0.4602
  883MPD2     H13003   0.408   2.168  15.954  0.9475 -1.1001 -1.2100
  883MPD2    H113004   0.345   2.098  16.366  3.6278  0.4750 -1.3536
  883MPD2    H213005   0.059   1.940  16.086  0.8151 -0.2209 -1.8496
  883MPD2    H313006   0.137   1.962  16.313 -0.7049 -2.5674 -2.4034
  883MPD2     N13007   0.501   2.223  16.192  0.9372  0.0239 -0.3803
  883MPD2    H513008   0.546   2.247  16.104 -0.8362  2.7919 -0.5290
  883MPD2    N113009   0.204   2.031  15.861 -0.3248  0.6729  0.0046
  883MPD2    H713010   0.278   2.056  15.797 -2.0632  2.0183 -1.4811
  884MPD2     C13011   1.867   2.598  15.127  0.0084 -0.1964  0.0220
  884MPD2    C113012   1.832   2.682  15.022  0.0103 -0.3553 -0.1637
  884MPD2    C213013   1.714   2.752  15.030  0.0851  0.0964  0.0327
  884MPD2    C313014   1.637   2.749  15.145 -0.8290 -0.1059 -0.8351
  884MPD2    C413015   1.671   2.674  15.250  0.8826 -0.3223 -0.0019
  884MPD2    C513016   1.788   2.602  15.242 -0.4880  0.1809  0.1934
  884MPD2     H13017   1.681   2.823  14.955  1.5329  0.4588 -0.2543
  884MPD2    H113018   1.610   2.674  15.339 -0.3694 -0.2168 -0.8503
  884MPD2    H213019   1.951   2.529  15.130 -1.1861 -1.6414  0.4068
  884MPD2    H313020   1.804   2.536  15.327 -1.7324 -0.8525 -0.3672
  884MPD2     N13021   1.521   2.834  15.143 -0.5201  0.3918  0.6434
  884MPD2    H513022   1.495   2.887  15.060  0.3505  1.4909  1.0685
  884MPD2    N113023   1.919   2.687  14.916  0.0077 -0.5866 -0.8069
  884MPD2    H713024   2.012   2.652  14.937 -0.7484 -2.8112 -1.2463
  885MPD2     C13025   0.303   3.064  17.534 -0.1813  0.4341  0.5232
  885MPD2    C113026   0.415   3.147  17.565  0.7015  0.1459  1.1574
  885MPD2    C213027   0.459   3.240  17.470  0.1276 -0.3290 -0.3770
  885MPD2    C313028   0.392   3.255  17.354  0.3373 -0.3955  0.0518
  885MPD2    C413029   0.283   3.178  17.322  0.1986  0.5814 -0.0366
  885MPD2    C513030   0.237   3.087  17.416 -0.4806  0.4012 -0.6427
  885MPD2     H13031   0.551   3.291  17.494  0.0008 -0.5842  0.6340
  885MPD2    H113032   0.232   3.178  17.227 -0.5668  2.1432  0.3700
  885MPD2    H213033   0.266   2.988  17.602  0.3228 -0.4135 -0.1569
  885MPD2    H313034   0.153   3.024  17.388 -1.5751  2.0140 -0.9677
  885MPD2     N13035   0.441   3.351  17.262 -0.1812 -0.5772 -0.8044
  885MPD2    H513036   0.527   3.393  17.296 -0.7212 -0.3363  0.2664
  885MPD2    N113037   0.476   3.137  17.689  0.1444 -0.5290 -0.4614
  885MPD2    H713038   0.440   3.062   0.011 -3.0810  0.4873 -1.1577
  886MPD2     C13039   1.536   1.513  15.351  0.4389  0.2942  0.3301
  886MPD2    C113040   1.638   1.456  15.284  0.6304 -0.7085  0.4847
  886MPD2    C213041   1.698   1.524  15.187  0.3863  0.2915 -0.2225
  886MPD2    C313042   1.661   1.656  15.155 -0.3689  0.3786  0.0923
  886MPD2    C413043   1.546   1.709  15.211 -0.1277  0.3201  0.1572
  886MPD2    C513044   1.489   1.641  15.310  0.3636 -0.0816 -0.8105
  886MPD2     H13045   1.781   1.464  15.149  1.7929  0.9433  1.8423
  886MPD2    H113046   1.508   1.802  15.171 -2.5614 -0.1329  1.4597
  886MPD2    H213047   1.509   1.471  15.448 -0.8472 -0.3021 -0.2923
  886MPD2    H313048   1.400   1.678  15.360 -1.0398  0.7374 -3.9037
  886MPD2     N13049   1.727   1.744  15.069  0.2672 -0.1079  0.0496
  886MPD2    H513050   1.701   1.842  15.078 -0.7073 -0.4506  0.9351
  886MPD2    N113051   1.705   1.338  15.326  0.3792  0.7091 -0.6124
  886MPD2    H713052   1.791   1.315  15.277  1.9892  1.2218  1.9577
  887MPD2     C13053   2.370   1.328  15.513  0.4685  0.0263  0.8091
  887MPD2    C113054   2.249   1.394  15.503 -0.7277 -0.4245 -0.1892
  887MPD2    C213055   2.246   1.528  15.475  0.0238 -0.9996  0.1407
  887MPD2    C313056   2.359   1.600  15.468 -0.3450 -0.4204  0.7059
  887MPD2    C413057   2.481   1.546  15.472 -0.4163 -0.0098 -1.1848
  887MPD2    C513058   2.484   1.408  15.495 -0.7753 -0.2437  0.0550
  887MPD2     H13059   2.152   1.577  15.496 -0.3784 -1.7455  0.1032
  887MPD2    H113060   2.576   1.596  15.457 -1.1613  1.6848 -0.2255
  887MPD2    H213061   2.381   1.222  15.536  0.0840 -0.1375  0.2095
  887MPD2    H313062   2.584   1.367  15.500 -0.2372  0.9418 -1.0176
  887MPD2     N13063   2.341   1.737  15.443  0.3935  0.4857 -0.3650
  887MPD2    H513064   2.244   1.767  15.444  0.4730  0.6893  1.4502
  887MPD2    N113065   2.131   1.324  15.527 -0.3053 -0.0816  0.0154
  887MPD2    H713066   2.051   1.385  15.517  0.9100  1.2438 -1.5102
  888MPD2     C13067   3.816   1.539  14.777 -0.4746  0.6233  0.0760
  888MPD2    C113068   3.870   1.524  14.899  0.4707 -0.0008 -0.3889
  888MPD2    C213069   3.977   1.603  14.940 -0.2956 -0.2063  0.2990
  888MPD2    C313070   4.040   1.679  14.832 -0.3705 -0.0708  0.8737
  888MPD2    C413071   3.992   1.682  14.704  0.2530 -0.6969  0.2315
  888MPD2    C513072   3.877   1.613  14.682  0.4043  0.1291  0.5075
  888MPD2     H13073   4.021   1.604  15.039 -4.0682  0.7142  1.9668
  888MPD2    H113074   4.032   1.745  14.625  0.6553 -0.7695  0.3772
  888MPD2    H213075   3.748   1.465  14.737  0.2550 -1.0385  1.9140
  888MPD2    H313076   3.837   1.599  14.583 -0.8371  1.6069  0.7973
  888MPD2     N13077   4.142   1.759  14.874 -0.2543 -0.1201 -1.2603
  888MPD2    H513078   4.160   1.740  14.973 -0.9528 -1.1415 -1.3254
  888MPD2    N113079   3.815   1.440  14.992 -0.9787 -0.1860  0.7572
  888MPD2    H713080   3.848   1.451  15.087 -0.6241 -3.1076  0.9838
  889MPD2     C13081   3.372   1.113  12.788  0.1908 -0.2066 -0.3956
  889MPD2    C113082   3.319   1.118  12.918  0.2143 -0.8012 -1.0360
  889MPD2    C213083   3.292   1.238  12.973 -0.2901 -0.7772  0.5264
  889MPD2    C313084   3.289   1.355  12.902 -1.1792 -0.1832  0.5500
  889MPD2    C413085   3.335   1.348  12.772  0.2942  0.1877 -0.4387
  889MPD2    C513086   3.365   1.231  12.718  0.1210  0.1787 -0.4767
  889MPD2     H13087   3.274   1.247  13.080 -0.4401 -1.7066  0.5768
  889MPD2    H113088   3.332   1.437  12.710 -2.4581 -0.1399 -0.8064
  889MPD2    H213089   3.410   1.022  12.742  2.2534  0.1708  0.5505
  889MPD2    H313090   3.395   1.217  12.614 -0.1882  1.5277 -0.7457
  889MPD2     N13091   3.243   1.469  12.971 -1.0686  0.6665 -0.3068
  889MPD2    H513092   3.212   1.459  13.067  0.0393  0.6629  0.0519
  889MPD2    N113093   3.333   1.019  13.016  0.1470  1.1830 -0.3585
  889MPD2    H713094   3.314   1.039  13.114 -2.9842  1.5248 -1.0579
  890MPD2     C13095   3.101   2.785  14.234  1.3060 -0.5775 -0.0689
  890MPD2    C113096   3.208   2.847  14.292  0.6392  0.0378 -0.5069
  890MPD2    C213097   3.222   2.823  14.431  0.0974  0.6070  0.0689
  890MPD2    C313098   3.145   2.733  14.497  0.6477  0.4153  0.5864
  890MPD2    C413099   3.046   2.662  14.427 -0.0928 -0.3078  0.4406
  890MPD2    C513100   3.023   2.687  14.295  0.6942  0.0204  0.3859
  890MPD2     H13101   3.299   2.863  14.497  0.1137  0.0629  0.3792
  890MPD2    H113102   2.996   2.573  14.464 -1.5711  0.3468  0.0173
  890MPD2    H213103   3.087   2.818  14.132 -0.0658 -0.4419  0.1681
  890MPD2    H313104   2.937   2.648  14.243  1.1523  0.7461 -0.9202
  890MPD2     N13105   3.175   2.711  14.634  0.7495  0.5123  0.0271
  890MPD2    H513106   3.243   2.774  14.676 -0.6657  0.6265  2.1509
  890MPD2    N113107   3.269   2.943  14.208 -0.2046  0.1010 -0.0412
  890MPD2    H713108   3.242   2.955  14.111  1.4679  0.4631 -0.4632
  891MPD2     C13109   1.328   1.751  16.500  0.1115  0.3234 -0.7317
  891MPD2    C113110   1.229   1.765  16.594 -0.8801 -0.2523  0.2353
  891MPD2    C213111   1.276   1.750  16.724 -0.8059 -0.0798  0.1379
  891MPD2    C313112   1.401   1.698  16.754 -0.0677 -0.2232  0.1991
  891MPD2    C413113   1.498   1.686  16.659  0.6465 -0.0071  0.3516
  891MPD2    C513114   1.461   1.721  16.528  0.1349  0.5975  0.1922
  891MPD2     H13115   1.220   1.783  16.810 -1.4076  2.6783 -1.2839
  891MPD2    H113116   1.602   1.659  16.674  0.5048 -0.6756  0.1269
  891MPD2    H213117   1.298   1.770  16.397  0.1041  2.8064 -0.2522
  891MPD2    H313118   1.543   1.747  16.463  1.7775 -1.2899  1.4653
  891MPD2     N13119   1.430   1.667  16.891 -0.3303  0.1322 -0.0405
  891MPD2    H513120   1.354   1.669  16.959  0.1417  1.8383  0.4325
  891MPD2    N113121   1.102   1.807  16.554 -0.2417 -0.0389 -0.2005
  891MPD2    H713122   1.084   1.824  16.456 -0.7456  3.0766  0.4308
  892MPD2     C13123   2.065   2.288  14.923  0.0588 -0.3392 -0.0327
  892MPD2    C113124   2.011   2.325  14.800 -0.2917  0.1172  0.6344
  892MPD2    C213125   2.092   2.310  14.686  0.1801 -0.4163 -0.0683
  892MPD2    C313126   2.221   2.268  14.700  0.5939 -0.0799  0.1850
  892MPD2    C413127   2.276   2.240  14.826  0.0975 -0.8789 -0.6694
  892MPD2    C513128   2.197   2.251  14.934  0.5473  0.3049 -0.7392
  892MPD2     H13129   2.053   2.351  14.594 -1.1384  0.7626  1.0233
  892MPD2    H113130   2.376   2.199  14.834  0.0926 -0.8418 -0.4283
  892MPD2    H213131   2.009   2.298  15.015 -0.3403  0.7580 -0.3865
  892MPD2    H313132   2.227   2.218  15.032 -0.5759  0.8931 -0.1904
  892MPD2     N13133   2.306   2.257  14.585  0.0895 -0.3795 -0.5910
  892MPD2    H513134   2.405   2.246  14.602 -0.2712 -1.6005  0.6888
  892MPD2    N113135   1.871   2.356  14.777  0.6124 -0.4044 -0.3219
  892MPD2    H713136   1.851   2.404  14.690  1.7098  0.2329 -0.2284
  893MPD2     C13137   3.267   0.938   1.180 -0.3648 -0.0942  0.6850
  893MPD2    C113138   3.307   1.048   1.109 -0.1433 -0.2111  1.1751
  893MPD2    C213139   3.212   1.110   1.029  0.4597  0.4857 -0.5654
  893MPD2    C313140   3.079   1.060   1.023  0.2363  0.4978  0.2988
  893MPD2    C413141   3.045   0.947   1.091 -0.5705  0.9078  0.0572
  893MPD2    C513142   3.144   0.891   1.167 -0.1796 -0.2036  1.0280
  893MPD2     H13143   3.243   1.181   0.953  1.2467  1.7684  0.9437
  893MPD2    H113144   2.945   0.911   1.109  0.7918 -2.7557  0.2900
  893MPD2    H213145   3.332   0.895   1.254  1.0544  0.3667 -0.3015
  893MPD2    H313146   3.119   0.800   1.221 -0.5104 -0.5185  0.3574
  893MPD2     N13147   2.978   1.109   0.937 -0.3222  0.1165 -0.6601
  893MPD2    H513148   2.909   1.037   0.918  2.0417 -2.0008 -1.3016
  893MPD2    N113149   3.446   1.084   1.110  0.8566  0.0478  0.0410
  893MPD2    H713150   3.502   1.022   1.168 -1.3045 -1.2650  0.7028
  894MPD2     C13151   2.023   3.116   0.750 -0.2063 -0.0919  0.3968
  894MPD2    C113152   1.965   3.156   0.869  0.3308  0.3659 -0.5273
  894MPD2    C213153   1.964   3.291   0.904 -0.7776 -0.6012 -0.6642
  894MPD2    C313154   2.003   3.383   0.806 -0.7805 -0.4647  0.0854
  894MPD2    C413155   2.057   3.338   0.682 -0.1227 -0.2378 -0.1385
  894MPD2    C513156   2.068   3.206   0.659 -0.6539 -0.3381 -0.0227
  894MPD2     H13157   1.921   3.331   0.995 -0.5030 -0.9221 -0.3913
  894MPD2    H113158   2.086   3.410   0.607 -0.9745 -0.0372 -0.2823
  894MPD2    H213159   2.001   3.014   0.723 -1.9373 -0.4510  3.2243
  894MPD2    H313160   2.101   3.182   0.559 -0.8141 -2.3658  0.4084
  894MPD2     N13161   1.996   3.517   0.829 -0.1188 -0.1654  0.2774
  894MPD2    H513162   1.980   3.549   0.924 -2.3813 -4.0783  1.2523
  894MPD2    N113163   1.884   3.078   0.955 -0.0729 -0.1139 -0.0448
  894MPD2    H713164   1.845   3.134   1.030  0.5553  1.2594 -0.7521
  895MPD2     C13165   1.863   1.689  13.618 -0.3148  0.7800 -0.0249
  895MPD2    C113166   1.730   1.701  13.631  0.2862  0.3523 -0.2458
  895MPD2    C213167   1.650   1.586  13.628 -0.3540  0.1120 -0.1165
  895MPD2    C313168   1.711   1.462  13.623  0.8073 -0.2398  1.1505
  895MPD2    C413169   1.851   1.453  13.623  0.3526 -0.0066 -0.2792
  895MPD2    C513170   1.924   1.563  13.612 -0.0571  0.0523 -0.0720
  895MPD2     H13171   1.543   1.598  13.617 -0.4365 -2.1112 -1.8850
  895MPD2    H113172   1.908   1.360  13.629 -0.4191 -0.6087 -2.2535
  895MPD2    H213173   1.939   1.763  13.641  1.7794 -1.1103 -0.7882
  895MPD2    H313174   2.033   1.563  13.618 -0.2279  2.7051  2.9902
  895MPD2     N13175   1.626   1.350  13.598 -0.0803  0.1277  0.0589
  895MPD2    H513176   1.527   1.369  13.606  0.2212  1.3066  0.9961
  895MPD2    N113177   1.665   1.821  13.633  0.2645  0.4165  0.5262
  895MPD2    H713178   1.565   1.819  13.650  0.0966  3.4216 -0.0994
  896MPD2     C13179   4.129   4.390   1.495  0.0579 -0.1511  0.6412
  896MPD2    C113180   4.066   4.365   1.370  0.2769  0.1234  0.1170
  896MPD2    C213181   3.932   4.355   1.365  0.1445 -0.2046 -0.0962
  896MPD2    C313182   3.850   4.370   1.475  0.9019 -0.3532  0.3172
  896MPD2    C413183   3.907   4.401   1.600 -0.7231  1.0578 -0.1486
  896MPD2    C513184   4.043   4.420   1.604 -0.2101  0.1482  0.6787
  896MPD2     H13185   3.884   4.348   1.268 -0.4665 -0.3899  0.2190
  896MPD2    H113186   3.856   4.410   1.695 -0.8892  0.6884 -0.2032
  896MPD2    H213187   4.235   4.394   1.516  0.3193  0.1679 -0.7645
  896MPD2    H313188   4.088   4.433   1.702  0.8138  0.0007  0.2378
  896MPD2     N13189   3.712   4.366   1.447 -0.0500 -0.1794 -0.1657
  896MPD2    H513190   3.680   4.329   1.358  2.9517 -0.4572 -1.1440
  896MPD2    N113191   4.143   4.344   1.250  0.1825 -0.3072  0.6437
  896MPD2    H713192   4.244   4.358   1.252  0.3478 -1.4545  0.4319
  897MPD2     C13193   0.022   1.194  10.319  0.4053 -0.2111  0.8597
  897MPD2    C113194   4.656   1.172  10.232  0.4266  0.2353  0.1511
  897MPD2    C213195   4.580   1.058  10.251 -0.8006 -0.3067  0.2602
  897MPD2    C313196   4.581   0.987  10.366  0.4542 -0.2316  0.1261
  897MPD2    C413197   4.682   1.015  10.455 -0.2611 -0.3276  0.0139
  897MPD2    C513198   0.034   1.119  10.431  0.2899  0.5740  0.6605
  897MPD2     H13199   4.487   1.047  10.197 -0.4558 -1.8378 -0.0311
  897MPD2    H113200   4.688   0.959  10.548 -2.2113 -0.2079  0.1999
  897MPD2    H213201   0.091   1.276  10.303  0.0775  0.0375  0.7245
  897MPD2    H313202   0.109   1.142  10.506  0.9958  0.8426 -0.1325
  897MPD2     N13203   4.487   0.879  10.379  0.0180 -0.0261 -0.4513
  897MPD2    H513204   4.420   0.873  10.303 -1.2357 -0.1315  0.6626
  897MPD2    N113205   4.630   1.267  10.132 -0.1957  0.2491  0.4865
  897MPD2    H713206   4.681   1.355  10.139 -0.4655  0.2991  1.8224
  898MPD2     C13207   2.392   2.378  17.023 -0.1469 -0.5138 -0.0154
  898MPD2    C113208   2.327   2.314  17.125  0.5322  0.2701 -0.4905
  898MPD2    C213209   2.217   2.371  17.187  0.4101 -0.4874 -0.2135
  898MPD2    C313210   2.180   2.502  17.144 -0.6429 -0.3111  0.0572
  898MPD2    C413211   2.255   2.571  17.055  1.0105  0.0064  0.3775
  898MPD2    C513212   2.366   2.511  16.991  0.4431  0.0574  0.6618
  898MPD2     H13213   2.150   2.317  17.253  0.6182 -1.2472 -0.6283
  898MPD2    H113214   2.218   2.666  17.018 -0.2335 -0.5197  0.2786
  898MPD2    H213215   2.484   2.344  16.979  0.4958 -0.2571  1.1230
  898MPD2    H313216   2.422   2.561  16.913 -1.3185 -0.1640 -0.7342
  898MPD2     N13217   2.071   2.558  17.210 -0.3709  0.4421 -0.3273
  898MPD2    H513218   2.034   2.502  17.286 -1.1563 -0.0290 -1.0507
  898MPD2    N113219   2.357   2.177  17.150  0.1878 -0.4415  0.4118
  898MPD2    H713220   2.309   2.144  17.233  0.0302  0.6911  0.7743
  899MPD2     C13221   2.745   2.479  17.084  0.5269 -0.8269  0.3383
  899MPD2    C113222   2.756   2.587  17.170 -0.6581 -0.1908  0.3444
  899MPD2    C213223   2.737   2.560  17.306  0.0292  0.9289  0.2575
  899MPD2    C313224   2.705   2.435  17.347  0.2024 -0.6351  0.2396
  899MPD2    C413225   2.689   2.324  17.257 -0.0945 -0.6502  0.0471
  899MPD2    C513226   2.710   2.353  17.123  0.4172 -0.0976 -0.0606
  899MPD2     H13227   2.752   2.639  17.378  0.2612  0.4862  0.7015
  899MPD2    H113228   2.643   2.232  17.290  0.1962 -0.3713  1.2493
  899MPD2    H213229   2.769   2.491  16.979  1.3942  3.7415  1.0741
  899MPD2    H313230   2.687   2.274  17.053  1.9146 -3.8211  3.7146
  899MPD2     N13231   2.661   2.406  17.475 -0.5221 -0.5113 -0.4209
  899MPD2    H513232   2.635   2.309  17.495 -1.1311  0.7961  5.1021
  899MPD2    N113233   2.792   2.718  17.124 -0.2772  0.0756 -0.5690
  899MPD2    H713234   2.782   2.727  17.024  1.3060  2.1312 -0.5543
  900MPD2     C13235   2.400   4.393  12.554 -0.3986 -0.7540  0.1593
  900MPD2    C113236   2.308   4.296  12.530  0.0107  0.8112 -0.0016
  900MPD2    C213237   2.178   4.343  12.500  0.1760  0.1887 -0.5130
  900MPD2    C313238   2.138   4.478  12.512  0.1662 -0.2091 -0.3489
  900MPD2    C413239   2.242   4.567  12.528  0.2310  0.7992  0.3433
  900MPD2    C513240   2.367   4.519  12.547 -0.8556 -0.5030  0.2103
  900MPD2     H13241   2.097   4.275  12.476  0.2604  0.3816 -1.3396
  900MPD2    H113242   2.208   4.670  12.539  0.6538  1.0240 -0.4170
  900MPD2    H213243   2.503   4.362  12.572  0.7193  2.1905 -1.2703
  900MPD2    H313244   2.439   4.597  12.568 -1.0634  0.1479 -1.5043
  900MPD2     N13245   2.002   4.508  12.499  0.1328  0.6592 -0.3561
  900MPD2    H513246   1.931   4.436  12.508  0.2273  0.7178  0.8583
  900MPD2    N113247   2.349   4.162  12.543 -0.8300  0.4509  1.2306
  900MPD2    H713248   2.444   4.138  12.570 -1.1531  0.2316  2.1606
  901MPD2     C13249   2.075   3.097  12.659 -0.3495  0.0791 -0.2951
  901MPD2    C113250   2.204   3.104  12.615  0.6282  0.4310 -0.1745
  901MPD2    C213251   2.252   3.228  12.569 -0.2003 -0.2192  0.0418
  901MPD2    C313252   2.172   3.340  12.576 -0.0665 -0.1724  0.1259
  901MPD2    C413253   2.041   3.329  12.623 -0.1773 -0.0070  0.1870
  901MPD2    C513254   1.994   3.206  12.652  0.3494 -0.4035  0.7795
  901MPD2     H13255   2.355   3.245  12.539 -0.8165  0.4290 -1.6398
  901MPD2    H113256   1.974   3.414  12.631 -0.2328 -0.1306  1.0293
  901MPD2    H213257   2.027   3.003  12.687 -1.9259  0.6765 -1.0131
  901MPD2    H313258   1.891   3.196  12.685 -0.5004  4.0397 -0.4644
  901MPD2     N13259   2.227   3.462  12.540  0.2259 -0.3469 -0.2803
  901MPD2    H513260   2.328   3.469  12.526  0.2461 -1.6476 -0.7682
  901MPD2    N113261   2.293   2.997  12.621 -0.0959 -0.0151  0.1996
  901MPD2    H713262   2.386   3.019  12.588 -0.2393  0.2989  0.0097
  902MPD2     C13263   1.974   1.975  12.459 -0.2760 -0.1078  0.2771
  902MPD2    C113264   1.902   2.077  12.406 -0.8176 -0.2934  0.6683
  902MPD2    C213265   1.880   2.075  12.266 -0.3149 -0.0454 -0.1706
  902MPD2    C313266   1.935   1.977  12.187 -0.1835  0.9005  0.1746
  902MPD2    C413267   2.011   1.883  12.244  0.2664  0.4228  0.0244
  902MPD2    C513268   2.037   1.881  12.382  0.3323  0.9092 -0.6902
  902MPD2     H13269   1.812   2.149  12.225 -0.2728 -0.7442 -1.5170
  902MPD2    H113270   2.062   1.823  12.169 -1.3233 -0.8649 -0.0371
  902MPD2    H213271   1.988   1.965  12.566  1.8111 -1.8291 -0.1670
  902MPD2    H313272   2.105   1.807  12.423 -1.6637 -0.0362  0.8987
  902MPD2     N13273   1.907   1.960  12.051  0.7193  0.9177  0.1096
  902MPD2    H513274   1.953   1.885  12.000 -0.7724 -0.1656  0.3761
  902MPD2    N113275   1.843   2.171  12.493  0.2950 -0.6062  0.2580
  902MPD2    H713276   1.855   2.152  12.592  1.7471  1.4089  0.4773
  903MPD2     C13277   1.257   2.036  11.367  0.1723 -0.4433 -0.7859
  903MPD2    C113278   1.287   2.053  11.501  0.6694 -0.8260 -0.5967
  903MPD2    C213279   1.189   2.091  11.588 -0.2941  0.4425 -0.7513
  903MPD2    C313280   1.064   2.117  11.544  0.1516 -0.5376 -0.3636
  903MPD2    C413281   1.032   2.108  11.408 -0.0697 -0.0747 -0.0604
  903MPD2    C513282   1.130   2.060  11.323 -0.1956  0.3809 -0.2521
  903MPD2     H13283   1.200   2.097  11.695 -1.4691  1.8350 -0.7009
  903MPD2    H113284   0.937   2.142  11.366 -0.4132  0.1527  0.8929
  903MPD2    H213285   1.338   2.021  11.297  0.0876 -0.6770 -0.8314
  903MPD2    H313286   1.114   2.061  11.215 -1.6276 -0.9962 -0.0578
  903MPD2     N13287   0.959   2.139  11.638  0.0108 -0.0624  0.2652
  903MPD2    H513288   0.985   2.144  11.736 -0.1464 -0.5684  0.3375
  903MPD2    N113289   1.418   2.029  11.543  0.0025 -0.4895 -0.4047
  903MPD2    H713290   1.476   1.976  11.478  3.8402  1.2780  1.5695
  904MPD2     C13291   1.113   1.063  13.804 -0.2132  0.2630  0.3503
  904MPD2    C113292   1.100   1.016  13.937  0.4418 -0.2892  0.2180
  904MPD2    C213293   1.214   1.016  14.014  0.5483  0.4740 -0.7717
  904MPD2    C313294   1.333   1.072  13.967  0.6064  0.4927  0.3743
  904MPD2    C413295   1.341   1.111  13.837  0.1522  0.5434  0.3715
  904MPD2    C513296   1.235   1.099  13.757 -0.4050  0.0116  0.1848
  904MPD2     H13297   1.211   0.981  14.117 -1.7294 -0.6439 -1.2185
  904MPD2    H113298   1.433   1.154  13.799 -0.7860  1.9949 -0.2521
  904MPD2    H213299   1.032   1.060  13.732 -1.8011  2.4649  2.0732
  904MPD2    H313300   1.242   1.126  13.652 -2.0673  1.1728  0.3702
  904MPD2     N13301   1.448   1.058  14.040 -1.1421  0.2615 -0.6698
  904MPD2    H513302   1.436   1.019  14.132 -1.3315 -1.7852 -1.5556
  904MPD2    N113303   0.980   0.962  13.993  0.5831  0.4206  0.6272
  904MPD2    H713304   1.000   0.879  14.046  2.8035  0.5634  0.0159
  905MPD2     C13305   0.811   0.869  13.363 -0.1535 -0.1208 -0.0514
  905MPD2    C113306   0.858   0.978  13.428  1.0183 -0.7590 -0.1705
  905MPD2    C213307   0.988   1.022  13.413 -0.1067 -0.0450 -0.0338
  905MPD2    C313308   1.077   0.946  13.326  0.4340 -0.5728 -0.1311
  905MPD2    C413309   1.028   0.837  13.263  0.3345  0.2547  0.3435
  905MPD2    C513310   0.899   0.803  13.276  0.2757 -0.3230  1.2027
  905MPD2     H13311   1.031   1.110  13.460  1.4825  0.0238 -1.5986
  905MPD2    H113312   1.090   0.776  13.199  1.5466 -0.1969  1.9454
  905MPD2    H213313   0.705   0.847  13.365 -0.0052 -0.8437  0.0196
  905MPD2    H313314   0.861   0.721  13.216  2.1829  0.8822 -1.6791
  905MPD2     N13315   1.212   0.972  13.326  0.3037 -0.4277 -0.0397
  905MPD2    H513316   1.272   0.904  13.279  2.5376  1.1087  0.5689
  905MPD2    N113317   0.769   1.049  13.510  0.2484  0.3106 -0.1314
  905MPD2    H713318   0.683   1.009  13.545  0.3491 -0.9904 -1.3909
  906MPD2     C13319   3.182   1.057  11.152 -0.0798 -0.5703 -0.1232
  906MPD2    C113320   3.116   0.960  11.072  0.1152  0.3877 -0.4459
  906MPD2    C213321   3.024   0.878  11.138  0.0635 -0.1696 -0.4607
  906MPD2    C313322   2.988   0.900  11.270  0.0854 -0.6108  0.2372
  906MPD2    C413323   3.055   0.989  11.344 -0.2932  0.1657 -0.4659
  906MPD2    C513324   3.144   1.066  11.286 -0.5235 -0.3921  0.5346
  906MPD2     H13325   2.986   0.791  11.085 -0.0518 -0.0736 -0.5346
  906MPD2    H113326   3.042   1.006  11.451  1.5966 -1.4507  0.0145
  906MPD2    H213327   3.261   1.123  11.118 -0.5847  0.1760  0.1760
  906MPD2    H313328   3.181   1.145  11.352  0.6978  1.2508 -2.1190
  906MPD2     N13329   2.889   0.813  11.313  0.2306 -0.0364 -0.1608
  906MPD2    H513330   2.850   0.758  11.237 -0.5924  1.5354 -0.8719
  906MPD2    N113331   3.152   0.932  10.941  0.2703 -0.2195 -0.2955
  906MPD2    H713332   3.110   0.854  10.892 -1.0519  0.9089 -0.9445
  907MPD2     C13333   2.372   4.583  14.467  0.3584 -0.6769  0.1556
  907MPD2    C113334   2.346   4.550  14.602 -0.5279  0.0402 -1.6409
  907MPD2    C213335   2.444   4.469  14.660  0.4272  0.4028  0.0782
  907MPD2    C313336   2.556   4.426  14.586  0.6642  0.4452 -0.6018
  907MPD2    C413337   2.582   4.462  14.457  0.3660  0.2186 -0.9481
  907MPD2    C513338   2.483   4.543  14.397  0.4373 -0.4553  0.1588
  907MPD2     H13339   2.424   4.440  14.763 -2.4637  1.0321 -0.3242
  907MPD2    H113340   2.673   4.444  14.401  1.6475  1.4878  0.7115
  907MPD2    H213341   2.308   4.655  14.418 -0.0065  0.0398  1.6874
  907MPD2    H313342   2.507   4.588  14.302  0.0548  2.3834  1.4137
  907MPD2     N13343   2.655   4.350  14.651  0.0544 -0.8626 -0.2035
  907MPD2    H513344   2.651   4.348  14.753 -1.7202  0.8500 -0.2270
  907MPD2    N113345   2.235   4.588  14.694 -0.0287  0.2200  0.0139
  907MPD2    H713346   2.233   4.547  14.787  2.0980  0.6656  0.2452
  908MPD2     C13347   4.174   1.233   9.234 -0.1694 -0.4375  0.6653
  908MPD2    C113348   4.178   1.137   9.334 -0.0592 -0.9817 -0.4992
  908MPD2    C213349   4.234   1.165   9.464 -0.3025 -0.5636 -0.0511
  908MPD2    C313350   4.271   1.297   9.493  0.8661  0.5227 -0.2726
  908MPD2    C413351   4.260   1.392   9.391 -0.3359  0.4586 -0.8857
  908MPD2    C513352   4.215   1.359   9.267 -0.3085 -1.0045 -0.5123
  908MPD2     H13353   4.234   1.078   9.530  3.0163 -0.8692 -0.4366
  908MPD2    H113354   4.284   1.497   9.402  0.3902  0.3918 -1.8877
  908MPD2    H213355   4.140   1.212   9.134  2.9099 -0.6682 -0.3266
  908MPD2    H313356   4.210   1.438   9.193 -1.8345 -0.4245  0.2302
  908MPD2     N13357   4.325   1.336   9.617  0.3702  0.0675 -0.6954
  908MPD2    H513358   4.310   1.269   9.692  0.8398  3.4182  2.3951
  908MPD2    N113359   4.118   1.012   9.302 -0.0647 -0.2107  0.0926
  908MPD2    H713360   4.059   1.000   9.220  0.7406  1.0284 -0.6635
  909MPD2     C13361   4.611   3.875  12.323  0.8049 -0.1544  0.5372
  909MPD2    C113362   4.602   3.953  12.209 -0.2845 -0.5643  0.4814
  909MPD2    C213363   4.495   4.042  12.203 -0.0980  0.6348 -0.8569
  909MPD2    C313364   4.400   4.049  12.303 -0.1071 -0.1652 -0.3868
  909MPD2    C413365   4.410   3.963  12.405  0.2432  0.9654 -0.0768
  909MPD2    C513366   4.510   3.872  12.410  0.3823  0.1243 -0.0926
  909MPD2     H13367   4.486   4.115  12.124 -0.0672  2.0098  0.3905
  909MPD2    H113368   4.351   3.947  12.494  0.1040  0.8487 -0.1899
  909MPD2    H213369   4.680   3.791  12.323  1.7302  0.5968  1.8181
  909MPD2    H313370   4.507   3.804  12.494  0.4172 -0.8024 -0.8382
  909MPD2     N13371   4.303   4.148  12.293  0.6449 -0.7782 -0.5648
  909MPD2    H513372   4.305   4.195  12.203 -0.9683  3.1033  1.4215
  909MPD2    N113373   4.682   3.936  12.092  0.4018  0.0821  0.3973
  909MPD2    H713374   4.653   3.996  12.016  0.4256 -0.0803  0.2615
  910MPD2     C13375   1.696   0.351  15.815  0.4596 -0.5561 -0.5269
  910MPD2    C113376   1.703   0.332  15.676 -0.6873  0.7432 -0.0385
  910MPD2    C213377   1.666   0.435  15.590 -0.8612  0.7044 -0.1167
  910MPD2    C313378   1.618   0.549  15.642 -0.0800  0.2653 -0.0390
  910MPD2    C413379   1.615   0.570  15.778  0.2095  0.6147  0.2556
  910MPD2    C513380   1.660   0.473  15.858 -0.0374  0.3370 -0.1931
  910MPD2     H13381   1.676   0.427  15.482  1.9285 -0.5271  0.2276
  910MPD2    H113382   1.576   0.667  15.809  0.3677  0.9339 -0.5185
  910MPD2    H213383   1.731   0.285  15.894 -0.1942 -0.3152 -0.0236
  910MPD2    H313384   1.653   0.497  15.964 -1.0316  1.3053 -0.4723
  910MPD2     N13385   1.565   0.660  15.569 -0.5111 -0.5807  0.0335
  910MPD2    H513386   1.524   0.743  15.610  0.6203  0.4018 -0.8535
  910MPD2    N113387   1.756   0.219  15.618 -0.3801 -0.1774 -0.2582
  910MPD2    H713388   1.755   0.222  15.517 -0.4749 -0.7917 -0.2743
  911MPD2     C13389   4.369   1.276  16.040  0.4032  0.9410  0.1540
  911MPD2    C113390   4.345   1.339  16.166  0.3377 -0.8701 -0.1757
  911MPD2    C213391   4.241   1.433  16.179  0.3772 -0.3518  0.0092
  911MPD2    C313392   4.180   1.474  16.070  0.2551 -0.2530  0.3901
  911MPD2    C413393   4.214   1.429  15.943  0.3686  0.0405 -0.4718
  911MPD2    C513394   4.306   1.332  15.931 -0.5740 -0.4491 -0.2387
  911MPD2     H13395   4.212   1.468  16.278  1.3610 -0.1221  0.2183
  911MPD2    H113396   4.174   1.471  15.851 -0.9076 -1.5023 -0.6267
  911MPD2    H213397   4.439   1.195  16.025  0.2131  1.1470 -1.7558
  911MPD2    H313398   4.335   1.291  15.835 -1.3993 -1.8436  0.1121
  911MPD2     N13399   4.070   1.560  16.070 -0.2196  0.6289 -0.2386
  911MPD2    H513400   4.063   1.620  15.988  0.5080  2.7861  1.2532
  911MPD2    N113401   4.423   1.295  16.271  0.5129 -0.5914  0.2908
  911MPD2    H713402   4.497   1.233  16.240  0.7632 -0.7412  1.1973
  912MPD2     C13403   3.394   1.394  15.694 -0.4263  0.2357 -0.2602
  912MPD2    C113404   3.466   1.383  15.814 -0.4909 -0.4322  0.1210
  912MPD2    C213405   3.535   1.270  15.840 -0.0315  0.9264 -0.2760
  912MPD2    C313406   3.523   1.162  15.757  0.3298 -0.4463 -0.8508
  912MPD2    C413407   3.454   1.169  15.642  0.1228 -0.6825 -0.8966
  912MPD2    C513408   3.384   1.284  15.611 -0.3200  0.1691 -0.6715
  912MPD2     H13409   3.600   1.273  15.926 -1.0674 -4.5100  0.6460
  912MPD2    H113410   3.450   1.083  15.576  0.0716 -1.6457  0.3639
  912MPD2    H213411   3.336   1.482  15.670 -0.6235  0.0319 -0.5382
  912MPD2    H313412   3.323   1.290  15.521  1.8384 -0.1762 -2.1744
  912MPD2     N13413   3.608   1.056  15.792 -0.1450  0.7584 -0.0672
  912MPD2    H513414   3.660   1.071  15.878 -0.2490 -1.8158  0.4448
  912MPD2    N113415   3.500   1.495  15.887  0.1136  0.1823  0.8239
  912MPD2    H713416   3.490   1.587  15.844  0.1850  0.9071  2.3358
  913MPD2     C13417   4.322   2.417   9.990 -0.0877  0.1269 -0.3145
  913MPD2    C113418   4.350   2.448  10.123 -0.4171  0.0385 -0.9900
  913MPD2    C213419   4.374   2.581  10.157 -0.4843  0.3951  0.3676
  913MPD2    C313420   4.367   2.674  10.052  0.0323 -0.2367  0.3934
  913MPD2    C413421   4.332   2.639   9.919  0.2378 -0.0874 -0.6410
  913MPD2    C513422   4.295   2.513   9.894  0.1131 -0.2238 -0.1684
  913MPD2     H13423   4.387   2.614  10.260 -1.0602  2.0709 -0.0883
  913MPD2    H113424   4.332   2.713   9.840 -1.6870 -0.9231 -1.4237
  913MPD2    H213425   4.292   2.319   9.954  2.2449 -0.6552 -0.1045
  913MPD2    H313426   4.264   2.480   9.796  0.9506 -0.0280 -0.5023
  913MPD2     N13427   4.390   2.815  10.064 -0.1779 -1.0391 -0.5045
  913MPD2    H513428   4.377   2.869   9.979  2.2733  0.3577 -0.0095
  913MPD2    N113429   4.336   2.339  10.216  0.7801 -0.1807 -0.1960
  913MPD2    H713430   4.315   2.248  10.176  0.1331  0.4398 -1.2669
  914MPD2     C13431   2.745   3.126  11.978  0.2784  0.0135 -0.3290
  914MPD2    C113432   2.678   3.184  12.080 -0.4276 -0.6034  0.3394
  914MPD2    C213433   2.635   3.115  12.194  1.0082  0.0340  0.5083
  914MPD2    C313434   2.656   2.980  12.210 -0.0274 -0.5291 -0.0317
  914MPD2    C413435   2.718   2.917  12.101 -0.4416 -0.1795  0.2238
  914MPD2    C513436   2.761   2.985  11.988 -0.2499 -0.0786 -0.2005
  914MPD2     H13437   2.576   3.175  12.263  0.6165  0.7423 -0.4289
  914MPD2    H113438   2.743   2.811  12.100  1.3405  0.2363 -0.7899
  914MPD2    H213439   2.781   3.178  11.891  0.1122 -1.0682 -1.0470
  914MPD2    H313440   2.805   2.928  11.907  2.7363  1.8150  0.0812
  914MPD2     N13441   2.615   2.914  12.328  0.1879  0.0254  0.4572
  914MPD2    H513442   2.571   2.977  12.394  0.2615  1.3213 -0.7234
  914MPD2    N113443   2.648   3.320  12.059  0.1462 -0.5929 -0.0409
  914MPD2    H713444   2.677   3.357  11.969  0.6251  0.9064  0.7285
  915MPD2     C13445   0.544   2.665  15.588  0.4894 -0.4549 -0.8474
  915MPD2    C113446   0.414   2.713  15.613 -0.1345  0.1743 -0.2054
  915MPD2    C213447   0.384   2.759  15.745  0.1186 -0.1966  0.6493
  915MPD2    C313448   0.484   2.774  15.835 -0.2829  0.1215  0.8751
  915MPD2    C413449   0.611   2.728  15.803 -0.9184  0.7520 -0.1762
  915MPD2    C513450   0.640   2.676  15.676  0.1349 -0.3361 -0.2669
  915MPD2     H13451   0.294   2.816  15.768 -1.1187 -1.7254 -0.3548
  915MPD2    H113452   0.698   2.734  15.867 -1.1241  0.2341  0.1603
  915MPD2    H213453   0.564   2.626  15.489 -2.8294  1.7432 -2.3769
  915MPD2    H313454   0.742   2.643  15.662  0.1868 -0.6280  0.7349
  915MPD2     N13455   0.455   2.849  15.949  0.3647 -0.7760 -0.0045
  915MPD2    H513456   0.357   2.874  15.956  0.2831 -0.4508 -2.2505
  915MPD2    N113457   0.326   2.697  15.500 -0.6689 -0.4245  0.3809
  915MPD2    H713458   0.364   2.648  15.420  0.2169 -0.8767  1.0733
  916MPD2     C13459   3.143   1.061  15.765 -0.1785 -0.1778  0.3345
  916MPD2    C113460   3.234   1.011  15.854  0.4036  0.0688  0.3200
  916MPD2    C213461   3.313   0.909  15.815 -0.2921 -0.9015  0.6205
  916MPD2    C313462   3.294   0.845  15.694  0.2723 -0.1241 -0.5142
  916MPD2    C413463   3.209   0.900  15.602 -0.0642  0.3210 -0.1458
  916MPD2    C513464   3.140   1.013  15.639 -0.9117  0.5298 -1.2873
  916MPD2     H13465   3.388   0.870  15.883 -0.4394  1.0076  1.9074
  916MPD2    H113466   3.193   0.866  15.500 -0.9623  0.7959 -0.1689
  916MPD2    H213467   3.088   1.154  15.778  1.0917  0.7696 -0.9767
  916MPD2    H313468   3.079   1.067  15.568 -0.0045  0.7286 -1.9136
  916MPD2     N13469   3.355   0.722  15.670 -0.3853 -0.4031  0.6562
  916MPD2    H513470   3.432   0.702  15.733 -0.4789 -1.9223  0.2784
  916MPD2    N113471   3.237   1.069  15.986  0.2427  0.3153 -0.4824
  916MPD2    H713472   3.160   1.132  16.005 -2.1223 -2.7354  0.0220
  917MPD2     C13473   3.585   3.163  10.989 -0.2928 -0.4835  0.5112
  917MPD2    C113474   3.614   3.276  11.064  0.9933 -0.5132  0.2931
  917MPD2    C213475   3.662   3.387  11.007  0.3797  0.3461 -0.6237
  917MPD2    C313476   3.698   3.392  10.872  0.7002  0.0593 -0.1125
  917MPD2    C413477   3.664   3.278  10.794  0.1689  0.4432 -0.5879
  917MPD2    C513478   3.607   3.167  10.852 -0.4340 -0.4165 -0.0180
  917MPD2     H13479   3.703   3.462  11.073  0.2789  1.0013 -1.3022
  917MPD2    H113480   3.675   3.276  10.687  2.7692 -2.6557 -0.2813
  917MPD2    H213481   3.547   3.071  11.031 -1.9769 -0.1451 -0.2584
  917MPD2    H313482   3.587   3.084  10.785  3.6373 -0.6946 -0.8411
  917MPD2     N13483   3.761   3.499  10.811  0.5318  0.4199  0.7242
  917MPD2    H513484   3.780   3.486  10.712  0.2434  1.7260  0.4955
  917MPD2    N113485   3.595   3.262  11.204 -0.1072 -0.3034 -0.1419
  917MPD2    H713486   3.567   3.172  11.240  0.2820  0.2380  1.5381
  918MPD2     C13487   3.792   3.865  12.000  0.2996 -0.2083 -0.2025
  918MPD2    C113488   3.876   3.759  12.002  0.7409  0.2826  0.4910
  918MPD2    C213489   3.822   3.633  11.971  0.1452  0.0819  0.0921
  918MPD2    C313490   3.698   3.621  11.912 -0.3741  0.9807 -0.2097
  918MPD2    C413491   3.623   3.731  11.907 -0.7624 -0.4748  0.4481
  918MPD2    C513492   3.662   3.852  11.961  0.1148 -0.7388 -0.0972
  918MPD2     H13493   3.889   3.547  11.971 -0.3432 -0.3005  0.2422
  918MPD2    H113494   3.523   3.744  11.868 -0.1678 -0.3284 -1.0242
  918MPD2    H213495   3.832   3.965  12.012 -0.0115 -0.1432  0.3150
  918MPD2    H313496   3.604   3.941  11.941  1.6045 -0.0105 -1.1403
  918MPD2     N13497   3.660   3.501  11.849  0.4868  0.0973  0.3339
  918MPD2    H513498   3.726   3.424  11.858 -2.2692 -2.2222  0.9346
  918MPD2    N113499   4.012   3.765  12.044  0.2666 -0.0266  0.2567
  918MPD2    H713500   4.061   3.677  12.059  0.0335 -0.1686  0.1896
  919MPD2     C13501   4.643   2.361  11.791  0.1569  0.1836 -0.0085
  919MPD2    C113502   4.618   2.258  11.699 -0.2595  0.4728  0.1332
  919MPD2    C213503   4.591   2.282  11.562 -0.3102  0.0591  0.2386
  919MPD2    C313504   4.584   2.413  11.509 -0.4398  0.0235  0.4841
  919MPD2    C413505   4.616   2.512  11.601 -0.1281 -0.0837  0.6953
  919MPD2    C513506   4.640   2.489  11.739  0.2539  0.3729  0.1050
  919MPD2     H13507   4.581   2.199  11.493  2.1220 -1.2242  1.4056
  919MPD2    H113508   4.625   2.615  11.568 -0.8010 -0.3999 -0.4726
  919MPD2    H213509   4.665   2.342  11.896 -2.3559  2.9466  1.0257
  919MPD2    H313510   4.664   2.569  11.808  0.1593  1.6767 -1.3574
  919MPD2     N13511   4.526   2.449  11.380 -0.1840  0.1909  0.8243
  919MPD2    H513512   4.558   2.540  11.349  0.3171  0.3071  1.6686
  919MPD2    N113513   4.599   2.128  11.744 -0.3251  0.2801 -0.1261
  919MPD2    H713514   4.580   2.057  11.674  0.0295  0.3341 -0.2809
  920MPD2     C13515   4.291   3.021  10.572  0.2792 -0.0270  0.1225
  920MPD2    C113516   4.217   2.913  10.542  0.2486  0.9088 -0.5592
  920MPD2    C213517   4.227   2.805  10.621  0.5082  0.5687 -0.0733
  920MPD2    C313518   4.295   2.810  10.737 -0.1342 -0.0560 -0.6430
  920MPD2    C413519   4.342   2.931  10.783 -1.0003 -0.0231  0.5670
  920MPD2    C513520   4.354   3.037  10.696  0.9295 -0.7917 -0.5778
  920MPD2     H13521   4.158   2.723  10.603  0.1806  0.5742  1.1480
  920MPD2    H113522   4.385   2.946  10.882 -0.8045 -0.2750  0.5231
  920MPD2    H213523   4.285   3.116  10.520  1.1833 -1.0008 -1.7926
  920MPD2    H313524   4.403   3.125  10.735 -0.2607 -1.1298  1.7139
  920MPD2     N13525   4.311   2.689  10.814 -0.7009  0.6028 -0.4762
  920MPD2    H513526   4.285   2.604  10.765 -0.5771  0.9581 -1.1587
  920MPD2    N113527   4.133   2.900  10.420 -0.1361  0.1888 -0.2208
  920MPD2    H713528   4.087   2.810  10.406 -1.8941  1.2197 -1.1003
  921MPD2     C13529   0.354   1.775  16.932  0.6350  0.5163  0.1583
  921MPD2    C113530   0.366   1.726  16.802 -0.0466  0.1105  0.1579
  921MPD2    C213531   0.270   1.650  16.744  0.1243  0.4362 -0.8484
  921MPD2    C313532   0.174   1.595  16.821  0.4727  0.2053 -0.0976
  921MPD2    C413533   0.168   1.634  16.957 -0.3062 -0.6115  0.0852
  921MPD2    C513534   0.255   1.727  17.012  0.2641  0.3087 -0.2086
  921MPD2     H13535   0.293   1.607  16.647 -2.5565 -0.9069 -0.8896
  921MPD2    H113536   0.092   1.583  17.014  1.7548 -0.5496  2.8426
  921MPD2    H213537   0.431   1.838  16.977  0.5420  0.3014  0.6175
  921MPD2    H313538   0.250   1.749  17.118  2.0853 -0.1988 -0.0162
  921MPD2     N13539   0.069   1.506  16.773  0.0489  0.0614  0.3889
  921MPD2    H513540   0.006   1.476  16.847  1.6437  0.2267  1.8153
  921MPD2    N113541   0.489   1.763  16.732 -0.2661 -0.7353  0.4489
  921MPD2    H713542   0.557   1.812  16.789 -1.1491 -0.7557  1.5098
  922MPD2     C13543   1.508   0.531  17.181 -0.4003 -0.4825  0.5303
  922MPD2    C113544   1.503   0.516  17.318 -1.0409  0.4990  0.5457
  922MPD2    C213545   1.509   0.385  17.366 -0.2496 -0.4668 -1.1207
  922MPD2    C313546   1.518   0.271  17.285  0.3200 -0.5213  0.7276
  922MPD2    C413547   1.517   0.290  17.150 -0.0135  0.4753  0.4580
  922MPD2    C513548   1.506   0.419  17.101 -0.1162 -0.6969 -1.1587
  922MPD2     H13549   1.519   0.376  17.473 -1.4439 -0.1858 -0.9801
  922MPD2    H113550   1.509   0.214  17.073  2.8600 -0.0062  0.6275
  922MPD2    H213551   1.512   0.629  17.134 -0.4732 -1.1646 -0.9001
  922MPD2    H313552   1.496   0.448  16.997  0.0673  0.2369 -0.9162
  922MPD2     N13553   1.526   0.149  17.357  0.5768  0.5656  0.1525
  922MPD2    H513554   1.512   0.143  17.458  1.4257  0.6920  0.2778
  922MPD2    N113555   1.512   0.615  17.414 -0.5644 -0.4094 -0.5345
  922MPD2    H713556   1.522   0.573  17.506  0.8217  1.8184  0.3187
  923MPD2     C13557   2.056   1.425   9.708  0.4432  0.1537  0.4177
  923MPD2    C113558   2.083   1.558   9.741 -0.3869  0.0960  0.2341
  923MPD2    C213559   2.215   1.579   9.791 -0.4110 -0.5554  0.3284
  923MPD2    C313560   2.326   1.489   9.790  0.2042  0.8854 -0.1350
  923MPD2    C413561   2.292   1.360   9.745  0.2773  0.3003 -0.6269
  923MPD2    C513562   2.157   1.335   9.723 -0.2572  0.5804 -0.4966
  923MPD2     H13563   2.239   1.678   9.828 -2.5955  0.7695 -1.7942
  923MPD2    H113564   2.373   1.289   9.742  0.1099  0.1649 -2.1870
  923MPD2    H213565   1.963   1.387   9.667  0.6415 -0.9007  0.9292
  923MPD2    H313566   2.125   1.239   9.684  0.1905  0.2302  0.0054
  923MPD2     N13567   2.462   1.518   9.819 -0.5427  0.2877 -0.4173
  923MPD2    H513568   2.531   1.456   9.778 -1.9703  1.5447 -4.7418
  923MPD2    N113569   1.987   1.656   9.729  0.5093  0.4067  0.0989
  923MPD2    H713570   1.910   1.628   9.669  1.7080 -1.1382 -0.7194
  924MPD2     C13571   2.495   3.563  14.948  0.0165  0.7182 -0.9564
  924MPD2    C113572   2.585   3.612  15.035  0.7475  0.3723 -0.0768
  924MPD2    C213573   2.681   3.699  14.990 -0.1751  0.0723 -0.3712
  924MPD2    C313574   2.684   3.734  14.858 -0.3562 -0.1545 -0.2963
  924MPD2    C413575   2.584   3.685  14.770  0.2792  0.7449 -0.4479
  924MPD2    C513576   2.492   3.595  14.819  0.2387  0.2867 -0.4740
  924MPD2     H13577   2.749   3.742  15.063 -1.8938  2.2610 -0.0456
  924MPD2    H113578   2.588   3.705  14.663 -2.4243 -0.1830 -0.7277
  924MPD2    H213579   2.424   3.490  14.986  0.2945  0.3660 -1.1175
  924MPD2    H313580   2.419   3.547  14.755 -1.0810  0.2558  1.0604
  924MPD2     N13581   2.786   3.808  14.793  0.4572 -0.3398  0.0811
  924MPD2    H513582   2.781   3.819  14.692  1.2953  1.1943  0.2142
  924MPD2    N113583   2.582   3.582  15.174  0.1673 -0.2591  0.6430
  924MPD2    H713584   2.649   3.637  15.227  1.4029 -2.0948  0.9890
  925MPD2     C13585   1.635   1.676  14.588  0.8687  0.3476 -0.2085
  925MPD2    C113586   1.519   1.745  14.583  0.4744  0.4464  0.3608
  925MPD2    C213587   1.429   1.741  14.693  0.2444 -0.5395  0.6978
  925MPD2    C313588   1.455   1.658  14.803 -0.0036  0.2969  0.3280
  925MPD2    C413589   1.581   1.596  14.806  0.3050 -0.2225 -0.1190
  925MPD2    C513590   1.669   1.606  14.699 -0.1174  0.1954  0.9726
  925MPD2     H13591   1.341   1.805  14.693  0.2958 -0.4739 -0.6501
  925MPD2    H113592   1.613   1.542  14.895  0.1199 -2.1374 -1.2012
  925MPD2    H213593   1.695   1.665  14.499  0.2455  0.5704 -0.6597
  925MPD2    H313594   1.764   1.555  14.707  1.2667  2.3324 -1.7353
  925MPD2     N13595   1.367   1.634  14.912 -0.8004 -0.3387 -0.5606
  925MPD2    H513596   1.413   1.575  14.981  1.3865 -0.2114 -1.9145
  925MPD2    N113597   1.475   1.820  14.474  0.0559 -0.3666  0.5730
  925MPD2    H713598   1.389   1.873  14.481 -0.7185 -1.5593  0.0815
  926MPD2     C13599   4.579   0.258  13.085  0.2236 -0.5589  0.0018
  926MPD2    C113600   4.558   0.360  13.174  0.8162  0.0622  0.2852
  926MPD2    C213601   4.637   0.474  13.173  0.9302 -0.0284  0.0585
  926MPD2    C313602   0.016   0.479  13.087 -0.3026 -0.2871 -0.1504
  926MPD2    C413603   0.038   0.374  13.007  0.1269  0.0044  0.7585
  926MPD2    C513604   4.685   0.273  13.004  0.1256 -0.3246  0.5668
  926MPD2     H13605   4.600   0.557  13.232  0.0936 -0.5773  0.3053
  926MPD2    H113606   0.124   0.379  12.941  1.8896 -0.6890  2.9949
  926MPD2    H213607   4.531   0.160  13.080  1.2414 -1.0457 -0.3904
  926MPD2    H313608   4.710   0.199  12.929  1.8173  0.5585  0.2608
  926MPD2     N13609   0.108   0.589  13.085 -0.1415 -0.1928 -1.0756
  926MPD2    H513610   0.189   0.578  13.024  0.1880  0.1043 -0.6900
  926MPD2    N113611   4.442   0.364  13.255 -0.4853 -0.1027  0.1098
  926MPD2    H713612   4.444   0.428  13.333  3.0455 -0.8192  0.6188
  927MPD2     C13613   3.775   3.021  17.029  0.2244  0.3273  0.2264
  927MPD2    C113614   3.878   3.097  17.075 -0.2230 -0.2858  0.1886
  927MPD2    C213615   3.977   3.144  16.991 -0.4059 -0.4608  0.8993
  927MPD2    C313616   3.971   3.112  16.858 -0.3120  0.1695 -0.5886
  927MPD2    C413617   3.868   3.037  16.811  0.4023  0.4277  0.0446
  927MPD2    C513618   3.761   3.009  16.895 -0.6528  0.1970  0.3700
  927MPD2     H13619   4.062   3.198  17.032 -0.6712  0.1550  0.6487
  927MPD2    H113620   3.858   3.022  16.704  3.2920 -2.2314  0.1625
  927MPD2    H213621   3.699   2.983  17.096  3.0470  1.1746  3.8449
  927MPD2    H313622   3.680   2.948  16.856 -0.1849  0.7661 -1.4924
  927MPD2     N13623   4.071   3.164  16.772 -0.0646  0.4324 -0.3683
  927MPD2    H513624   4.137   3.230  16.811  1.3659  0.2947 -2.5616
  927MPD2    N113625   3.888   3.090  17.215  0.1244 -0.4158  0.2353
  927MPD2    H713626   3.816   3.035  17.261 -0.3008 -0.8247 -0.9167
  928MPD2     C13627   2.140   1.176   0.484 -0.2833  0.2815 -0.5406
  928MPD2    C113628   2.226   1.259   0.553  0.1356 -0.0423 -1.1217
  928MPD2    C213629   2.326   1.325   0.485  0.3998 -0.1023  0.1258
  928MPD2    C313630   2.336   1.301   0.349 -0.7539  0.4471 -0.5621
  928MPD2    C413631   2.255   1.212   0.283 -0.9358 -0.0306  0.1692
  928MPD2    C513632   2.152   1.151   0.350  0.7805  0.1602 -0.2485
  928MPD2     H13633   2.392   1.388   0.544 -1.2959  1.6841  0.0814
  928MPD2    H113634   2.263   1.195   0.176  0.0385  0.4690  0.1639
  928MPD2    H213635   2.062   1.119   0.532  1.1425 -1.0090  0.2293
  928MPD2    H313636   2.101   1.069   0.300  0.0437 -0.4111  1.4564
  928MPD2     N13637   2.445   1.362   0.277  0.4180  0.2936 -0.6209
  928MPD2    H513638   2.463   1.322   0.185 -0.3638  2.2113 -1.6074
  928MPD2    N113639   2.223   1.275   0.696 -0.3194 -0.3039 -0.4805
  928MPD2    H713640   2.293   1.335   0.739 -1.5021  0.4762  0.3457
  929MPD2     C13641   2.356   1.199  10.279 -0.5448  0.0645 -0.3333
  929MPD2    C113642   2.221   1.172  10.295  0.0355 -0.9157 -0.2377
  929MPD2    C213643   2.122   1.260  10.245  0.3985  0.7389 -0.3068
  929MPD2    C313644   2.166   1.366  10.167  0.6289  0.5628  0.2594
  929MPD2    C413645   2.301   1.388  10.155 -1.0617  0.2238 -0.3950
  929MPD2    C513646   2.396   1.311  10.217  0.7468  0.2219  0.1543
  929MPD2     H13647   2.020   1.261  10.281  1.0461  1.3114  1.4763
  929MPD2    H113648   2.331   1.463  10.083  0.5821 -0.6821 -0.6439
  929MPD2    H213649   2.426   1.130  10.325 -0.4803  0.7671  0.6264
  929MPD2    H313650   2.500   1.336  10.200  1.2870 -2.4786 -0.5174
  929MPD2     N13651   2.076   1.460  10.114 -0.3689 -0.4304  0.3573
  929MPD2    H513652   2.117   1.548  10.084 -1.0182 -0.0616  0.5304
  929MPD2    N113653   2.195   1.065  10.377 -0.0890  0.6687  0.1767
  929MPD2    H713654   2.281   1.023  10.411  0.7882  1.2774 -1.2838
  930MPD2     C13655   4.350   3.017  13.342  0.1897  0.2237  0.9513
  930MPD2    C113656   4.292   3.139  13.327  0.4910  0.4084 -0.4568
  930MPD2    C213657   4.240   3.179  13.205 -0.2587  1.0340 -0.2089
  930MPD2    C313658   4.294   3.125  13.093  0.3001 -0.3576 -0.7050
  930MPD2    C413659   4.356   2.998  13.105 -0.6179 -0.2581  0.0903
  930MPD2    C513660   4.383   2.945  13.226 -0.7043  0.5217 -0.3674
  930MPD2     H13661   4.201   3.280  13.198  3.2533  2.5318  1.3080
  930MPD2    H113662   4.399   2.940  13.024 -1.3338  0.8994 -1.1186
  930MPD2    H213663   4.375   2.975  13.439  1.1916  0.2215  0.6962
  930MPD2    H313664   4.435   2.851  13.239 -0.0090  1.1036  1.1112
  930MPD2     N13665   4.294   3.200  12.970  0.0911 -0.3950  0.1509
  930MPD2    H513666   4.259   3.295  12.971  2.4989  0.4758 -1.8060
  930MPD2    N113667   4.301   3.222  13.445 -0.1742  0.2340  0.4133
  930MPD2    H713668   4.359   3.199  13.525  0.9074 -0.5742 -0.6127
  931MPD2     C13669   4.573   3.091  17.604  0.5444  0.2065 -0.8001
  931MPD2    C113670   4.471   3.136  17.688 -0.6056 -0.2356  0.0430
  931MPD2    C213671   4.505   3.177   0.084  0.3647  0.3037 -0.5662
  931MPD2    C313672   4.638   3.187   0.118 -0.0369  0.5005 -0.2955
  931MPD2    C413673   0.001   3.138   0.032  0.2433  0.0372  0.0780
  931MPD2    C513674   4.701   3.089  17.648 -0.6053 -0.3335 -0.5990
  931MPD2     H13675   4.423   3.208   0.147  0.4893 -0.6523  0.0604
  931MPD2    H113676   0.106   3.149   0.059  0.1804 -0.2622  0.4497
  931MPD2    H213677   4.550   3.050  17.507 -0.6803 -0.3480 -0.2814
  931MPD2    H313678   0.043   3.052  17.580  3.1597  0.3296  3.2335
  931MPD2     N13679   4.670   3.234   0.244  0.1829  0.3351 -0.0358
  931MPD2    H513680   0.031   3.220   0.274 -0.1286 -0.1293  0.7464
  931MPD2    N113681   4.335   3.137  17.636  0.0395 -0.3707  0.1640
  931MPD2    H713682   4.321   3.133  17.536  0.4114 -0.3561  0.1126
  932MPD2     C13683   1.080   2.088  10.911 -0.4270  0.2042  0.0475
  932MPD2    C113684   1.216   2.104  10.926  0.0524 -0.2567 -0.5955
  932MPD2    C213685   1.303   2.003  10.914  0.5446  0.2083 -0.3913
  932MPD2    C313686   1.249   1.868  10.912 -0.3075 -0.2176  0.6440
  932MPD2    C413687   1.111   1.857  10.914  0.0436 -0.6234  0.3781
  932MPD2    C513688   1.026   1.959  10.917  0.0894  0.2575 -0.3886
  932MPD2     H13689   1.411   2.010  10.904  0.3238  1.0473 -2.0428
  932MPD2    H113690   1.061   1.761  10.925  0.4744 -0.5907  2.5640
  932MPD2    H213691   1.002   2.163  10.917 -0.6217  0.0232 -0.1705
  932MPD2    H313692   0.918   1.950  10.917  0.0130  0.9620  1.2553
  932MPD2     N13693   1.319   1.749  10.918 -0.4075 -0.1866 -0.4160
  932MPD2    H513694   1.261   1.665  10.918  1.4647 -1.4693 -0.9891
  932MPD2    N113695   1.274   2.233  10.925 -0.3247  0.3212  0.9222
  932MPD2    H713696   1.375   2.238  10.939 -0.1496  2.9520 -1.1022
  933MPD2     C13697   1.697   1.160   1.323  0.1173  0.3839  0.5295
  933MPD2    C113698   1.796   1.247   1.291  0.6342 -0.5057 -0.2018
  933MPD2    C213699   1.772   1.382   1.295  0.3249 -0.0681  0.1346
  933MPD2    C313700   1.645   1.427   1.327 -0.4229  0.4470 -0.4526
  933MPD2    C413701   1.548   1.340   1.366  0.6667 -0.0675 -0.0697
  933MPD2    C513702   1.573   1.204   1.365 -0.5210 -0.2329 -0.2928
  933MPD2     H13703   1.853   1.445   1.261 -1.5395  1.8662 -0.7257
  933MPD2    H113704   1.446   1.362   1.395  0.2911  0.7607 -1.9850
  933MPD2    H213705   1.709   1.052   1.323  0.7161  0.4475  3.2336
  933MPD2    H313706   1.499   1.136   1.405 -0.0359 -1.0526 -0.7693
  933MPD2     N13707   1.636   1.569   1.303  0.9882 -0.2994  0.2309
  933MPD2    H513708   1.720   1.622   1.287 -1.0101  2.5884 -0.7648
  933MPD2    N113709   1.914   1.176   1.242  0.0544  0.1712 -0.4002
  933MPD2    H713710   1.927   1.077   1.226  1.8684  0.5582 -1.2852
  934MPD2     C13711   3.365   4.153   1.702 -0.1697 -0.3971  0.7121
  934MPD2    C113712   3.449   4.064   1.640  0.2977  0.4144 -0.0234
  934MPD2    C213713   3.389   3.974   1.555 -0.0389 -0.6960 -0.4535
  934MPD2    C313714   3.253   3.961   1.534  0.9088 -0.3589  0.1795
  934MPD2    C413715   3.176   4.049   1.599 -0.3840 -0.0682  0.1849
  934MPD2    C513716   3.230   4.146   1.671  0.0879 -0.0922  0.0335
  934MPD2     H13717   3.454   3.906   1.502  0.3405 -0.5037 -0.2356
  934MPD2    H113718   3.068   4.056   1.595 -0.2810  1.2599 -0.1883
  934MPD2    H213719   3.382   4.230   1.777 -0.1938  1.1502 -0.8904
  934MPD2    H313720   3.163   4.210   1.726 -2.0720 -3.3456  1.1717
  934MPD2     N13721   3.182   3.866   1.453  0.3416 -0.5211  0.6992
  934MPD2    H513722   3.081   3.873   1.454  0.3903  0.3505 -1.2399
  934MPD2    N113723   3.589   4.051   1.661  0.0966 -0.0964  0.5488
  934MPD2    H713724   3.641   3.999   1.591  1.0873  1.5288  0.0743
  935MPD2     C13725   3.507   3.122   0.821  1.3944  0.1655  0.1265
  935MPD2    C113726   3.375   3.104   0.848  0.2220  0.1896  0.3057
  935MPD2    C213727   3.306   3.204   0.911  0.0262 -0.2330  0.1273
  935MPD2    C313728   3.368   3.330   0.947 -0.0407  0.3952 -0.4205
  935MPD2    C413729   3.504   3.348   0.925  0.3662 -0.1604  0.3707
  935MPD2    C513730   3.570   3.241   0.863 -0.7649 -0.4285 -0.2160
  935MPD2     H13731   3.205   3.173   0.934 -0.5546  0.5073 -1.4078
  935MPD2    H113732   3.565   3.430   0.961 -0.4855 -0.0248  1.5332
  935MPD2    H213733   3.570   3.054   0.765 -1.0988 -1.8420 -0.2318
  935MPD2    H313734   3.677   3.235   0.852 -0.7041  0.4775 -0.0785
  935MPD2     N13735   3.299   3.430   1.017 -0.0709  0.0539 -0.2644
  935MPD2    H513736   3.354   3.516   1.022  0.9866 -0.5666 -1.0175
  935MPD2    N113737   3.302   2.983   0.812  0.1068  0.2104 -0.0634
  935MPD2    H713738   3.203   2.978   0.836  0.4335 -2.7204  0.7023
  936MPD2     C13739   2.218   0.248  12.861 -0.4148  0.4625 -0.1534
  936MPD2    C113740   2.132   0.301  12.767  0.0002  0.5154 -0.0370
  936MPD2    C213741   2.155   0.272  12.636  0.0335  0.6436  0.3606
  936MPD2    C313742   2.274   0.208  12.596 -0.8036 -0.0563 -0.3899
  936MPD2    C413743   2.359   0.164  12.692  0.0767 -0.4960 -0.2644
  936MPD2    C513744   2.339   0.186  12.828  0.4339  0.9843  0.0578
  936MPD2     H13745   2.086   0.324  12.569  0.8638  0.1858 -0.8593
  936MPD2    H113746   2.450   0.110  12.668 -0.1286 -0.2767 -1.5549
  936MPD2    H213747   2.212   0.277  12.965  0.5522 -0.1811  0.0779
  936MPD2    H313748   2.408   0.152  12.904 -0.8729 -1.6838  0.0442
  936MPD2     N13749   2.308   0.208  12.459  0.4398  0.0965  0.4179
  936MPD2    H513750   2.240   0.253  12.398  2.3125  0.0495 -1.7054
  936MPD2    N113751   2.033   0.399  12.796  0.1099 -0.2833  0.6094
  936MPD2    H713752   1.981   0.434  12.716 -1.2496  0.6616  1.9113
  937MPD2     C13753   4.609   1.513  11.421  0.4474 -0.0684 -0.0048
  937MPD2    C113754   4.644   1.633  11.450 -0.3961 -0.4510 -0.4169
  937MPD2    C213755   4.684   1.718  11.349  0.2622  0.0363  0.0274
  937MPD2    C313756   4.712   1.668  11.221  0.0828  0.5214  0.1245
  937MPD2    C413757   4.679   1.541  11.189 -0.1424 -0.2304 -0.3665
  937MPD2    C513758   4.614   1.475  11.286  0.5154 -0.3289  0.2624
  937MPD2     H13759   4.696   1.825  11.363 -1.4721  0.2466 -0.0784
  937MPD2    H113760   4.694   1.504  11.088  0.5717 -2.7500  0.6617
  937MPD2    H213761   4.566   1.447  11.495  2.0424  0.0427  1.0150
  937MPD2    H313762   4.571   1.381  11.254  0.2256 -0.1151  0.0279
  937MPD2     N13763   0.026   1.758  11.125 -0.4918 -0.2425 -0.0396
  937MPD2    H513764   0.059   1.847  11.160  2.6412 -1.7238  0.8368
  937MPD2    N113765   4.605   1.693  11.569 -0.0807  0.0769 -0.3610
  937MPD2    H713766   4.596   1.794  11.565 -0.8715  0.0356  0.3541
  938MPD2     C13767   2.307   3.769   0.560  0.2636  0.1548  0.7668
  938MPD2    C113768   2.388   3.762   0.669  1.0024  0.4330  1.4375
  938MPD2    C213769   2.435   3.635   0.706  0.2491  0.1845 -0.2189
  938MPD2    C313770   2.399   3.520   0.636  0.1820 -0.0776  0.0690
  938MPD2    C413771   2.333   3.537   0.515  0.1382 -0.8024  0.1313
  938MPD2    C513772   2.296   3.657   0.483 -0.1902  0.0098 -0.0672
  938MPD2     H13773   2.478   3.624   0.805 -1.0598 -0.6529  0.2528
  938MPD2    H113774   2.297   3.459   0.448  0.8544 -2.1668  1.3201
  938MPD2    H213775   2.263   3.862   0.527 -0.0994 -0.6937 -1.1229
  938MPD2    H313776   2.249   3.675   0.386 -2.4575  0.1268  1.0486
  938MPD2     N13777   2.434   3.389   0.668 -0.5686  0.3278 -0.2995
  938MPD2    H513778   2.428   3.323   0.591  2.2937  0.1117 -0.3478
  938MPD2    N113779   2.413   3.863   0.757 -0.0846 -0.4414 -0.4004
  938MPD2    H713780   2.493   3.859   0.819  0.1590 -2.9104 -0.8701
  939MPD2     C13781   3.790   4.214   0.836  0.0477 -0.6870  0.6072
  939MPD2    C113782   3.771   4.343   0.784 -0.8280  0.5577 -0.1585
  939MPD2    C213783   3.722   4.345   0.655 -0.0919 -0.5702 -0.5426
  939MPD2    C313784   3.687   4.231   0.581 -0.6156  0.6498 -0.2640
  939MPD2    C413785   3.700   4.109   0.646  0.2913  0.2888  0.4325
  939MPD2    C513786   3.753   4.102   0.768 -0.1773  0.5461 -0.1139
  939MPD2     H13787   3.697   4.443   0.613  0.7099  0.6136  1.7814
  939MPD2    H113788   3.673   4.023   0.586 -0.8161  1.1799 -0.3544
  939MPD2    H213789   3.799   4.195   0.942 -1.7753  1.4135  1.1312
  939MPD2    H313790   3.764   4.005   0.815  1.7979  0.1255 -1.4620
  939MPD2     N13791   3.645   4.249   0.450 -0.0049 -0.2590  0.3186
  939MPD2    H513792   3.630   4.346   0.423  0.5245 -0.3030 -0.1500
  939MPD2    N113793   3.797   4.453   0.867  0.0681 -0.4976  0.0506
  939MPD2    H713794   3.834   4.432   0.959 -0.4993  0.7539  0.5657
  940MPD2     C13795   2.884   4.534  12.389  0.0088  0.2205 -0.5782
  940MPD2    C113796   2.780   4.616  12.404  0.2712  0.9188  0.0535
  940MPD2    C213797   2.661   4.564  12.373 -0.4965 -0.5588  0.2376
  940MPD2    C313798   2.641   4.430  12.328 -0.1170  0.6207 -0.1567
  940MPD2    C413799   2.751   4.349  12.311  0.5183  0.9335  0.3171
  940MPD2    C513800   2.870   4.412  12.331  0.0119 -0.0137  0.2501
  940MPD2     H13801   2.572   4.627  12.375 -0.9270 -1.1269 -0.8476
  940MPD2    H113802   2.753   4.252  12.262 -1.1893  1.2694 -0.4400
  940MPD2    H213803   2.986   4.563  12.413 -0.2988  2.2344 -1.7904
  940MPD2    H313804   2.955   4.348  12.308 -0.5851  0.3164 -2.9438
  940MPD2     N13805   2.511   4.393  12.282  0.5809 -0.0451  0.5495
  940MPD2    H513806   2.431   4.454  12.299 -0.3726 -1.6465  1.8160
  940MPD2    N113807   2.789   0.012  12.462  0.3379 -0.3506  0.6035
  940MPD2    H713808   2.698   0.054  12.478  0.1685 -0.3938 -0.2696
  941MPD2     C13809   1.105   0.246  10.569  0.2391  0.3374 -0.9279
  941MPD2    C113810   1.209   0.169  10.531  0.5670 -0.0903 -1.2245
  941MPD2    C213811   1.195   0.031  10.542 -0.3474 -0.0010  0.2699
  941MPD2    C313812   1.071   4.712  10.577  0.2415  0.5076  0.7614
  941MPD2    C413813   0.962   0.063  10.611 -0.4091  0.8590  0.4055
  941MPD2    C513814   0.987   0.193  10.600  0.2292  0.1535  0.4018
  941MPD2     H13815   1.279   4.706  10.508 -0.9693 -0.6656 -0.1261
  941MPD2    H113816   0.863   0.024  10.630 -0.7502  2.2147  1.4159
  941MPD2    H213817   1.104   0.354  10.556 -0.1607  0.5381  0.8212
  941MPD2    H313818   0.908   0.262  10.627 -2.4242 -2.6435 -0.2912
  941MPD2     N13819   1.041   4.573  10.566 -0.0271  0.5244  0.1428
  941MPD2    H513820   0.944   4.552  10.584  1.2115 -4.2118  1.2183
  941MPD2    N113821   1.328   0.216  10.469  0.5400  0.2018  0.1887
  941MPD2    H713822   1.400   0.152  10.438  2.0493  1.9095  0.1925
  942MPD2     C13823   0.869   1.730   9.413 -0.4046 -0.0865  0.4333
  942MPD2    C113824   0.840   1.599   9.375 -0.6105 -0.5213 -0.0341
  942MPD2    C213825   0.893   1.553   9.258  0.3540  0.2276 -0.0541
  942MPD2    C313826   0.942   1.644   9.166  0.3509  0.3159  0.0495
  942MPD2    C413827   0.966   1.779   9.195 -0.3905  0.2760  0.3602
  942MPD2    C513828   0.934   1.814   9.320  0.3531  0.2048 -0.1023
  942MPD2     H13829   0.888   1.446   9.241 -1.5303  0.1074  1.3372
  942MPD2    H113830   1.010   1.855   9.132 -0.4471  0.0065 -0.0061
  942MPD2    H213831   0.844   1.772   9.510 -1.6885  1.2278 -0.4572
  942MPD2    H313832   0.958   1.913   9.358 -0.1012  0.2173  0.1398
  942MPD2     N13833   0.961   1.591   9.036  0.3584  0.4100 -0.6347
  942MPD2    H513834   0.961   1.491   9.023  0.8132  0.1721  1.2851
  942MPD2    N113835   0.775   1.505   9.459  0.9690 -0.3100 -0.1776
  942MPD2    H713836   0.769   1.409   9.429 -0.2584 -1.3606  3.4427
  943MPD2     C13837   0.351   4.521  10.342 -0.3709 -0.1020  0.0081
  943MPD2    C113838   0.316   4.403  10.274 -0.0219  0.0692  0.0979
  943MPD2    C213839   0.273   4.416  10.143 -0.4237  0.4303  0.1520
  943MPD2    C313840   0.285   4.533  10.068 -0.4606 -0.6868  0.3377
  943MPD2    C413841   0.329   4.649  10.134  0.3501  0.5482  0.4158
  943MPD2    C513842   0.351   4.638  10.268 -0.4450  0.5025 -0.1072
  943MPD2     H13843   0.235   4.327  10.094 -0.0816 -0.8817  2.2302
  943MPD2    H113844   0.348   0.008  10.082  1.9845  0.6508  1.2085
  943MPD2    H213845   0.385   4.526  10.444  0.4239  1.0896 -0.3115
  943MPD2    H313846   0.387   4.722  10.328 -0.5939  0.2473  0.3416
  943MPD2     N13847   0.246   4.539   9.926 -0.7126 -0.2348 -0.2813
  943MPD2    H513848   0.253   4.632   9.886  0.0164  0.1037  0.6171
  943MPD2    N113849   0.329   4.283  10.346  0.0842 -0.7107 -0.7899
  943MPD2    H713850   0.333   4.297  10.447 -1.7578 -0.2587 -0.7826
  944MPD2     C13851   0.897   3.360  12.233  0.7878  0.1645 -0.1366
  944MPD2    C113852   0.868   3.230  12.187  0.0433  0.4891 -0.1477
  944MPD2    C213853   0.766   3.219  12.088  0.1473  0.3232 -0.3685
  944MPD2    C313854   0.693   3.329  12.046 -0.1831  0.5362 -0.7969
  944MPD2    C413855   0.710   3.448  12.104  0.0835 -1.1166 -0.3261
  944MPD2    C513856   0.812   3.470  12.196 -0.2785  0.9036  0.0066
  944MPD2     H13857   0.754   3.124  12.037  0.1625  0.1917 -0.1229
  944MPD2    H113858   0.654   3.532  12.066  0.1716 -1.7144 -1.8041
  944MPD2    H213859   0.973   3.375  12.308 -1.8735  0.1064  2.5843
  944MPD2    H313860   0.839   3.567  12.233 -1.8279  1.3484 -0.0289
  944MPD2     N13861   0.596   3.327  11.941  0.2347 -1.3676  0.1453
  944MPD2    H513862   0.525   3.399  11.946  0.2136 -1.6015  3.4195
  944MPD2    N113863   0.950   3.123  12.224 -0.2474 -0.1871 -0.1153
  944MPD2    H713864   1.038   3.149  12.266  0.7809 -2.5811 -0.7961
    1TMC1    C113865   3.178   4.045  14.465  0.4899 -0.6631 -0.2135
    1TMC1    C213866   3.299   3.981  14.444 -0.1103 -0.5970  0.5914
    1TMC1    C313867   3.304   3.900  14.332 -0.4708  0.4927  0.9547
    1TMC1    C413868   3.066   4.015  14.391  0.0009  0.0840  0.0666
    1TMC1    C513869   3.077   3.933  14.286 -0.8626  0.9544 -0.4258
    1TMC1    C613870   3.194   3.879  14.246  0.2697 -0.0933  0.5890
    1TMC1     C13871   3.184   4.178  14.532  0.6518 -0.9424  0.3384
    1TMC1     O13872   3.275   4.206  14.610 -1.0080 -0.0114 -0.0078
    1TMC1     H13873   3.392   4.001  14.494 -0.3219  1.8299  0.0099
    1TMC1    H113874   2.976   4.073  14.410 -0.7267 -0.6302 -1.2041
    1TMC1    H213875   3.214   3.828  14.152 -2.9013  0.7797 -0.5292
    1TMC1    C713876   2.960   3.894  14.207 -0.0819 -0.5253  0.3266
    1TMC1    C813877   3.442   3.857  14.306  0.1805 -0.1229  0.0277
    1TMC1    O113878   2.873   3.962  14.161 -0.2326  0.6666  0.7013
    1TMC1    O213879   3.531   3.868  14.391 -0.0476 -0.3599 -0.2124
    1TMC1    O313880   2.992   3.773  14.164 -0.1913 -0.0505  0.2303
    1TMC1    H313881   3.043   3.723  14.231  1.5685  1.0214 -0.2859
    1TMC1    O513882   3.448   3.794  14.180 -0.0920 -0.0878 -0.5851
    1TMC1    H513883   3.535   3.761  14.149 -0.8871 -3.8920  1.1780
    2MPD2     C13884   2.994   4.650  14.602 -0.2015  0.1298  0.7089
    2MPD2    C113885   2.936   4.601  14.488 -0.5765  0.5579  0.3443
    2MPD2    C213886   2.966   4.471  14.452 -0.3416 -0.4272 -0.2509
    2MPD2    C313887   3.058   4.394  14.521 -0.2403 -0.5707 -0.6689
    2MPD2    C413888   3.110   4.448  14.631 -0.2514 -0.0169  0.6411
    2MPD2    C513889   3.078   4.573  14.673  0.2098 -0.5092 -0.1602
    2MPD2     H13890   2.910   4.431  14.368 -2.6293  0.5180  0.8247
    2MPD2    H113891   3.186   4.399  14.690 -0.9750  1.0168  2.4246
    2MPD2    H213892   2.970   0.017  14.631 -3.3911  0.2515 -2.3396
    2MPD2    H313893   3.121   4.629  14.755 -2.0275  0.8568  0.0750
    2MPD2     N13894   3.090   4.264  14.479  0.0426  0.1784 -0.1493
    2MPD2    H513895   3.032   4.235  14.400 -0.1289 -2.2770  0.9016
    2MPD2    N113896   2.847   4.686  14.413 -0.0652 -0.3530 -0.2462
    2MPD2    H713897   2.826   0.037  14.465 -0.7484 -0.0957 -0.9604
    3TMC2    C113898   2.734   0.061  14.227  0.3922 -0.0487 -0.1898
    3TMC2    C213899   2.714   0.173  14.305 -1.3155  0.5384  0.4025
    3TMC2    C313900   2.663   0.283  14.239  0.3712  0.0290  0.1170
    3TMC2    C413901   2.693   0.052  14.101  0.4166 -0.6256  0.1699
    3TMC2    C513902   2.636   0.160  14.050 -0.2571 -1.2773  0.2407
    3TMC2    C613903   2.626   0.279  14.110 -0.2330  0.2507  0.3330
    3TMC2     C13904   2.803   4.668  14.284  0.1439 -0.3348  0.0842
    3TMC2     O13905   2.811   4.569  14.214  0.0047 -0.6390  0.0255
    3TMC2     H13906   2.755   0.185  14.405 -0.6273 -0.0512  0.1829
    3TMC2    H113907   2.700   4.691  14.050 -0.6919  0.2395 -1.5885
    3TMC2    H213908   2.591   0.364  14.053  0.0159 -0.5603 -1.0198
    3TMC2    C713909   2.610   0.148  13.906  1.1328  0.6309  0.1512
    3TMC2    C813910   2.648   0.408  14.306  0.3349 -0.2617  0.4757
    3TMC2    O113911   2.585   0.035  13.863  0.5936 -0.3128  0.0830
    3TMC2    O213912   2.662   0.417  14.425  0.2330 -0.1206 -0.4616
    3TMC2    O513913   2.684   0.505  14.220  0.2366 -0.2890 -0.0606
    3TMC2    H513914   2.718   0.480  14.131  0.7948 -1.8428  0.5930
    4TMC2    C113915   2.939   0.915  13.357 -0.5610  0.1816  0.5547
    4TMC2    C213916   2.985   1.006  13.449 -0.0203  0.3875  0.5521
    4TMC2    C313917   2.969   0.975  13.577 -0.0417 -0.6294 -0.3054
    4TMC2    C413918   2.884   0.794  13.395  0.5333  0.0818  0.0286
    4TMC2    C513919   2.849   0.783  13.529  0.1728  0.4541  0.2425
    4TMC2    C613920   2.898   0.868  13.619 -0.3854 -0.0236 -0.5608
    4TMC2     C13921   2.991   0.932  13.219  0.2582 -0.3250  0.3739
    4TMC2     O13922   3.074   1.020  13.207  0.2817 -0.1316  0.7907
    4TMC2     H13923   3.048   1.091  13.428  1.1445  0.0435  2.6431
    4TMC2    H113924   2.836   0.727  13.324 -0.2049  2.2010 -1.4711
    4TMC2    H213925   2.886   0.860  13.727 -2.6112 -1.2036 -0.9031
    4TMC2    C713926   2.783   0.670  13.577 -0.0341  0.3384 -0.0216
    4TMC2    C813927   3.022   1.058  13.682 -0.5587 -0.7744 -0.2982
    4TMC2    O113928   2.731   0.692  13.686 -0.3466 -0.0312  0.3435
    4TMC2    O213929   3.047   1.014  13.792  0.1408 -0.1848 -0.1811
    4TMC2    O513930   3.069   1.180  13.648  0.1195  0.2366  0.4346
    4TMC2    H513931   3.012   1.226  13.583  1.1559  2.1378  0.8525
    5MPD2     C13932   2.940   0.880  12.715 -0.1620 -0.3200  0.6855
    5MPD2    C113933   2.852   0.792  12.779 -0.6879 -0.0449  0.1233
    5MPD2    C213934   2.849   0.782  12.914  0.2582  0.6517  0.1604
    5MPD2    C313935   2.923   0.861  12.998  0.3701  0.6060 -0.3721
    5MPD2    C413936   3.004   0.945  12.930  0.5582  0.2842  0.5801
    5MPD2    C513937   3.022   0.951  12.790 -0.8119  0.1674 -0.1841
    5MPD2     H13938   2.773   0.726  12.966  1.3345 -0.9393  0.0420
    5MPD2    H113939   3.074   1.010  12.982  1.0533  1.0600 -1.0479
    5MPD2    H213940   2.942   0.871  12.607 -1.9071 -0.8554  0.6917
    5MPD2    H313941   3.100   1.009  12.741 -0.0620  1.1330  2.1671
    5MPD2     N13942   2.912   0.853  13.136 -0.3947 -0.1187 -0.1214
    5MPD2    H513943   2.840   0.792  13.175  1.0816 -0.3787  2.1932
    5MPD2    N113944   2.765   0.716  12.696  0.3469 -0.0982 -0.2031
    5MPD2    H713945   2.750   0.742  12.599 -0.4533 -0.0230 -0.0593
    6MPD1     C13946   1.807   1.921  13.087 -0.4364  0.9164 -0.3042
    6MPD1    C113947   1.939   1.900  13.049  0.3713  0.4873  0.5913
    6MPD1    C213948   1.957   1.804  12.950  0.7705 -0.7444 -0.0301
    6MPD1    C313949   1.863   1.710  12.919  0.3689 -0.4729 -0.7857
    6MPD1    C413950   1.735   1.732  12.970  0.2685 -0.1615 -0.0162
    6MPD1    C513951   1.704   1.838  13.049 -0.0114 -0.2345  0.3924
    6MPD1     H13952   2.058   1.795  12.912  0.5288 -1.3274 -0.5528
    6MPD1    H113953   1.660   1.659  12.942  0.6428 -0.1888 -0.9634
    6MPD1    H213954   1.778   2.004  13.150  1.2433 -0.2499  2.0161
    6MPD1    H313955   1.606   1.842  13.094  0.3161  0.4855  1.0401
    6MPD1     N13956   1.880   1.594  12.843 -0.2207  0.2534  0.2453
    6MPD1    H513957   1.820   1.513  12.848  0.2264 -0.0857  0.1369
    6MPD1    N113958   2.035   1.995  13.083 -0.2377 -0.6277  0.1659
    6MPD1    H613959   2.025   2.038  13.174 -0.3780  1.5648 -0.8615
    6MPD1    H713960   2.128   1.955  13.074  0.0530  0.4975 -1.9966
    7MPD2     C13961   2.220   0.901  13.044 -0.2820  0.3638 -0.7509
    7MPD2    C113962   2.213   0.920  12.909  0.4881  0.3233 -0.2965
    7MPD2    C213963   2.243   0.816  12.821 -0.3458  0.7314 -0.5822
    7MPD2    C313964   2.299   0.705  12.868  0.7279  0.0953 -0.7031
    7MPD2    C413965   2.320   0.688  13.002 -0.8644  0.0237  0.1440
    7MPD2    C513966   2.282   0.788  13.090 -0.7941 -0.0259 -0.4133
    7MPD2     H13967   2.234   0.831  12.714 -0.1930  0.7346 -0.5948
    7MPD2    H113968   2.373   0.601  13.039 -2.2416 -0.1867  1.5855
    7MPD2    H213969   2.190   0.978  13.114  1.9142 -1.5688  2.3274
    7MPD2    H313970   2.284   0.773  13.197  0.7945 -0.9432 -0.5758
    7MPD2     N13971   2.334   0.596  12.780 -0.5372  0.6577  0.1232
    7MPD2    H513972   2.403   0.534  12.821 -1.1308  0.8936  1.5112
    7MPD2    N113973   2.171   1.038  12.847 -0.4873  0.2926  0.0640
    7MPD2    H713974   2.179   1.036  12.745 -0.9491  0.6587  0.0241
    8TMC3    C113975   2.414   0.515  12.577  0.4525  0.1461 -0.4721
    8TMC3    C213976   2.527   0.479  12.656 -0.1127  0.2354  0.2123
    8TMC3    C313977   2.649   0.529  12.619  0.4034  0.9557 -0.5739
    8TMC3    C413978   2.422   0.568  12.452  0.3638  0.1281 -0.3602
    8TMC3    C513979   2.550   0.617  12.418 -0.1423  0.1495 -0.0603
    8TMC3    C613980   2.663   0.593  12.499  0.1687 -0.4076  0.2839
    8TMC3     C13981   2.308   0.590  12.641 -0.2406  0.5274  0.4322
    8TMC3     O13982   2.227   0.655  12.567  0.2389 -0.3129 -0.0342
    8TMC3     H13983   2.519   0.427  12.750 -3.0814 -1.5534 -1.0387
    8TMC3    H113984   2.338   0.609  12.397 -0.8030 -0.1613  1.1714
    8TMC3    H213985   2.751   0.645  12.462 -0.0437 -0.5459 -0.4139
    8TMC3    C713986   2.554   0.756  12.376 -0.4077 -0.3733 -0.2352
    8TMC3    C813987   2.712   0.594  12.728  0.7859 -0.2588 -0.3512
    8TMC3    O113988   2.625   0.832  12.441 -0.5616  0.1116  0.1599
    8TMC3    O213989   2.700   0.542  12.843  0.0376  0.0861 -0.5444
    9TMC3    C113990   2.019   1.452  12.717 -0.5278  0.3422 -0.0218
    9TMC3    C213991   2.085   1.434  12.601 -0.6694 -0.3293 -0.0166
    9TMC3    C313992   2.181   1.341  12.593  0.5104  0.3201 -0.0742
    9TMC3    C413993   2.036   1.367  12.822 -0.1244 -0.3528 -0.6267
    9TMC3    C513994   2.116   1.259  12.798 -0.2585  0.7069 -0.6185
    9TMC3    C613995   2.202   1.246  12.688 -0.1910 -0.1436 -0.3793
    9TMC3     C13996   1.984   1.582  12.757  0.2011  0.5783  0.4208
    9TMC3     O13997   2.067   1.659  12.718 -0.3771  0.6783 -0.0615
    9TMC3     H13998   2.091   1.509  12.523 -3.4385  2.2507  2.1995
    9TMC3    H113999   1.980   1.366  12.916  1.7163  2.1139  0.5114
    9TMC3    H214000   2.269   1.162  12.675  1.0014  0.6252  0.7108
    9TMC3    C714001   2.141   1.159  12.903 -0.4790 -0.3083 -0.4213
    9TMC3    C814002   2.211   1.297  12.455  0.3582  0.5403 -0.6285
    9TMC3    O114003   2.108   1.184  13.020 -0.1767 -0.4416  0.1096
    9TMC3    O214004   2.135   1.337  12.366 -0.2090 -0.0407 -0.0315
   10MPD2     C14005   2.338   0.918  12.136 -0.2089  0.0155 -0.9057
   10MPD2    C114006   2.409   0.897  12.252 -0.5529 -0.4901  0.2359
   10MPD2    C214007   2.397   0.995  12.352 -1.1834 -0.4402 -0.2813
   10MPD2    C314008   2.311   1.104  12.336  0.2951  0.8545  0.4509
   10MPD2    C414009   2.246   1.120  12.216 -0.0681  0.4256 -0.0515
   10MPD2    C514010   2.264   1.032  12.118 -0.2085  0.1565  0.2229
   10MPD2     H14011   2.445   0.971  12.446  0.5333  0.9806 -0.7894
   10MPD2    H114012   2.187   1.210  12.202 -0.9898 -0.2937 -0.7277
   10MPD2    H214013   2.341   0.845  12.055 -0.6230  0.3212 -1.1944
   10MPD2    H314014   2.209   1.043  12.025 -1.3326  0.2410  0.9035
   10MPD2     N14015   2.305   1.197  12.445 -0.1758 -0.3675 -0.1452
   10MPD2    H514016   2.376   1.190  12.518  1.1286 -2.7787 -1.6511
   10MPD2    N114017   2.471   0.779  12.271 -0.8206  0.1603  0.1255
   10MPD2    H714018   2.443   0.698  12.215 -1.3224 -0.6432  1.5376
   11MPD2     C14019   2.673   0.166  13.617 -0.0574  0.5831  0.6554
   11MPD2    C114020   2.670   0.274  13.701  0.1183  0.0498 -0.1149
   11MPD2    C214021   2.715   0.398  13.669  0.4252 -0.5761 -0.2999
   11MPD2    C314022   2.740   0.427  13.542 -0.1996 -0.4695  0.8189
   11MPD2    C414023   2.746   0.324  13.451 -0.6539  0.0398 -0.0448
   11MPD2    C514024   2.714   0.199  13.488  0.4548  0.9526 -0.9659
   11MPD2     H14025   2.713   0.469  13.751 -1.9158 -0.1575 -0.7310
   11MPD2    H114026   2.766   0.342  13.346  1.0967  1.5662  0.5473
   11MPD2    H214027   2.641   0.065  13.639  0.2277  0.3398 -0.0582
   11MPD2    H314028   2.712   0.119  13.414  1.4837 -1.3013  1.4367
   11MPD2     N14029   2.786   0.553  13.497 -1.0016  0.4544  0.2061
   11MPD2    H514030   2.829   0.556  13.404  0.5772 -1.8947  0.8748
   11MPD2    N114031   2.650   0.261  13.843 -0.3488  0.0033 -0.1327
   11MPD2    H714032   2.683   0.338  13.899 -2.5487  0.9078 -0.0746
    1MPD1     C14033   1.324   2.423  17.031 -0.1996 -0.2444  0.2558
    1MPD1    C114034   1.373   2.295  17.063 -0.9076  0.0745 -0.0193
    1MPD1    C214035   1.506   2.276  17.034  0.6855 -0.0230  0.8589
    1MPD1    C314036   1.588   2.380  16.995 -0.0970  0.4870 -0.2050
    1MPD1    C414037   1.534   2.508  16.978 -0.4320 -0.1585 -0.2544
    1MPD1    C514038   1.402   2.525  16.988  0.9696 -0.3985 -0.3360
    1MPD1     H14039   1.538   2.172  17.036  0.2994 -0.2007 -2.2591
    1MPD1    H114040   1.589   2.596  16.945 -0.3446  0.2037  0.8480
    1MPD1    H214041   1.220   2.449  17.046 -0.5856 -0.3890 -2.1116
    1MPD1    H314042   1.348   2.613  16.955 -0.0634 -0.4799  1.1493
    1MPD1     N14043   1.725   2.357  16.975  0.2067 -0.1381  0.2659
    1MPD1    H514044   1.776   2.437  16.938 -0.9751 -0.2427 -1.6012
    1MPD1    N114045   1.282   2.190  17.066  0.8909 -0.2353  0.3273
    1MPD1    H614046   1.318   2.104  17.106 -1.0269 -1.8264 -1.3492
    1MPD1    H714047   1.186   2.217  17.085  0.4476  0.1723 -2.4833
    2MPD1     C14048   2.411   2.743  16.428 -0.1139  0.3296  0.1948
    2MPD1    C114049   2.473   2.622  16.438  0.8426  0.0100 -0.2158
    2MPD1    C214050   2.424   2.539  16.545 -0.2759 -0.7241  0.5789
    2MPD1    C314051   2.298   2.556  16.602  0.3024  0.6083 -0.3891
    2MPD1    C414052   2.236   2.673  16.575  0.0219 -0.4427  0.2115
    2MPD1    C514053   2.293   2.767  16.494  0.1899 -0.3297  0.5276
    2MPD1     H14054   2.475   2.448  16.572 -0.0129 -0.5104  0.8011
    2MPD1    H114055   2.143   2.702  16.622  0.8121 -0.6224  1.8922
    2MPD1    H214056   2.455   2.827  16.375  1.7071 -0.9637 -0.3387
    2MPD1    H314057   2.232   2.853  16.470  2.0288  0.5151 -1.1434
    2MPD1     N14058   2.250   2.451  16.689  0.2352  0.0485  0.1394
    2MPD1    H514059   2.292   2.359  16.699 -1.3122 -0.5154  1.5482
    2MPD1    N114060   2.609   2.607  16.404  0.4595 -0.1163 -0.4050
    2MPD1    H614061   2.632   2.511  16.381 -2.6224 -0.4204 -2.2181
    2MPD1    H714062   2.644   2.664  16.328 -1.0077 -0.3612 -1.2607
    3TMC3    C114063   2.085   2.345  16.826  0.3387 -0.4559 -0.1346
    3TMC3    C214064   2.138   2.223  16.787  0.4020  0.5446 -0.7131
    3TMC3    C314065   2.090   2.114  16.857  0.4017  0.0026  0.2519
    3TMC3    C414066   1.991   2.363  16.924 -0.0526  0.1468  0.1088
    3TMC3    C514067   1.934   2.251  16.984 -0.4850  0.2760  0.0319
    3TMC3    C614068   1.994   2.127  16.956 -0.0547 -0.6512 -0.3996
    3TMC3     C14069   2.134   2.459  16.755 -0.5753 -1.1827  0.3733
    3TMC3     O14070   2.064   2.554  16.761 -0.7617 -0.3878 -0.1417
    3TMC3     H14071   2.202   2.203  16.703  1.5962  1.5843 -0.0485
    3TMC3    H114072   1.946   2.461  16.935  0.2231  0.1412  1.2877
    3TMC3    H214073   1.936   2.049  17.003 -0.6319 -0.6557 -1.1334
    3TMC3    C714074   1.794   2.243  17.005  0.1647  0.3776 -0.3592
    3TMC3    C814075   2.140   1.985  16.817  0.0680 -0.5078 -0.2375
    3TMC3    O114076   1.746   2.142  17.057  0.3626  0.0947  0.5121
    3TMC3    O214077   2.163   1.980  16.697  0.4243  0.4451  0.1499
    4MPD1     C14078   2.208   1.489  16.892  0.2656 -0.4956  0.2053
    4MPD1    C114079   2.212   1.542  17.017  0.4522  1.0365  0.1037
    4MPD1    C214080   2.209   1.676  17.018  0.0984 -0.3769  0.9779
    4MPD1    C314081   2.180   1.756  16.909  0.0001  0.6197  0.0376
    4MPD1    C414082   2.184   1.696  16.782  0.1638 -0.3251  0.4091
    4MPD1    C514083   2.205   1.560  16.778  0.4108 -0.3641 -0.0590
    4MPD1     H14084   2.223   1.726  17.113  0.7435  0.7359  0.3006
    4MPD1    H114085   2.150   1.748  16.694 -0.6059 -1.2482  0.1623
    4MPD1    H214086   2.232   1.383  16.883  1.1337 -0.1918 -1.0130
    4MPD1    H314087   2.198   1.514  16.680  1.1551 -0.9533  0.1625
    4MPD1     N14088   2.155   1.898  16.923  1.5890 -0.1763 -0.5124
    4MPD1    H514089   2.142   1.936  17.016 -0.6088 -0.1694 -0.8225
    4MPD1    N114090   2.227   1.462  17.131  0.0473 -0.5619  0.3287
    4MPD1    H614091   2.175   1.496  17.212  1.6982  1.6200  0.4697
    4MPD1    H714092   2.198   1.367  17.108 -0.3702 -0.3876  0.1323
    1TCq1    O114093   2.373   1.453  11.408  0.0777  0.2334  0.0073
    1TCq1    C114094   2.334   1.449  11.542  0.1769  0.8326  0.4370
    1TCq1    O214095   2.407   1.465  11.638  0.2021 -0.3079  0.0882
    1TCq1    C214096   2.188   1.468  11.530 -0.2052 -0.1302 -0.1500
    1TCq1    C314097   2.126   1.410  11.420 -0.2342 -0.1409  0.0716
    1TCq1    C414098   2.040   1.490  11.350 -0.3787 -0.0737  0.5134
    1TCq1    C514099   1.986   1.602  11.402  0.3964  0.0333  0.6311
    1TCq1    C614100   2.033   1.648  11.526  0.1434 -0.1177 -0.1147
    1TCq1    C714101   2.132   1.581  11.588 -0.0015 -0.0668 -0.1767
    1TCq1    C814102   1.995   1.784  11.568  0.0008  0.8985  0.2595
    1TCq1    O414103   2.034   1.810  11.679  0.2066  0.2681 -0.3183
    1TCq1    C914104   1.983   1.437  11.230  0.1604  0.1689 -0.0030
    1TCq1    O514105   2.016   1.326  11.190  0.4329  0.4531  0.0713
    1TCq1    O614106   1.895   1.504  11.172  0.2561  0.2309  0.4583
    1TCq1    H114107   2.306   1.443  11.337 -2.3511  1.8715  2.0608
    1TCq1    H214108   2.158   1.318  11.373 -2.1636 -0.5261 -0.5015
    1TCq1    H314109   1.899   1.631  11.346  0.2646 -1.1400  0.2242
    1TCq1    H414110   2.182   1.622  11.675  0.7366  0.0682 -0.6608
    2MPD1     C14111   1.781   2.252  11.477  0.4434  0.8216 -0.6892
    2MPD1    C114112   1.745   2.167  11.379  0.3145 -0.0356  0.4286
    2MPD1    C214113   1.798   2.037  11.379 -0.2051 -0.1424 -1.1454
    2MPD1    C314114   1.887   1.996  11.477  0.2478  0.3649 -0.5531
    2MPD1    C414115   1.921   2.080  11.582 -0.0981 -0.2699  0.0305
    2MPD1    C514116   1.869   2.203  11.567 -0.1019  0.5904 -0.0168
    2MPD1     H14117   1.773   1.970  11.297  1.1861 -0.2154 -1.5113
    2MPD1    H114118   1.995   2.054  11.656  1.8198  1.5150 -1.2719
    2MPD1    H214119   1.757   2.358  11.483 -1.6593  0.2480  0.9912
    2MPD1    H314120   1.894   2.277  11.642 -0.1276 -0.5433  1.1026
    2MPD1     N14121   1.930   1.863  11.470 -0.6236 -1.1178 -0.0869
    2MPD1    H514122   1.898   1.806  11.392  0.9015 -1.4983 -0.4342
    2MPD1    N114123   1.663   2.209  11.276  0.7173 -0.3330  0.0551
    2MPD1    H614124   1.591   2.274  11.307  3.7454  2.5471  1.0219
    2MPD1    H714125   1.617   2.133  11.226  1.7250 -0.7164 -0.3081
    1TMC1    C114126   3.549   2.946   1.548 -0.0618  0.0479  0.4606
    1TMC1    C214127   3.423   2.903   1.547 -0.3527  0.3394  0.4218
    1TMC1    C314128   3.327   2.961   1.629 -0.0498  0.2422 -0.2377
    1TMC1    C414129   3.584   3.054   1.626 -0.7428  0.0852 -0.6310
    1TMC1    C514130   3.484   3.115   1.709 -0.4660 -0.2048 -0.0208
    1TMC1    C614131   3.361   3.060   1.719 -1.0922 -0.4045 -0.3097
    1TMC1     C14132   3.644   2.896   1.445 -0.3715 -0.7636  0.1228
    1TMC1     O14133   3.741   2.967   1.434 -0.3684 -0.2186  0.3935
    1TMC1     H14134   3.403   2.831   1.469  3.8174  0.7884 -1.0212
    1TMC1    H114135   3.684   3.096   1.625 -0.7969  0.2965  2.2221
    1TMC1    H214136   3.286   3.101   1.786  0.0385  1.5563 -0.2525
    1TMC1    C714137   3.521   3.214   1.805  0.8187 -0.1691 -0.2050
    1TMC1    C814138   3.193   2.911   1.621 -0.2077  0.3250 -0.6257
    1TMC1    O114139   3.595   3.308   1.776  0.3569  0.0413  0.0921
    1TMC1    O214140   3.096   2.974   1.665 -0.9405 -0.0342 -0.4086
    1TMC1    O314141   3.500   3.176   1.933 -0.3396  0.5634  0.0123
    1TMC1    H314142   3.464   3.085   1.943 -0.8425  0.8553  0.8110
    1TMC1    O514143   3.176   2.788   1.559  0.4550 -0.4921 -0.1648
    1TMC1    H514144   3.257   2.743   1.527  0.4721 -0.9274  0.5113
    2MPD1     C14145   3.858   2.532   1.146  0.3301 -0.1904  0.3449
    2MPD1    C114146   3.738   2.485   1.204  0.7700 -0.1950 -0.1646
    2MPD1    C214147   3.666   2.568   1.278  0.0444 -0.3673 -0.5628
    2MPD1    C314148   3.711   2.693   1.317 -0.8338  0.1829 -0.7406
    2MPD1    C414149   3.831   2.730   1.268  0.0304  0.6110 -0.0936
    2MPD1    C514150   3.897   2.658   1.176 -0.3134 -0.0270 -1.0624
    2MPD1     H14151   3.583   2.524   1.330 -0.4643  2.2035  0.8017
    2MPD1    H114152   3.876   2.824   1.295 -0.7186  1.0708 -0.4555
    2MPD1    H214153   3.923   2.475   1.082  1.3400 -0.2085  1.3860
    2MPD1    H314154   3.984   2.701   1.129 -0.8768  2.9139  0.5731
    2MPD1     N14155   3.617   2.769   1.390 -0.8379  0.0893  0.5298
    2MPD1    H514156   3.530   2.729   1.423 -1.3270 -0.9264 -1.9738
    2MPD1    N114157   3.696   2.360   1.173 -0.1998 -0.6346 -0.3259
    2MPD1    H614158   3.644   2.318   1.249 -1.2493  1.6265  0.1857
    2MPD1    H714159   3.764   2.286   1.154  1.6699  0.5332  1.7643
    1MPD1     C14160   3.013   1.715  12.144  0.2151 -0.4575  0.3540
    1MPD1    C114161   3.115   1.770  12.218  0.4712  0.0966 -1.0700
    1MPD1    C214162   3.239   1.710  12.211  0.0399  0.5045  0.4511
    1MPD1    C314163   3.267   1.602  12.128  0.5183  0.3799 -0.0716
    1MPD1    C414164   3.163   1.538  12.057  0.4338 -0.3256  0.4233
    1MPD1    C514165   3.041   1.607  12.065  0.2055  0.1538  0.2278
    1MPD1     H14166   3.315   1.759  12.272 -1.3816 -0.4010  2.9413
    1MPD1    H114167   3.176   1.454  11.989 -1.6968  0.0194 -0.4153
    1MPD1    H214168   2.914   1.758  12.145  1.3740  2.2079  1.5350
    1MPD1    H314169   2.972   1.579  11.987 -0.2542  0.4603  0.5212
    1MPD1     N14170   3.397   1.554  12.127 -0.7068  0.1555 -0.7067
    1MPD1    H514171   3.461   1.616  12.176  1.0767 -0.9596 -1.6302
    1MPD1    N114172   3.094   1.867  12.315 -0.6434 -0.3558 -0.3130
    1MPD1    H614173   3.174   1.928  12.334 -1.1100  0.2659 -0.3295
    1MPD1    H714174   3.008   1.921  12.313  0.2829  1.2565  3.4462
    2MPD1     C14175   3.373   2.176  10.359 -0.0478  0.2673 -0.1580
    2MPD1    C114176   3.265   2.123  10.415  0.2118  0.5749 -0.7575
    2MPD1    C214177   3.277   2.005  10.480  0.5935 -0.1965 -0.0626
    2MPD1    C314178   3.398   1.938  10.504  0.3612 -0.7817 -0.2240
    2MPD1    C414179   3.512   1.998  10.446  1.1184 -0.1539 -0.2499
    2MPD1    C514180   3.495   2.109  10.367 -0.1874 -0.2932 -0.4513
    2MPD1     H14181   3.188   1.970  10.532 -0.1447  2.2851  0.3471
    2MPD1    H114182   3.611   1.954  10.459  0.6059 -1.2261 -0.0206
    2MPD1    H214183   3.368   2.264  10.296  2.3812 -1.5280 -2.8415
    2MPD1    H314184   3.581   2.143  10.310  0.7025  1.6135  2.0413
    2MPD1     N14185   3.411   1.816  10.580 -0.1085 -0.0290 -0.8658
    2MPD1    H514186   3.494   1.760  10.565 -1.3388 -2.5192  1.6975
    2MPD1    N114187   3.140   2.181  10.389  0.3048 -0.2959 -0.8408
    2MPD1    H614188   3.064   2.159  10.453  0.8312  2.4778  0.7474
    2MPD1    H714189   3.147   2.282  10.373 -0.0591 -0.5582 -2.6089
    3MPD1     C14190   3.027   1.132  10.235 -0.2589 -0.3500  0.0930
    3MPD1    C114191   2.940   1.144  10.342 -0.6723  0.4130  0.2564
    3MPD1    C214192   2.982   1.189  10.459  0.4205  0.1275  0.5516
    3MPD1    C314193   3.117   1.216  10.480  0.1045 -0.7407 -0.1068
    3MPD1    C414194   3.206   1.188  10.377 -0.3534 -0.2094 -0.0354
    3MPD1    C514195   3.158   1.164  10.251  0.1953 -0.6286  0.2195
    3MPD1     H14196   2.907   1.200  10.537  1.2778 -1.9613  1.6844
    3MPD1    H114197   3.313   1.195  10.395 -0.2530 -0.8862 -0.3743
    3MPD1    H214198   2.990   1.092  10.141  0.9165 -0.5669 -0.2772
    3MPD1    H314199   3.230   1.144  10.174  1.1865  0.3162  0.9064
    3MPD1     N14200   3.149   1.280  10.602  0.2938 -0.3917 -0.3267
    3MPD1    H514201   3.072   1.307  10.662 -1.8345 -0.6689 -2.9456
    3MPD1    N114202   2.804   1.119  10.325  0.4216  0.1697  0.4857
    3MPD1    H614203   2.774   1.086  10.416  4.1024  2.7810  2.6273
    3MPD1    H714204   2.777   1.042  10.264  2.6827 -0.7750  0.6924
    4MPD2     C14205   4.015   1.789  11.889 -0.5650  0.8634 -0.3768
    4MPD2    C114206   4.013   1.656  11.877  0.0761  0.0792 -0.5336
    4MPD2    C214207   4.079   1.593  11.775 -0.6344 -0.1906 -0.0127
    4MPD2    C314208   4.134   1.659  11.672 -0.3290  0.2683  0.5542
    4MPD2    C414209   4.140   1.792  11.675 -0.4516  0.4039 -0.3795
    4MPD2    C514210   4.077   1.854  11.786 -0.0046  0.6209 -0.2083
    4MPD2     H14211   4.090   1.485  11.770  2.1281  0.0217  1.7097
    4MPD2    H114212   4.187   1.850  11.596 -0.2917  1.8277  0.7627
    4MPD2    H214213   3.959   1.844  11.963  0.3715 -0.3820  1.2587
    4MPD2    H314214   4.083   1.961  11.800 -2.0097  0.9729 -1.9902
    4MPD2     N14215   4.201   1.581  11.570 -0.1863  0.0334 -0.9169
    4MPD2    H514216   4.203   1.481  11.588 -2.0568  0.3418  1.0851
    4MPD2    N114217   3.939   1.577  11.962 -0.3827  0.2555  0.1442
    4MPD2    H714218   3.945   1.478  11.941 -2.0210  0.1728  0.1189
    5TMC3    C114219   3.800   1.489  12.126 -0.2614  0.3447 -0.1566
    5TMC3    C214220   3.664   1.509  12.126  0.3087  0.0627 -0.1266
    5TMC3    C314221   3.585   1.420  12.062  0.4656  0.5673 -0.4954
    5TMC3    C414222   3.848   1.371  12.072  0.1233 -0.4652 -0.2182
    5TMC3    C514223   3.767   1.285  12.011  0.5266 -0.3098  0.0076
    5TMC3    C614224   3.634   1.310  11.995  0.1704 -0.0963 -0.3450
    5TMC3     C14225   3.870   1.611  12.075  0.8908  0.1783  0.9001
    5TMC3     O14226   3.857   1.720  12.128  0.2016  0.0660  0.0439
    5TMC3     H14227   3.637   1.599  12.180  1.1901  0.5639 -0.5173
    5TMC3    H114228   3.955   1.359  12.081  0.1378  0.9858  1.5753
    5TMC3    H214229   3.567   1.244  11.941 -1.6839  0.4777  1.2343
    5TMC3    C714230   3.832   1.245  11.887 -0.4941 -0.7320  0.1356
    5TMC3    C814231   3.439   1.440  12.060  0.1469 -0.2150  0.5010
    5TMC3    O114232   3.927   1.313  11.860 -0.6772 -0.1265  0.1305
    5TMC3    O214233   3.377   1.351  12.004  0.3628  0.0846 -0.1290
    6TMC3    C114234   3.356   1.635  10.709 -0.1030 -0.1121 -0.5713
    6TMC3    C214235   3.260   1.539  10.710  0.0396  0.6819  0.1998
    6TMC3    C314236   3.296   1.408  10.747 -0.8351  0.8114  0.5348
    6TMC3    C414237   3.486   1.616  10.742 -0.6630 -0.9679 -0.0883
    6TMC3    C514238   3.521   1.488  10.762  0.8324  0.2828 -0.5704
    6TMC3    C614239   3.428   1.387  10.773  0.3455 -0.6651  0.2220
    6TMC3     C14240   3.310   1.760  10.656  0.2345  0.2886 -0.1814
    6TMC3     O14241   3.198   1.791  10.674  0.1783  0.0408 -0.4262
    6TMC3     H14242   3.164   1.558  10.664  0.5306  1.5320 -0.4844
    6TMC3    H114243   3.559   1.696  10.738 -1.0855 -0.6359 -1.0467
    6TMC3    H214244   3.459   1.285  10.791 -0.4484 -0.7933  0.8424
    6TMC3    C714245   3.657   1.458  10.798 -0.4692 -0.0413 -0.0288
    6TMC3    C814246   3.276   1.318  10.634  1.0441  0.1921 -0.4703
    6TMC3    O114247   3.682   1.353  10.855 -0.7315  0.4065  0.8837
    6TMC3    O214248   3.380   1.290  10.579  0.4047  0.4134  0.0994
    7MPD2     C14249   3.934   0.938  11.479 -0.1825  0.5984  0.5842
    7MPD2    C114250   3.993   1.052  11.534 -0.3428 -0.5268  0.3475
    7MPD2    C214251   3.939   1.112  11.646  0.4816  0.3248 -0.3706
    7MPD2    C314252   3.849   1.061  11.725 -0.0743  0.2321  0.6879
    7MPD2    C414253   3.798   0.943  11.678  0.4715 -0.3664 -0.2013
    7MPD2    C514254   3.829   0.886  11.557  0.6167 -0.0356  0.0810
    7MPD2     H14255   3.974   1.212  11.668  2.5860 -0.7011  0.8660
    7MPD2    H114256   3.715   0.896  11.729  0.6448 -0.6698 -0.2011
    7MPD2    H214257   3.972   0.888  11.391 -0.5793  0.2850  0.5898
    7MPD2    H314258   3.799   0.784  11.539 -0.7031  0.4764 -0.5982
    7MPD2     N14259   3.796   1.125  11.841 -0.2271  0.6325  0.2210
    7MPD2    H514260   3.725   1.077  11.895  0.2366  2.9735  2.9145
    7MPD2    N114261   4.103   1.104  11.465  0.0463 -0.0599 -0.8345
    7MPD2    H714262   4.125   1.072  11.371  0.9112 -3.3786  0.5046
    8TMC3    C114263   4.235   1.291  11.405  0.2122 -0.1719 -0.1044
    8TMC3    C214264   4.174   1.288  11.282 -0.5507 -0.7457 -0.0164
    8TMC3    C314265   4.195   1.400  11.205 -0.6427 -0.3712 -0.1421
    8TMC3    C414266   4.311   1.401  11.450  0.2310  1.1233 -0.4959
    8TMC3    C514267   4.311   1.515  11.376  0.4614 -0.5694 -0.2608
    8TMC3    C614268   4.265   1.510  11.244 -0.1036  0.3122 -0.6455
    8TMC3     C14269   4.177   1.215  11.511 -0.1293 -0.6972 -0.3852
    8TMC3     O14270   4.186   1.266  11.617 -1.0522 -0.0393  0.3312
    8TMC3     H14271   4.123   1.203  11.238  0.5941 -1.0104 -0.8329
    8TMC3    H114272   4.361   1.397  11.546 -0.5266  1.0156 -0.1072
    8TMC3    H214273   4.245   1.604  11.194 -2.8895 -0.2790 -0.6261
    8TMC3    C714274   4.250   1.623  11.448  0.0728 -0.6484 -0.1538
    8TMC3    C814275   4.101   1.403  11.093  0.2433  0.4799 -0.4775
    8TMC3    O114276   4.264   1.733  11.398  0.2073 -0.1605 -0.4067
    8TMC3    O214277   4.011   1.322  11.089  0.0569 -0.2936  0.0946
    9MPD2     C14278   4.152   1.576  10.776  0.2745  0.8893  0.7724
    9MPD2    C114279   4.083   1.508  10.876 -0.3035 -0.6642  0.2906
    9MPD2    C214280   3.950   1.490  10.848 -0.1135 -0.6522  0.5250
    9MPD2    C314281   3.885   1.545  10.733  0.2486 -0.3951 -0.9572
    9MPD2    C414282   3.957   1.617  10.643 -0.0877 -0.1065  0.5534
    9MPD2    C514283   4.088   1.622  10.657 -0.4844 -0.5476 -0.5070
    9MPD2     H14284   3.889   1.430  10.915  1.3928 -0.0463  2.4308
    9MPD2    H114285   3.917   1.658  10.551 -1.7248 -2.8382  0.0326
    9MPD2    H214286   4.250   1.618  10.795 -0.2063  1.0397  2.9150
    9MPD2    H314287   4.151   1.684  10.594 -2.7830  1.6219 -0.6835
    9MPD2     N14288   3.739   1.534  10.720 -0.2204 -0.1820  0.1320
    9MPD2    H514289   3.702   1.587  10.642 -1.3437 -1.3415 -0.1282
    9MPD2    N114290   4.147   1.483  10.996 -0.7641 -0.0319  0.0413
    9MPD2    H714291   4.237   1.527  11.015 -0.0132 -0.2507 -3.0864
    1MPD1     C14292   3.022   0.491  15.736  0.2885 -0.0813  0.0813
    1MPD1    C114293   3.084   0.511  15.860  0.2381  0.1521  0.2433
    1MPD1    C214294   3.057   0.415  15.960 -0.0575 -0.7088  0.2907
    1MPD1    C314295   2.980   0.296  15.933 -0.3967 -0.4293 -0.8471
    1MPD1    C414296   2.920   0.295  15.807  0.0289 -0.0217 -0.6999
    1MPD1    C514297   2.944   0.381  15.702  0.4426  0.3250  0.0929
    1MPD1     H14298   3.100   0.429  16.059  1.1859 -1.8530 -0.0900
    1MPD1    H114299   2.848   0.219  15.778 -2.8155  2.7155 -0.7944
    1MPD1    H214300   3.028   0.561  15.654  0.4431 -0.3453 -0.1324
    1MPD1    H314301   2.896   0.381  15.605  0.5946 -0.5019  0.0133
    1MPD1     N14302   2.935   0.204  16.028  0.6998 -0.5886  0.3833
    1MPD1    H514303   2.883   0.123  15.994  1.3369 -1.6704  1.9274
    1MPD1    N114304   3.140   0.640  15.887 -0.1802  0.1092 -0.2606
    1MPD1    H614305   3.215   0.640  15.956  0.4242 -1.5902 -0.9258
    1MPD1    H714306   3.164   0.688  15.800  0.8905 -0.0798 -0.0609
    2TMC2    C114307   2.847   4.731  16.417 -0.5598 -0.0952  0.2678
    2TMC2    C214308   2.819   4.609  16.353 -1.7197 -0.0052 -0.3830
    2TMC2    C314309   2.860   4.597  16.225 -0.1224  0.3576  1.0946
    2TMC2    C414310   2.907   0.100  16.355  0.1366  0.4263 -0.3630
    2TMC2    C514311   2.946   0.079  16.227 -0.0369  0.1176  0.6769
    2TMC2    C614312   2.919   4.698  16.157 -0.2595  0.7634  0.0118
    2TMC2     C14313   2.806   4.732  16.560 -0.1088  0.3020  0.4536
    2TMC2     O14314   2.743   4.640  16.606 -0.0563 -0.1367  0.0476
    2TMC2     H14315   2.788   4.525  16.415 -1.2982  0.0360 -0.1106
    2TMC2    H114316   2.938   0.187  16.412 -2.4957  0.3404  1.2099
    2TMC2    H214317   2.960   4.690  16.057  2.1450 -0.3146  1.0947
    2TMC2    C714318   2.990   0.198  16.153 -0.9411 -0.4415 -0.0457
    2TMC2    C814319   2.832   4.463  16.165  0.3470  0.4535  0.1359
    2TMC2    O114320   3.035   0.287  16.223 -0.1116  0.2231  0.0470
    2TMC2    O214321   2.823   4.360  16.229  0.2684 -0.5757 -0.1350
    2TMC2    O514322   2.800   4.480  16.036  0.1013  0.3659 -0.1778
    2TMC2    H514323   2.790   4.572  16.004 -1.4025  0.2900  0.1025
    3MPD1     C14324   2.830   0.236  17.028  0.4427 -0.3431  0.8486
    3MPD1    C114325   2.917   0.294  16.936 -0.2945 -0.0541  0.9317
    3MPD1    C214326   2.914   0.257  16.802 -0.3746 -0.1565 -0.4843
    3MPD1    C314327   2.844   0.146  16.758  0.6360  0.9648 -0.0800
    3MPD1    C414328   2.771   0.079  16.856  0.5762  0.1738 -0.0169
    3MPD1    C514329   2.760   0.131  16.982  0.3762  0.0200  0.6347
    3MPD1     H14330   2.978   0.311  16.734 -0.6780 -0.2015 -0.8092
    3MPD1    H114331   2.711   4.726  16.830 -0.2185  1.0533 -1.1839
    3MPD1    H214332   2.807   0.276  17.126 -1.0368 -1.5456  0.9935
    3MPD1    H314333   2.696   0.079  17.053  0.6584  1.0994  1.6918
    3MPD1     N14334   2.857   0.112  16.618  0.4972 -0.0090  0.3909
    3MPD1    H514335   2.912   0.175  16.561 -1.1441  1.9452  0.9923
    3MPD1    N114336   2.982   0.413  16.974 -0.0882  0.0735 -0.5205
    3MPD1    H614337   3.005   0.389  17.070  0.8058 -1.2085 -1.0520
    3MPD1    H714338   3.068   0.411  16.918 -0.4653 -0.8613 -1.0677
    1TMC1    C114339   0.894   4.141  12.968  0.3061  0.2683  0.0851
    1TMC1    C214340   0.976   4.041  12.929  0.1549 -0.2014  0.1437
    1TMC1    C314341   0.922   3.943  12.858 -0.6863 -0.1673 -0.8088
    1TMC1    C414342   0.760   4.130  12.956  0.4204  0.9118  0.4498
    1TMC1    C514343   0.706   4.028  12.890 -0.2136  0.3650  0.7096
    1TMC1    C614344   0.784   3.934  12.829 -0.5296  0.5400 -0.0860
    1TMC1     C14345   0.942   4.269  12.976  0.1843  0.5399 -0.1799
    1TMC1     O14346   0.874   4.365  12.937  0.2158 -0.3583  0.4003
    1TMC1     H14347   1.082   4.060  12.917 -0.1776  1.1673 -0.7677
    1TMC1    H114348   0.700   4.214  12.988 -0.8327 -0.2920  1.3144
    1TMC1    H214349   0.741   3.861  12.762  0.5545  1.3736 -1.6924
    1TMC1    C714350   0.608   3.969  12.974 -0.3062  0.2803 -0.1676
    1TMC1    C814351   1.019   3.848  12.804  0.3646 -0.1518 -0.1577
    1TMC1    O114352   0.599   4.006  13.092 -0.7191  0.4616 -0.2333
    1TMC1    O214353   1.113   3.878  12.732 -0.0504 -0.0218 -0.5342
    1TMC1    O314354   0.514   3.904  12.900 -0.4286  0.4659  0.8842
    1TMC1    H314355   0.516   3.903  12.802  2.5103  0.4361  0.9559
    1TMC1    O514356   0.941   3.737  12.794 -0.2229 -0.6051 -0.0251
    1TMC1    H514357   0.880   3.728  12.871  1.3962  0.4289  1.3855
    2MPD2     C14358   1.112   4.526  12.995  0.6971 -0.6595 -0.0671
    2MPD2    C114359   1.148   4.396  13.038 -0.4202 -0.2208 -0.1376
    2MPD2    C214360   1.282   4.385  13.081  0.5431  0.0929 -0.6485
    2MPD2    C314361   1.369   4.497  13.090  0.3371 -0.0280 -0.0756
    2MPD2    C414362   1.321   4.620  13.053  0.1510 -0.5488  0.2232
    2MPD2    C514363   1.191   4.636  13.011 -0.2604 -0.0717 -0.5196
    2MPD2     H14364   1.327   4.289  13.103  0.2497  0.6282  2.2223
    2MPD2    H114365   1.379   4.710  13.065 -0.8245  0.0242  0.5945
    2MPD2    H214366   1.012   4.547  12.960 -0.2319 -1.6449  1.9871
    2MPD2    H314367   1.158   4.734  12.979  0.3476  0.6289  0.9978
    2MPD2     N14368   1.503   4.467  13.137 -0.2374  0.3477  0.1052
    2MPD2    H514369   1.524   4.375  13.174  0.3481 -0.2883 -1.8242
    2MPD2    N114370   1.066   4.277  13.026 -0.1487 -0.2738  0.2849
    2MPD2    H714371   1.108   4.188  13.052  1.5178  0.3629 -0.1896
    3TCq1    O114372   2.176   4.499  13.324 -0.2497 -0.2716 -0.9222
    3TCq1    C114373   2.082   4.563  13.244 -0.0096  0.8232  0.0174
    3TCq1    O214374   2.107   4.669  13.185  0.3475 -0.6818  0.1738
    3TCq1    C214375   1.962   4.483  13.233  0.6908 -0.2373  0.5002
    3TCq1    C314376   1.958   4.348  13.261  0.0061 -0.0871  0.1047
    3TCq1    C414377   1.841   4.285  13.252  0.0235  0.2904 -0.2901
    3TCq1    C514378   1.727   4.344  13.205  0.2725 -0.0126  0.3385
    3TCq1    C614379   1.737   4.477  13.180  0.8416  0.7601 -0.0788
    3TCq1    C714380   1.850   4.550  13.189 -0.7839  0.2558  0.1492
    3TCq1    C814381   1.614   4.549  13.134 -0.0714  0.3268  0.5135
    3TCq1    O414382   1.614   4.668  13.100 -0.0759  0.2808  0.0241
    3TCq1    C914383   1.826   4.141  13.286 -0.5792 -0.3874  0.4669
    3TCq1    O514384   1.935   4.076  13.299  0.5070 -0.6665  0.1799
    3TCq1    O614385   1.719   4.085  13.256 -0.1663 -0.4086  0.2366
    3TCq1    H114386   2.127   4.443  13.388  0.9565  1.6722  1.6823
    3TCq1    H214387   2.047   4.292  13.289 -1.9224 -2.4581  1.4275
    3TCq1    H314388   1.637   4.285  13.198 -0.4358  1.0000  0.9678
    3TCq1    H414389   1.857   4.653  13.158  0.2791  0.2985  0.5552
    1MPD2     C14390   0.836   0.479  14.141  0.4671 -0.6225  0.1808
    1MPD2    C114391   0.721   0.485  14.057 -0.3239 -0.2893 -0.5255
    1MPD2    C214392   0.718   0.408  13.946 -0.0809  0.6963  0.5796
    1MPD2    C314393   0.829   0.332  13.914 -0.1606 -0.3092  0.8289
    1MPD2    C414394   0.945   0.340  13.983  0.1748 -0.1794 -0.1587
    1MPD2    C514395   0.948   0.408  14.100  0.3444 -0.6137 -0.1732
    1MPD2     H14396   0.625   0.407  13.890  0.7742 -3.8878 -0.7528
    1MPD2    H114397   1.028   0.291  13.934 -0.7520  0.6696 -2.5879
    1MPD2    H214398   0.852   0.533  14.234  0.5323 -2.0023  0.9670
    1MPD2    H314399   1.032   0.405  14.169  0.4721  0.1406 -0.2972
    1MPD2     N14400   0.822   0.235  13.807 -0.8457 -0.3823 -0.2188
    1MPD2    H514401   0.898   0.169  13.794 -0.5422 -0.0946  0.0893
    1MPD2    N114402   0.615   0.580  14.087 -0.6599 -0.0055 -0.2152
    1MPD2    H714403   0.603   0.622  14.178  1.3610  0.7948 -0.3340
    2TMC3    C114404   0.426   0.718  14.037 -0.6531 -1.1905  0.0386
    2TMC3    C214405   0.309   0.675  13.976 -0.2159 -0.0769 -0.3653
    2TMC3    C314406   0.236   0.769  13.906 -0.9303  0.5419  0.4538
    2TMC3    C414407   0.475   0.845  14.027  0.1159 -0.7715 -0.4820
    2TMC3    C514408   0.396   0.938  13.960 -0.3158  0.1075  0.2477
    2TMC3    C614409   0.286   0.892  13.891  0.3669 -0.2222  0.8350
    2TMC3     C14410   0.522   0.621  13.991  0.2359 -0.9546 -0.0929
    2TMC3     O14411   0.499   0.594  13.874  0.1857 -0.3159 -0.4262
    2TMC3     H14412   0.290   0.568  13.981 -1.6394  0.1238 -1.5721
    2TMC3    H114413   0.569   0.870  14.075  0.4248  0.4957 -1.7260
    2TMC3    H214414   0.224   0.956  13.829  0.9204  0.1887  0.7063
    2TMC3    C714415   0.433   1.083  13.968 -0.0490  0.0630 -0.8852
    2TMC3    C814416   0.191   0.714  13.785 -0.4685  0.0079  0.4394
    2TMC3    O114417   0.402   1.153  13.872 -0.5235 -0.4865 -0.1444
    2TMC3    O214418   0.100   0.773  13.733 -0.2521 -0.1759  0.0763
    3TCq1    O114419   1.105   1.347  14.909  0.2381  0.5629  0.4243
    3TCq1    C114420   1.007   1.381  14.827  0.4512  0.3923  0.1790
    3TCq1    O214421   0.918   1.461  14.865  0.0115 -0.4451  0.1897
    3TCq1    C214422   1.050   1.344  14.699 -0.4958 -0.4227 -0.5751
    3TCq1    C314423   1.072   1.211  14.687 -0.3166  0.1658  0.0102
    3TCq1    C414424   1.075   1.160  14.562  0.5651  0.0983  0.6145
    3TCq1    C514425   1.060   1.241  14.450 -0.3480  0.4389  0.4811
    3TCq1    C614426   1.031   1.376  14.464 -0.1508  0.0510 -0.5825
    3TCq1    C714427   1.020   1.427  14.592 -0.0942 -0.6311 -0.6314
    3TCq1    C814428   0.943   1.433  14.369  0.4235  0.7187  0.5678
    3TCq1    O414429   0.945   1.552  14.359  0.0105 -0.0678  0.0757
    3TCq1    C914430   1.120   1.022  14.540  0.7898 -0.2770  0.3840
    3TCq1    O514431   1.129   0.947  14.643 -0.0775 -0.0011  0.4854
    3TCq1    O614432   1.137   0.986  14.418  0.0585  0.4439 -0.3011
    3TCq1    H114433   1.190   1.313  14.873 -1.1943 -1.7219 -0.8493
    3TCq1    H214434   1.073   1.148  14.775 -0.3826 -2.5077 -1.9130
    3TCq1    H314435   1.067   1.201  14.349  1.2338  0.0763  0.7367
    3TCq1    H414436   0.999   1.533  14.597  0.7961 -0.5443  1.3242
    4MPD2     C14437   0.745   1.461  14.154 -0.5590  0.1694  0.6676
    4MPD2    C114438   0.753   1.348  14.233  0.7691 -0.6447 -0.3015
    4MPD2    C214439   0.682   1.232  14.198 -0.3565  0.7663 -0.1231
    4MPD2    C314440   0.580   1.229  14.102 -0.6377  0.0879  0.2636
    4MPD2    C414441   0.563   1.344  14.031  0.6694  0.1019 -0.0173
    4MPD2    C514442   0.642   1.451  14.065 -0.9293  0.2989 -0.1575
    4MPD2     H14443   0.698   1.139  14.252  1.4154  0.6827 -0.7823
    4MPD2    H114444   0.487   1.362  13.956  1.6369 -1.2649 -1.3170
    4MPD2    H214445   0.799   1.551  14.177 -0.4343  0.6903 -1.7455
    4MPD2    H314446   0.634   1.543  14.008  1.2053 -0.1887 -1.2552
    4MPD2     N14447   0.509   1.110  14.077  0.6102 -0.5430  0.1962
    4MPD2    H514448   0.512   1.033  14.143 -1.5861 -1.1105 -0.3439
    4MPD2    N114449   0.851   1.336  14.331 -0.3730  0.1622  0.2305
    4MPD2    H714450   0.864   1.251  14.385 -0.4785 -0.5259 -0.8278
    5TMC2    C114451   0.575   0.052  13.461 -0.0756 -0.1462 -0.4707
    5TMC2    C214452   0.582   4.662  13.527 -0.5098  0.4929 -0.1411
    5TMC2    C314453   0.684   4.643  13.617  0.3314  0.0302 -0.3271
    5TMC2    C414454   0.658   0.153  13.502 -0.5290  0.1438 -0.7243
    5TMC2    C514455   0.740   0.133  13.616 -0.4841 -0.1327  0.3138
    5TMC2    C614456   0.753   0.008  13.670 -0.4569  0.3250  0.0622
    5TMC2     C14457   0.442   0.110  13.441  0.0696  0.4675  0.3759
    5TMC2     O14458   0.370   0.064  13.353  0.4376 -0.2602 -0.0229
    5TMC2     H14459   0.522   4.578  13.491  1.2376 -0.7293 -0.2040
    5TMC2    H114460   0.680   0.242  13.444  1.8034 -1.1681 -1.8403
    5TMC2    H214461   0.806   4.723  13.762  3.0791  0.9537 -1.8559
    5TMC2    C714462   0.724   0.237  13.715  0.5691 -0.2452  0.0639
    5TMC2    C814463   0.690   4.515  13.684 -0.3541  0.3746 -0.1226
    5TMC2    O114464   0.626   0.306  13.696  0.2088 -0.2773 -0.6080
    5TMC2    O214465   0.589   4.450  13.702  0.2980  0.2317  0.1767
    5TMC2    O514466   0.815   4.474  13.724 -0.6429 -0.1627 -0.7576
    5TMC2    H514467   0.887   4.535  13.698 -2.2612  1.4911 -1.3617
    6MPD2     C14468   0.132   0.526  13.559  0.2462  0.6345  0.0203
    6MPD2    C114469   0.247   0.524  13.634  0.1180 -0.2516 -0.2148
    6MPD2    C214470   0.342   0.427  13.619  0.3015  0.0930  0.2897
    6MPD2    C314471   0.321   0.324  13.528 -0.0221 -0.5457  0.3989
    6MPD2    C414472   0.211   0.325  13.454  1.0301  0.4507  0.7001
    6MPD2    C514473   0.119   0.427  13.465  0.0328  0.0379 -0.1091
    6MPD2     H14474   0.441   0.427  13.664 -0.4140 -1.0483  1.8769
    6MPD2    H114475   0.195   0.238  13.391  1.8436  0.4336  0.5164
    6MPD2    H214476   0.050   0.597  13.562  1.7525  2.3425  0.9936
    6MPD2    H314477   0.036   0.446  13.399 -0.5908 -1.3931  0.2679
    6MPD2     N14478   0.429   0.221  13.520 -0.2774  0.3038  0.2683
    6MPD2    H514479   0.497   0.213  13.595  1.1867  2.5188 -0.8475
    6MPD2    N114480   0.270   0.611  13.741  0.1808 -0.2435  0.2688
    6MPD2    H714481   0.355   0.599  13.796 -0.7548  0.4222  1.8618
  945NH4     N114482   3.863   3.318  13.384  0.3656 -0.4782 -0.6548
  945NH4     H214483   3.957   3.330  13.341 -0.8217 -0.8289 -3.3025
  945NH4     H314484   3.889   3.356  13.477  0.5217  0.9737 -1.2995
  945NH4     H414485   3.833   3.219  13.397  0.7721 -0.5549 -0.2957
  945NH4     H514486   3.785   3.364  13.334  1.5402  2.0379 -0.1824
  946SOD     NA14487   3.423   4.203   6.435  0.2574  0.0871 -0.3343
  947SOD     NA14488   1.423   0.884  12.552  1.0720  0.1693 -0.2690
  948SOD     NA14489   0.847   1.543  13.277 -0.6611  0.8301  0.1884
  949SOD     NA14490   2.463   3.359  17.043 -0.2336 -0.1143  0.2735
  950SOD     NA14491   2.951   0.286   4.846  0.0496  0.7659  0.0219
  951SOD     NA14492   4.028   3.048   8.868  0.0922 -0.4671  0.2880
  952SOD     NA14493   1.220   0.883  14.822  0.1084 -0.3079  0.1032
  953SOL     OW14494   1.677   3.861  12.320 -0.1198 -0.3597  0.3084
  953SOL    HW114495   1.711   3.781  12.360  0.1384 -2.3509 -3.8984
  953SOL    HW214496   1.670   3.902  12.406 -0.4226  0.5080 -0.1346
  954SOL     OW14497   2.422   0.145   4.003  0.3440 -0.0349  0.7103
  954SOL    HW114498   2.402   0.073   4.062 -0.8616  1.4011  2.0598
  954SOL    HW214499   2.491   0.106   3.951 -0.0984  2.0723 -1.4696
  955SOL     OW14500   3.156   0.161  14.949  0.2025  0.6494  0.1721
  955SOL    HW114501   3.086   0.119  15.000  0.6787  1.1245  1.2250
  955SOL    HW214502   3.189   0.105  14.880 -0.9161  0.0213  0.1493
  956SOL     OW14503   4.151   2.074   7.436  0.1941 -0.2732  0.1279
  956SOL    HW114504   4.068   2.091   7.480 -0.6934 -0.3753 -1.5064
  956SOL    HW214505   4.129   2.002   7.377 -1.8261 -0.9189  1.6765
  957SOL     OW14506   1.773   4.340   9.391 -0.0732  0.3480  0.1462
  957SOL    HW114507   1.809   4.389   9.465  0.9880 -1.0319  0.5472
  957SOL    HW214508   1.846   4.278   9.389  1.2342  1.8928  0.0193
  958SOL     OW14509   1.542   1.061  16.634  0.1303  0.3172 -0.1677
  958SOL    HW114510   1.569   1.061  16.542  2.2335 -0.1852  0.4428
  958SOL    HW214511   1.595   1.134  16.668 -2.9134  2.7970 -0.7437
  959SOL     OW14512   4.733   4.242  16.492 -0.5461 -0.7670  0.4636
  959SOL    HW114513   0.046   4.180  16.547 -1.4215 -2.2303 -0.4316
  959SOL    HW214514   0.052   4.250  16.412 -1.7763 -0.5872 -0.3477
  960SOL     OW14515   0.405   2.575   2.600 -0.2856 -0.0191  0.2432
  960SOL    HW114516   0.320   2.548   2.566 -0.5259 -0.6796  1.3662
  960SOL    HW214517   0.449   2.637   2.542 -0.9907 -2.0775 -2.4664
  961SOL     OW14518   2.439   0.511   6.726  0.1576  0.3296 -0.1383
  961SOL    HW114519   2.352   0.477   6.704  1.6533 -2.5528 -1.5694
  961SOL    HW214520   2.445   0.584   6.664  0.3095 -0.5042 -1.0917
  962SOL     OW14521   1.435   0.727   1.882  0.0347 -0.0612 -0.2082
  962SOL    HW114522   1.470   0.816   1.883  0.7159 -0.3325 -0.9325
  962SOL    HW214523   1.361   0.729   1.944  0.6053 -1.3357  0.5166
  963SOL     OW14524   1.644   4.256   5.561 -0.2059  0.0236 -0.0706
  963SOL    HW114525   1.717   4.202   5.531  1.5549  1.7586  1.1301
  963SOL    HW214526   1.631   4.224   5.650 -1.3221  0.5418 -0.0432
  964SOL     OW14527   2.957   2.851   0.052  0.2186 -0.4143 -0.3554
  964SOL    HW114528   3.037   2.875   0.006  0.6395 -1.3108 -0.0954
  964SOL    HW214529   2.891   2.853  17.719  0.2318 -1.0636 -0.3837
  965SOL     OW14530   3.837   4.279  10.978 -0.1405 -0.2945 -0.2312
  965SOL    HW114531   3.848   4.367  11.014 -0.8418 -0.0322 -0.6604
  965SOL    HW214532   3.861   4.228  11.055 -0.6394 -1.3221 -0.7511
  966SOL     OW14533   3.959   0.699   0.643  0.1715  0.2805 -0.0973
  966SOL    HW114534   3.980   0.733   0.556 -1.7427  1.4869 -0.0713
  966SOL    HW214535   4.002   0.761   0.703 -0.8211  0.4000  0.4839
  967SOL     OW14536   0.432   0.574   1.796  0.1776 -0.7515 -0.2519
  967SOL    HW114537   0.493   0.505   1.825 -2.8659 -2.5270  1.8906
  967SOL    HW214538   0.355   0.530   1.832 -0.6772  1.4373  0.5437
  968SOL     OW14539   4.096   2.249   4.349 -0.2470  0.8384 -0.6929
  968SOL    HW114540   4.160   2.276   4.284 -0.4282  1.2152 -0.7172
  968SOL    HW214541   4.132   2.169   4.388  0.1128  0.9155 -0.8753
  969SOL     OW14542   0.965   1.184   6.177 -0.1123 -0.4279 -0.0567
  969SOL    HW114543   0.908   1.121   6.222 -0.3073 -0.6269 -0.5900
  969SOL    HW214544   0.915   1.207   6.100  0.9910 -0.0028 -0.6454
  970SOL     OW14545   0.662   3.137   3.682 -1.0403  0.0039 -0.1134
  970SOL    HW114546   0.578   3.161   3.721 -0.9331  1.6786 -0.9164
  970SOL    HW214547   0.649   3.132   3.587  0.7582  1.2186 -0.4215
  971SOL     OW14548   3.246   1.213   0.242 -0.4677 -0.0452  0.4615
  971SOL    HW114549   3.186   1.259   0.183  1.7137  1.1985 -0.7470
  971SOL    HW214550   3.186   1.192   0.314 -1.1626 -1.1695 -0.4543
  972SOL     OW14551   0.603   1.818   6.179  0.0193  0.1280 -0.1181
  972SOL    HW114552   0.611   1.782   6.091  1.0902 -0.0693  0.0553
  972SOL    HW214553   0.665   1.764   6.228  0.6838 -0.7763 -1.9530
  973SOL     OW14554   3.871   1.768   4.833 -0.0281 -0.0284  0.1845
  973SOL    HW114555   3.868   1.736   4.923  2.8590  0.1080  0.3205
  973SOL    HW214556   3.964   1.785   4.820  0.1380 -1.3906 -0.4208
  974SOL     OW14557   4.197   0.352   5.427  0.1363 -0.2338  0.3498
  974SOL    HW114558   4.119   0.317   5.384 -0.2476  0.9297  0.0995
  974SOL    HW214559   4.244   0.268   5.433 -1.6781 -1.1842  1.3204
  975SOL     OW14560   4.298   2.523   6.449 -0.0461  0.7644  0.2420
  975SOL    HW114561   4.337   2.582   6.384 -1.1449  1.3679  0.1283
  975SOL    HW214562   4.324   2.435   6.420 -1.5300 -0.0542  1.4636
  976SOL     OW14563   1.191   3.854  10.274 -0.4568  0.1908 -0.4848
  976SOL    HW114564   1.285   3.854  10.255 -0.5786  0.1361 -1.0788
  976SOL    HW214565   1.180   3.762  10.299 -2.1240  0.0182 -1.8823
  977SOL     OW14566   3.103   0.024   7.723  0.1442 -0.1089 -0.1554
  977SOL    HW114567   3.072   4.716   7.643  0.2029 -1.7303  0.6827
  977SOL    HW214568   3.025   0.056   7.768  0.1702  0.0779 -0.2397
  978SOL     OW14569   4.682   0.229   1.812 -0.4975  0.5846  0.2611
  978SOL    HW114570   4.621   0.281   1.866 -1.5432 -0.3845  0.0110
  978SOL    HW214571   4.617   0.179   1.762  0.2206 -0.1097  0.0395
  979SOL     OW14572   3.724   2.698  16.849 -0.7142  0.8772 -0.0638
  979SOL    HW114573   3.806   2.736  16.882  0.1876  1.0627 -2.4704
  979SOL    HW214574   3.733   2.719  16.756 -0.3561 -3.7544 -1.0780
  980SOL     OW14575   2.801   3.885   8.394 -0.1702 -0.2183 -0.1762
  980SOL    HW114576   2.719   3.911   8.351  0.1875 -0.2486 -0.8823
  980SOL    HW214577   2.863   3.920   8.330 -0.1125  1.9765  1.0548
  981SOL     OW14578   2.926   2.448  12.580 -0.1804 -0.3087 -0.3787
  981SOL    HW114579   2.882   2.433  12.496  1.4855  1.2580 -1.5392
  981SOL    HW214580   2.952   2.357  12.592  0.3012 -0.2089 -0.6900
  982SOL     OW14581   3.866   0.916   3.518  0.3844 -0.0554 -0.8232
  982SOL    HW114582   3.837   0.925   3.609  1.6023 -1.3625 -0.3075
  982SOL    HW214583   3.815   0.839   3.492  1.1333  0.1833 -3.0034
  983SOL     OW14584   0.273   0.814   6.186 -0.2091 -0.0882  0.3284
  983SOL    HW114585   0.339   0.873   6.222  0.1971  0.6858 -1.6399
  983SOL    HW214586   0.297   0.732   6.227  1.4225 -0.5711 -1.5754
  984SOL     OW14587   3.604   0.024  13.260 -0.3318  0.4815 -0.5210
  984SOL    HW114588   3.628   0.113  13.235 -0.3882  0.8090  0.5559
  984SOL    HW214589   3.525   0.024  13.315 -1.1503 -2.0961 -1.7079
  985SOL     OW14590   2.431   3.163  13.269  0.0557 -0.1319 -0.1367
  985SOL    HW114591   2.341   3.193  13.282 -0.3364 -1.1171 -0.6195
  985SOL    HW214592   2.451   3.206  13.186  1.0501 -0.0049  0.1658
  986SOL     OW14593   0.810   0.126   2.092 -0.2473 -0.1659  0.3412
  986SOL    HW114594   0.843   0.215   2.101  1.4799 -0.5543 -2.2741
  986SOL    HW214595   0.826   0.097   2.003  0.8605  2.2444 -0.2218
  987SOL     OW14596   1.616   1.770  13.940 -0.6539  0.1169  0.0179
  987SOL    HW114597   1.680   1.699  13.936 -1.0715 -0.2735  0.3552
  987SOL    HW214598   1.550   1.744  13.875  0.0636 -0.7350 -0.3680
  988SOL     OW14599   4.496   4.505   2.886 -0.4385 -0.3902 -0.0340
  988SOL    HW114600   4.480   4.479   2.795  2.1063 -2.8371  0.2338
  988SOL    HW214601   4.497   4.601   2.881 -0.1156 -0.4282 -0.6432
  989SOL     OW14602   1.746   4.681  11.769  0.1379  0.5049  0.0611
  989SOL    HW114603   1.742   4.585  11.777  1.8700  0.4162 -0.0542
  989SOL    HW214604   1.659   4.703  11.802  0.1293 -0.7370  0.8740
  990SOL     OW14605   4.033   0.595   3.533  0.0207  0.2683  0.2251
  990SOL    HW114606   4.018   0.554   3.618 -1.7043  0.4120 -0.0074
  990SOL    HW214607   3.949   0.630   3.503 -1.1790 -1.0496  2.0073
  991SOL     OW14608   2.660   3.456   2.865 -0.0332 -0.2452 -0.4226
  991SOL    HW114609   2.639   3.494   2.950 -0.7603 -2.2977  0.3227
  991SOL    HW214610   2.662   3.367   2.899  1.1349  0.1682  0.5783
  992SOL     OW14611   1.085   4.095   9.643 -0.3071  0.1263  0.6174
  992SOL    HW114612   1.098   4.027   9.577 -2.0879  0.8667 -0.5000
  992SOL    HW214613   1.150   4.161   9.618  0.4401 -1.4819 -1.7355
  993SOL     OW14614   0.039   1.177   0.808  0.7783  0.1611  0.0458
  993SOL    HW114615   0.098   1.118   0.854  0.4061 -0.7558 -0.6479
  993SOL    HW214616   4.708   1.118   0.770  0.1915 -0.9280  2.7775
  994SOL     OW14617   2.381   2.915   2.154 -0.2061 -0.0571  0.1611
  994SOL    HW114618   2.436   2.894   2.230  0.9312  1.7761 -0.1374
  994SOL    HW214619   2.361   3.005   2.180  0.2789  0.8102 -2.4524
  995SOL     OW14620   2.277   4.335   3.073 -0.0724 -0.0699 -0.7370
  995SOL    HW114621   2.210   4.266   3.064  0.2938 -0.3847 -1.0742
  995SOL    HW214622   2.285   4.345   3.168  0.5094  0.0807 -0.8014
  996SOL     OW14623   4.437   4.102   0.431  0.0698  0.2896  0.2723
  996SOL    HW114624   4.403   4.190   0.414 -2.2777 -0.2393  2.1300
  996SOL    HW214625   4.412   4.052   0.353 -3.9615  0.2341  1.5988
  997SOL     OW14626   1.188   0.121  12.119 -0.4704  0.2247  0.3238
  997SOL    HW114627   1.246   0.142  12.045 -0.4026  1.5612  0.7637
  997SOL    HW214628   1.261   0.084  12.169  0.3397  1.1719 -0.1517
  998SOL     OW14629   4.521   4.682   8.310  0.1107 -0.1971 -0.2675
  998SOL    HW114630   4.496   0.034   8.342  0.0195  0.1373 -1.2331
  998SOL    HW214631   4.444   4.661   8.258 -0.1768  0.1368  0.0302
  999SOL     OW14632   1.340   0.093   7.047 -0.1806  0.1960  0.2777
  999SOL    HW114633   1.333   0.176   7.093  0.5209 -0.2162  1.1313
  999SOL    HW214634   1.319   0.122   6.958  2.3071 -2.3174 -1.1489
 1000SOL     OW14635   3.258   4.492   0.685 -0.2247  0.1241  0.8033
 1000SOL    HW114636   3.193   4.560   0.666  1.8311  2.5050  2.3148
 1000SOL    HW214637   3.224   4.447   0.763 -0.1413 -0.4106  0.5288
 1001SOL     OW14638   1.918   1.693   1.712 -0.4477 -0.1145  0.0623
 1001SOL    HW114639   1.902   1.785   1.690  0.8984  0.0351 -0.2580
 1001SOL    HW214640   1.928   1.698   1.807 -0.2105  0.1635  0.0209
 1002SOL     OW14641   1.097   0.590   6.115  0.4826  0.1047  0.0446
 1002SOL    HW114642   1.149   0.520   6.154  1.8951  1.1103 -0.0526
 1002SOL    HW214643   1.049   0.546   6.045  1.0747  0.6887 -0.7172
 1003SOL     OW14644   4.116   3.078   4.719 -0.1674 -0.1171  0.5994
 1003SOL    HW114645   4.081   3.049   4.803 -1.4906 -1.0579 -0.2692
 1003SOL    HW214646   4.158   3.160   4.746  0.8666 -0.3505 -0.3015
 1004SOL     OW14647   4.372   2.341   5.407  0.1672  0.3842  0.3456
 1004SOL    HW114648   4.402   2.330   5.497  0.8520  0.6689  0.1533
 1004SOL    HW214649   4.450   2.343   5.351 -0.1823  2.8619 -0.0538
 1005SOL     OW14650   2.773   3.621   8.512 -0.3120  0.0005 -0.0446
 1005SOL    HW114651   2.705   3.663   8.459  1.3300  2.5306 -0.0927
 1005SOL    HW214652   2.808   3.695   8.562 -1.3586  0.7417 -0.3911
 1006SOL     OW14653   0.132   1.611   8.910  0.4633 -0.3745  1.0552
 1006SOL    HW114654   0.125   1.600   8.815  1.2767 -0.6924  1.0252
 1006SOL    HW214655   0.190   1.686   8.925  2.5778 -1.5469 -1.1693
 1007SOL     OW14656   2.850   0.110  10.378 -0.1098 -0.1073 -0.4452
 1007SOL    HW114657   2.792   0.097  10.452 -0.8321  0.1845 -0.9530
 1007SOL    HW214658   2.911   0.177  10.411 -0.7069  0.4972 -0.5542
 1008SOL     OW14659   1.585   0.053  16.109  0.1284 -0.2734  0.8440
 1008SOL    HW114660   1.635   0.085  16.034 -1.7392  0.0629 -0.2724
 1008SOL    HW214661   1.538   0.133  16.132  0.3543 -0.2196  1.1210
 1009SOL     OW14662   2.301   0.903   5.433  0.0099 -0.3480 -0.5816
 1009SOL    HW114663   2.294   0.994   5.405  1.7106 -0.2770 -0.7577
 1009SOL    HW214664   2.308   0.859   5.348  0.6906 -0.1463 -0.6283
 1010SOL     OW14665   0.927   1.860   5.890  0.4528 -0.0541 -0.3906
 1010SOL    HW114666   0.839   1.826   5.874  0.6453 -0.6617 -0.1940
 1010SOL    HW214667   0.979   1.780   5.880  0.4263 -0.3563  1.8209
 1011SOL     OW14668   4.708   0.414  16.729  0.4836  0.0511 -0.1895
 1011SOL    HW114669   4.727   0.324  16.755  1.2096 -0.0204 -0.9817
 1011SOL    HW214670   0.060   0.455  16.727  0.9520 -0.8912  0.6701
 1012SOL     OW14671   3.750   3.256   4.264  0.4740  0.3583  0.9295
 1012SOL    HW114672   3.726   3.334   4.213  0.7807 -1.3379 -1.8208
 1012SOL    HW214673   3.833   3.282   4.305 -0.2503  1.3967  1.7180
 1013SOL     OW14674   3.198   0.988   2.862  0.0579 -0.3982 -0.0132
 1013SOL    HW114675   3.102   0.994   2.861 -0.0282 -1.4574  1.7238
 1013SOL    HW214676   3.208   0.922   2.794  3.4654 -1.1088  1.2297
 1014SOL     OW14677   3.576   0.377   6.061 -0.2504 -0.4001  0.7764
 1014SOL    HW114678   3.654   0.358   6.114  0.7570 -1.3521 -1.0476
 1014SOL    HW214679   3.520   0.405   6.134 -0.3927  0.7808  0.1993
 1015SOL     OW14680   1.323   3.019  13.958  0.0720 -0.3462  0.3849
 1015SOL    HW114681   1.285   2.976  14.034  0.5926  1.9696  1.9514
 1015SOL    HW214682   1.241   3.048  13.918 -0.0802  0.7656  1.5261
 1016SOL     OW14683   0.596   0.522   6.891 -0.5377 -0.0815  0.6473
 1016SOL    HW114684   0.524   0.471   6.929 -0.1686 -0.8708  0.2831
 1016SOL    HW214685   0.550   0.605   6.878  0.1813  0.4114  1.2326
 1017SOL     OW14686   4.463   2.526   7.701  0.2891 -0.3832  0.1520
 1017SOL    HW114687   4.428   2.595   7.646 -2.3572 -0.9033  1.2077
 1017SOL    HW214688   4.486   2.586   7.772 -0.4143  0.9534 -0.7539
 1018SOL     OW14689   2.980   0.788   0.140  0.0263  0.2835  0.1067
 1018SOL    HW114690   3.031   0.858   0.099  0.9638 -1.4592 -1.7477
 1018SOL    HW214691   2.965   0.827   0.225 -0.5938 -0.0017  0.1280
 1019SOL     OW14692   1.922   0.130   0.534  0.2795 -0.3463 -0.8331
 1019SOL    HW114693   1.975   0.051   0.523 -0.6236 -0.8432 -1.5608
 1019SOL    HW214694   1.990   0.198   0.534 -2.3964  2.3349 -2.0637
 1020SOL     OW14695   3.893   2.037   2.293 -0.0103 -0.7253 -0.2366
 1020SOL    HW114696   3.987   2.031   2.274 -0.6005 -0.4866 -3.2564
 1020SOL    HW214697   3.892   2.037   2.388  1.0841 -1.1557 -0.2193
 1021SOL     OW14698   3.064   0.677  10.843  0.1666  0.4303 -0.5422
 1021SOL    HW114699   3.034   0.595  10.884  1.0371 -0.2816 -1.3249
 1021SOL    HW214700   3.159   0.668  10.837  0.2525  0.9525  0.1180
 1022SOL     OW14701   2.857   3.121   4.505  0.3436 -0.0537  0.3041
 1022SOL    HW114702   2.867   3.079   4.419  0.1400  2.6260 -1.0184
 1022SOL    HW214703   2.823   3.040   4.543 -0.0681  0.4117  0.9150
 1023SOL     OW14704   3.466   0.332   5.285  0.5144  0.1898  0.6380
 1023SOL    HW114705   3.417   0.414   5.275 -2.2478 -1.5145  0.0366
 1023SOL    HW214706   3.418   0.278   5.348 -1.4682  0.8658 -0.2844
 1024SOL     OW14707   3.928   0.482   2.539 -0.4426  0.1709  0.4189
 1024SOL    HW114708   3.981   0.467   2.461  0.0051 -3.1252  1.3589
 1024SOL    HW214709   3.861   0.542   2.506  0.9339  0.4256 -1.8580
 1025SOL     OW14710   4.249   2.292   6.234 -1.2069 -0.3324 -0.1639
 1025SOL    HW114711   4.241   2.363   6.170  2.6051  1.1417  0.9723
 1025SOL    HW214712   4.232   2.211   6.187 -1.1034 -0.5299  0.1393
 1026SOL     OW14713   0.189   1.386   0.879 -0.0882 -0.7973 -0.0015
 1026SOL    HW114714   0.244   1.353   0.808  0.5551  0.4508 -0.0850
 1026SOL    HW214715   0.108   1.339   0.857 -0.2164 -0.1524 -0.9388
 1027SOL     OW14716   2.341   0.038   7.763  0.3508 -0.0902 -0.1445
 1027SOL    HW114717   2.374   4.688   7.795  0.8617  1.0717  2.3888
 1027SOL    HW214718   2.386   0.101   7.819 -1.0556 -0.3828  1.3216
 1028SOL     OW14719   3.669   1.440   3.438 -0.4005  0.1551  0.0357
 1028SOL    HW114720   3.669   1.400   3.351  0.8314 -0.3945  0.2850
 1028SOL    HW214721   3.725   1.516   3.423  0.7688 -0.7724 -0.3602
 1029SOL     OW14722   0.987   3.994   6.521 -0.0826 -0.3962  0.1300
 1029SOL    HW114723   1.051   4.064   6.530 -0.6990  0.1627  0.0900
 1029SOL    HW214724   0.981   3.961   6.611  0.7635 -1.8795 -0.3495
 1030SOL     OW14725   1.740   3.932   3.313  0.3068 -0.5526 -0.0939
 1030SOL    HW114726   1.800   3.922   3.387  1.9854  1.8835 -1.1301
 1030SOL    HW214727   1.658   3.913   3.359 -0.4879  0.1693 -1.2206
 1031SOL     OW14728   0.302   2.073   3.855 -0.0154  0.5635  0.2813
 1031SOL    HW114729   0.269   2.107   3.938  0.4206  3.0066 -0.5745
 1031SOL    HW214730   0.375   2.026   3.896 -2.1730 -1.7688  1.4620
 1032SOL     OW14731   4.486   0.056   1.715 -0.2353  0.5364 -1.1098
 1032SOL    HW114732   4.396   0.077   1.742  0.5597  0.0756  1.8869
 1032SOL    HW214733   4.475   4.709   1.665 -1.5505  1.2361 -1.9745
 1033SOL     OW14734   0.697   2.207   0.669 -0.1133 -0.3887  0.3753
 1033SOL    HW114735   0.662   2.119   0.686  1.9964 -1.2632  0.2384
 1033SOL    HW214736   0.707   2.227   0.762  2.2921 -0.6008  0.1844
 1034SOL     OW14737   2.694   4.496   7.464 -0.1612 -0.4713 -0.0528
 1034SOL    HW114738   2.705   4.407   7.432 -3.5544 -0.5197 -1.0158
 1034SOL    HW214739   2.599   4.494   7.476 -0.3312 -2.2342 -1.8138
 1035SOL     OW14740   1.485   2.672   4.636  0.0641  0.3181  0.1087
 1035SOL    HW114741   1.437   2.690   4.555  0.9099 -1.8899 -0.9057
 1035SOL    HW214742   1.433   2.595   4.658 -1.1675  0.4326 -2.3754
 1036SOL     OW14743   3.404   2.042   0.683  0.3762 -0.3038  0.0089
 1036SOL    HW114744   3.395   2.118   0.625  1.6270  0.6859  1.1110
 1036SOL    HW214745   3.469   2.063   0.750  1.0986  1.4054 -1.2355
 1037SOL     OW14746   3.647   1.283   4.260  0.0266 -0.0539 -0.6753
 1037SOL    HW114747   3.560   1.247   4.246 -0.4020  1.4511 -1.8728
 1037SOL    HW214748   3.674   1.237   4.339  1.1874  0.8256 -0.5560
 1038SOL     OW14749   0.272   2.994  11.564  0.0723  0.0725 -0.0559
 1038SOL    HW114750   0.203   3.059  11.577  0.1023  0.6203 -2.6609
 1038SOL    HW214751   0.240   2.923  11.619 -2.1231  0.9982 -0.1184
 1039SOL     OW14752   3.570   3.979  16.486 -0.4051  0.7047  0.3627
 1039SOL    HW114753   3.624   3.997  16.563 -1.9734  2.0069  1.1454
 1039SOL    HW214754   3.521   3.911  16.532 -1.0567  0.1110 -1.2128
 1040SOL     OW14755   2.276   2.176   9.588  0.1882  0.4034  0.2528
 1040SOL    HW114756   2.350   2.213   9.636  0.1011 -0.0772  0.7592
 1040SOL    HW214757   2.297   2.083   9.597 -0.2360  0.2111 -0.8151
 1041SOL     OW14758   2.815   2.893   6.094  0.7520  0.5280 -0.4294
 1041SOL    HW114759   2.790   2.848   6.013 -0.5939 -1.1836  0.9313
 1041SOL    HW214760   2.808   2.815   6.150  3.2300  1.0687  0.6203
 1042SOL     OW14761   1.764   3.754  15.696 -0.3709 -0.0927  0.7365
 1042SOL    HW114762   1.817   3.754  15.616 -1.0592 -0.5056  0.2864
 1042SOL    HW214763   1.710   3.675  15.698  1.1948 -1.1495  1.6922
 1043SOL     OW14764   0.064   3.504   6.567  0.3525 -0.2309  0.4821
 1043SOL    HW114765   4.720   3.543   6.607  1.3942  1.1396  1.1906
 1043SOL    HW214766   0.112   3.470   6.642 -0.9003 -0.1756  1.3188
 1044SOL     OW14767   2.081   0.545   0.039 -0.1813  0.5998 -0.0249
 1044SOL    HW114768   2.134   0.509   0.110  0.3790 -0.8936 -1.2119
 1044SOL    HW214769   2.141   0.528  17.702  0.0700 -3.1749  1.1128
 1045SOL     OW14770   3.094   0.575   0.470 -0.1578 -0.0861 -0.1701
 1045SOL    HW114771   3.147   0.515   0.522  1.0187  1.6645  0.6175
 1045SOL    HW214772   3.156   0.644   0.449 -0.4883 -0.0923 -1.1810
 1046SOL     OW14773   0.792   2.938   6.396  0.3751 -0.0382 -0.5524
 1046SOL    HW114774   0.733   3.005   6.432  0.1851  0.2389 -1.3781
 1046SOL    HW214775   0.873   2.959   6.443 -0.1256  0.1987  0.2092
 1047SOL     OW14776   2.834   1.000   9.298 -0.2141 -0.3609  0.0582
 1047SOL    HW114777   2.864   0.986   9.387 -1.6079  0.9870  0.7393
 1047SOL    HW214778   2.902   0.944   9.260  0.4417  0.2755  0.2901
 1048SOL     OW14779   1.835   3.353   3.514  0.0318  0.3676 -0.7777
 1048SOL    HW114780   1.741   3.347   3.492  0.4939 -1.8143 -2.1852
 1048SOL    HW214781   1.865   3.382   3.428 -0.9375  1.4932 -0.7298
 1049SOL     OW14782   0.639   0.379   3.927 -0.5439 -0.4972  0.4695
 1049SOL    HW114783   0.554   0.336   3.918  0.3524 -1.6650 -2.4641
 1049SOL    HW214784   0.610   0.469   3.916  0.7398 -0.2143 -0.5899
 1050SOL     OW14785   0.931   0.142   4.465  0.0250  0.0762 -0.3825
 1050SOL    HW114786   0.847   0.186   4.468  0.9048  1.7252  0.3062
 1050SOL    HW214787   0.905   0.054   4.490  2.0264 -0.7515 -1.2166
 1051SOL     OW14788   4.502   4.377   8.603 -0.2379 -0.0686  0.8888
 1051SOL    HW114789   4.534   4.394   8.691  0.0760 -0.8206  0.9208
 1051SOL    HW214790   4.578   4.395   8.548 -2.0377 -0.2691 -1.6665
 1052SOL     OW14791   2.613   2.083  11.860  0.4838  0.5498  0.3351
 1052SOL    HW114792   2.697   2.039  11.874  0.3864  0.1294 -0.3604
 1052SOL    HW214793   2.566   2.001  11.841 -0.0141  1.1621 -1.1089
 1053SOL     OW14794   2.489   1.287  14.323  0.0645 -0.2195  0.0625
 1053SOL    HW114795   2.477   1.240  14.405  2.0586  1.3144  1.2429
 1053SOL    HW214796   2.545   1.359  14.353 -0.2197 -0.0690  0.2340
 1054SOL     OW14797   2.715   2.275   5.959  0.3907  0.5617 -0.0204
 1054SOL    HW114798   2.751   2.187   5.967 -2.4730 -0.6693 -0.7347
 1054SOL    HW214799   2.625   2.252   5.935  0.1503 -0.5130  1.8851
 1055SOL     OW14800   1.735   4.320   5.942 -0.1465  1.0441  0.0818
 1055SOL    HW114801   1.716   4.229   5.921  0.9192  1.1447 -1.2836
 1055SOL    HW214802   1.829   4.312   5.930 -0.2751  1.1942 -1.0155
 1056SOL     OW14803   4.377   0.149   5.429 -0.5439  0.3353  0.0323
 1056SOL    HW114804   4.431   0.155   5.508 -0.8782  4.0579 -0.0406
 1056SOL    HW214805   4.389   0.056   5.408 -2.3459 -0.1483  1.1017
 1057SOL     OW14806   3.903   3.410   5.301 -0.2389  0.3689  0.2913
 1057SOL    HW114807   3.907   3.457   5.384  1.6695  1.4689 -0.4315
 1057SOL    HW214808   3.932   3.476   5.238  0.3391  0.8007  1.0087
 1058SOL     OW14809   1.750   0.307   3.644  0.5745 -0.3646 -0.1643
 1058SOL    HW114810   1.823   0.366   3.624  0.9252 -0.2176  1.5251
 1058SOL    HW214811   1.714   0.272   3.563  2.0241  0.9525 -1.3991
 1059SOL     OW14812   2.569   2.821  11.245  0.0434  0.0035  0.0917
 1059SOL    HW114813   2.529   2.838  11.330 -2.3031 -0.6592 -0.8647
 1059SOL    HW214814   2.636   2.753  11.247 -1.0295 -1.0547  0.1646
 1060SOL     OW14815   2.591   4.092   4.244  0.2364  0.9669 -0.5673
 1060SOL    HW114816   2.678   4.066   4.212  0.1514 -0.3347  0.2257
 1060SOL    HW214817   2.577   4.040   4.323  1.3794  0.2086 -0.8582
 1061SOL     OW14818   1.950   3.146   9.004 -0.4130  0.1987 -0.3649
 1061SOL    HW114819   1.999   3.091   8.944  2.4066  1.3675  0.8399
 1061SOL    HW214820   1.968   3.231   8.964  0.6718 -0.3764 -1.1282
 1062SOL     OW14821   1.909   0.880   8.297  0.1258  0.1779 -0.3271
 1062SOL    HW114822   1.942   0.803   8.251  0.3641  0.2046 -0.1982
 1062SOL    HW214823   1.836   0.903   8.239  1.5474  0.1287 -2.0998
 1063SOL     OW14824   4.307   4.413   7.184  0.1018  0.1863  0.7641
 1063SOL    HW114825   4.326   4.389   7.275  1.9983 -2.5544 -0.3369
 1063SOL    HW214826   4.261   4.337   7.148  0.6958  0.8190 -1.3765
 1064SOL     OW14827   2.880   0.437   8.967 -0.2082  0.1990  0.1085
 1064SOL    HW114828   2.911   0.412   8.880  0.0762  1.7078 -0.2274
 1064SOL    HW214829   2.909   0.369   9.028 -1.0031 -0.3228 -0.0950
 1065SOL     OW14830   3.356   3.190   5.848 -0.6169 -0.2676 -0.2842
 1065SOL    HW114831   3.346   3.134   5.925 -0.7487 -0.0945 -0.1738
 1065SOL    HW214832   3.358   3.277   5.888  4.6424 -0.9569  1.0000
 1066SOL     OW14833   0.998   4.529  17.064  0.4428  0.0161  0.4036
 1066SOL    HW114834   0.921   4.473  17.079  0.1755  0.4999  0.8331
 1066SOL    HW214835   1.007   4.528  16.968  0.8130  0.4624  0.4358
 1067SOL     OW14836   1.092   0.533   5.424 -0.0310 -0.0241  0.5528
 1067SOL    HW114837   1.167   0.526   5.483 -1.0901  0.4907  1.9330
 1067SOL    HW214838   1.026   0.516   5.491 -0.4538  0.0092  0.1438
 1068SOL     OW14839   1.311   0.393  14.130 -0.2205 -0.3762 -0.5863
 1068SOL    HW114840   1.259   0.456  14.180  0.0666 -0.6108  0.0107
 1068SOL    HW214841   1.400   0.421  14.150 -1.1373  1.5019  0.8812
 1069SOL     OW14842   0.402   4.187   6.255  0.0399 -0.2589  0.0210
 1069SOL    HW114843   0.409   4.242   6.177  1.8335 -0.1433  0.2782
 1069SOL    HW214844   0.360   4.112   6.214  0.4003 -0.7795  0.6162
 1070SOL     OW14845   1.152   2.892   9.335 -0.1746  0.1685  0.1661
 1070SOL    HW114846   1.102   2.870   9.413 -1.0793  1.3785 -0.0643
 1070SOL    HW214847   1.239   2.914   9.367 -0.3985 -0.1201  0.9648
 1071SOL     OW14848   4.269   4.389   5.714  0.2564  0.3576 -0.0086
 1071SOL    HW114849   4.277   4.321   5.782  0.5501  1.7362  1.3387
 1071SOL    HW214850   4.336   4.339   5.666 -0.9542  0.2667 -1.5855
 1072SOL     OW14851   2.951   3.097   2.010  0.4439  0.1452 -0.4175
 1072SOL    HW114852   2.874   3.063   2.056 -0.0618  1.1791 -0.5138
 1072SOL    HW214853   2.925   3.073   1.921 -0.8619  0.9417 -0.2351
 1073SOL     OW14854   1.363   1.900   8.990 -0.0593  0.0796  0.1283
 1073SOL    HW114855   1.364   1.944   9.075 -2.7139 -0.2525  0.3367
 1073SOL    HW214856   1.279   1.936   8.962 -0.3415 -0.5577  0.1683
 1074SOL     OW14857   1.384   0.864  13.130 -0.6306  0.0725 -0.2876
 1074SOL    HW114858   1.403   0.824  13.046 -2.8307  0.4250 -0.9728
 1074SOL    HW214859   1.468   0.900  13.157 -0.3623 -0.7525 -0.0408
 1075SOL     OW14860   3.759   3.590   1.113 -0.2393  0.0225 -0.0129
 1075SOL    HW114861   3.682   3.578   1.168  0.2445 -0.0081  0.6604
 1075SOL    HW214862   3.819   3.520   1.138 -1.6191 -1.5407 -1.1358
 1076SOL     OW14863   2.955   0.439  10.883  0.0555 -0.3957  0.0867
 1076SOL    HW114864   2.880   0.472  10.834  0.8080 -0.5094 -1.1476
 1076SOL    HW214865   2.916   0.387  10.954 -0.3466 -0.3393 -0.0982
 1077SOL     OW14866   4.295   3.947   0.212  0.0323 -0.4060  0.6123
 1077SOL    HW114867   4.236   3.878   0.182  1.5967 -1.4717  0.0304
 1077SOL    HW214868   4.319   3.992   0.131  0.6260  0.1444  1.0977
 1078SOL     OW14869   3.926   1.922   8.337  0.5196  0.0224 -0.4509
 1078SOL    HW114870   3.911   2.003   8.289 -1.3046  1.4135  2.4719
 1078SOL    HW214871   3.875   1.858   8.288  0.9654 -1.1903  0.6624
 1079SOL     OW14872   0.102   4.447   6.631  0.6713 -0.6768  0.0988
 1079SOL    HW114873   0.052   4.375   6.669 -1.9082  1.7567  1.3003
 1079SOL    HW214874   0.109   4.409   6.543  2.1179  0.3924 -0.2483
 1080SOL     OW14875   4.593   2.865  12.832 -0.1597  0.0619  0.4770
 1080SOL    HW114876   4.555   2.951  12.809 -0.1308  0.1756  0.8528
 1080SOL    HW214877   4.549   2.803  12.774 -0.7024  1.1127 -0.2446
 1081SOL     OW14878   1.807   2.085   6.937 -0.0169  0.4695  0.3948
 1081SOL    HW114879   1.803   1.989   6.941  1.2874  0.4480  1.1748
 1081SOL    HW214880   1.898   2.103   6.958  0.1824 -0.3367  0.2460
 1082SOL     OW14881   1.661   1.269  12.706 -0.2708  0.2485  0.1433
 1082SOL    HW114882   1.699   1.186  12.734  2.0606  0.4636 -2.3242
 1082SOL    HW214883   1.569   1.244  12.703  0.0253 -0.9053  0.6743
 1083SOL     OW14884   2.226   1.417   4.169 -0.1044 -0.2305  0.4684
 1083SOL    HW114885   2.250   1.366   4.091 -0.5394 -2.5255  1.8502
 1083SOL    HW214886   2.284   1.493   4.166 -0.1513 -0.2200 -0.4260
 1084SOL     OW14887   0.440   4.501   6.593 -0.6284 -0.2888  0.1407
 1084SOL    HW114888   0.403   4.417   6.620  1.9987 -1.6561 -0.4814
 1084SOL    HW214889   0.466   4.544   6.675 -1.1622 -0.9262  0.6412
 1085SOL     OW14890   3.241   1.758   4.708 -0.1129  0.0141 -0.0775
 1085SOL    HW114891   3.258   1.683   4.765 -0.4078  2.0882  2.7207
 1085SOL    HW214892   3.149   1.773   4.729  0.1714  0.6425  0.7275
 1086SOL     OW14893   2.102   4.682   0.478 -0.4713  0.2296  0.5649
 1086SOL    HW114894   2.150   4.621   0.534  0.6542  0.5844 -0.0162
 1086SOL    HW214895   2.173   4.690   0.414 -1.1692 -0.4291 -0.2912
 1087SOL     OW14896   0.589   1.285   5.754 -0.5766  0.2621 -1.0094
 1087SOL    HW114897   0.610   1.254   5.842  0.7098  0.3141 -1.3013
 1087SOL    HW214898   0.600   1.213   5.693 -0.0477 -1.0316  0.6119
 1088SOL     OW14899   0.523   1.212   9.051 -0.4824  0.1323  0.1485
 1088SOL    HW114900   0.552   1.162   9.127 -2.3118 -0.9486  0.1355
 1088SOL    HW214901   0.433   1.233   9.079 -0.7632  0.1480 -0.7714
 1089SOL     OW14902   4.244   3.545   6.182  0.2437  0.2715  0.7858
 1089SOL    HW114903   4.266   3.510   6.096  0.9401 -1.3775  1.6531
 1089SOL    HW214904   4.282   3.474   6.233  0.1394 -0.9290 -0.7867
 1090SOL     OW14905   0.467   2.625   1.760  0.0800 -0.0682 -0.2434
 1090SOL    HW114906   0.409   2.548   1.761  1.0958 -0.8237  0.6373
 1090SOL    HW214907   0.454   2.658   1.849 -1.3590  1.7325 -1.1241
 1091SOL     OW14908   0.591   1.459   0.270  0.1144 -0.4800 -0.3314
 1091SOL    HW114909   0.606   1.541   0.223 -2.9240  1.1736  1.6141
 1091SOL    HW214910   0.574   1.393   0.202 -2.6626 -0.0470 -0.0548
 1092SOL     OW14911   3.027   2.581  16.834 -0.2959  0.3732  0.6800
 1092SOL    HW114912   3.024   2.487  16.854 -0.4878  0.0460 -0.8827
 1092SOL    HW214913   3.122   2.584  16.820 -0.1018  0.1513  1.9711
 1093SOL     OW14914   2.115   1.452   6.766 -0.3860 -0.1264 -0.2811
 1093SOL    HW114915   2.172   1.424   6.838 -0.2181  0.7661 -0.0685
 1093SOL    HW214916   2.177   1.501   6.713  1.6753 -0.3127  1.9554
 1094SOL     OW14917   2.672   1.811   3.301  0.1755  0.2370 -0.2814
 1094SOL    HW114918   2.636   1.843   3.218  1.1292 -1.1051 -1.2141
 1094SOL    HW214919   2.589   1.795   3.347  0.1690 -0.0564 -0.3955
 1095SOL     OW14920   0.547   0.982   6.630  0.8133 -0.0726  0.2656
 1095SOL    HW114921   0.604   1.015   6.699 -0.9167  0.1865  1.5464
 1095SOL    HW214922   0.567   0.888   6.632  0.4769 -0.1011  1.8294
 1096SOL     OW14923   1.573   0.303   4.086  0.2796 -0.1476  0.2375
 1096SOL    HW114924   1.650   0.270   4.040 -0.8402 -0.4344 -1.4046
 1096SOL    HW214925   1.560   0.255   4.168 -0.3203  0.8039  0.7008
 1097SOL     OW14926   2.281   0.291   6.013  0.1859 -0.1174  0.2093
 1097SOL    HW114927   2.241   0.269   5.929 -1.4662  0.5587  0.8212
 1097SOL    HW214928   2.354   0.229   6.013 -1.2200 -1.7743  2.7810
 1098SOL     OW14929   2.204   2.090   3.163  0.2746 -0.0746 -0.5517
 1098SOL    HW114930   2.109   2.081   3.169  0.6227 -4.5828 -2.0284
 1098SOL    HW214931   2.213   2.179   3.129 -0.4769  0.1834 -0.0571
 1099SOL     OW14932   3.013   4.512   6.647  0.1030 -0.1498 -0.4634
 1099SOL    HW114933   3.003   4.478   6.558 -1.0112  0.2711 -0.4912
 1099SOL    HW214934   3.049   4.442   6.702 -0.1390  0.4563  0.4718
 1100SOL     OW14935   1.317   3.155   5.688 -0.0094  0.3812  0.3593
 1100SOL    HW114936   1.243   3.095   5.677 -0.1471  0.0770  2.8912
 1100SOL    HW214937   1.393   3.099   5.674 -0.0547  0.7913 -1.4829
 1101SOL     OW14938   1.532   3.645   2.923 -0.4616  0.2023  0.0039
 1101SOL    HW114939   1.444   3.626   2.954 -0.9251  3.0895  0.5238
 1101SOL    HW214940   1.546   3.728   2.969 -0.0765  0.2864 -0.2643
 1102SOL     OW14941   2.588   4.300   5.825  0.1607 -0.0137 -0.2854
 1102SOL    HW114942   2.597   4.361   5.898 -0.4490 -0.0851 -0.1491
 1102SOL    HW214943   2.675   4.263   5.837  0.2057  0.1622 -0.0701
 1103SOL     OW14944   1.075   1.491  12.692  0.1443  0.6521  0.1290
 1103SOL    HW114945   1.101   1.559  12.629  1.4085 -0.0045 -0.0709
 1103SOL    HW214946   1.061   1.409  12.645 -0.6970  0.8466  0.0416
 1104SOL     OW14947   4.528   1.876   4.324 -0.1640  0.0156 -0.2760
 1104SOL    HW114948   4.528   1.972   4.315 -0.8948  0.0983  0.5515
 1104SOL    HW214949   4.483   1.848   4.244  1.0257  1.4270 -1.4375
 1105SOL     OW14950   3.948   1.866   3.480  0.4398  0.0497  0.0873
 1105SOL    HW114951   3.855   1.849   3.465  0.2756  2.9280 -1.9349
 1105SOL    HW214952   3.962   1.813   3.559 -2.2701  0.7012  1.0270
 1106SOL     OW14953   1.146   3.310   8.653  0.2317  0.4480  0.1060
 1106SOL    HW114954   1.055   3.280   8.653  0.3368  0.1475 -1.0620
 1106SOL    HW214955   1.136   3.350   8.567  0.1727 -0.1190 -0.1523
 1107SOL     OW14956   0.641   3.785   8.706  0.1053  0.6135  0.4018
 1107SOL    HW114957   0.670   3.796   8.796 -0.0610  3.0530  0.1717
 1107SOL    HW214958   0.706   3.837   8.658  0.2866 -0.8985 -0.9826
 1108SOL     OW14959   2.035   4.661   8.717 -0.4929  0.0083  0.2216
 1108SOL    HW114960   2.070   4.577   8.748  0.0726 -0.0959 -0.7020
 1108SOL    HW214961   2.026   4.636   8.625  1.8274 -1.3261  0.3594
 1109SOL     OW14962   1.760   3.448   5.385  0.0268 -0.0346  0.1387
 1109SOL    HW114963   1.801   3.438   5.471  0.9376  0.7548 -0.2108
 1109SOL    HW214964   1.674   3.470   5.419 -0.2142 -1.3708  0.4179
 1110SOL     OW14965   3.741   3.098   5.703  0.0918  0.1471  0.2954
 1110SOL    HW114966   3.714   3.189   5.693 -2.7038 -0.4416  2.8622
 1110SOL    HW214967   3.834   3.117   5.686  0.5834 -0.9579  1.7542
 1111SOL     OW14968   0.640   4.166   9.176 -0.6515 -0.2437 -0.6390
 1111SOL    HW114969   0.672   4.242   9.226 -2.2596 -0.0368  0.0507
 1111SOL    HW214970   0.639   4.099   9.244 -0.6893 -0.4006 -0.7966
 1112SOL     OW14971   1.347   3.239   7.639 -0.3253 -0.3425  0.0588
 1112SOL    HW114972   1.340   3.314   7.580  1.0828  1.2877  1.9440
 1112SOL    HW214973   1.364   3.171   7.574  0.2821  0.3897 -0.5376
 1113SOL     OW14974   2.971   4.216  16.381 -0.1385 -0.4702 -0.4469
 1113SOL    HW114975   2.897   4.260  16.338  0.5156  0.4151 -0.6637
 1113SOL    HW214976   3.024   4.291  16.404 -0.0109 -0.7453  0.1561
 1114SOL     OW14977   2.244   0.678   4.933  0.1665  0.1380  0.0230
 1114SOL    HW114978   2.240   0.584   4.914 -0.5711  0.2625 -0.4377
 1114SOL    HW214979   2.220   0.712   4.847 -0.1069  1.2694  0.5403
 1115SOL     OW14980   0.814   2.157   1.805 -0.0436  0.5230 -0.5492
 1115SOL    HW114981   0.856   2.196   1.882  0.7495 -0.0348 -0.7031
 1115SOL    HW214982   0.749   2.224   1.786 -0.0302  1.0060  1.0894
 1116SOL     OW14983   4.345   3.977  15.052 -0.1804 -0.3722  0.3980
 1116SOL    HW114984   4.398   3.985  14.972  0.5961 -0.7883  0.8639
 1116SOL    HW214985   4.376   4.058  15.093  1.9807 -0.7797 -0.3872
 1117SOL     OW14986   0.235   3.036   1.324  0.0267 -0.0622  0.0243
 1117SOL    HW114987   0.184   3.059   1.402 -1.3880 -0.6047 -0.7422
 1117SOL    HW214988   0.214   2.943   1.321 -1.9919  0.4822 -2.5375
 1118SOL     OW14989   2.820   2.866   8.442 -0.1177  0.4152 -0.6333
 1118SOL    HW114990   2.816   2.902   8.531  0.9031 -2.5477  0.6281
 1118SOL    HW214991   2.865   2.931   8.389 -1.3859  0.9340 -1.0690
 1119SOL     OW14992   1.908   1.766  17.276  0.3616  0.4815  0.4247
 1119SOL    HW114993   1.843   1.709  17.317 -0.8690  2.2276  0.8896
 1119SOL    HW214994   1.856   1.818  17.214  0.4156 -1.1973 -1.0368
 1120SOL     OW14995   2.073   4.114   0.524  0.1519  0.3254 -0.2691
 1120SOL    HW114996   2.142   4.070   0.572  0.1938 -0.8263 -1.4007
 1120SOL    HW214997   2.097   4.086   0.436  0.0914 -0.0670 -0.1581
 1121SOL     OW14998   0.096   2.328   7.721 -0.0392 -0.1475 -0.0190
 1121SOL    HW114999   0.085   2.422   7.734  1.3728  0.1563 -1.0705
 1121SOL    HW215000   0.007   2.298   7.701  0.5251 -1.0608 -1.1908
 1122SOL     OW15001   0.379   2.054  14.617  0.1840  0.1114  0.2295
 1122SOL    HW115002   0.439   2.053  14.543  3.7910 -0.9536  3.2072
 1122SOL    HW215003   0.385   2.145  14.646 -1.7493  0.7234 -1.2750
 1123SOL     OW15004   2.472   3.404   5.782 -0.3704 -1.0732 -0.5315
 1123SOL    HW115005   2.401   3.457   5.746 -1.1820 -2.2933 -0.6983
 1123SOL    HW215006   2.434   3.317   5.786  0.0102 -1.1443  1.4902
 1124SOL     OW15007   3.548   0.673  15.878 -0.1684 -0.1569 -0.4707
 1124SOL    HW115008   3.564   0.713  15.964  1.5924 -0.8229 -0.4881
 1124SOL    HW215009   3.605   0.596  15.877  0.9258  0.6583 -0.2928
 1125SOL     OW15010   2.809   0.110   3.367 -0.2348  0.3625  0.2216
 1125SOL    HW115011   2.829   0.191   3.320 -1.0302  0.6573  0.4036
 1125SOL    HW215012   2.719   0.124   3.395  0.3172  2.9264  0.6947
 1126SOL     OW15013   2.431   3.034   3.627  0.0532  0.4168 -0.0298
 1126SOL    HW115014   2.489   3.106   3.652 -0.2198  0.7003 -0.2146
 1126SOL    HW215015   2.362   3.087   3.588  1.8150  2.2546 -0.6401
 1127SOL     OW15016   1.177   2.178   6.557 -0.4465  0.3063 -0.4657
 1127SOL    HW115017   1.152   2.268   6.579 -0.5980 -0.0808  0.9612
 1127SOL    HW215018   1.118   2.124   6.609 -0.0438 -1.1507 -1.5100
 1128SOL     OW15019   3.744   0.028   5.313 -0.5235 -0.4177  0.3679
 1128SOL    HW115020   3.730   0.040   5.407  0.1077 -0.5750  0.4831
 1128SOL    HW215021   3.751   0.122   5.294 -2.3130 -0.6861 -1.5770
 1129SOL     OW15022   1.743   0.489  14.583 -0.4503  0.3834 -0.3047
 1129SOL    HW115023   1.795   0.548  14.528 -0.4014 -0.8019 -1.5418
 1129SOL    HW215024   1.656   0.522  14.605 -0.4381 -0.3886  0.8920
 1130SOL     OW15025   1.549   0.235  15.173 -0.5178 -0.2613  0.5624
 1130SOL    HW115026   1.593   0.249  15.089 -0.4269 -1.8772  0.3497
 1130SOL    HW215027   1.470   0.187  15.150  0.6846 -1.7881 -0.3611
 1131SOL     OW15028   1.742   3.042   4.600  0.0912 -0.0172  0.8606
 1131SOL    HW115029   1.819   3.053   4.543 -0.3616  0.8681  0.4143
 1131SOL    HW215030   1.688   2.991   4.539  0.0866  1.7084 -0.5876
 1132SOL     OW15031   3.236   2.228   4.515 -0.0420 -0.2744 -0.0602
 1132SOL    HW115032   3.162   2.233   4.575  0.4655 -0.4696  0.5832
 1132SOL    HW215033   3.286   2.154   4.550 -0.3634 -0.1566  0.6487
 1133SOL     OW15034   2.023   3.509   1.141  0.6099 -0.6341 -0.1900
 1133SOL    HW115035   2.007   3.449   1.213 -0.2784  0.3313  0.4157
 1133SOL    HW215036   2.114   3.480   1.133  1.3349  1.4372  0.6458
 1134SOL     OW15037   0.663   4.553  10.470 -0.0163  0.5281  0.9977
 1134SOL    HW115038   0.667   4.458  10.481 -1.8452  0.5769  2.1015
 1134SOL    HW215039   0.631   4.587  10.554 -1.7257  0.2041  0.4729
 1135SOL     OW15040   3.470   4.293  14.796  0.7527  0.1951  0.0961
 1135SOL    HW115041   3.410   4.302  14.871  2.9489 -1.3239  2.0060
 1135SOL    HW215042   3.416   4.237  14.740  0.9463  2.0518 -1.9444
 1136SOL     OW15043   2.646   2.132   0.530 -0.7720  0.1225  0.1022
 1136SOL    HW115044   2.705   2.205   0.548 -0.6776 -0.0963  0.6910
 1136SOL    HW215045   2.686   2.061   0.580 -3.1436 -1.1550  0.1921
 1137SOL     OW15046   1.487   4.310  13.459  0.1881  0.5458  0.1686
 1137SOL    HW115047   1.520   4.292  13.547  2.2185  0.4140 -0.6149
 1137SOL    HW215048   1.463   4.222  13.430 -0.3865  1.2223 -1.4441
 1138SOL     OW15049   0.533   1.710   9.895 -0.4671 -0.2298 -0.4728
 1138SOL    HW115050   0.511   1.802   9.906 -0.7786 -0.3680  0.1078
 1138SOL    HW215051   0.479   1.689   9.819 -4.0671  2.1261  1.3970
 1139SOL     OW15052   0.352   4.662   2.531  0.1803  0.3391  0.1600
 1139SOL    HW115053   0.316   4.610   2.460 -2.5987  0.9476  1.1060
 1139SOL    HW215054   0.336   0.014   2.491  0.3669 -0.2285 -1.1207
 1140SOL     OW15055   4.544   3.990   9.024  0.6543 -0.2908 -0.4423
 1140SOL    HW115056   4.594   3.984   9.106 -0.0747  1.2852  0.1066
 1140SOL    HW215057   4.456   3.965   9.050  0.0781  0.0123 -2.1610
 1141SOL     OW15058   4.674   4.275   6.374 -0.6367 -0.2243  0.2936
 1141SOL    HW115059   0.010   4.244   6.430  1.0481  1.1159 -1.0857
 1141SOL    HW215060   4.650   4.195   6.327  0.8302 -0.7903  0.5287
 1142SOL     OW15061   3.333   0.467   5.976 -0.2298 -0.4836  0.6871
 1142SOL    HW115062   3.426   0.445   5.973  0.2963  1.9070 -0.8934
 1142SOL    HW215063   3.340   0.552   6.020 -0.9875  0.9366 -1.9186
 1143SOL     OW15064   0.694   2.224   3.303 -0.1985 -0.0369  0.5609
 1143SOL    HW115065   0.702   2.319   3.293  0.0256 -0.0480  0.6276
 1143SOL    HW215066   0.733   2.186   3.224  1.4295  0.7407  1.0014
 1144SOL     OW15067   2.086   4.287  13.845 -0.7778 -1.1035 -0.9502
 1144SOL    HW115068   2.163   4.282  13.789  1.2125 -0.6993  1.8021
 1144SOL    HW215069   2.108   4.229  13.918 -0.5070  2.2846  1.6447
 1145SOL     OW15070   1.825   3.482   3.011  0.2728 -0.5492  0.9034
 1145SOL    HW115071   1.729   3.491   3.009  0.2276 -0.8609  1.9568
 1145SOL    HW215072   1.832   3.387   3.000  0.3267 -0.5042  0.5295
 1146SOL     OW15073   1.141   1.517   2.508  0.1725  0.7006  0.1368
 1146SOL    HW115074   1.093   1.599   2.499 -0.0546  0.6080  0.4868
 1146SOL    HW215075   1.069   1.455   2.499  0.9647 -0.3216  0.8658
 1147SOL     OW15076   2.364   0.970  15.396 -0.0357 -0.0957  0.4105
 1147SOL    HW115077   2.448   0.962  15.441  1.6717 -1.2046 -3.0300
 1147SOL    HW215078   2.313   1.016  15.463  0.4863  0.9855  0.0594
 1148SOL     OW15079   3.700   0.661   5.369  0.3931 -0.3490 -0.5414
 1148SOL    HW115080   3.794   0.678   5.378  0.0693 -0.7696  3.7496
 1148SOL    HW215081   3.691   0.571   5.337 -3.5816 -0.4304  0.8032
 1149SOL     OW15082   0.016   1.567   0.679 -0.0117  0.1111 -0.4529
 1149SOL    HW115083   0.084   1.578   0.746 -0.6255 -1.0697  0.3644
 1149SOL    HW215084   0.000   1.657   0.651 -0.3562 -0.0200 -0.6757
 1150SOL     OW15085   0.136   1.780   2.197 -0.0131 -0.6270 -0.0853
 1150SOL    HW115086   0.103   1.786   2.287 -3.5561 -0.0538 -1.4349
 1150SOL    HW215087   0.102   1.692   2.178  2.0202 -1.0448 -1.8467
 1151SOL     OW15088   2.807   4.240  11.755  0.0543 -0.5101 -0.0133
 1151SOL    HW115089   2.766   4.321  11.726 -0.5677 -1.1781 -0.9761
 1151SOL    HW215090   2.746   4.207  11.821 -1.6419  1.2806 -0.6878
 1152SOL     OW15091   0.559   3.837   4.890 -0.0879 -0.1838  0.3757
 1152SOL    HW115092   0.530   3.924   4.861  1.7578  0.3561  0.1108
 1152SOL    HW215093   0.545   3.860   4.982  0.5008 -1.1101  0.6941
 1153SOL     OW15094   4.191   3.635  10.955  0.5677 -0.0982  0.3140
 1153SOL    HW115095   4.280   3.648  10.923  0.1446  1.1518 -0.3633
 1153SOL    HW215096   4.177   3.548  10.917  2.2713 -0.4833  0.5472
 1154SOL     OW15097   0.417   0.160   8.977  0.5559  0.1622  0.3803
 1154SOL    HW115098   0.495   0.183   8.926  0.0735  0.2974 -0.2929
 1154SOL    HW215099   0.439   0.069   8.998  0.0590  0.0343  0.3398
 1155SOL     OW15100   2.069   4.685   2.753 -0.0777  0.5057  0.1699
 1155SOL    HW115101   2.004   0.021   2.745 -0.3625  0.0467 -1.5874
 1155SOL    HW215102   2.003   4.617   2.764  1.5149 -0.9340  0.7996
 1156SOL     OW15103   0.158   0.030   5.800 -0.0026  0.1953  0.1040
 1156SOL    HW115104   0.150   0.123   5.818 -1.5630  0.3704 -1.4621
 1156SOL    HW215105   0.067   0.015   5.775  0.5841 -0.7820 -1.4977
 1157SOL     OW15106   2.405   1.567   2.509 -0.3971 -0.6457  0.1423
 1157SOL    HW115107   2.499   1.561   2.526 -0.8037 -1.5518  2.1188
 1157SOL    HW215108   2.417   1.582   2.415 -1.3647  0.4896  0.2067
 1158SOL     OW15109   0.145   2.109   8.788  0.1712 -0.4667  0.0511
 1158SOL    HW115110   0.104   2.111   8.702  0.3009 -0.1485 -0.0039
 1158SOL    HW215111   0.178   2.198   8.795  1.0099 -0.9559  2.2929
 1159SOL     OW15112   0.148   2.141  12.586 -0.1897 -0.4578  0.1739
 1159SOL    HW115113   0.119   2.053  12.561  2.0867 -0.2565 -3.1778
 1159SOL    HW215114   0.155   2.185  12.501 -0.2707 -0.6181  0.0831
 1160SOL     OW15115   4.705   3.890   3.004  0.2618  0.0082 -0.1396
 1160SOL    HW115116   4.615   3.887   2.971  1.0912 -3.1837 -2.0672
 1160SOL    HW215117   0.021   3.897   2.923 -0.3582 -2.3000 -0.7271
 1161SOL     OW15118   2.047   0.026   3.942 -0.5431 -0.7551  0.0220
 1161SOL    HW115119   2.130   0.007   3.898  0.0471  3.7335 -0.7958
 1161SOL    HW215120   2.058   4.723   4.030  0.4971 -0.4586  0.0183
 1162SOL     OW15121   4.698   3.328   4.843 -0.3140  0.4992  0.2223
 1162SOL    HW115122   4.673   3.419   4.830 -1.9614  0.0026 -0.0405
 1162SOL    HW215123   4.660   3.291   4.764  0.2187 -0.7088  0.5245
 1163SOL     OW15124   1.737   2.182   8.682 -0.3705 -0.1711 -0.3101
 1163SOL    HW115125   1.726   2.097   8.724 -0.7277 -0.1321 -0.3254
 1163SOL    HW215126   1.821   2.207   8.720  0.1627  0.0334 -1.5988
 1164SOL     OW15127   1.725   2.031  15.087 -0.5007  0.1227 -0.1584
 1164SOL    HW115128   1.632   2.039  15.067 -0.6423 -1.7021 -0.2499
 1164SOL    HW215129   1.757   2.103  15.034  1.2987 -0.5527 -0.0021
 1165SOL     OW15130   4.688   1.026   7.962  0.3766 -0.0164  0.2995
 1165SOL    HW115131   4.707   0.993   7.874  0.6903  1.7093 -0.2937
 1165SOL    HW215132   0.032   0.991   8.005 -0.4899 -3.0233 -0.6065
 1166SOL     OW15133   3.906   3.512  13.179  0.0007  0.7057  0.2386
 1166SOL    HW115134   3.843   3.575  13.143  0.2095  2.7063  3.3940
 1166SOL    HW215135   3.968   3.561  13.233  1.1608 -0.6866  0.1783
 1167SOL     OW15136   0.632   1.011   3.934 -0.1601 -0.0730 -0.0146
 1167SOL    HW115137   0.638   1.091   3.882 -0.6646  0.1190  0.2130
 1167SOL    HW215138   0.572   0.966   3.874  3.0567 -1.7454 -1.9683
 1168SOL     OW15139   4.657   2.577   2.761  0.0938  0.0807  0.4888
 1168SOL    HW115140   4.594   2.529   2.814 -0.3968  0.9489  0.7014
 1168SOL    HW215141   4.602   2.617   2.693 -0.6006  0.7947  1.4839
 1169SOL     OW15142   3.613   1.980   6.173 -0.2738 -0.4138  0.2746
 1169SOL    HW115143   3.687   1.921   6.155 -1.6943 -2.3170  0.6557
 1169SOL    HW215144   3.548   1.935   6.119  1.4286 -2.0615 -0.4408
 1170SOL     OW15145   2.700   4.403   1.304 -0.6054 -0.3393  0.4954
 1170SOL    HW115146   2.717   4.350   1.226 -0.9948 -0.1192  0.2604
 1170SOL    HW215147   2.622   4.455   1.284 -0.8442 -0.4450  1.1772
 1171SOL     OW15148   3.132   0.166   2.993 -0.0430  0.0531  0.0098
 1171SOL    HW115149   3.154   0.186   2.902 -0.3427 -1.3734 -0.3881
 1171SOL    HW215150   3.195   0.218   3.043 -0.2983  0.3496  0.0218
 1172SOL     OW15151   4.180   2.527   0.633  0.6793  0.0961 -0.1818
 1172SOL    HW115152   4.111   2.496   0.691 -0.2657  0.6024 -1.0361
 1172SOL    HW215153   4.190   2.613   0.674 -0.7615  0.1323  0.1136
 1173SOL     OW15154   3.939   1.898   1.903  0.2150 -0.6369  0.6072
 1173SOL    HW115155   3.877   1.964   1.935 -0.6058 -0.9530 -0.3213
 1173SOL    HW215156   3.905   1.814   1.931  0.5880  0.1413  3.3437
 1174SOL     OW15157   4.147   0.302  12.535 -0.5723  0.4528  0.2714
 1174SOL    HW115158   4.134   0.231  12.473 -0.8775  0.6845  0.0703
 1174SOL    HW215159   4.237   0.325  12.513 -0.7178  0.1953 -0.5704
 1175SOL     OW15160   3.870   2.852   9.498  0.0333  0.0203  0.1362
 1175SOL    HW115161   3.916   2.770   9.482 -3.1324 -1.1907 -2.6033
 1175SOL    HW215162   3.948   2.906   9.516 -1.3805  1.5285  1.7353
 1176SOL     OW15163   0.770   2.988   7.697 -0.5077 -0.1450 -0.1107
 1176SOL    HW115164   0.809   3.033   7.622 -0.4453  0.5342  0.3369
 1176SOL    HW215165   0.781   2.897   7.668 -1.6594 -0.5303  0.6393
 1177SOL     OW15166   2.093   0.221   9.558 -0.0750 -0.6153 -0.2393
 1177SOL    HW115167   2.022   0.268   9.514 -0.9349 -1.1951  0.5150
 1177SOL    HW215168   2.151   0.287   9.596 -0.8794 -1.0617  1.7667
 1178SOL     OW15169   4.235   0.721   6.209 -0.4914  0.7485  0.1771
 1178SOL    HW115170   4.181   0.692   6.282 -0.9841 -2.2661 -1.3860
 1178SOL    HW215171   4.166   0.764   6.160 -0.6582  1.2606  0.8494
 1179SOL     OW15172   2.214   3.689  15.066 -0.5668  1.1068  1.1349
 1179SOL    HW115173   2.301   3.652  15.050 -1.6370 -0.8566 -0.2166
 1179SOL    HW215174   2.184   3.629  15.135  0.8740  1.9140  2.4757
 1180SOL     OW15175   2.676   0.934   8.700 -0.2963  0.2358 -0.0969
 1180SOL    HW115176   2.592   0.964   8.735 -0.8207  1.2291 -2.1968
 1180SOL    HW215177   2.706   1.001   8.638  1.4229  0.3472  0.8529
 1181SOL     OW15178   2.074   0.461   1.894  0.4286 -0.2001 -0.3789
 1181SOL    HW115179   2.024   0.438   1.973  2.9556  1.8771  1.8210
 1181SOL    HW215180   1.998   0.479   1.838  1.0093  1.8336 -0.5422
 1182SOL     OW15181   3.625   0.845   2.835 -0.0549 -0.0668 -0.0557
 1182SOL    HW115182   3.681   0.879   2.765 -1.2210  2.4740  0.2555
 1182SOL    HW215183   3.547   0.814   2.790  0.0706 -0.1058 -0.2429
 1183SOL     OW15184   3.363   1.962   2.470  0.2533 -0.0136  0.0163
 1183SOL    HW115185   3.305   2.003   2.536  1.4876  0.6955  0.6597
 1183SOL    HW215186   3.413   1.910   2.532  0.1170 -1.4798 -1.1158
 1184SOL     OW15187   3.244   1.068   9.375  0.7671  0.0916 -0.2159
 1184SOL    HW115188   3.166   1.019   9.400  0.3091  0.6524 -0.5512
 1184SOL    HW215189   3.228   1.106   9.289 -0.9355 -0.7214 -0.2553
 1185SOL     OW15190   3.873   1.162   9.090 -0.5500  0.3608 -0.2008
 1185SOL    HW115191   3.883   1.254   9.068 -2.8785  1.5409  3.7342
 1185SOL    HW215192   3.797   1.171   9.147  1.0058 -0.7537  2.0778
 1186SOL     OW15193   1.271   0.578   4.279 -0.0968  0.1370  0.2920
 1186SOL    HW115194   1.198   0.549   4.224  1.3052  1.1743 -2.0837
 1186SOL    HW215195   1.231   0.645   4.335  1.6138  1.0221  0.4440
 1187SOL     OW15196   4.730   2.634   7.815  0.9065  0.2826  0.1271
 1187SOL    HW115197   0.003   2.730   7.817  2.9095  0.1198  0.6338
 1187SOL    HW215198   0.047   2.615   7.736  0.0314  0.2038 -0.4235
 1188SOL     OW15199   2.104   4.317   0.716  0.4589  0.1273  0.2680
 1188SOL    HW115200   2.168   4.376   0.677 -0.7390  2.0109  1.1263
 1188SOL    HW215201   2.088   4.259   0.642 -0.3899  1.2025 -0.3932
 1189SOL     OW15202   3.006   0.183   3.615 -0.0755 -0.1127 -0.2541
 1189SOL    HW115203   2.941   0.205   3.549 -0.8832  2.3212  1.3507
 1189SOL    HW215204   3.056   0.109   3.580 -0.8972  0.6362 -2.9752
 1190SOL     OW15205   4.357   1.471   1.108  0.2234  0.4344  0.4539
 1190SOL    HW115206   4.417   1.401   1.082  0.2798  0.5650  0.2271
 1190SOL    HW215207   4.416   1.542   1.131 -0.7715  0.8057  1.8814
 1191SOL     OW15208   3.587   2.371   7.732  0.1243  0.2561 -0.4431
 1191SOL    HW115209   3.650   2.314   7.775 -0.9955  0.0230  0.8897
 1191SOL    HW215210   3.614   2.462   7.747  1.3890 -0.3092  0.7548
 1192SOL     OW15211   1.271   0.930  12.257  1.0973  0.7937 -0.3674
 1192SOL    HW115212   1.299   0.849  12.214  3.0776 -0.7300  3.7529
 1192SOL    HW215213   1.184   0.907  12.291  0.6614  0.7802 -1.5124
 1193SOL     OW15214   0.631   1.218   0.735 -0.3252  0.1606  0.2670
 1193SOL    HW115215   0.592   1.300   0.766  1.1227  0.2360  1.9149
 1193SOL    HW215216   0.627   1.227   0.640  0.1122  0.9053  0.3208
 1194SOL     OW15217   0.433   0.600   2.510 -0.5201 -0.4011  0.0112
 1194SOL    HW115218   0.339   0.616   2.508 -0.2589  1.0383 -0.7408
 1194SOL    HW215219   0.430   0.506   2.492 -0.4265 -0.0181 -1.9235
 1195SOL     OW15220   1.282   1.352   6.757 -0.0258  0.5680  0.2430
 1195SOL    HW115221   1.248   1.334   6.669  0.2687  0.1116  0.2255
 1195SOL    HW215222   1.330   1.434   6.746  1.9201 -0.9858 -2.7497
 1196SOL     OW15223   4.094   1.501   4.232 -0.0635  0.0602  0.3387
 1196SOL    HW115224   4.053   1.425   4.272  0.6690 -0.7951 -0.5463
 1196SOL    HW215225   4.036   1.571   4.261 -1.0891 -0.2072 -1.0916
 1197SOL     OW15226   4.529   1.242   1.338  0.1028 -0.2091  0.2327
 1197SOL    HW115227   4.489   1.158   1.360  1.0908 -0.1415  2.3843
 1197SOL    HW215228   4.529   1.234   1.243  1.0574 -0.8923  0.2885
 1198SOL     OW15229   0.092   1.360   6.257  0.2770  0.1836 -0.2392
 1198SOL    HW115230   0.159   1.365   6.324 -0.5312  0.3203  0.5668
 1198SOL    HW215231   0.118   1.438   6.208  2.8092 -0.1660  0.5626
 1199SOL     OW15232   3.979   0.925  14.509  0.1090  0.8633  0.0079
 1199SOL    HW115233   3.973   0.918  14.414 -0.8251 -0.6828  0.1850
 1199SOL    HW215234   4.075   0.927  14.513  0.1295  2.2575 -1.0970
 1200SOL     OW15235   2.661   3.696   6.377  0.1442  0.2887  0.5981
 1200SOL    HW115236   2.700   3.611   6.357  0.2591  0.0674  1.7373
 1200SOL    HW215237   2.696   3.704   6.466  0.2587  0.0534  0.5723
 1201SOL     OW15238   1.369   3.711   5.690  0.4696 -0.5045  0.3576
 1201SOL    HW115239   1.455   3.681   5.721  0.1452 -2.4310 -0.5781
 1201SOL    HW215240   1.386   3.805   5.684 -0.0478 -0.4833 -0.8370
 1202SOL     OW15241   4.601   1.688   1.094  0.3391 -0.0023  0.3557
 1202SOL    HW115242   4.581   1.768   1.143  2.5089  2.1399 -2.2766
 1202SOL    HW215243   4.695   1.676   1.108  0.6191  0.9193 -0.8072
 1203SOL     OW15244   0.246   3.505   5.948 -0.0840  0.1586  0.2773
 1203SOL    HW115245   0.318   3.500   5.885 -1.3810  1.0410 -1.2885
 1203SOL    HW215246   0.172   3.478   5.894 -0.9521  0.1046  1.4879
 1204SOL     OW15247   3.209   1.376  14.752  0.5028 -0.2456  0.1230
 1204SOL    HW115248   3.223   1.366  14.658  1.3333 -1.4395  0.3707
 1204SOL    HW215249   3.120   1.340  14.752  0.9899 -1.5095  4.0618
 1205SOL     OW15250   0.543   4.459   2.592  0.3945  0.5123 -0.3337
 1205SOL    HW115251   0.631   4.495   2.581  1.2069 -1.8210 -1.5657
 1205SOL    HW215252   0.499   4.540   2.567  2.6606  1.8511  0.0330
 1206SOL     OW15253   3.491   2.140   4.984  0.0567  0.3919  0.5221
 1206SOL    HW115254   3.509   2.101   4.899 -0.9303  2.8144 -0.7842
 1206SOL    HW215255   3.426   2.077   5.015 -0.7943  0.8783 -0.3095
 1207SOL     OW15256   0.446   2.164   2.733  0.5106 -0.2166  0.2045
 1207SOL    HW115257   0.369   2.128   2.689 -0.0530 -0.4333  1.3798
 1207SOL    HW215258   0.424   2.159   2.825  1.5716 -0.6148  0.4391
 1208SOL     OW15259   0.713   2.070   9.086  0.2442  0.4491 -0.1010
 1208SOL    HW115260   0.705   2.123   9.165 -0.7527  2.4817 -1.6031
 1208SOL    HW215261   0.793   2.098   9.040 -0.3789  1.6578 -0.4381
 1209SOL     OW15262   0.324   1.823   6.974 -0.4842 -0.2257 -0.4246
 1209SOL    HW115263   0.404   1.807   6.923 -0.4580 -0.1316 -0.4132
 1209SOL    HW215264   0.301   1.734   7.001 -0.6216  0.1723  0.7794
 1210SOL     OW15265   2.026   2.586   1.004 -0.2639  0.7208  0.3698
 1210SOL    HW115266   1.959   2.586   0.935  0.4604  0.1507 -0.3228
 1210SOL    HW215267   2.082   2.660   0.981  0.6846  0.1767  0.9426
 1211SOL     OW15268   1.453   1.582  13.254  0.9381 -0.6633 -0.6699
 1211SOL    HW115269   1.381   1.531  13.291  0.5787  0.0961 -0.3125
 1211SOL    HW215270   1.448   1.559  13.161  1.5419 -1.3536 -0.5301
 1212SOL     OW15271   2.092   0.956   1.741 -0.4172  0.5350 -0.0102
 1212SOL    HW115272   2.004   0.933   1.770 -0.4130 -1.2588 -1.4296
 1212SOL    HW215273   2.098   0.898   1.665  2.0579  0.0754  0.5328
 1213SOL     OW15274   1.880   0.762   3.652 -0.4985  0.7898  0.0399
 1213SOL    HW115275   1.822   0.694   3.618  0.9501  0.8737 -2.6078
 1213SOL    HW215276   1.959   0.761   3.598 -0.9708  2.4681 -0.6809
 1214SOL     OW15277   1.513   0.623   8.401  0.8762 -0.1168 -0.7986
 1214SOL    HW115278   1.483   0.544   8.355 -0.2143  0.2623 -0.7234
 1214SOL    HW215279   1.482   0.615   8.491  0.9834 -3.7336 -1.0557
 1215SOL     OW15280   0.203   3.660   9.981  0.2162  0.1888 -0.0312
 1215SOL    HW115281   0.283   3.684  10.029 -0.7555  0.6838  1.3400
 1215SOL    HW215282   0.144   3.633  10.051  2.2500 -1.3409  1.1224
 1216SOL     OW15283   0.777   2.936   0.873  0.1463  0.5751  0.2825
 1216SOL    HW115284   0.856   2.982   0.902  1.0203  0.0582 -1.3322
 1216SOL    HW215285   0.749   3.000   0.807 -3.0520 -1.3967 -0.2843
 1217SOL     OW15286   4.711   0.165  16.827  0.5359  0.2433  0.5396
 1217SOL    HW115287   4.695   0.170  16.921 -0.7531 -0.0463  0.3367
 1217SOL    HW215288   4.663   0.090  16.792 -1.8657  0.6189  3.0182
 1218SOL     OW15289   3.924   1.550   3.858  0.3452 -0.5664 -0.0102
 1218SOL    HW115290   3.901   1.471   3.809  0.1274 -0.9263  0.6677
 1218SOL    HW215291   3.893   1.522   3.944  0.7265 -0.8284  0.0458
 1219SOL     OW15292   1.569   3.526  15.693  0.2410  0.5157  0.2026
 1219SOL    HW115293   1.480   3.559  15.682  0.9046  1.6726 -1.7772
 1219SOL    HW215294   1.554   3.481  15.776  0.1550  0.3678  0.1041
 1220SOL     OW15295   3.787   1.423  17.622 -0.0719 -0.1505 -0.5938
 1220SOL    HW115296   3.778   1.476  17.701 -1.5245 -0.3435 -0.6364
 1220SOL    HW215297   3.774   1.482  17.548  2.2214 -0.0385 -0.9202
 1221SOL     OW15298   4.686   2.569   3.127  0.2713 -0.5217 -0.1569
 1221SOL    HW115299   4.592   2.589   3.127  0.6656  1.3113 -2.7836
 1221SOL    HW215300   4.714   2.648   3.173 -0.9614  0.5979 -1.3486
 1222SOL     OW15301   0.398   4.483   2.061  0.1223  0.0076 -0.6330
 1222SOL    HW115302   0.435   4.571   2.058  0.2595  0.1434  4.6551
 1222SOL    HW215303   0.480   4.443   2.089 -0.6263  0.2781  1.9475
 1223SOL     OW15304   1.383   4.392   3.726 -0.1522  0.1883  0.2300
 1223SOL    HW115305   1.385   4.399   3.631 -1.7256  0.6068  0.2166
 1223SOL    HW215306   1.421   4.477   3.749  0.9857  0.1699 -1.6169
 1224SOL     OW15307   4.421   0.055   7.931 -0.1017  0.2495  0.0689
 1224SOL    HW115308   4.353   0.076   7.995 -0.8666  1.2162 -1.0537
 1224SOL    HW215309   4.500   0.090   7.972  0.3636 -1.4351  0.6106
 1225SOL     OW15310   0.684   1.244   3.782 -0.7446  0.5433 -0.1092
 1225SOL    HW115311   0.624   1.276   3.714 -1.0110 -4.3008 -2.1173
 1225SOL    HW215312   0.757   1.238   3.721 -0.7822  0.6775 -0.1687
 1226SOL     OW15313   0.527   1.702   2.952 -0.2912  0.0886  0.1965
 1226SOL    HW115314   0.576   1.648   2.891  0.2939  0.1153  0.6350
 1226SOL    HW215315   0.476   1.755   2.891 -0.8719 -0.7620 -0.0462
 1227SOL     OW15316   4.582   3.137   1.455 -0.3831 -0.2980 -0.4518
 1227SOL    HW115317   4.519   3.097   1.513  1.6620 -0.2637  1.8021
 1227SOL    HW215318   4.533   3.212   1.422  1.5528  0.5854 -1.3737
 1228SOL     OW15319   3.757   4.271   3.996  0.3115  1.0878  0.2448
 1228SOL    HW115320   3.772   4.226   3.913 -1.6681  0.8112  0.0372
 1228SOL    HW215321   3.780   4.200   4.055 -0.0113 -0.1572 -1.1332
 1229SOL     OW15322   1.972   2.485  11.294 -0.2905 -0.6708  0.0811
 1229SOL    HW115323   2.002   2.495  11.384  3.6468  1.4314 -1.4241
 1229SOL    HW215324   2.054   2.468  11.246 -0.8911 -1.5140 -0.6519
 1230SOL     OW15325   4.633   1.538  13.751 -0.1223  0.1309  0.4173
 1230SOL    HW115326   4.583   1.609  13.710 -0.6693 -0.4820  0.0141
 1230SOL    HW215327   4.684   1.579  13.821 -0.5193 -0.2406  0.9285
 1231SOL     OW15328   3.823   3.294  10.490 -0.1451 -0.6409  0.5877
 1231SOL    HW115329   3.759   3.231  10.458 -0.8641  0.9819 -1.2056
 1231SOL    HW215330   3.786   3.382  10.477  1.4292 -0.1523 -0.6638
 1232SOL     OW15331   1.142   2.695   6.064 -0.0719 -0.0492 -0.0576
 1232SOL    HW115332   1.105   2.619   6.109 -1.2082 -0.0274 -0.9392
 1232SOL    HW215333   1.185   2.649   5.992  1.7436 -0.9087  1.5829
 1233SOL     OW15334   2.450   3.411   1.744 -0.2977 -0.1756 -0.0328
 1233SOL    HW115335   2.494   3.454   1.670 -2.5374 -1.6920 -2.2608
 1233SOL    HW215336   2.371   3.465   1.744 -0.4003 -0.3302  0.7285
 1234SOL     OW15337   3.577   3.875   1.207  0.0671  0.1370  0.3237
 1234SOL    HW115338   3.562   3.786   1.174  0.3253  0.4399 -0.6080
 1234SOL    HW215339   3.522   3.924   1.146 -0.4693 -1.2258 -0.2967
 1235SOL     OW15340   2.047   4.471   8.377 -0.1609 -0.0257 -0.1270
 1235SOL    HW115341   2.016   4.562   8.376 -2.3374 -0.7814 -0.4869
 1235SOL    HW215342   2.090   4.481   8.292  1.1083 -0.0343  0.5019
 1236SOL     OW15343   3.904   1.407   5.129 -0.5710 -0.0370 -0.8244
 1236SOL    HW115344   3.990   1.368   5.120 -1.7346 -3.4810  3.5157
 1236SOL    HW215345   3.850   1.328   5.130 -1.0252  0.2799 -0.1461
 1237SOL     OW15346   2.291   3.523   1.079 -0.2552  0.2618  0.6142
 1237SOL    HW115347   2.290   3.435   1.117  1.4750  1.0763  2.5555
 1237SOL    HW215348   2.353   3.502   1.009  0.1740 -1.1363  1.4255
 1238SOL     OW15349   4.155   1.643   7.517 -0.2842 -0.2765  0.3946
 1238SOL    HW115350   4.120   1.570   7.466  1.2639  0.3098 -1.5280
 1238SOL    HW215351   4.081   1.677   7.567  1.0435  2.4716  0.4707
 1239SOL     OW15352   1.148   3.975   6.975  0.3414  0.3742 -0.5298
 1239SOL    HW115353   1.184   3.954   6.890  0.0661 -0.1022 -0.5276
 1239SOL    HW215354   1.084   4.042   6.949  2.2228  3.0642  1.7106
 1240SOL     OW15355   2.325   0.631   4.076  0.3452 -0.6624 -0.2496
 1240SOL    HW115356   2.407   0.672   4.104 -0.6328  0.7628  0.5362
 1240SOL    HW215357   2.329   0.651   3.983 -1.0318 -0.8762 -0.3572
 1241SOL     OW15358   2.890   3.261   4.061 -0.0884 -0.0554 -0.4888
 1241SOL    HW115359   2.961   3.201   4.086 -0.2274  0.0659  0.2066
 1241SOL    HW215360   2.893   3.316   4.140 -0.4055 -0.6234 -0.0787
 1242SOL     OW15361   2.969   3.866  10.701 -0.4805 -0.5880  0.1653
 1242SOL    HW115362   2.943   3.917  10.778 -1.8821  0.8194 -1.2274
 1242SOL    HW215363   2.924   3.781  10.701 -1.1318 -0.2408 -0.5389
 1243SOL     OW15364   1.358   4.077   1.649 -0.3731 -0.3353  0.0134
 1243SOL    HW115365   1.418   4.109   1.581  2.2943 -1.4363  1.8562
 1243SOL    HW215366   1.339   3.990   1.615 -1.3947  0.2606 -0.9063
 1244SOL     OW15367   1.243   1.731   1.963  0.1568 -0.0145 -0.1346
 1244SOL    HW115368   1.211   1.810   2.006  0.2270  0.9417 -1.8442
 1244SOL    HW215369   1.185   1.723   1.887  1.0605  1.4299 -0.9652
 1245SOL     OW15370   1.266   4.422  17.083  0.3964 -0.2369 -0.4195
 1245SOL    HW115371   1.185   4.388  17.045  0.7693 -0.2069 -1.2383
 1245SOL    HW215372   1.238   4.456  17.168  1.4677  1.3419 -0.7024
 1246SOL     OW15373   2.948   1.808   2.378 -0.2037 -0.2185 -0.5896
 1246SOL    HW115374   2.912   1.887   2.419  1.9701  0.6930 -0.4701
 1246SOL    HW215375   3.023   1.780   2.429  0.3751  0.3242 -1.1436
 1247SOL     OW15376   4.570   4.613   0.610 -0.0150  0.5082  0.1553
 1247SOL    HW115377   4.546   4.676   0.543 -2.7786  0.7000  1.3122
 1247SOL    HW215378   4.532   4.654   0.688  1.1115  0.3987  0.7643
 1248SOL     OW15379   4.188   2.976  15.248  0.0060 -0.1041 -0.2781
 1248SOL    HW115380   4.218   3.066  15.240  2.9078 -0.9053  1.5048
 1248SOL    HW215381   4.217   2.946  15.334 -1.0821 -1.3615 -0.3461
 1249SOL     OW15382   2.718   4.516   7.176  0.7752 -0.3357  0.4512
 1249SOL    HW115383   2.639   4.482   7.134  0.5190 -2.0776  2.3675
 1249SOL    HW215384   2.749   4.450   7.237  0.6517 -0.6303  0.1947
 1250SOL     OW15385   4.505   3.903   7.879  0.4495 -0.0393 -0.6349
 1250SOL    HW115386   4.462   3.818   7.876  0.0552  0.1243  0.4822
 1250SOL    HW215387   4.538   3.912   7.790  0.6185 -1.4166 -0.7039
 1251SOL     OW15388   3.579   1.969   4.787 -0.3822 -0.7749  0.4207
 1251SOL    HW115389   3.603   1.882   4.756  0.6394 -0.5213  0.4889
 1251SOL    HW215390   3.659   2.000   4.830 -1.9089  0.0640  2.6401
 1252SOL     OW15391   4.035   3.385   3.747 -0.8412  0.1155  0.1813
 1252SOL    HW115392   4.034   3.396   3.652  0.5440  0.7490  0.2424
 1252SOL    HW215393   4.002   3.473   3.766  0.6766  0.9845 -1.0978
 1253SOL     OW15394   2.709   2.141   2.431  0.1204 -0.0300 -0.0940
 1253SOL    HW115395   2.767   2.156   2.356  1.9731  1.1004  1.5602
 1253SOL    HW215396   2.711   2.231   2.462 -2.1097  0.9469 -2.8246
 1254SOL     OW15397   0.742   2.152  10.580 -0.3165 -0.6307  0.4727
 1254SOL    HW115398   0.782   2.065  10.574  2.3321  0.7575 -2.0368
 1254SOL    HW215399   0.820   2.206  10.571 -1.8198  0.8993 -3.1587
 1255SOL     OW15400   1.338   2.415   3.050  0.1218 -0.3697 -0.3649
 1255SOL    HW115401   1.372   2.344   3.104 -2.1595  0.8589  2.7434
 1255SOL    HW215402   1.290   2.364   2.985  2.9140 -3.0451 -0.3312
 1256SOL     OW15403   1.339   3.906   4.006  0.0259  0.1923 -0.3425
 1256SOL    HW115404   1.413   3.882   3.949 -0.3657  0.2173 -0.8682
 1256SOL    HW215405   1.382   3.931   4.087 -0.4471  0.8196 -0.2900
 1257SOL     OW15406   3.041   3.119   7.590 -0.1832 -0.8953  0.2065
 1257SOL    HW115407   3.130   3.142   7.564 -0.1119 -0.9985  0.3574
 1257SOL    HW215408   3.039   3.024   7.604 -0.5304 -1.0066 -0.6573
 1258SOL     OW15409   3.049   2.302   5.640 -0.2045 -0.3918  0.3146
 1258SOL    HW115410   3.091   2.217   5.651  0.9348  0.2743  1.2794
 1258SOL    HW215411   3.007   2.299   5.555  0.1244  0.0337  0.1354
 1259SOL     OW15412   1.026   4.249  17.267  0.0585  0.3057 -0.4912
 1259SOL    HW115413   1.106   4.300  17.258  0.0767  0.4115  0.2523
 1259SOL    HW215414   0.995   4.252  17.177 -0.0864 -0.8097 -0.4862
 1260SOL     OW15415   2.086   3.233   3.209  0.0465 -0.1806 -0.1122
 1260SOL    HW115416   1.999   3.208   3.179  0.0855 -1.3297  0.7623
 1260SOL    HW215417   2.139   3.208   3.133 -1.4719 -1.3842 -0.7542
 1261SOL     OW15418   0.853   3.585   2.951  0.2563  0.3030 -0.1632
 1261SOL    HW115419   0.835   3.503   2.997  1.0092  0.2052 -0.0509
 1261SOL    HW215420   0.869   3.563   2.859  0.4726  2.4470 -0.6584
 1262SOL     OW15421   2.812   3.684   2.287 -0.0553 -0.2056 -0.0805
 1262SOL    HW115422   2.818   3.623   2.213 -0.2915  0.5390 -0.7092
 1262SOL    HW215423   2.722   3.709   2.311  0.9002  1.2275  2.0524
 1263SOL     OW15424   1.365   3.237   6.460  0.4919 -0.0081  0.0349
 1263SOL    HW115425   1.419   3.159   6.474  0.4522  0.0463  0.4830
 1263SOL    HW215426   1.353   3.241   6.365  1.2235  1.8375  0.0038
 1264SOL     OW15427   2.956   1.530   8.648  0.3660  1.0499 -0.2115
 1264SOL    HW115428   2.861   1.532   8.635 -0.0223  0.6638  2.5804
 1264SOL    HW215429   2.984   1.607   8.598  0.6786  0.4507 -0.9672
 1265SOL     OW15430   4.169   1.949   4.302  0.1300 -0.7602 -0.9689
 1265SOL    HW115431   4.093   1.941   4.360  0.6277 -2.4691 -0.5642
 1265SOL    HW215432   4.233   1.981   4.366 -0.1800  2.0560 -2.0761
 1266SOL     OW15433   2.467   2.076   2.186  0.5055  0.5730  0.4019
 1266SOL    HW115434   2.482   2.080   2.280  1.1982  2.8526  0.1912
 1266SOL    HW215435   2.539   2.023   2.151  0.0984  0.9499 -1.0032
 1267SOL     OW15436   0.497   0.928   3.696 -0.0190  0.5941 -0.5034
 1267SOL    HW115437   0.489   0.838   3.728  1.2222  1.5976  2.6660
 1267SOL    HW215438   0.524   0.909   3.606 -1.1762  0.2560 -0.7792
 1268SOL     OW15439   0.262   3.268   7.959 -0.2646 -0.2208  0.2129
 1268SOL    HW115440   0.182   3.216   7.964 -0.3243  0.0468  2.0336
 1268SOL    HW215441   0.274   3.269   7.864  1.3429  0.7966  0.4167
 1269SOL     OW15442   0.515   0.327  16.005  0.9486 -0.3995  0.5921
 1269SOL    HW115443   0.450   0.257  15.994  1.4665 -0.7351 -0.2389
 1269SOL    HW215444   0.490   0.383  15.932  3.0082  0.8358  0.8260
 1270SOL     OW15445   1.577   0.529   1.815  0.2019  0.1144  0.0091
 1270SOL    HW115446   1.523   0.596   1.855 -0.1705 -0.1510 -0.0481
 1270SOL    HW215447   1.595   0.473   1.891  0.2197 -0.3048 -0.3067
 1271SOL     OW15448   1.691   2.212   9.968  0.1121  0.2334  0.4212
 1271SOL    HW115449   1.698   2.274  10.041  0.9229 -1.4050  1.7134
 1271SOL    HW215450   1.753   2.145   9.996 -0.1947 -1.1210 -2.1796
 1272SOL     OW15451   2.290   2.335   8.565  0.2731 -0.1902 -0.5413
 1272SOL    HW115452   2.340   2.360   8.487  4.0777 -0.0975  1.9355
 1272SOL    HW215453   2.339   2.260   8.596  0.2243  1.0037  2.3908
 1273SOL     OW15454   0.871   0.183   7.949 -0.5690  0.3195  0.1678
 1273SOL    HW115455   0.947   0.241   7.951 -0.0808 -0.2874 -0.7477
 1273SOL    HW215456   0.870   0.166   7.855 -0.6827  2.7158 -0.2790
 1274SOL     OW15457   1.183   2.257   0.227  0.0876 -0.1774 -0.0360
 1274SOL    HW115458   1.223   2.228   0.309  1.1144 -1.2560 -0.9047
 1274SOL    HW215459   1.127   2.181   0.217  0.5690 -0.6626  0.9441
 1275SOL     OW15460   0.310   1.996   4.772  0.4340  1.0963  0.1165
 1275SOL    HW115461   0.223   2.035   4.781 -0.5158 -1.3719  1.5083
 1275SOL    HW215462   0.306   1.944   4.692  0.6334  2.1273 -0.5716
 1276SOL     OW15463   1.302   4.157   2.222 -0.0969 -0.0685 -0.6891
 1276SOL    HW115464   1.326   4.130   2.134  0.4336 -1.4345 -0.1252
 1276SOL    HW215465   1.208   4.137   2.216 -0.4496  1.9679 -1.9226
 1277SOL     OW15466   3.050   1.770   2.971  0.5404 -0.3198 -0.1606
 1277SOL    HW115467   2.988   1.707   3.009  1.5589 -1.9080 -1.1044
 1277SOL    HW215468   2.997   1.849   2.979 -0.9708 -1.2616 -0.7344
 1278SOL     OW15469   2.898   2.452   2.028  0.1895 -0.7271  0.2874
 1278SOL    HW115470   2.905   2.369   2.075 -0.6220 -1.3262 -0.6729
 1278SOL    HW215471   2.808   2.479   2.045  0.7519  0.9426  0.6028
 1279SOL     OW15472   4.469   4.383   1.943  0.3219 -0.3407 -0.6234
 1279SOL    HW115473   4.510   4.305   1.906 -0.0964 -0.5338 -0.6765
 1279SOL    HW215474   4.537   4.449   1.929 -1.4887  1.5128 -0.8444
 1280SOL     OW15475   1.029   2.888   3.272 -0.4538 -0.0903 -0.2975
 1280SOL    HW115476   1.079   2.820   3.225  0.6924  1.6026 -1.5374
 1280SOL    HW215477   0.941   2.852   3.264 -0.4990 -0.0908  0.2442
 1281SOL     OW15478   2.913   3.056  17.517  0.1124 -0.0213  0.1740
 1281SOL    HW115479   2.850   2.984  17.526  0.9113 -0.3863  2.7967
 1281SOL    HW215480   2.992   3.032  17.566  0.2201  1.7676  0.8665
 1282SOL     OW15481   3.964   2.258   6.624  0.1219 -0.5835 -0.2724
 1282SOL    HW115482   3.992   2.344   6.591  0.6173 -1.5310 -2.3238
 1282SOL    HW215483   3.944   2.228   6.536 -0.6916 -1.0331  0.0636
 1283SOL     OW15484   4.268   0.699  16.978 -0.5961  1.0746 -0.3003
 1283SOL    HW115485   4.214   0.730  17.050  1.6905 -1.8805  2.6916
 1283SOL    HW215486   4.335   0.648  17.024 -0.4057  2.8581  1.3807
 1284SOL     OW15487   2.083   2.859  15.459 -0.5714 -0.1375 -0.0211
 1284SOL    HW115488   2.066   2.898  15.545  1.7508  2.0961 -0.5637
 1284SOL    HW215489   2.155   2.800  15.480  2.4793  3.4537 -0.3181
 1285SOL     OW15490   2.961   0.972   7.137 -0.0877 -0.0195 -0.0366
 1285SOL    HW115491   2.993   0.981   7.227  1.2852 -1.0446 -0.4301
 1285SOL    HW215492   3.030   0.911   7.111  1.9798  2.6443 -0.8628
 1286SOL     OW15493   1.988   0.434   5.897  0.1954  0.4734 -0.1580
 1286SOL    HW115494   1.946   0.352   5.873  1.3293  0.0303 -0.6340
 1286SOL    HW215495   1.969   0.480   5.815  0.5130  0.1714 -0.4042
 1287SOL     OW15496   1.987   1.169  17.628 -0.0132  0.0275  0.2617
 1287SOL    HW115497   2.080   1.149  17.622 -0.3031 -1.9078  2.0375
 1287SOL    HW215498   1.967   1.117  17.706  0.5810 -2.1383 -1.0602
 1288SOL     OW15499   4.245   2.977   2.817 -0.0281 -0.4905  0.6617
 1288SOL    HW115500   4.251   2.913   2.746  1.3921 -0.0649  0.3966
 1288SOL    HW215501   4.165   2.951   2.862  0.8365  0.8302  2.9378
 1289SOL     OW15502   3.209   0.165  15.503  0.4047  0.5054 -0.0295
 1289SOL    HW115503   3.202   0.244  15.557  1.5281  1.5614 -1.4335
 1289SOL    HW215504   3.142   0.184  15.438  0.6099 -3.5347 -1.3608
 1290SOL     OW15505   2.556   3.614   1.562  0.7856 -0.7419 -0.1104
 1290SOL    HW115506   2.502   3.693   1.565  1.6406 -0.1968  1.1842
 1290SOL    HW215507   2.577   3.608   1.655  1.3009  3.4052  0.0294
 1291SOL     OW15508   4.460   1.842   9.262  0.1834 -0.1563  0.1317
 1291SOL    HW115509   4.544   1.868   9.224  0.2574 -3.3556 -1.9496
 1291SOL    HW215510   4.424   1.812   9.178 -0.7897  0.7602  0.2267
 1292SOL     OW15511   3.591   2.620   3.767 -0.1783  0.4986  0.0907
 1292SOL    HW115512   3.624   2.604   3.855  0.0890  1.0661  0.0908
 1292SOL    HW215513   3.521   2.555   3.773  0.3834 -0.0527  0.6412
 1293SOL     OW15514   0.647   3.785   2.399 -0.8016 -0.1565 -0.4687
 1293SOL    HW115515   0.686   3.708   2.358 -0.5930 -0.2934 -0.0037
 1293SOL    HW215516   0.662   3.775   2.493  1.4451  0.5718 -0.7649
 1294SOL     OW15517   3.912   1.170  10.886 -0.0738  0.6011  0.1131
 1294SOL    HW115518   3.830   1.216  10.865 -0.6608 -0.7473 -0.5163
 1294SOL    HW215519   3.931   1.210  10.971 -2.3644 -1.3649  1.5643
 1295SOL     OW15520   1.471   0.681   5.873 -0.1510  0.5265 -0.5063
 1295SOL    HW115521   1.561   0.671   5.904 -0.6803  0.7555  1.1112
 1295SOL    HW215522   1.453   0.599   5.827 -0.0006  0.2923 -0.1522
 1296SOL     OW15523   3.452   0.018   2.997  0.0758 -0.5443 -0.4911
 1296SOL    HW115524   3.529   0.016   2.941  2.7189  2.7381  3.0328
 1296SOL    HW215525   3.391   4.696   2.949 -0.5188 -1.0150  0.8105
 1297SOL     OW15526   1.555   0.251   2.466 -0.4351 -0.1222 -0.0238
 1297SOL    HW115527   1.542   0.324   2.405 -3.6525  0.1881  1.0085
 1297SOL    HW215528   1.549   0.177   2.406  0.4333  0.0376 -0.3040
 1298SOL     OW15529   3.815   1.283   7.734  0.9018 -0.0075  0.0612
 1298SOL    HW115530   3.865   1.328   7.802  0.5090  2.0352 -1.0195
 1298SOL    HW215531   3.735   1.257   7.780  0.4611  1.9527  0.4072
 1299SOL     OW15532   3.314   1.298   2.481 -0.2544 -0.2895  0.3725
 1299SOL    HW115533   3.291   1.275   2.571  1.2366 -0.3482  0.7338
 1299SOL    HW215534   3.270   1.233   2.426  0.1582  0.8070 -1.2273
 1300SOL     OW15535   2.902   4.447   4.044  0.1433 -0.4285 -0.5000
 1300SOL    HW115536   2.880   4.463   4.136  1.6625 -0.6115 -0.1077
 1300SOL    HW215537   2.987   4.491   4.037  1.2361 -2.4828 -0.0599
 1301SOL     OW15538   4.162   4.253   3.954  0.0432 -0.5868  0.4621
 1301SOL    HW115539   4.213   4.194   3.900  0.2620 -2.0258  2.2574
 1301SOL    HW215540   4.166   4.332   3.900  0.4912 -2.2300 -1.9148
 1302SOL     OW15541   3.382   0.945   5.159 -0.0503  0.1395 -0.0155
 1302SOL    HW115542   3.314   0.909   5.102 -0.2791  0.9534 -0.2617
 1302SOL    HW215543   3.452   0.949   5.094  1.0890 -0.2421  1.1915
 1303SOL     OW15544   1.586   1.367   0.451 -0.1196  0.1771  0.1511
 1303SOL    HW115545   1.561   1.331   0.366  1.4743 -1.1650  0.2449
 1303SOL    HW215546   1.654   1.309   0.487 -1.3578 -0.5701  1.3092
 1304SOL     OW15547   3.225   0.526   2.473 -0.0864 -0.7751  0.2066
 1304SOL    HW115548   3.307   0.519   2.523  0.8620  0.4364 -1.1540
 1304SOL    HW215549   3.230   0.451   2.415  0.6412  0.0045 -0.7487
 1305SOL     OW15550   1.222   0.161   5.359 -0.1497  0.3045 -0.3679
 1305SOL    HW115551   1.280   0.085   5.347  0.7394  0.6624  1.7435
 1305SOL    HW215552   1.200   0.159   5.266  0.3870  0.0111 -0.4885
 1306SOL     OW15553   2.162   1.112   4.356  0.0908  0.5027 -0.2228
 1306SOL    HW115554   2.094   1.165   4.315 -0.9918 -0.6449  0.0641
 1306SOL    HW215555   2.205   1.077   4.278  0.5317  0.6512 -0.0472
 1307SOL     OW15556   1.968   2.990   2.347  0.0659 -0.1380  0.2676
 1307SOL    HW115557   1.938   2.899   2.349  1.0840 -0.4561  0.8903
 1307SOL    HW215558   2.040   2.992   2.410 -0.6743 -2.0444  1.1589
 1308SOL     OW15559   3.368   3.362  10.200 -0.2989 -0.1032 -0.1331
 1308SOL    HW115560   3.422   3.391  10.128 -0.7054  0.8986 -0.0327
 1308SOL    HW215561   3.424   3.298  10.246  0.3842  0.6578  0.0883
 1309SOL     OW15562   3.980   3.257   6.406 -0.2976  0.0584  0.3553
 1309SOL    HW115563   4.053   3.206   6.370 -2.9049 -2.1908 -1.8042
 1309SOL    HW215564   4.025   3.329   6.449  0.6647  1.2511 -2.6652
 1310SOL     OW15565   1.020   4.041   4.923  0.3499  0.6103 -0.4710
 1310SOL    HW115566   0.998   4.037   4.830  3.6508 -2.3488 -1.1186
 1310SOL    HW215567   1.115   4.029   4.917  0.3412  0.4396 -0.2333
 1311SOL     OW15568   4.227   2.626  15.321  0.2777 -0.1907 -0.0207
 1311SOL    HW115569   4.176   2.620  15.241 -0.2057  0.7375  0.2140
 1311SOL    HW215570   4.289   2.696  15.298  0.1135 -0.1626 -0.3780
 1312SOL     OW15571   1.284   2.045  16.823 -0.2793  0.2674  0.6025
 1312SOL    HW115572   1.377   2.027  16.814 -0.4588  0.0622 -0.9868
 1312SOL    HW215573   1.277   2.115  16.888  0.8392  2.5088 -1.6657
 1313SOL     OW15574   0.145   2.308   8.115  0.0481 -0.0526 -0.2900
 1313SOL    HW115575   0.133   2.237   8.052  0.2243  0.9379 -1.4603
 1313SOL    HW215576   0.203   2.265   8.177 -0.6805 -1.2191 -0.4085
 1314SOL     OW15577   4.304   1.831   7.059  0.2165 -0.1176 -0.4326
 1314SOL    HW115578   4.237   1.767   7.036  2.1053 -1.7195 -1.4831
 1314SOL    HW215579   4.359   1.843   6.982  1.4760  0.4719  0.5545
 1315SOL     OW15580   2.027   4.182  10.676  0.7203  0.1306  0.2605
 1315SOL    HW115581   2.045   4.105  10.730 -0.2907 -0.4982 -0.2959
 1315SOL    HW215582   2.016   4.229  10.758  0.7541  0.0820  0.2935
 1316SOL     OW15583   0.669   3.905   5.953 -0.4230  0.6470 -0.3779
 1316SOL    HW115584   0.618   3.887   6.033  0.4930 -0.6808 -0.0943
 1316SOL    HW215585   0.669   3.817   5.915  1.6449  1.3183 -1.9076
 1317SOL     OW15586   0.318   2.535   5.524 -0.2112  0.8381  0.3750
 1317SOL    HW115587   0.302   2.475   5.597 -2.0472  0.7181 -0.1241
 1317SOL    HW215588   0.305   2.620   5.567  4.5254  1.1628  1.0735
 1318SOL     OW15589   0.765   3.461   4.053  0.2352 -0.4353 -0.0228
 1318SOL    HW115590   0.790   3.387   3.997  0.3105 -0.7915  0.4881
 1318SOL    HW215591   0.670   3.451   4.060  0.3764 -1.8437 -0.0412
 1319SOL     OW15592   0.497   2.473   0.600 -0.8417  0.2299  0.7390
 1319SOL    HW115593   0.417   2.526   0.598 -0.4974  0.8020  2.2179
 1319SOL    HW215594   0.525   2.491   0.511 -0.7375 -1.1514  0.4822
 1320SOL     OW15595   2.219   1.683  14.402 -0.2238  0.7512  0.2805
 1320SOL    HW115596   2.150   1.630  14.363  1.2652 -0.1241 -1.1809
 1320SOL    HW215597   2.225   1.630  14.482 -2.9879 -2.1428 -1.4242
 1321SOL     OW15598   2.726   0.824   8.990 -0.3754  0.5711  0.9510
 1321SOL    HW115599   2.815   0.842   8.959 -0.5507  0.4260  0.3564
 1321SOL    HW215600   2.685   0.910   8.978 -0.9887 -0.0672 -1.4581
 1322SOL     OW15601   2.416   0.159   7.496 -0.6784  0.1925  0.2426
 1322SOL    HW115602   2.384   0.096   7.431 -2.2266 -1.3353  2.4720
 1322SOL    HW215603   2.372   0.131   7.577  1.5526 -0.6533  1.1580
 1323SOL     OW15604   2.287   0.802  15.034  0.4380  0.0083  0.3140
 1323SOL    HW115605   2.293   0.808  14.939  0.8285 -4.7188 -0.0047
 1323SOL    HW215606   2.246   0.716  15.042 -1.0364  0.7035  0.0930
 1324SOL     OW15607   1.806   0.069   1.518  0.0370  0.1100 -0.2037
 1324SOL    HW115608   1.823   0.096   1.428 -0.0050 -0.6329 -0.4351
 1324SOL    HW215609   1.873   0.001   1.525 -2.5477 -2.5149 -0.9717
 1325SOL     OW15610   4.154   0.749   6.741 -0.0801 -0.6687  0.8255
 1325SOL    HW115611   4.098   0.676   6.715 -0.5200  0.2898 -0.9902
 1325SOL    HW215612   4.159   0.723   6.833  0.0628 -0.5843  0.8415
 1326SOL     OW15613   0.931   2.891   2.215  0.2579 -0.4845  0.0333
 1326SOL    HW115614   1.009   2.885   2.160 -0.2545 -0.9669 -0.6423
 1326SOL    HW215615   0.966   2.852   2.294  1.6435  0.5837 -0.0513
 1327SOL     OW15616   1.185   0.146   2.659  0.6159 -0.4144  0.4929
 1327SOL    HW115617   1.116   0.084   2.684 -0.2439 -0.3057 -1.6311
 1327SOL    HW215618   1.260   0.088   2.676  1.6550  0.1974 -2.0724
 1328SOL     OW15619   3.980   0.424   0.443 -0.4383  0.2908 -0.3996
 1328SOL    HW115620   3.895   0.435   0.487 -0.6072 -1.6481 -0.2537
 1328SOL    HW215621   3.957   0.473   0.364 -2.5297 -1.0166 -0.6162
 1329SOL     OW15622   3.521   4.672   1.768  0.1729  0.1203  0.6204
 1329SOL    HW115623   3.590   4.609   1.748 -0.2775  0.2681 -1.3867
 1329SOL    HW215624   3.449   4.609   1.771 -0.8739  1.3919  2.6306
 1330SOL     OW15625   3.037   1.610   5.540  0.1442 -0.0029 -0.4767
 1330SOL    HW115626   3.027   1.673   5.612  0.1682  0.2625 -0.7018
 1330SOL    HW215627   3.117   1.563   5.561  0.1336  0.6733  1.0993
 1331SOL     OW15628   0.106   3.710  16.422  0.4548 -0.2888 -0.4054
 1331SOL    HW115629   0.109   3.761  16.503  0.0330 -2.6413  1.1003
 1331SOL    HW215630   0.165   3.768  16.374  2.8971 -3.4784 -1.2228
 1332SOL     OW15631   3.422   0.517   6.838 -0.7591  0.2696 -0.1315
 1332SOL    HW115632   3.340   0.534   6.883 -0.6028  1.2850 -0.2268
 1332SOL    HW215633   3.486   0.539   6.906 -1.1807  1.1860 -0.0326
 1333SOL     OW15634   2.687   2.491  11.085  0.3290  0.5631 -0.6168
 1333SOL    HW115635   2.670   2.432  11.012 -0.6641 -0.6501  0.5971
 1333SOL    HW215636   2.607   2.477  11.135  1.8052  1.9737  2.1380
 1334SOL     OW15637   4.433   3.471   6.938  0.3661 -0.4052 -0.2458
 1334SOL    HW115638   4.404   3.526   7.010  1.2552 -1.1528  0.6852
 1334SOL    HW215639   4.474   3.392   6.972 -1.4180 -1.2829 -0.1549
 1335SOL     OW15640   4.512   1.315   8.707 -0.0118 -0.0519 -0.4394
 1335SOL    HW115641   4.554   1.401   8.696  2.2181 -1.3251 -1.8427
 1335SOL    HW215642   4.453   1.311   8.633 -0.3124 -2.5386 -0.0567
 1336SOL     OW15643   3.858   4.040   6.077  0.3338 -0.3382 -0.0989
 1336SOL    HW115644   3.841   4.034   6.171 -2.1954 -0.6449 -0.5970
 1336SOL    HW215645   3.772   4.053   6.037  0.9948  2.5332 -0.6204
 1337SOL     OW15646   2.718   2.243   1.290  0.0862  0.3751 -0.2511
 1337SOL    HW115647   2.695   2.331   1.319 -0.5826 -0.2437  1.0753
 1337SOL    HW215648   2.805   2.240   1.331 -0.0873  0.8713  0.1536
 1338SOL     OW15649   2.433   2.375  10.883 -0.0073 -0.5137  0.1240
 1338SOL    HW115650   2.526   2.353  10.882  0.5711  1.9107  1.6485
 1338SOL    HW215651   2.419   2.413  10.796  0.0936 -0.0150  0.3244
 1339SOL     OW15652   2.117   4.324  11.797  0.2376  0.0224 -0.1337
 1339SOL    HW115653   2.049   4.260  11.816  1.3369 -0.8102  0.9759
 1339SOL    HW215654   2.065   4.377  11.737 -1.1458  0.1646  1.1939
 1340SOL     OW15655   3.424   0.781   5.833  0.3550 -0.1040 -0.2906
 1340SOL    HW115656   3.397   0.721   5.765  0.3296 -0.3498 -0.0652
 1340SOL    HW215657   3.476   0.852   5.796  0.4024 -1.1742 -2.2329
 1341SOL     OW15658   1.827   1.266   2.103  0.6367  0.6461 -0.0886
 1341SOL    HW115659   1.747   1.241   2.150 -0.6396  1.8341 -1.6401
 1341SOL    HW215660   1.826   1.200   2.034  0.5454 -0.6429  1.1245
 1342SOL     OW15661   2.412   0.845   1.330  0.5920  0.3930 -0.1332
 1342SOL    HW115662   2.388   0.831   1.421 -0.7485  0.5035 -0.4762
 1342SOL    HW215663   2.496   0.800   1.318  0.1698 -1.2432  3.0877
 1343SOL     OW15664   1.755   4.111  12.185 -0.2100 -0.4199  0.4749
 1343SOL    HW115665   1.704   4.176  12.233  0.2897  0.6973 -0.5045
 1343SOL    HW215666   1.716   4.030  12.218  0.3840 -0.4643  1.0654
 1344SOL     OW15667   0.875   0.639   7.175  0.7015  0.0759  0.0193
 1344SOL    HW115668   0.858   0.573   7.108  1.0443  0.2606 -0.2513
 1344SOL    HW215669   0.793   0.687   7.163  0.3623 -0.8250 -1.3032
 1345SOL     OW15670   0.723   3.672   1.767 -0.1025 -0.2415  0.2145
 1345SOL    HW115671   0.679   3.601   1.720  0.5236 -0.0213 -0.7228
 1345SOL    HW215672   0.675   3.670   1.849 -1.1375 -1.3071 -0.4204
 1346SOL     OW15673   3.217   0.877   8.585  0.3899  0.6486 -0.0704
 1346SOL    HW115674   3.265   0.959   8.585  0.8153  0.3972  1.1148
 1346SOL    HW215675   3.131   0.902   8.619 -0.7415 -2.3295 -0.6914
 1347SOL     OW15676   0.495   2.486   2.244  0.5365 -0.2899 -0.3689
 1347SOL    HW115677   0.463   2.463   2.157  2.5464 -3.1517 -0.3419
 1347SOL    HW215678   0.554   2.558   2.221  0.8073 -0.4567 -0.2078
 1348SOL     OW15679   2.816   1.645   4.961 -0.1402  0.5858  0.7227
 1348SOL    HW115680   2.787   1.624   5.050 -1.6637  1.6238  0.4760
 1348SOL    HW215681   2.739   1.608   4.917 -1.9446  2.0100  2.7163
 1349SOL     OW15682   2.370   3.834   1.628  0.6073  0.0448 -0.1043
 1349SOL    HW115683   2.278   3.858   1.643  0.5593  0.9795 -1.9311
 1349SOL    HW215684   2.414   3.889   1.693  0.1683  2.1434 -1.5968
 1350SOL     OW15685   3.736   2.921  17.354  0.0454  0.0344 -0.2969
 1350SOL    HW115686   3.661   2.886  17.402  0.4319  0.2997  0.5018
 1350SOL    HW215687   3.800   2.940  17.422 -0.5757  2.4527 -0.3890
 1351SOL     OW15688   1.174   2.506   0.130  0.2255  0.2185  0.8190
 1351SOL    HW115689   1.208   2.438   0.188 -4.4787 -1.7635  1.2578
 1351SOL    HW215690   1.089   2.532   0.166 -0.6159 -3.6667  1.6659
 1352SOL     OW15691   2.766   1.637   2.282 -0.4866 -0.1659  0.0998
 1352SOL    HW115692   2.841   1.690   2.310 -0.3250 -1.1546  1.4902
 1352SOL    HW215693   2.780   1.559   2.335 -0.3140  0.3580  0.8274
 1353SOL     OW15694   1.882   0.334   7.888  0.0952 -0.1574  0.2732
 1353SOL    HW115695   1.933   0.411   7.863  1.3255 -1.6679 -1.8521
 1353SOL    HW215696   1.951   0.288   7.935  1.2427  0.6245 -0.6308
 1354SOL     OW15697   2.090   4.009   8.412  0.0110  0.9651 -0.1520
 1354SOL    HW115698   2.078   4.037   8.321  0.7058  0.3903 -0.4257
 1354SOL    HW215699   2.022   3.942   8.427  0.3012  0.2428 -2.0565
 1355SOL     OW15700   0.288   3.484   1.330  0.6306 -0.0469  0.4212
 1355SOL    HW115701   0.292   3.570   1.372 -0.0214  0.0973  0.1881
 1355SOL    HW215702   0.261   3.520   1.245 -1.7593 -0.8777  0.8342
 1356SOL     OW15703   0.301   0.607   5.427  0.4841  0.2167  0.5882
 1356SOL    HW115704   0.362   0.540   5.397 -3.0876 -1.6111 -2.6126
 1356SOL    HW215705   0.307   0.674   5.359  0.3872  0.1410  0.5068
 1357SOL     OW15706   3.287   0.743   3.019  0.6964 -0.0298  0.0172
 1357SOL    HW115707   3.251   0.830   3.038  1.2286 -0.1464  1.5645
 1357SOL    HW215708   3.209   0.705   2.978 -0.6653  0.8203  1.8166
 1358SOL     OW15709   2.063   4.659   9.864 -0.5818  0.3842  0.2265
 1358SOL    HW115710   2.123   4.588   9.887 -1.8010 -0.4971  0.6194
 1358SOL    HW215711   2.060   4.649   9.769  0.0968  2.1886  0.0014
 1359SOL     OW15712   1.928   0.235  11.021 -0.3735 -0.3223  0.4867
 1359SOL    HW115713   1.853   0.295  11.016  0.7269  1.0659  0.9489
 1359SOL    HW215714   1.962   0.247  10.933  2.0017  0.1462  1.4657
 1360SOL     OW15715   2.826   4.048   4.136 -0.0438  0.1981 -0.0632
 1360SOL    HW115716   2.862   4.123   4.088  0.1944  0.8243  1.0749
 1360SOL    HW215717   2.903   3.997   4.162  1.0048  2.8890  2.1835
 1361SOL     OW15718   3.821   2.312   7.918 -0.2415 -0.4089  0.7097
 1361SOL    HW115719   3.829   2.347   8.007 -0.0394  0.7312  0.2416
 1361SOL    HW215720   3.866   2.229   7.932 -0.0323 -0.4946 -0.4860
 1362SOL     OW15721   3.943   4.589   8.561  0.6165 -0.6787  0.0025
 1362SOL    HW115722   3.936   4.627   8.648  1.5004  0.4747 -0.4391
 1362SOL    HW215723   3.850   4.595   8.537  0.0261  0.1413  2.5008
 1363SOL     OW15724   1.086   0.791   0.439  0.2300 -0.4767  0.6574
 1363SOL    HW115725   1.070   0.869   0.493 -0.3017  0.7906 -1.3483
 1363SOL    HW215726   1.016   0.804   0.375  0.4625  0.7256  0.6443
 1364SOL     OW15727   3.497   2.423   0.961  0.1502 -0.2251  0.1335
 1364SOL    HW115728   3.543   2.425   1.045  0.7212  2.1931 -0.2296
 1364SOL    HW215729   3.565   2.460   0.905 -1.0264  0.2541 -0.9909
 1365SOL     OW15730   0.381   3.011  15.237  0.0309  0.2014 -0.0279
 1365SOL    HW115731   0.420   3.074  15.297 -0.1711  1.5312 -1.2896
 1365SOL    HW215732   0.461   2.980  15.193  1.8950  2.5047  1.7961
 1366SOL     OW15733   4.370   1.631   6.320  0.2768 -1.0229 -0.1264
 1366SOL    HW115734   4.354   1.650   6.412 -2.1940  0.1702 -0.8223
 1366SOL    HW215735   4.463   1.655   6.313  0.1262 -0.2003  0.7346
 1367SOL     OW15736   2.889   2.702   3.796 -0.2782  0.3673 -1.4188
 1367SOL    HW115737   2.944   2.753   3.855  0.2038 -1.0860 -0.6118
 1367SOL    HW215738   2.831   2.766   3.755 -1.1336 -1.2347 -2.7190
 1368SOL     OW15739   4.602   4.187   1.794 -0.0240 -0.0675  0.4631
 1368SOL    HW115740   4.533   4.164   1.731 -0.2348 -0.2835  0.7709
 1368SOL    HW215741   4.677   4.173   1.737 -1.7409  1.2046 -2.1359
 1369SOL     OW15742   1.670   1.587   6.852  0.5430 -0.4442 -0.2730
 1369SOL    HW115743   1.592   1.642   6.860  0.7678 -0.1963  0.2224
 1369SOL    HW215744   1.697   1.590   6.761  1.5124  0.3882  0.0399
 1370SOL     OW15745   0.963   0.583   0.588  0.6403 -0.6843 -0.3637
 1370SOL    HW115746   1.019   0.639   0.533  0.7866  0.0103  0.4857
 1370SOL    HW215747   0.992   0.613   0.674 -0.3300 -1.0673  0.0868
 1371SOL     OW15748   1.962   1.994   1.280 -0.8712  0.4404  0.0951
 1371SOL    HW115749   2.031   1.965   1.220 -1.6755  1.0738 -1.1325
 1371SOL    HW215750   1.885   1.962   1.233  0.3522 -1.3701 -0.7104
 1372SOL     OW15751   2.954   3.847   6.861 -0.1588 -0.9831 -0.9402
 1372SOL    HW115752   3.013   3.826   6.933 -1.1501 -0.3125  0.0655
 1372SOL    HW215753   2.983   3.771   6.810 -1.2463 -1.6184 -0.6246
 1373SOL     OW15754   0.267   3.840   3.128  0.6322 -0.4226 -0.5926
 1373SOL    HW115755   0.303   3.839   3.217 -1.4953  1.8952  0.3052
 1373SOL    HW215756   0.185   3.889   3.136  1.3393  0.5684  0.4304
 1374SOL     OW15757   1.408   4.075   6.080 -0.0100  0.6651  0.4324
 1374SOL    HW115758   1.325   4.121   6.073  1.9349  3.6511 -2.9811
 1374SOL    HW215759   1.431   4.097   6.170 -0.7183  0.0433  0.7641
 1375SOL     OW15760   1.239   2.553   4.284  0.5995 -0.1972 -0.2385
 1375SOL    HW115761   1.261   2.590   4.198 -3.1450  1.5047 -0.4615
 1375SOL    HW215762   1.229   2.461   4.258 -1.2508  0.3739 -1.5648
 1376SOL     OW15763   3.761   0.663   0.371 -0.0332  0.5442 -0.0849
 1376SOL    HW115764   3.837   0.700   0.417  0.0688 -0.4948  0.5709
 1376SOL    HW215765   3.801   0.622   0.295 -0.7580  0.0715 -0.2073
 1377SOL     OW15766   3.007   2.724   9.907  0.1477 -0.0453  0.2006
 1377SOL    HW115767   3.023   2.630   9.910 -2.0939 -0.4739 -0.9252
 1377SOL    HW215768   2.986   2.741   9.815 -2.5420 -0.1402  0.8049
 1378SOL     OW15769   0.917   2.682  17.528  0.3377 -0.0439 -0.1602
 1378SOL    HW115770   0.839   2.634  17.555  1.6001 -3.3411 -2.4020
 1378SOL    HW215771   0.910   2.689  17.433  2.4203 -2.2127 -0.4714
 1379SOL     OW15772   1.086   1.342   7.328 -0.0663 -0.0518 -0.1781
 1379SOL    HW115773   1.064   1.342   7.422  0.7816  2.0472  0.0147
 1379SOL    HW215774   1.034   1.411   7.287 -0.7999  0.9193  2.3697
 1380SOL     OW15775   2.786   4.261   7.818  0.4908  0.1363 -0.3262
 1380SOL    HW115776   2.748   4.279   7.904  0.2781  2.7116 -0.9556
 1380SOL    HW215777   2.714   4.273   7.756 -1.3649 -0.5372  1.6729
 1381SOL     OW15778   3.135   3.707   3.754  0.1148  0.0605  0.3078
 1381SOL    HW115779   3.147   3.624   3.799  2.6434 -0.0101 -0.5247
 1381SOL    HW215780   3.078   3.689   3.679  0.9557 -2.1036  0.2090
 1382SOL     OW15781   0.475   0.752  14.791  0.5449 -0.4335 -0.6083
 1382SOL    HW115782   0.389   0.715  14.770  0.4679 -0.2313 -0.6513
 1382SOL    HW215783   0.529   0.674  14.796  1.5462  0.2876 -0.2021
 1383SOL     OW15784   4.718   0.548   9.711 -0.1762 -0.0087 -0.0757
 1383SOL    HW115785   0.030   0.619   9.667 -0.8743  0.7442  0.4025
 1383SOL    HW215786   0.024   0.562   9.797  0.4490  1.7762 -0.6656
 1384SOL     OW15787   2.485   0.971   3.315 -0.0930 -0.4613  0.1668
 1384SOL    HW115788   2.527   0.992   3.231  0.5776 -2.8444 -0.0935
 1384SOL    HW215789   2.394   0.982   3.285 -0.7775 -4.3844  0.8024
 1385SOL     OW15790   3.726   4.176   8.145  0.2168  0.0351  0.0579
 1385SOL    HW115791   3.800   4.215   8.098 -0.5871  2.7591  1.0190
 1385SOL    HW215792   3.689   4.131   8.070 -1.8845  0.6963  0.7074
 1386SOL     OW15793   0.598   0.635   6.011 -0.3865  0.6738  0.2785
 1386SOL    HW115794   0.519   0.587   5.987  0.0472 -0.8552  1.9315
 1386SOL    HW215795   0.608   0.692   5.934  0.3550  1.1103  0.7031
 1387SOL     OW15796   2.170   4.150   9.973  0.3412  0.1649 -0.0560
 1387SOL    HW115797   2.143   4.133  10.064 -3.4584  0.7328 -1.0836
 1387SOL    HW215798   2.220   4.069   9.963  1.4582  0.7540  0.6651
 1388SOL     OW15799   3.697   4.632   0.461 -0.6806 -1.1582  0.1511
 1388SOL    HW115800   3.619   4.578   0.445 -2.9585  1.8719  0.9188
 1388SOL    HW215801   3.707   4.647   0.555  1.0568 -0.5358 -0.1376
 1389SOL     OW15802   2.540   4.651   3.820 -0.0506 -1.1109 -0.1573
 1389SOL    HW115803   2.628   4.683   3.799 -0.7637  1.4036  0.6125
 1389SOL    HW215804   2.547   4.602   3.902  0.3459 -1.0300 -0.1431
 1390SOL     OW15805   1.691   1.877  17.080  0.6261  0.0521  0.8089
 1390SOL    HW115806   1.752   1.821  17.033 -0.5562  0.4194 -1.1586
 1390SOL    HW215807   1.735   1.961  17.062 -0.0222  0.8063  2.7301
 1391SOL     OW15808   0.820   1.548   0.778 -0.8778 -0.4633  0.2973
 1391SOL    HW115809   0.829   1.472   0.836  2.3318  1.5788  2.4158
 1391SOL    HW215810   0.806   1.506   0.693 -2.1587 -1.8334  1.1718
 1392SOL     OW15811   0.806   0.036   5.617 -0.1227 -0.1247  0.2470
 1392SOL    HW115812   0.895   0.002   5.609 -0.8773 -2.1993  0.6318
 1392SOL    HW215813   0.817   0.113   5.561 -2.5545 -0.0846 -0.1883
 1393SOL     OW15814   1.828   0.790   1.799 -0.1443 -0.2377  0.0095
 1393SOL    HW115815   1.840   0.803   1.893  0.2141 -0.6022  0.0134
 1393SOL    HW215816   1.744   0.744   1.796 -1.4561  2.0420  1.5393
 1394SOL     OW15817   4.446   1.816   4.046 -0.8161  0.5456 -0.0607
 1394SOL    HW115818   4.377   1.874   4.014 -2.0988 -0.7441  0.3620
 1394SOL    HW215819   4.420   1.732   4.008 -0.7334 -0.1583  1.4742
 1395SOL     OW15820   0.237   4.671   6.571  0.2468  0.1594  0.0805
 1395SOL    HW115821   0.199   4.586   6.593 -1.9829  1.0744 -0.2391
 1395SOL    HW215822   0.316   4.644   6.524 -0.5709 -2.9119  0.4851
 1396SOL     OW15823   4.383   3.094   0.506 -0.2881 -0.2700 -0.0420
 1396SOL    HW115824   4.389   2.999   0.500  0.5729 -0.2673  0.8301
 1396SOL    HW215825   4.302   3.106   0.457 -0.0097 -0.9588 -0.6877
 1397SOL     OW15826   1.013   1.519   4.011 -0.2670 -1.1949 -0.0241
 1397SOL    HW115827   0.968   1.566   3.942 -0.8801 -1.3216  0.2902
 1397SOL    HW215828   0.982   1.570   4.086 -0.7934  0.2884 -1.2670
 1398SOL     OW15829   2.231   3.508   5.750  0.2284  0.0425 -0.0137
 1398SOL    HW115830   2.278   3.562   5.814 -1.3182  0.7551  0.5274
 1398SOL    HW215831   2.154   3.561   5.728  0.7452  0.7578 -0.1119
 1399SOL     OW15832   1.731   4.570  16.988  0.2865  0.7041  0.0458
 1399SOL    HW115833   1.657   4.599  17.041 -0.9036  0.1548 -1.3225
 1399SOL    HW215834   1.703   4.488  16.948 -1.6552  0.3343  2.1680
 1400SOL     OW15835   4.216   0.116   4.084  0.0436  0.1616 -0.3082
 1400SOL    HW115836   4.284   0.178   4.059  0.5266 -0.1823  0.1602
 1400SOL    HW215837   4.159   0.112   4.007 -1.3150  2.3795  0.5648
 1401SOL     OW15838   3.557   2.467   4.208 -0.3550  0.1123 -0.1834
 1401SOL    HW115839   3.479   2.518   4.232 -2.4961 -2.8126 -0.8960
 1401SOL    HW215840   3.525   2.378   4.193 -0.2593  0.3776 -2.0352
 1402SOL     OW15841   1.031   2.533   1.813 -0.5290 -0.0396  0.6645
 1402SOL    HW115842   1.105   2.576   1.770  0.4797 -0.9199  1.5392
 1402SOL    HW215843   0.981   2.497   1.740  1.0525  0.2002 -0.5475
 1403SOL     OW15844   3.117   2.017   5.692  0.3607  0.3795 -0.4067
 1403SOL    HW115845   3.101   1.933   5.736 -0.8572  1.1878  0.7217
 1403SOL    HW215846   3.202   1.997   5.654  0.8541  1.2981  0.1971
 1404SOL     OW15847   0.316   1.204   2.770 -0.0832 -0.0526  0.2800
 1404SOL    HW115848   0.315   1.111   2.797 -1.4184 -0.0111  0.3306
 1404SOL    HW215849   0.344   1.250   2.850  2.3226  0.2114 -0.7130
 1405SOL     OW15850   1.809   4.253   6.590 -0.1626 -0.1448 -0.3840
 1405SOL    HW115851   1.832   4.265   6.498 -1.2667  1.5823 -0.4348
 1405SOL    HW215852   1.794   4.159   6.602 -1.0608 -0.0166 -0.4973
 1406SOL     OW15853   1.209   3.938  16.019  0.2688 -0.2550 -0.0511
 1406SOL    HW115854   1.174   3.850  16.036  0.2467 -0.2982 -0.3166
 1406SOL    HW215855   1.204   3.938  15.923 -1.2760 -0.5044  0.0366
 1407SOL     OW15856   2.808   3.021   3.846 -0.0083  0.3412  0.1055
 1407SOL    HW115857   2.773   3.104   3.879  3.4021  1.0372  1.9324
 1407SOL    HW215858   2.901   3.029   3.866 -0.3030  2.1443  0.7355
 1408SOL     OW15859   3.318   2.558   7.784  0.1501  0.2806  0.0741
 1408SOL    HW115860   3.325   2.590   7.874 -0.4277 -0.2133  0.2974
 1408SOL    HW215861   3.407   2.524   7.775 -1.0577 -3.2640  1.2043
 1409SOL     OW15862   3.779   3.987  11.545  0.3599  0.2663 -0.2443
 1409SOL    HW115863   3.712   4.031  11.597 -0.2539 -0.3216 -0.5336
 1409SOL    HW215864   3.725   3.954  11.473  1.1626  0.9219 -1.1396
 1410SOL     OW15865   1.241   2.228   4.628 -0.2588 -0.3535 -0.8866
 1410SOL    HW115866   1.268   2.137   4.616  1.2054  0.0696 -0.8622
 1410SOL    HW215867   1.175   2.224   4.697 -0.6606  1.3700 -1.1588
 1411SOL     OW15868   4.471   4.432  12.748 -0.1866  0.7200  0.5248
 1411SOL    HW115869   4.452   4.352  12.797 -1.9496  0.0687 -1.2024
 1411SOL    HW215870   4.534   4.481  12.801  0.3887  1.2135 -0.6270
 1412SOL     OW15871   0.013   0.356   8.978  0.1219 -0.2822  0.3970
 1412SOL    HW115872   0.012   0.309   8.894  1.4878  0.7896 -0.2207
 1412SOL    HW215873   0.079   0.303   9.022 -0.2738 -2.1834 -1.2651
 1413SOL     OW15874   1.274   0.777  12.697  0.1251 -0.4744  0.1891
 1413SOL    HW115875   1.198   0.785  12.755  0.8346  0.7430  0.9705
 1413SOL    HW215876   1.330   0.749  12.770  1.3891  1.1864 -0.1211
 1414SOL     OW15877   2.667   2.070   8.502 -0.0261 -0.1405 -0.4230
 1414SOL    HW115878   2.740   2.109   8.453  0.5275 -1.4369 -0.6453
 1414SOL    HW215879   2.616   2.066   8.421  1.3041 -0.0187 -1.2736
 1415SOL     OW15880   1.356   1.733  12.892 -0.0347  0.2737  0.0353
 1415SOL    HW115881   1.402   1.705  12.813 -0.5137 -1.4570  0.3747
 1415SOL    HW215882   1.350   1.829  12.888 -0.2126  0.3713  2.4411
 1416SOL     OW15883   0.358   1.743   6.407 -0.7888 -0.1092  0.3828
 1416SOL    HW115884   0.395   1.831   6.413 -0.7500 -0.1381  0.5689
 1416SOL    HW215885   0.433   1.695   6.441 -0.8261 -1.4903 -1.4367
 1417SOL     OW15886   3.539   4.214   6.229 -0.0701  0.3253 -0.1878
 1417SOL    HW115887   3.528   4.145   6.163  0.7599 -1.0535  1.1231
 1417SOL    HW215888   3.562   4.291   6.176 -1.2167 -0.9501 -2.5387
 1418SOL     OW15889   1.226   2.608  15.997 -0.3920 -0.1313 -0.1647
 1418SOL    HW115890   1.220   2.620  16.092 -1.0115 -2.4977  0.0855
 1418SOL    HW215891   1.169   2.679  15.967 -2.5963 -2.0033 -0.4059
 1419SOL     OW15892   0.967   0.499   3.463 -0.5670 -0.8278  0.1324
 1419SOL    HW115893   0.974   0.404   3.468 -1.3410 -0.7649  2.2256
 1419SOL    HW215894   1.039   0.516   3.402  0.5358 -1.4856  1.2536
 1420SOL     OW15895   4.144   2.032   3.761  0.3687 -1.1124  0.0497
 1420SOL    HW115896   4.177   2.021   3.850 -0.6759 -3.3093  0.1582
 1420SOL    HW215897   4.070   1.972   3.766 -1.8994  1.6955  0.4674
 1421SOL     OW15898   0.505   4.603   2.948 -0.1007 -0.2901  0.0352
 1421SOL    HW115899   0.471   4.677   2.899  0.3562  0.3998  0.7614
 1421SOL    HW215900   0.465   4.609   3.035  1.4914  0.2323  0.7338
 1422SOL     OW15901   1.515   0.707   1.611  0.5064  0.2217  0.1944
 1422SOL    HW115902   1.426   0.713   1.648  0.5070 -0.0261  0.2354
 1422SOL    HW215903   1.564   0.688   1.690 -2.2147  1.5489  2.2225
 1423SOL     OW15904   3.367   2.160  11.540 -0.5420  0.3426  0.0907
 1423SOL    HW115905   3.384   2.084  11.597  2.0827  1.5864  0.9960
 1423SOL    HW215906   3.386   2.234  11.598  0.6527  1.1304 -1.2978
 1424SOL     OW15907   3.506   1.666   2.454 -0.0239 -0.1582 -0.3208
 1424SOL    HW115908   3.601   1.652   2.463 -0.1066 -0.8685 -0.5276
 1424SOL    HW215909   3.483   1.628   2.369 -1.6234 -2.0581  0.9640
 1425SOL     OW15910   4.045   0.474  13.832  0.0835 -0.3062  0.0026
 1425SOL    HW115911   3.989   0.519  13.896  0.6567  1.2835 -0.6066
 1425SOL    HW215912   4.094   0.548  13.795  0.6054  0.0373  1.3733
 1426SOL     OW15913   2.067   1.782   7.290  0.1147  0.4488  0.0615
 1426SOL    HW115914   2.102   1.842   7.356 -0.9940  2.1971 -0.9362
 1426SOL    HW215915   1.977   1.808   7.308  0.1411  1.3440 -1.0539
 1427SOL     OW15916   2.420   1.965   2.648  0.3297  0.7800 -0.2849
 1427SOL    HW115917   2.334   2.006   2.640 -0.6067 -0.5023  2.9339
 1427SOL    HW215918   2.445   1.993   2.737  2.0371 -2.6205  0.3214
 1428SOL     OW15919   3.653   0.176   0.439 -0.5908  0.3539  0.5921
 1428SOL    HW115920   3.557   0.177   0.429 -0.1359  1.1286 -3.7309
 1428SOL    HW215921   3.667   0.081   0.432 -0.2233  0.3889  0.8760
 1429SOL     OW15922   1.347   2.862   6.705  0.3817  0.5180  0.2920
 1429SOL    HW115923   1.430   2.870   6.753 -0.5298  1.5007  1.6730
 1429SOL    HW215924   1.382   2.886   6.619  0.5752 -1.4909 -0.1907
 1430SOL     OW15925   3.094   0.483   3.500  0.1004  0.3006 -0.3552
 1430SOL    HW115926   3.129   0.407   3.452  0.6705  0.5356 -0.3048
 1430SOL    HW215927   3.160   0.550   3.485 -0.9981  1.2564 -0.8466
 1431SOL     OW15928   1.504   1.969   7.424 -0.5120 -0.2569 -0.2906
 1431SOL    HW115929   1.507   1.982   7.519 -0.6507  2.3383 -0.6266
 1431SOL    HW215930   1.517   1.874   7.423  1.1567 -0.0362  0.9116
 1432SOL     OW15931   3.763   4.386   7.269  0.0365  0.2905  0.4623
 1432SOL    HW115932   3.708   4.317   7.307 -1.3370  1.3341  0.3689
 1432SOL    HW215933   3.736   4.386   7.177  1.3389  1.1175  0.0798
 1433SOL     OW15934   2.566   4.350   9.729 -0.3271 -0.4121  0.7033
 1433SOL    HW115935   2.597   4.387   9.812 -0.2114  0.1753  0.3928
 1433SOL    HW215936   2.603   4.262   9.740 -1.2450 -0.6170  2.1070
 1434SOL     OW15937   4.477   2.932   8.992  0.0184 -0.0160 -0.0102
 1434SOL    HW115938   4.571   2.936   8.972 -1.0086 -0.6543 -4.8793
 1434SOL    HW215939   4.473   2.938   9.087  1.6468  0.3159  0.0361
 1435SOL     OW15940   2.370   2.535   1.119 -0.3900 -0.3880 -0.0711
 1435SOL    HW115941   2.388   2.542   1.026 -0.2080 -0.6777 -0.0565
 1435SOL    HW215942   2.374   2.441   1.140  0.4829 -0.1593  0.7908
 1436SOL     OW15943   4.056   0.626  16.600  0.6567 -0.2982 -0.1826
 1436SOL    HW115944   4.007   0.605  16.520  0.4342 -0.5992  0.0308
 1436SOL    HW215945   4.148   0.606  16.582  0.9207  2.0351 -1.4232
 1437SOL     OW15946   2.231   4.004   5.671 -0.1698 -0.1927  0.7934
 1437SOL    HW115947   2.286   4.083   5.668 -0.7307  0.2315  1.4089
 1437SOL    HW215948   2.251   3.960   5.589  0.4361  4.4333 -1.5508
 1438SOL     OW15949   1.975   4.691   5.998 -0.0164  0.2566  0.2700
 1438SOL    HW115950   2.030   4.677   5.921 -0.1379 -1.4903  0.5079
 1438SOL    HW215951   1.966   4.599   6.023  3.4337 -0.2852 -0.4401
 1439SOL     OW15952   1.813   1.577   5.773 -0.0312 -0.0436  0.2551
 1439SOL    HW115953   1.817   1.636   5.698  0.6101  1.3340  1.3719
 1439SOL    HW215954   1.890   1.599   5.826  0.8448  0.6146 -1.2780
 1440SOL     OW15955   0.090   0.744  11.195  0.1380  0.1359  0.5765
 1440SOL    HW115956   0.177   0.732  11.157  0.0955  0.4587  0.3765
 1440SOL    HW215957   0.068   0.651  11.198  0.5701 -0.0313 -1.4182
 1441SOL     OW15958   1.617   0.027   7.086 -0.1296 -0.4883 -0.0098
 1441SOL    HW115959   1.628   4.723   7.173 -1.0514  1.7405  1.0824
 1441SOL    HW215960   1.524   0.022   7.067 -0.0985 -0.2317 -0.2418
 1442SOL     OW15961   0.440   1.269   7.102  0.4956 -0.1853  0.2548
 1442SOL    HW115962   0.451   1.346   7.048  0.3363  0.2503  0.8383
 1442SOL    HW215963   0.347   1.266   7.127  1.2019  0.0646  2.8915
 1443SOL     OW15964   3.496   3.736   0.248  0.2892 -0.4225  0.0172
 1443SOL    HW115965   3.488   3.737   0.153  0.2483  2.3500  0.0305
 1443SOL    HW215966   3.588   3.712   0.258  0.3047 -0.8107 -1.0377
 1444SOL     OW15967   1.039   3.076   1.873  0.0322 -0.0661  0.2503
 1444SOL    HW115968   1.097   3.151   1.861 -0.0443 -0.1934 -0.9321
 1444SOL    HW215969   1.079   3.036   1.950 -0.1694 -0.6381  0.0526
 1445SOL     OW15970   1.948   4.187   2.309  0.2830 -0.1672 -0.1843
 1445SOL    HW115971   1.990   4.138   2.237  1.8920 -1.7316  1.8249
 1445SOL    HW215972   1.981   4.134   2.381  0.0375  2.2983  1.7212
 1446SOL     OW15973   0.542   2.488  14.351  0.4486 -0.1459  0.4616
 1446SOL    HW115974   0.532   2.530  14.265  2.3395 -1.0443 -0.1789
 1446SOL    HW215975   0.478   2.539  14.402 -2.2998  1.0970 -4.2186
 1447SOL     OW15976   3.119   1.455  17.336  0.0067  0.5584 -0.6211
 1447SOL    HW115977   3.030   1.433  17.309 -0.5984  0.5977  1.3675
 1447SOL    HW215978   3.132   1.373  17.383 -0.9131 -1.2692 -3.5754
 1448SOL     OW15979   2.251   0.939   4.690  0.3037  0.0929 -0.6372
 1448SOL    HW115980   2.170   0.943   4.740  2.2461  1.8641  2.4302
 1448SOL    HW215981   2.287   1.028   4.687  1.7672 -0.4146  1.3827
 1449SOL     OW15982   0.147   4.474   7.339 -0.2185  0.6767 -0.2953
 1449SOL    HW115983   0.121   4.543   7.400 -1.1310  0.1875 -0.1393
 1449SOL    HW215984   0.219   4.515   7.290 -0.4251  1.1599 -0.1977
 1450SOL     OW15985   3.456   0.550   7.309 -0.1856 -0.3326  0.0277
 1450SOL    HW115986   3.415   0.601   7.380  2.2215 -2.1265  2.6842
 1450SOL    HW215987   3.455   0.463   7.349 -1.0631  0.7833  2.4702
 1451SOL     OW15988   2.453   0.741  16.770  0.7529  0.2661  0.0024
 1451SOL    HW115989   2.370   0.692  16.777  1.4073 -0.4790  2.5286
 1451SOL    HW215990   2.507   0.662  16.773 -0.4717 -0.6412 -1.6423
 1452SOL     OW15991   4.491   1.950  11.508 -0.6411 -0.1084  0.1612
 1452SOL    HW115992   4.402   1.984  11.521 -0.5952  0.5012 -1.1353
 1452SOL    HW215993   4.479   1.954  11.413 -0.5599 -1.7401  0.0808
 1453SOL     OW15994   3.884   2.879   3.882 -0.3941 -0.3352 -0.6006
 1453SOL    HW115995   3.964   2.839   3.848 -0.1444 -1.0998  0.8764
 1453SOL    HW215996   3.845   2.916   3.803  0.5193  1.0298 -0.4095
 1454SOL     OW15997   2.084   1.369  10.674  0.2884 -0.6283 -0.0986
 1454SOL    HW115998   2.132   1.352  10.754 -1.2702 -1.3294  0.6939
 1454SOL    HW215999   1.995   1.364  10.709 -0.3030  0.0790 -1.4823
 1455SOL     OW16000   1.387   1.448   8.895  0.2354  0.1529  0.3592
 1455SOL    HW116001   1.448   1.520   8.915  1.6385 -1.3169  1.3732
 1455SOL    HW216002   1.449   1.375   8.893 -0.2206 -0.1175 -2.9017
 1456SOL     OW16003   1.930   2.550   1.583  0.2842 -0.2564  0.6877
 1456SOL    HW116004   2.020   2.519   1.587  0.2426 -0.5315 -0.3635
 1456SOL    HW216005   1.924   2.595   1.499  1.7590  0.6292  1.0767
 1457SOL     OW16006   0.429   4.576   6.325 -0.8673 -0.1747  0.7873
 1457SOL    HW116007   0.433   4.506   6.260  0.4547  1.8971 -1.3707
 1457SOL    HW216008   0.437   4.525   6.406  2.2075 -0.7208  0.1496
 1458SOL     OW16009   0.827   4.638   4.632 -0.0984 -0.0784 -0.4047
 1458SOL    HW116010   0.810   4.597   4.717  1.0604  0.1654 -0.0479
 1458SOL    HW216011   0.761   4.705   4.648 -0.2396 -0.0847 -0.9652
 1459SOL     OW16012   1.187   1.883   6.535 -0.0711 -0.0597  0.0510
 1459SOL    HW116013   1.228   1.860   6.452  0.3752 -2.9281  1.0924
 1459SOL    HW216014   1.185   1.978   6.518 -2.5344 -0.4463 -1.8086
 1460SOL     OW16015   1.245   0.806   7.813  0.0669  0.1792  0.1568
 1460SOL    HW116016   1.217   0.766   7.730 -3.1807  0.1937  1.2581
 1460SOL    HW216017   1.160   0.809   7.856  1.0815 -0.1386  2.1635
 1461SOL     OW16018   1.583   2.686   2.533 -0.0636  0.1280  0.1404
 1461SOL    HW116019   1.607   2.664   2.443  0.8393  0.3111  0.3327
 1461SOL    HW216020   1.619   2.616   2.588  1.0766  0.2220 -0.4934
 1462SOL     OW16021   0.620   3.124   4.241 -0.1079 -0.1086 -0.0006
 1462SOL    HW116022   0.629   3.037   4.205  1.6655  0.0268  0.0995
 1462SOL    HW216023   0.703   3.138   4.287 -0.3607  1.5314 -0.0255
 1463SOL     OW16024   2.613   3.878   6.868 -0.0138 -0.3301 -0.1010
 1463SOL    HW116025   2.577   3.958   6.829 -0.8071 -0.0579  1.1849
 1463SOL    HW216026   2.600   3.892   6.962  0.3602 -0.4194 -0.0346
 1464SOL     OW16027   1.985   4.434  11.611  0.1911 -0.1790  0.0534
 1464SOL    HW116028   1.899   4.468  11.633  0.3741 -1.2263  2.3414
 1464SOL    HW216029   2.010   4.496  11.542  0.3552 -2.2711 -1.7694
 1465SOL     OW16030   0.406   2.517   1.025 -0.6331  0.1031  0.5270
 1465SOL    HW116031   0.433   2.525   1.117  0.9265  0.2500  0.0584
 1465SOL    HW216032   0.356   2.599   1.023  0.4796  0.7186 -1.6537
 1466SOL     OW16033   2.215   0.827  15.949  1.1017 -0.7385 -0.0913
 1466SOL    HW116034   2.211   0.922  15.964  2.4843 -0.6128 -0.5548
 1466SOL    HW216035   2.263   0.800  16.027 -2.1434 -1.2113  1.7611
 1467SOL     OW16036   4.073   3.241  14.887  0.3489 -0.6164 -0.3086
 1467SOL    HW116037   3.984   3.258  14.915  1.2997 -0.1475  2.4472
 1467SOL    HW216038   4.123   3.311  14.931 -0.9900 -0.1164  0.4128
 1468SOL     OW16039   3.776   1.327   7.000  0.2417 -0.4793  0.0300
 1468SOL    HW116040   3.743   1.413   6.973 -0.4140 -0.8939 -0.4754
 1468SOL    HW216041   3.691   1.283   7.003 -1.0981  1.9669 -1.5216
 1469SOL     OW16042   3.803   0.126   4.408  0.1121 -0.3919 -0.7489
 1469SOL    HW116043   3.755   0.055   4.366  0.4693 -2.3014  2.0492
 1469SOL    HW216044   3.891   0.113   4.374  0.5504  0.7444 -0.0523
 1470SOL     OW16045   4.580   2.268   1.978 -0.7014  0.2343  0.4390
 1470SOL    HW116046   4.642   2.296   2.045  0.0885  2.4721 -1.2231
 1470SOL    HW216047   4.534   2.351   1.969 -1.3864 -0.0086  1.7195
 1471SOL     OW16048   3.062   4.478   1.045  0.2848  0.1996 -0.2759
 1471SOL    HW116049   3.029   4.401   0.998  0.3396  0.2078 -0.3271
 1471SOL    HW216050   3.014   4.548   1.001  0.1703 -1.5490 -2.9270
 1472SOL     OW16051   2.774   4.530  12.066  0.5341 -0.1343  0.5311
 1472SOL    HW116052   2.785   4.478  12.146  1.1103  1.4847  1.5150
 1472SOL    HW216053   2.693   4.496  12.027  0.1636  0.5243  0.7286
 1473SOL     OW16054   2.606   2.123   3.135 -0.2774  0.0875 -0.1136
 1473SOL    HW116055   2.695   2.158   3.141 -1.5879  3.1335  1.7625
 1473SOL    HW216056   2.620   2.062   3.063 -0.4100  2.6335 -2.3249
 1474SOL     OW16057   3.756   1.000  12.535  0.2214 -0.1826 -0.2315
 1474SOL    HW116058   3.745   1.029  12.625  0.4140  1.0888 -0.6118
 1474SOL    HW216059   3.810   0.922  12.532  0.4881  0.0048 -0.3409
 1475SOL     OW16060   4.092   4.535   5.583  0.1672  0.4756 -0.2377
 1475SOL    HW116061   4.012   4.485   5.599  0.4993  0.3038  0.9042
 1475SOL    HW216062   4.159   4.489   5.634 -2.1164 -0.0161  2.3200
 1476SOL     OW16063   2.988   3.613   7.177 -0.5792  0.7811  0.8341
 1476SOL    HW116064   2.915   3.569   7.133 -1.4333  0.6325  2.4025
 1476SOL    HW216065   3.029   3.641   7.095 -0.4464 -1.2542  0.2060
 1477SOL     OW16066   0.790   1.708   6.975 -0.4953  0.4029 -0.4061
 1477SOL    HW116067   0.728   1.672   6.912 -3.0166 -0.1458  2.4356
 1477SOL    HW216068   0.778   1.643   7.043  0.2241  1.5309  0.8043
 1478SOL     OW16069   2.581   0.349   1.107  0.1243  1.2997 -0.3411
 1478SOL    HW116070   2.581   0.380   1.198  2.2385 -0.1193  0.1496
 1478SOL    HW216071   2.522   0.413   1.067  1.1300  0.6621 -2.8304
 1479SOL     OW16072   2.061   0.516  14.730  0.2840  0.0347 -0.6724
 1479SOL    HW116073   1.971   0.537  14.754 -0.5721 -1.3143 -2.7118
 1479SOL    HW216074   2.055   0.430  14.687  3.1983 -1.0733  1.1460
 1480SOL     OW16075   2.847   4.619   0.164  0.3236 -0.3242  0.3260
 1480SOL    HW116076   2.884   4.543   0.210  2.1334  2.3140  3.1838
 1480SOL    HW216077   2.791   4.663   0.228  0.9833 -0.0032  0.6712
 1481SOL     OW16078   3.616   0.499   2.338  0.0092  0.2944  0.0670
 1481SOL    HW116079   3.649   0.580   2.300  0.2822 -0.1521 -0.6629
 1481SOL    HW216080   3.679   0.436   2.301  0.4390  0.6240  0.2372
 1482SOL     OW16081   0.392   2.130  10.446  0.1186  0.2662  0.1627
 1482SOL    HW116082   0.311   2.130  10.498 -0.1775 -1.5904 -0.3106
 1482SOL    HW216083   0.408   2.224  10.440 -0.8885  0.2715 -2.0259
 1483SOL     OW16084   4.697   3.748   1.566  0.3256  0.2074  0.7995
 1483SOL    HW116085   4.675   3.655   1.576 -0.0210  0.3662  1.5102
 1483SOL    HW216086   4.646   3.788   1.636 -2.4985 -1.8530 -0.0651
 1484SOL     OW16087   0.158   3.050   6.506  0.7003  0.4196  0.0604
 1484SOL    HW116088   0.246   3.086   6.516  0.2946  1.6510 -0.8886
 1484SOL    HW216089   0.159   3.011   6.594  0.3989  0.9465  0.2976
 1485SOL     OW16090   1.238   0.251  12.529 -0.3515 -0.4712  0.1768
 1485SOL    HW116091   1.329   0.238  12.556  0.7949  1.0379 -2.9407
 1485SOL    HW216092   1.190   0.186  12.580 -1.9500  0.0160 -0.6954
 1486SOL     OW16093   0.569   1.851   8.940 -0.0718  0.6396  0.0960
 1486SOL    HW116094   0.576   1.778   9.002  0.2340  0.5319 -0.0647
 1486SOL    HW216095   0.589   1.922   9.000 -2.6563  1.0392  0.4923
 1487SOL     OW16096   0.451   1.010  14.620  0.0283  0.5959 -0.0741
 1487SOL    HW116097   0.437   1.075  14.688  1.2445 -0.5332  1.2598
 1487SOL    HW216098   0.417   0.926  14.651 -1.1676  0.7843 -0.8748
 1488SOL     OW16099   4.535   4.029   7.410  0.1618 -0.3409 -0.4546
 1488SOL    HW116100   4.501   3.979   7.484 -0.5882  0.6274 -0.1380
 1488SOL    HW216101   4.625   4.041   7.440 -0.5303 -2.8720  2.6497
 1489SOL     OW16102   3.182   4.097   2.867  0.1565 -0.5587 -0.2804
 1489SOL    HW116103   3.147   4.185   2.859 -2.5230 -1.6224 -0.5059
 1489SOL    HW216104   3.169   4.095   2.962  2.7895 -0.7668  0.0710
 1490SOL     OW16105   0.741   2.026   9.545  0.2670 -0.4782  0.0672
 1490SOL    HW116106   0.655   2.025   9.503  0.6514  1.3309 -0.7807
 1490SOL    HW216107   0.720   2.080   9.621  0.3970  0.8115 -0.8121
 1491SOL     OW16108   2.192   1.631  15.191  0.1118  0.0815 -0.1765
 1491SOL    HW116109   2.263   1.568  15.200  0.8479  0.4453 -3.2756
 1491SOL    HW216110   2.248   1.709  15.188  1.5040 -0.9234 -0.0466
 1492SOL     OW16111   2.952   0.947   6.475 -0.4063  0.3844  0.3009
 1492SOL    HW116112   2.987   0.916   6.558 -0.1197 -0.6849 -0.2305
 1492SOL    HW216113   3.035   0.939   6.429 -0.8465  1.5029 -0.7229
 1493SOL     OW16114   1.749   3.439  16.138 -0.2327  0.6064 -0.5195
 1493SOL    HW116115   1.686   3.498  16.098  1.1880  2.1576 -0.4759
 1493SOL    HW216116   1.727   3.445  16.231  1.4820 -2.9597  0.1154
 1494SOL     OW16117   3.294   1.634   2.210 -0.3897 -0.2271  0.1790
 1494SOL    HW116118   3.294   1.728   2.227  1.0717 -0.0763 -0.6643
 1494SOL    HW216119   3.205   1.603   2.227 -0.8747  0.4672 -1.1092
 1495SOL     OW16120   2.160   4.454  11.289  0.2196  0.5470  0.4164
 1495SOL    HW116121   2.237   4.453  11.232 -1.1562  3.3830 -1.4853
 1495SOL    HW216122   2.165   4.372  11.338 -0.8448  0.5762  0.5782
 1496SOL     OW16123   2.473   1.680   5.269 -0.2102  0.7221 -0.4783
 1496SOL    HW116124   2.409   1.675   5.340  0.8258 -0.7718  0.3444
 1496SOL    HW216125   2.547   1.716   5.318  1.4883 -2.3404 -0.8003
 1497SOL     OW16126   1.528   3.132   4.734  0.1556 -0.1258  0.4041
 1497SOL    HW116127   1.509   3.057   4.791  0.6585 -0.5541  0.0120
 1497SOL    HW216128   1.615   3.112   4.699 -0.0016 -1.0951  0.5734
 1498SOL     OW16129   0.821   0.516   9.573  0.1533 -0.1060  0.0890
 1498SOL    HW116130   0.762   0.466   9.630  1.6391  0.0962  1.8175
 1498SOL    HW216131   0.895   0.482   9.624 -0.0540 -0.4963  0.1309
 1499SOL     OW16132   1.652   2.315  15.245  0.2436 -0.4104  0.1614
 1499SOL    HW116133   1.702   2.294  15.166 -1.9178  2.2318 -1.9330
 1499SOL    HW216134   1.574   2.357  15.208 -0.1353 -2.0705 -0.9226
 1500SOL     OW16135   3.224   3.024   7.362  0.4364  0.1183 -0.6004
 1500SOL    HW116136   3.271   3.053   7.284  0.7707  1.2910  0.0416
 1500SOL    HW216137   3.131   3.033   7.337  0.2056 -0.7567 -0.0342
 1501SOL     OW16138   4.528   1.047   1.661 -0.1403 -0.2330  0.7575
 1501SOL    HW116139   4.581   1.123   1.684 -1.6161  1.4114 -1.3520
 1501SOL    HW216140   4.596   1.013   1.602 -1.3699 -0.4224 -0.5553
 1502SOL     OW16141   2.113   4.000   4.402  0.0072  0.6155  0.1298
 1502SOL    HW116142   2.087   4.090   4.421 -0.4591 -0.2420  3.5355
 1502SOL    HW216143   2.057   3.951   4.463 -0.1182  0.7636  0.1330
 1503SOL     OW16144   3.687   0.432   9.399 -0.0307 -0.1455 -0.3076
 1503SOL    HW116145   3.689   0.448   9.494 -1.5554  1.5657 -0.5525
 1503SOL    HW216146   3.621   0.363   9.404 -0.6872  0.5380  0.6262
 1504SOL     OW16147   2.918   2.887   7.965  0.5588 -0.0151 -0.6732
 1504SOL    HW116148   2.824   2.892   7.981  0.7110  0.0943  0.2008
 1504SOL    HW216149   2.954   2.958   8.019  0.4527 -1.7653  1.7194
 1505SOL     OW16150   1.062   3.176   7.707  0.3911  0.4422 -0.3259
 1505SOL    HW116151   1.067   3.080   7.705  0.7972  0.4346  1.0426
 1505SOL    HW216152   1.145   3.190   7.662  0.4306  2.6489  0.4495
 1506SOL     OW16153   0.902   4.335   9.633 -0.0629  0.4956  0.1669
 1506SOL    HW116154   0.948   4.252   9.643 -0.9207  0.0033  0.0254
 1506SOL    HW216155   0.969   4.389   9.591  0.1580  0.2062  0.1478
 1507SOL     OW16156   3.555   2.427  16.554  0.0574 -0.0969 -0.6206
 1507SOL    HW116157   3.600   2.509  16.576 -1.0186  0.5735 -0.9170
 1507SOL    HW216158   3.479   2.447  16.500 -1.5435 -1.5173  1.1131
 1508SOL     OW16159   2.942   2.339   3.960  0.1561  0.0803 -0.4342
 1508SOL    HW116160   2.914   2.307   4.046  2.6258 -0.0521  0.3224
 1508SOL    HW216161   2.852   2.356   3.934  0.1046  0.2807 -0.1260
 1509SOL     OW16162   2.249   3.324   3.386  0.0903  0.0064 -0.1735
 1509SOL    HW116163   2.226   3.298   3.475  0.7357  1.3805  0.3948
 1509SOL    HW216164   2.185   3.282   3.327 -0.0220  1.0308 -0.7702
 1510SOL     OW16165   1.359   1.844  10.524 -0.6235  0.0082  0.5493
 1510SOL    HW116166   1.416   1.769  10.506 -0.5161 -0.2160  1.8427
 1510SOL    HW216167   1.284   1.822  10.468 -0.0980 -2.3689  0.8025
 1511SOL     OW16168   2.055   2.110  13.336  0.3070  0.2400  0.3033
 1511SOL    HW116169   2.076   2.173  13.406 -1.3031  1.6370 -0.4764
 1511SOL    HW216170   2.092   2.031  13.375 -1.9047 -1.0393 -0.1937
 1512SOL     OW16171   4.482   3.105   3.521 -0.0976 -0.3596 -0.3234
 1512SOL    HW116172   4.415   3.109   3.589 -0.8972 -0.7940 -1.0937
 1512SOL    HW216173   4.537   3.174   3.559 -1.4177 -1.0787  2.8998
 1513SOL     OW16174   0.883   2.646   5.746  0.1590  0.2034  0.0356
 1513SOL    HW116175   0.888   2.570   5.803  0.4352  1.1443  1.2700
 1513SOL    HW216176   0.910   2.720   5.800 -1.1968 -0.1348  1.1691
 1514SOL     OW16177   2.251   0.543  17.102 -0.1846  0.1318  0.0707
 1514SOL    HW116178   2.275   0.530  17.193  2.2722  1.6053 -0.3800
 1514SOL    HW216179   2.203   0.626  17.103  0.7753  0.7473 -4.0322
 1515SOL     OW16180   0.310   3.231   6.935 -0.2236 -0.7188 -0.5754
 1515SOL    HW116181   0.244   3.176   6.978 -0.2485 -1.5471 -1.6954
 1515SOL    HW216182   0.380   3.165   6.936 -0.2792 -0.7722  0.1415
 1516SOL     OW16183   1.596   1.168  16.383 -0.5227  0.1898  0.3046
 1516SOL    HW116184   1.548   1.152  16.301 -0.1231 -1.5135  0.4146
 1516SOL    HW216185   1.687   1.180  16.358 -0.7196  4.1813  1.4422
 1517SOL     OW16186   0.262   3.326   5.358 -0.0203 -0.5826 -0.1242
 1517SOL    HW116187   0.333   3.285   5.309 -1.0683  0.1307 -2.2025
 1517SOL    HW216188   0.187   3.269   5.342 -0.1416  0.1957 -2.3537
 1518SOL     OW16189   1.999   2.626   2.798  0.6001 -0.1210 -0.0703
 1518SOL    HW116190   2.050   2.579   2.732 -0.1513  0.8437 -1.3352
 1518SOL    HW216191   1.942   2.686   2.751  2.1806  0.6960 -0.9521
 1519SOL     OW16192   1.249   1.277   6.037  0.6209  0.4589 -0.2871
 1519SOL    HW116193   1.183   1.233   5.983  1.4039 -0.4976 -0.4665
 1519SOL    HW216194   1.292   1.203   6.080  1.0234  1.4257  0.9879
 1520SOL     OW16195   1.233   4.566   6.772 -0.1382  0.3518 -0.3987
 1520SOL    HW116196   1.155   4.621   6.779 -0.7325 -0.5067 -0.3195
 1520SOL    HW216197   1.284   4.614   6.706  1.2816  0.8231  1.0420
 1521SOL     OW16198   4.240   2.983   5.434 -0.3503 -0.4019 -0.3391
 1521SOL    HW116199   4.245   2.899   5.480  1.4709  0.1583  0.4712
 1521SOL    HW216200   4.224   2.953   5.344  0.9604 -3.4967  0.4650
 1522SOL     OW16201   4.530   0.274   5.628 -0.3579 -0.3264 -0.6512
 1522SOL    HW116202   4.564   0.348   5.578  1.5505 -0.1031  0.9534
 1522SOL    HW216203   4.495   0.315   5.707  0.8768 -2.9165  1.2423
 1523SOL     OW16204   1.969   2.110   4.999  0.0926  0.1590 -0.5978
 1523SOL    HW116205   2.015   2.184   4.960  1.7476  1.2465  3.3570
 1523SOL    HW216206   1.980   2.139   5.090 -4.8056 -0.8023  0.2985
 1524SOL     OW16207   0.400   3.846   1.123  0.0566  0.4906 -0.1379
 1524SOL    HW116208   0.469   3.831   1.187 -0.2543  0.4446  0.1901
 1524SOL    HW216209   0.404   3.937   1.093 -0.6410  0.6155  0.1338
 1525SOL     OW16210   0.628   2.898   1.246  0.3230  0.2615  0.0934
 1525SOL    HW116211   0.632   2.845   1.167  1.3461 -0.2619  0.4982
 1525SOL    HW216212   0.621   2.987   1.211 -1.6418  0.1610  0.2379
 1526SOL     OW16213   3.318   1.197   6.167  0.1855 -0.3218 -0.0664
 1526SOL    HW116214   3.406   1.234   6.152  0.5632 -0.4886  1.7543
 1526SOL    HW216215   3.313   1.135   6.094 -4.0682  0.9841 -0.8655
 1527SOL     OW16216   0.665   1.534   1.991 -0.3061  0.1935  0.2961
 1527SOL    HW116217   0.672   1.598   1.921  1.1336 -1.5111 -1.1182
 1527SOL    HW216218   0.612   1.476   1.937 -2.0322  1.2186  0.8724
 1528SOL     OW16219   2.991   3.038   7.222 -0.3533 -0.4872  0.4320
 1528SOL    HW116220   3.044   3.005   7.150  0.1711 -0.7037  0.9183
 1528SOL    HW216221   2.908   2.992   7.208 -1.2674  1.6327 -1.2359
 1529SOL     OW16222   1.136   2.652   2.130  0.2074  0.2547  0.2213
 1529SOL    HW116223   1.204   2.675   2.193 -1.1749  0.5298  1.5949
 1529SOL    HW216224   1.167   2.688   2.046 -0.0348  0.5484  0.2587
 1530SOL     OW16225   2.206   3.185   3.631 -0.0019 -0.2258  0.2102
 1530SOL    HW116226   2.216   3.220   3.720  1.7132 -0.1174 -0.0240
 1530SOL    HW216227   2.116   3.153   3.631  0.3808 -1.2763  1.1899
 1531SOL     OW16228   0.638   0.097   5.235 -0.0338 -0.4615  0.5935
 1531SOL    HW116229   0.574   0.105   5.306 -0.6167 -0.8467  0.1207
 1531SOL    HW216230   0.713   0.137   5.278 -0.6003 -1.6017  2.6534
 1532SOL     OW16231   2.139   2.240   0.579  0.2380  1.0206  0.1856
 1532SOL    HW116232   2.103   2.171   0.523  3.8039 -1.1744  0.5779
 1532SOL    HW216233   2.071   2.306   0.593  1.4899  1.9186  2.0656
 1533SOL     OW16234   3.222   2.055   3.094 -0.7369 -0.4264  0.2434
 1533SOL    HW116235   3.207   1.981   3.154 -0.5389 -0.8575 -0.2345
 1533SOL    HW216236   3.136   2.091   3.074 -1.8882 -2.4564  1.4649
 1534SOL     OW16237   0.278   3.598   6.198  0.1472 -0.4492 -0.2351
 1534SOL    HW116238   0.268   3.568   6.107 -1.3848 -0.9034  0.0904
 1534SOL    HW216239   0.374   3.590   6.201  0.4040  2.5864  0.0092
 1535SOL     OW16240   3.677   3.753  14.033  0.0346 -0.7475  0.0693
 1535SOL    HW116241   3.704   3.668  13.999  4.1456  0.9911 -0.9360
 1535SOL    HW216242   3.732   3.821  13.994 -0.6903 -0.1748  0.0440
 1536SOL     OW16243   2.262   2.418   8.012 -0.1414  0.1589  0.1797
 1536SOL    HW116244   2.253   2.324   8.030  1.0018  0.4528  2.3004
 1536SOL    HW216245   2.323   2.444   8.082  1.5800  2.3301 -2.1112
 1537SOL     OW16246   1.407   0.307   9.058  0.4193 -0.0541  0.0979
 1537SOL    HW116247   1.360   0.273   9.135 -2.1546  2.1300 -0.5077
 1537SOL    HW216248   1.398   0.401   9.072 -1.2025 -0.4061  1.3632
 1538SOL     OW16249   0.439   4.555   5.827  0.1176  0.1395 -0.0731
 1538SOL    HW116250   0.425   4.625   5.763 -1.5715  0.8586  1.0853
 1538SOL    HW216251   0.530   4.564   5.858 -0.6191  1.6928  1.6187
 1539SOL     OW16252   1.921   3.945   3.531 -0.5816  0.3503 -0.2967
 1539SOL    HW116253   1.983   3.985   3.471 -2.1992  0.7100 -1.7243
 1539SOL    HW216254   1.954   3.855   3.536 -0.4903  0.4208  0.3947
 1540SOL     OW16255   0.483   4.026   1.475  0.4317 -0.6387  0.6162
 1540SOL    HW116256   0.492   3.980   1.558 -2.1691 -2.8108 -0.3105
 1540SOL    HW216257   0.497   3.963   1.405 -1.5914 -0.1065 -0.2673
 1541SOL     OW16258   3.225   2.338   7.435 -0.0978  0.1846  0.9536
 1541SOL    HW116259   3.163   2.282   7.388  0.5611  0.0724  0.2083
 1541SOL    HW216260   3.162   2.404   7.464  1.2306  1.7147  0.3266
 1542SOL     OW16261   4.452   4.217   2.148  0.9978  0.5732  0.7150
 1542SOL    HW116262   4.421   4.300   2.112  2.7732  0.7743 -0.3512
 1542SOL    HW216263   4.375   4.161   2.150 -0.3450  2.3051 -3.0240
 1543SOL     OW16264   2.628   3.699   3.624 -0.6241 -0.5818 -0.0674
 1543SOL    HW116265   2.628   3.723   3.716 -2.1743  1.1269 -0.5013
 1543SOL    HW216266   2.548   3.645   3.623 -1.2875  0.3711  2.1793
 1544SOL     OW16267   0.842   1.027   0.760 -0.1791  0.2750 -0.6643
 1544SOL    HW116268   0.783   1.102   0.748  1.5245  1.8433  0.6950
 1544SOL    HW216269   0.786   0.951   0.746 -0.2230  0.4062 -1.1686
 1545SOL     OW16270   2.320   0.826   2.216 -0.1604  0.4371 -0.1096
 1545SOL    HW116271   2.292   0.760   2.152 -0.2603 -1.1325  1.5368
 1545SOL    HW216272   2.236   0.847   2.257  0.4817  0.8641  1.0061
 1546SOL     OW16273   4.250   4.382  10.177 -0.7005  0.1050  0.5580
 1546SOL    HW116274   4.239   4.419  10.090  1.0570  0.0471  0.3284
 1546SOL    HW216275   4.272   4.291  10.157  0.1285  0.0022  1.8994
 1547SOL     OW16276   2.093   1.843  13.446  0.4754 -0.3754 -0.3963
 1547SOL    HW116277   2.072   1.779  13.378  1.4112  0.9095 -1.9075
 1547SOL    HW216278   2.009   1.883  13.467  0.7122 -0.9129  1.6171
 1548SOL     OW16279   4.313   3.718   5.822 -0.0606 -0.4612  0.4831
 1548SOL    HW116280   4.268   3.733   5.739 -0.3357 -1.4053  0.4541
 1548SOL    HW216281   4.404   3.740   5.800 -0.8685  0.3627 -2.0483
 1549SOL     OW16282   0.484   3.818   2.051  0.0267  0.8124 -0.1017
 1549SOL    HW116283   0.391   3.838   2.046  0.1027  1.3045  0.5062
 1549SOL    HW216284   0.485   3.760   2.127  0.7669  0.0479 -0.6887
 1550SOL     OW16285   3.184   3.332   6.998  0.2549  0.5294 -0.3549
 1550SOL    HW116286   3.277   3.320   6.978  0.5076  1.7171  0.1213
 1550SOL    HW216287   3.153   3.241   6.987  0.6602  0.4458 -0.8060
 1551SOL     OW16288   2.108   3.096  17.149 -0.1163 -0.1024 -0.0423
 1551SOL    HW116289   2.140   3.080  17.238 -0.4395  0.8077  0.2329
 1551SOL    HW216290   2.014   3.110  17.161  0.0691  0.5938  0.6063
 1552SOL     OW16291   0.779   0.363   9.088 -0.4907  0.3852 -0.3318
 1552SOL    HW116292   0.716   0.306   9.131 -0.4190  1.2061  0.8716
 1552SOL    HW216293   0.812   0.402   9.169 -0.8101  1.8446 -0.9122
 1553SOL     OW16294   1.163   2.551   5.015  0.4069 -0.0262  0.0427
 1553SOL    HW116295   1.097   2.571   4.949  1.2905  1.5591 -0.3649
 1553SOL    HW216296   1.212   2.484   4.968 -0.0777 -0.3368 -0.0108
 1554SOL     OW16297   0.902   0.416   5.048  0.2527  0.2726  0.1862
 1554SOL    HW116298   0.825   0.448   5.096  1.2385  1.7661  0.7762
 1554SOL    HW216299   0.894   0.462   4.964  0.1040 -1.4018 -0.7067
 1555SOL     OW16300   2.167   0.677   7.269 -0.9275  0.0190 -0.2488
 1555SOL    HW116301   2.211   0.598   7.299  1.8133  1.8762  0.6355
 1555SOL    HW216302   2.219   0.748   7.309  0.1420 -1.7184  1.4516
 1556SOL     OW16303   2.847   0.552  14.566 -0.5834  0.0485 -0.1422
 1556SOL    HW116304   2.849   0.634  14.515 -2.8249 -0.3758 -0.9345
 1556SOL    HW216305   2.776   0.518  14.511 -1.1633  0.5176  0.3048
 1557SOL     OW16306   4.628   3.177   6.743  0.1436  0.4530 -0.2240
 1557SOL    HW116307   4.706   3.156   6.795  0.5551  0.8736 -0.6706
 1557SOL    HW216308   4.627   3.272   6.757  0.1661  0.3127  0.7168
 1558SOL     OW16309   0.007   2.910   7.847 -0.4449 -0.4419  0.1194
 1558SOL    HW116310   0.087   2.926   7.797 -0.1985 -1.2667  0.2558
 1558SOL    HW216311   4.725   2.993   7.892  1.0738 -0.8225  1.3600
 1559SOL     OW16312   1.366   0.802   4.146  0.4117 -0.7249 -0.4538
 1559SOL    HW116313   1.402   0.717   4.173 -0.0183 -0.4407  0.9803
 1559SOL    HW216314   1.414   0.818   4.065 -1.3514  0.1724 -1.3347
 1560SOL     OW16315   2.236   0.556  16.801 -0.3030  0.0891 -0.6585
 1560SOL    HW116316   2.165   0.495  16.782 -0.1193  0.1918 -1.6551
 1560SOL    HW216317   2.264   0.532  16.890 -0.1870 -0.4493 -0.8394
 1561SOL     OW16318   4.220   4.648   1.003 -0.0729 -0.3033 -0.6616
 1561SOL    HW116319   4.262   4.724   1.043 -2.6243  0.6472  0.2213
 1561SOL    HW216320   4.170   4.615   1.077  2.0149 -2.4109 -0.2155
 1562SOL     OW16321   2.588   1.432   8.928 -0.5961  0.5786 -0.2295
 1562SOL    HW116322   2.542   1.353   8.898 -0.4650  0.5191 -0.2739
 1562SOL    HW216323   2.537   1.470   9.000 -0.9853 -1.4546  0.5828
 1563SOL     OW16324   3.024   4.446   8.788  0.2813  0.4227  0.0124
 1563SOL    HW116325   2.943   4.414   8.828 -0.8398  0.3516 -2.2873
 1563SOL    HW216326   3.027   4.378   8.721  1.3638  1.4561 -0.9824
 1564SOL     OW16327   0.800   3.045  14.692  0.3976 -0.2991  0.0841
 1564SOL    HW116328   0.814   2.955  14.661  0.4022 -0.5562  0.8526
 1564SOL    HW216329   0.749   3.027  14.770  0.2272  1.5098  0.3775
 1565SOL     OW16330   1.244   3.727   4.190  0.0476 -0.3686 -0.6479
 1565SOL    HW116331   1.212   3.650   4.143  2.4941 -1.0023 -1.2604
 1565SOL    HW216332   1.253   3.789   4.118 -0.6809  0.3823 -0.0979
 1566SOL     OW16333   4.543   2.441   1.306 -0.6246 -0.1637 -0.3571
 1566SOL    HW116334   4.522   2.529   1.336  0.3301 -0.5554  1.4367
 1566SOL    HW216335   4.475   2.399   1.359 -1.0958  2.2052  0.8856
 1567SOL     OW16336   1.277   0.061   5.690 -0.3002 -0.3091  0.0801
 1567SOL    HW116337   1.300   0.140   5.642 -1.1713 -1.4017 -2.0959
 1567SOL    HW216338   1.364   0.031   5.719  1.0438  1.7095 -1.9136
 1568SOL     OW16339   4.427   4.696   6.340  0.3911  0.3582 -0.0791
 1568SOL    HW116340   4.406   4.684   6.432  1.0780 -0.8400 -0.0824
 1568SOL    HW216341   4.512   4.653   6.339 -0.8313 -2.0249 -0.1437
 1569SOL     OW16342   0.557   3.167  15.043 -0.3433  0.2845 -0.2219
 1569SOL    HW116343   0.492   3.227  15.079 -0.3607 -2.0000  3.4947
 1569SOL    HW216344   0.633   3.225  15.051  0.4767 -0.8854  0.4481
 1570SOL     OW16345   0.630   4.397   2.847 -0.1675 -0.1040  0.1905
 1570SOL    HW116346   0.587   4.451   2.912 -2.0848  1.1052 -2.0933
 1570SOL    HW216347   0.600   4.429   2.762 -0.4893  1.7847  1.0189
 1571SOL     OW16348   2.448   1.164   9.103  0.1668  0.3071  0.2645
 1571SOL    HW116349   2.361   1.196   9.080 -0.9269 -1.9119  1.3056
 1571SOL    HW216350   2.430   1.070   9.109 -1.1660  0.6403  1.4390
 1572SOL     OW16351   4.231   1.253   8.269 -0.2026 -0.2130  0.0681
 1572SOL    HW116352   4.152   1.266   8.216  0.1156  0.3130 -0.2829
 1572SOL    HW216353   4.257   1.170   8.230  3.1378  0.3581  1.0975
 1573SOL     OW16354   2.129   4.639   4.164 -0.2335  0.4527  0.4143
 1573SOL    HW116355   2.219   4.668   4.181  0.5330 -1.0158 -1.1550
 1573SOL    HW216356   2.094   4.585   4.234  2.0410  0.4924  1.5954
 1574SOL     OW16357   4.328   2.068   5.176 -0.7083  0.0676 -0.5490
 1574SOL    HW116358   4.246   2.113   5.157 -2.1713 -1.9413  0.9889
 1574SOL    HW216359   4.293   1.992   5.222  0.9658 -0.0189  0.6157
 1575SOL     OW16360   4.343   2.081  13.636  0.0475  0.3325 -0.0295
 1575SOL    HW116361   4.396   2.154  13.604  0.8649  0.1042  0.7977
 1575SOL    HW216362   4.413   2.016  13.633  0.1487  0.3499  1.9508
 1576SOL     OW16363   0.051   2.955   5.794  0.5815 -0.3443 -0.1140
 1576SOL    HW116364   0.136   2.986   5.762  1.0193 -0.2850  1.1167
 1576SOL    HW216365   0.064   2.894   5.867 -0.9737  2.2345  2.3242
 1577SOL     OW16366   2.870   2.398  12.314  0.5484 -0.1387 -0.6263
 1577SOL    HW116367   2.860   2.387  12.220  0.1353  3.0737 -0.9303
 1577SOL    HW216368   2.951   2.449  12.308 -0.5959  1.9669  1.9634
 1578SOL     OW16369   4.570   0.104  16.032 -0.4004 -0.0429  0.4911
 1578SOL    HW116370   4.597   0.041  16.099 -0.8790 -0.0118  0.7156
 1578SOL    HW216371   4.510   0.044  15.987  0.1757  1.2367 -2.0103
 1579SOL     OW16372   2.028   0.123   8.897 -0.2847 -0.0996 -0.1193
 1579SOL    HW116373   2.026   0.057   8.827 -1.3163  1.3403 -1.4278
 1579SOL    HW216374   1.970   0.189   8.860  1.1515  0.8841 -0.6514
 1580SOL     OW16375   2.538   2.217   9.279  0.0595  0.4402  0.0889
 1580SOL    HW116376   2.495   2.138   9.246  0.0864  0.8777 -0.9948
 1580SOL    HW216377   2.474   2.274   9.236  1.9926  1.7644 -1.0522
 1581SOL     OW16378   4.575   2.233  15.855 -0.5184 -0.2114  0.7899
 1581SOL    HW116379   4.544   2.164  15.914 -0.1923 -0.8375  0.2348
 1581SOL    HW216380   4.534   2.208  15.773  1.9731  0.0489 -0.5544
 1582SOL     OW16381   3.774   3.909  15.051  0.2576 -0.2111  0.0432
 1582SOL    HW116382   3.840   3.973  15.026 -1.8309  1.2662 -1.7189
 1582SOL    HW216383   3.702   3.971  15.062 -0.3492 -1.2264  1.8639
 1583SOL     OW16384   1.950   3.712  15.501  0.8071  0.2270  0.1595
 1583SOL    HW116385   1.976   3.641  15.442 -0.6273 -1.6945  1.8484
 1583SOL    HW216386   2.030   3.716  15.553  0.7201 -0.3145  0.3409
 1584SOL     OW16387   3.916   2.604   7.006  0.2191  0.0595  0.2325
 1584SOL    HW116388   3.931   2.535   6.941 -0.3145 -0.8512  1.0686
 1584SOL    HW216389   3.977   2.672   6.979 -0.4666  0.1112 -1.1777
 1585SOL     OW16390   4.387   0.251   2.962  0.2688 -0.1128  0.1475
 1585SOL    HW116391   4.335   0.330   2.974  0.2120 -0.3837  1.6197
 1585SOL    HW216392   4.321   0.182   2.956 -0.7555  0.7117  2.0005
 1586SOL     OW16393   3.656   2.754   4.456 -0.5584 -0.2955 -0.0341
 1586SOL    HW116394   3.711   2.748   4.534 -1.2320 -2.0508  0.3209
 1586SOL    HW216395   3.677   2.833   4.407  0.4785 -0.9652 -0.6786
 1587SOL     OW16396   3.220   0.380   4.417 -0.5654  0.6282  0.5097
 1587SOL    HW116397   3.307   0.359   4.452 -1.4136 -2.5779  0.6524
 1587SOL    HW216398   3.215   0.322   4.342 -0.1868  0.8049  0.3429
 1588SOL     OW16399   1.811   0.372   2.376  0.1003 -0.3441  0.3783
 1588SOL    HW116400   1.890   0.391   2.426 -0.1572 -0.5141  0.8468
 1588SOL    HW216401   1.803   0.281   2.404  0.4184 -0.3889  0.3244
 1589SOL     OW16402   0.492   3.378  16.594  0.0561 -0.1635  0.1102
 1589SOL    HW116403   0.563   3.441  16.602  0.1586 -0.0448 -1.6031
 1589SOL    HW216404   0.425   3.431  16.551  2.0373  0.7289 -1.8823
 1590SOL     OW16405   4.140   1.484   1.297  0.2617  0.1391  1.0358
 1590SOL    HW116406   4.218   1.445   1.256 -0.3678 -1.0874  0.9927
 1590SOL    HW216407   4.074   1.488   1.227 -0.7686  0.9909  2.0581
 1591SOL     OW16408   1.253   2.311  15.631  0.0776  0.1393 -0.0527
 1591SOL    HW116409   1.310   2.351  15.565 -0.2210 -1.4838 -1.2933
 1591SOL    HW216410   1.283   2.360  15.707 -1.6325  0.3533  0.4892
 1592SOL     OW16411   2.910   2.114   3.549 -0.3805  0.4222 -0.3886
 1592SOL    HW116412   2.862   2.142   3.626 -1.8800 -0.1421 -1.1228
 1592SOL    HW216413   2.913   2.019   3.559  2.0644  0.5382  0.1087
 1593SOL     OW16414   4.164   3.085   0.358 -0.5329  0.2238 -0.2119
 1593SOL    HW116415   4.181   3.018   0.292  1.3514  1.1131 -0.6320
 1593SOL    HW216416   4.181   3.163   0.305  4.0655 -0.3216  0.4790
 1594SOL     OW16417   3.596   0.612   7.048 -0.6978  0.2077 -0.3165
 1594SOL    HW116418   3.550   0.696   7.040  0.3344  0.9077  1.0796
 1594SOL    HW216419   3.573   0.592   7.139 -1.9590 -1.7186 -1.0584
 1595SOL     OW16420   2.018   4.509   7.410  0.1519 -0.2456  0.5977
 1595SOL    HW116421   1.987   4.446   7.345 -1.3974 -0.6251  1.7053
 1595SOL    HW216422   2.036   4.586   7.356 -1.7601 -0.9100 -0.9798
 1596SOL     OW16423   3.184   0.844   3.495 -0.2995 -0.1025 -0.1798
 1596SOL    HW116424   3.091   0.837   3.517  0.3485  0.7097  2.8561
 1596SOL    HW216425   3.189   0.866   3.402 -1.5098 -0.8250 -0.4157
 1597SOL     OW16426   2.630   1.533   0.687  0.0253 -0.5312 -0.2662
 1597SOL    HW116427   2.607   1.529   0.594 -1.0911  0.4505 -0.0287
 1597SOL    HW216428   2.648   1.627   0.689 -1.3136 -0.2361 -1.7253
 1598SOL     OW16429   0.069   1.382   0.208  0.5550  0.3851 -0.3703
 1598SOL    HW116430   0.145   1.424   0.249  0.8407 -0.0634 -0.4340
 1598SOL    HW216431   0.021   1.352   0.285 -1.5373  3.1681 -0.6103
 1599SOL     OW16432   2.537   2.144  17.501 -0.4449 -0.1651  0.2487
 1599SOL    HW116433   2.607   2.094  17.461 -1.1772 -0.5961 -0.4971
 1599SOL    HW216434   2.476   2.076  17.530 -0.5062  0.0470  0.6178
 1600SOL     OW16435   4.422   3.698   4.166  0.1274 -0.0739  0.3988
 1600SOL    HW116436   4.363   3.670   4.097  1.3547  0.3642 -0.8356
 1600SOL    HW216437   4.484   3.625   4.170  1.2355  0.7566 -1.4178
 1601SOL     OW16438   4.715   0.452  16.464 -0.7261 -0.0459 -0.5255
 1601SOL    HW116439   4.705   0.447  16.559  1.1209  0.7524 -0.2974
 1601SOL    HW216440   4.639   0.400  16.439 -1.5323  2.3828 -3.1172
 1602SOL     OW16441   2.819   0.697   8.300  0.3577 -0.1347 -0.1559
 1602SOL    HW116442   2.858   0.613   8.274  0.5511 -1.0918  3.3012
 1602SOL    HW216443   2.847   0.690   8.391  1.6071 -0.5224 -0.5755
 1603SOL     OW16444   1.280   3.594   2.975 -0.0208 -0.1417  0.3499
 1603SOL    HW116445   1.263   3.572   3.067 -0.6451  0.3244  0.3374
 1603SOL    HW216446   1.247   3.513   2.935 -2.2952  1.1444 -0.3542
 1604SOL     OW16447   3.752   2.212   6.212 -0.2517  0.1851 -0.1217
 1604SOL    HW116448   3.714   2.127   6.189 -2.4455  1.9341 -2.8310
 1604SOL    HW216449   3.671   2.262   6.199  0.0873  0.4971 -0.9778
 1605SOL     OW16450   2.515   2.901   5.803  0.1984 -0.3783  1.0163
 1605SOL    HW116451   2.596   2.859   5.830  0.6977 -0.3479 -0.4654
 1605SOL    HW216452   2.501   2.849   5.724 -0.1236  0.5849  0.4449
 1606SOL     OW16453   1.243   1.405   4.040  0.5201  0.5525 -0.0718
 1606SOL    HW116454   1.286   1.427   3.958 -1.3665 -2.7243 -1.9408
 1606SOL    HW216455   1.162   1.457   4.036  1.2295  1.7596  1.1137
 1607SOL     OW16456   2.547   0.501   4.837 -0.2621  0.5023 -0.1899
 1607SOL    HW116457   2.589   0.419   4.863 -1.2308  0.8177  2.3267
 1607SOL    HW216458   2.470   0.504   4.893  0.1682  2.5434  0.2605
 1608SOL     OW16459   2.855   3.394   5.676  0.6450  0.2534  0.6933
 1608SOL    HW116460   2.789   3.462   5.690  1.3869  1.4136 -1.3898
 1608SOL    HW216461   2.885   3.427   5.591 -0.1957 -0.2269  0.2133
 1609SOL     OW16462   2.988   0.019   9.223  0.3460  0.2207 -0.6042
 1609SOL    HW116463   2.990   4.671   9.174 -1.0192  0.6758 -1.4299
 1609SOL    HW216464   2.911   4.730   9.275  0.7699 -0.7765 -0.4182
 1610SOL     OW16465   4.192   3.979   0.657 -0.0307  0.4519 -0.4502
 1610SOL    HW116466   4.133   3.933   0.716 -1.6102 -0.3798 -2.6595
 1610SOL    HW216467   4.133   4.038   0.609  1.4019  1.8634 -0.4836
 1611SOL     OW16468   0.213   3.799   4.978 -0.4935  0.3435 -0.3616
 1611SOL    HW116469   0.273   3.828   5.046  0.6337  1.6903 -1.9481
 1611SOL    HW216470   0.163   3.738   5.034 -0.8407 -0.2635 -1.3283
 1612SOL     OW16471   1.680   0.180   8.993 -0.2608 -0.1365  0.3775
 1612SOL    HW116472   1.591   0.213   9.005 -0.7040 -0.7456 -1.3175
 1612SOL    HW216473   1.737   0.257   8.998 -1.3352  0.5096  2.9814
 1613SOL     OW16474   1.108   1.991   8.892  0.2307  0.1637 -0.2587
 1613SOL    HW116475   1.052   2.068   8.899  0.2471  0.1168  0.3563
 1613SOL    HW216476   1.043   1.922   8.904  0.4694 -0.0724 -0.3533
 1614SOL     OW16477   1.454   4.581  11.104  0.3359 -0.1348  1.3596
 1614SOL    HW116478   1.500   4.665  11.102  1.2415 -0.6721 -0.0794
 1614SOL    HW216479   1.527   4.525  11.131 -1.4044 -2.3682  1.4439
 1615SOL     OW16480   2.398   3.406   6.970  0.5250 -0.5414 -0.3621
 1615SOL    HW116481   2.455   3.456   6.912  0.8333  1.2150  1.4744
 1615SOL    HW216482   2.327   3.390   6.908  0.6865  0.6657 -0.8486
 1616SOL     OW16483   2.666   1.482  15.767 -0.6677 -0.3067 -0.4839
 1616SOL    HW116484   2.698   1.569  15.743  0.3100  0.0010  1.8753
 1616SOL    HW216485   2.722   1.436  15.705 -1.4818  0.6672 -1.9348
 1617SOL     OW16486   0.119   0.745  16.399  0.3738  0.0127 -0.0762
 1617SOL    HW116487   0.077   0.665  16.431  1.1329 -1.0551 -1.7548
 1617SOL    HW216488   0.118   0.797  16.480 -0.9896 -0.8165  0.4377
 1618SOL     OW16489   4.518   1.352   2.187 -0.0885  0.6030  0.4574
 1618SOL    HW116490   4.528   1.257   2.175 -1.6185  0.5890 -0.7662
 1618SOL    HW216491   4.423   1.354   2.171 -0.0635 -0.2129  0.1817
 1619SOL     OW16492   1.857   3.912  14.206 -0.2282  0.7786  0.8288
 1619SOL    HW116493   1.799   3.837  14.187  0.1718  0.7334 -0.2170
 1619SOL    HW216494   1.945   3.876  14.191 -0.4410  1.1761 -1.3866
 1620SOL     OW16495   2.762   0.584  16.968  0.1479 -0.3824  0.0081
 1620SOL    HW116496   2.819   0.508  16.959  2.1468  1.1922 -0.7383
 1620SOL    HW216497   2.684   0.570  16.914 -1.5877  1.3663  2.0527
 1621SOL     OW16498   0.468   1.143  10.412  0.0052  0.1135  0.2238
 1621SOL    HW116499   0.416   1.224  10.415  0.6489  0.5401 -0.2416
 1621SOL    HW216500   0.461   1.119  10.504 -0.1028  1.8490  0.6711
 1622SOL     OW16501   3.852   1.154   3.780  0.2515  0.3805  0.3646
 1622SOL    HW116502   3.847   1.236   3.732 -0.9518 -0.4192 -0.8684
 1622SOL    HW216503   3.947   1.141   3.776  0.3598  1.2073  0.1472
 1623SOL     OW16504   3.361   0.871   2.490 -0.3182 -0.2778 -0.3085
 1623SOL    HW116505   3.443   0.865   2.441 -0.1397  2.5571 -0.3961
 1623SOL    HW216506   3.366   0.811   2.564  1.5717 -2.6596 -2.3723
 1624SOL     OW16507   1.351   3.697   1.092  0.4192 -0.0033 -0.0609
 1624SOL    HW116508   1.329   3.607   1.069 -0.3244 -0.1288  1.1455
 1624SOL    HW216509   1.263   3.727   1.117  0.2102  0.8894 -1.8788
 1625SOL     OW16510   4.306   2.884   8.242  0.3362  0.0115  0.1312
 1625SOL    HW116511   4.379   2.894   8.303  0.0436 -0.1811  0.5100
 1625SOL    HW216512   4.276   2.975   8.242  0.3494  0.0183 -1.5635
 1626SOL     OW16513   0.253   0.417   3.228  0.0019  0.8585  0.5068
 1626SOL    HW116514   0.175   0.366   3.205  0.4013  0.5122 -0.0932
 1626SOL    HW216515   0.263   0.384   3.318 -0.6338 -1.2869 -0.1997
 1627SOL     OW16516   3.018   2.829   1.026 -0.0316 -0.4970  0.1245
 1627SOL    HW116517   2.976   2.763   1.081  0.3658 -0.8071  0.0575
 1627SOL    HW216518   2.990   2.911   1.066  1.5739 -0.4240  1.1274
 1628SOL     OW16519   1.438   1.245   8.453  0.5500  0.3156  0.5481
 1628SOL    HW116520   1.358   1.198   8.431 -0.3195  2.0244  0.0937
 1628SOL    HW216521   1.416   1.323   8.503 -0.9969  0.0584  0.2490
 1629SOL     OW16522   1.253   4.032   8.892 -0.1924  0.1332 -0.1707
 1629SOL    HW116523   1.328   4.005   8.839 -0.0024  1.3901 -0.5332
 1629SOL    HW216524   1.285   4.019   8.982  0.6801  0.3867 -0.4388
 1630SOL     OW16525   4.160   1.288   2.810 -0.1987 -0.0517 -0.2962
 1630SOL    HW116526   4.078   1.286   2.859 -1.5986  1.8980 -2.5638
 1630SOL    HW216527   4.147   1.366   2.756 -2.1108 -0.4872 -0.4465
 1631SOL     OW16528   4.226   2.566  11.913 -0.0922  0.8199  0.0665
 1631SOL    HW116529   4.248   2.567  11.820 -0.3060  0.8965  0.0156
 1631SOL    HW216530   4.284   2.504  11.956 -0.8604 -0.1107 -0.2534
 1632SOL     OW16531   4.638   0.949   4.386 -0.8968 -0.2077 -0.0167
 1632SOL    HW116532   4.695   0.883   4.346  1.1023  2.7699 -2.0789
 1632SOL    HW216533   4.553   0.905   4.388 -0.9305 -0.2238 -1.9137
 1633SOL     OW16534   3.209   0.586   6.321 -0.1944  0.2114 -0.1893
 1633SOL    HW116535   3.226   0.657   6.259  0.1856  0.5934  0.3486
 1633SOL    HW216536   3.130   0.547   6.285  0.2847  1.1769 -2.3219
 1634SOL     OW16537   3.869   3.002   0.657 -0.0480  0.4252 -0.3500
 1634SOL    HW116538   3.883   3.077   0.599  0.5220  0.7461  0.2104
 1634SOL    HW216539   3.802   2.964   0.600 -1.4870 -0.9157  2.2618
 1635SOL     OW16540   3.443   0.913   4.217  0.6283  0.0392 -0.1141
 1635SOL    HW116541   3.402   0.965   4.148  1.8004 -0.8418 -1.4618
 1635SOL    HW216542   3.531   0.903   4.182  1.1084 -1.2600  1.4637
 1636SOL     OW16543   1.812   4.283  10.523 -0.2115  0.2873 -0.0732
 1636SOL    HW116544   1.885   4.282  10.462  0.2489 -1.0255  0.5060
 1636SOL    HW216545   1.855   4.245  10.599  1.9739  0.4938 -1.2168
 1637SOL     OW16546   3.158   2.768  12.549  0.4431  0.3152  0.0377
 1637SOL    HW116547   3.088   2.765  12.484  1.4262  3.0863 -1.1176
 1637SOL    HW216548   3.110   2.791  12.629  0.2548  0.6702 -0.1775
 1638SOL     OW16549   3.007   0.815   9.191  0.1516 -0.0875  0.0430
 1638SOL    HW116550   2.996   0.822   9.096 -0.0074 -0.0322  0.0651
 1638SOL    HW216551   3.094   0.774   9.190 -0.1476 -0.7329  0.5454
 1639SOL     OW16552   0.758   4.551   9.645 -0.0364  0.2074 -0.0148
 1639SOL    HW116553   0.789   4.591   9.726  0.1474  0.5721 -0.2640
 1639SOL    HW216554   0.801   4.466   9.637  0.2657  0.4247 -0.7362
 1640SOL     OW16555   1.731   2.690   4.711  0.2738  0.7204  0.0192
 1640SOL    HW116556   1.771   2.737   4.638  0.9874 -0.6862 -0.4913
 1640SOL    HW216557   1.638   2.688   4.688  0.0935  1.3629  0.6892
 1641SOL     OW16558   0.339   3.450  14.419 -0.0937 -0.0347  0.2415
 1641SOL    HW116559   0.280   3.524  14.406 -0.0461  0.4038  2.4991
 1641SOL    HW216560   0.284   3.386  14.464  0.7156 -0.1864  1.0204
 1642SOL     OW16561   2.583   4.165  11.890  0.1225 -0.0266 -0.0914
 1642SOL    HW116562   2.598   4.072  11.876  0.5818 -0.0787  0.7371
 1642SOL    HW216563   2.493   4.163  11.925  1.3930 -0.2412  3.1991
 1643SOL     OW16564   4.533   4.399  15.291 -0.2751  0.5735  0.0795
 1643SOL    HW116565   4.477   4.477  15.284  0.2335  0.9095 -0.2922
 1643SOL    HW216566   4.612   4.443  15.323  0.1407 -0.3788  0.3647
 1644SOL     OW16567   0.552   4.608  14.147 -0.1875  0.2707 -0.2921
 1644SOL    HW116568   0.497   4.645  14.216 -0.6586 -0.9920  0.0133
 1644SOL    HW216569   0.520   4.646  14.066  0.8415 -1.0988 -1.3289
 1645SOL     OW16570   1.440   1.923   5.028  0.1948  0.2179 -0.2557
 1645SOL    HW116571   1.488   1.977   4.965 -0.3648  0.2287 -0.6786
 1645SOL    HW216572   1.454   1.835   4.993  0.7622 -0.0458  0.6427
 1646SOL     OW16573   0.317   0.871   4.778 -0.1398 -0.0383 -0.0821
 1646SOL    HW116574   0.395   0.826   4.747  0.9940  2.2881 -0.6078
 1646SOL    HW216575   0.254   0.847   4.710 -1.3601  1.0584  0.6439
 1647SOL     OW16576   4.146   3.064   9.500 -0.1812 -0.0634 -0.2700
 1647SOL    HW116577   4.098   3.074   9.582 -0.9852 -2.0732 -0.5015
 1647SOL    HW216578   4.236   3.045   9.529 -0.6911  0.0288  1.3718
 1648SOL     OW16579   4.552   3.087   6.194 -0.7418  0.4652  0.0600
 1648SOL    HW116580   4.646   3.091   6.216 -1.2766  4.2123  1.5133
 1648SOL    HW216581   4.508   3.066   6.276 -1.7050  1.5187 -0.2028
 1649SOL     OW16582   3.531   0.870   4.791 -0.1739  0.6152 -0.0135
 1649SOL    HW116583   3.601   0.805   4.792 -1.3814 -0.7329 -3.1659
 1649SOL    HW216584   3.561   0.924   4.864  0.6541 -0.3712  0.3753
 1650SOL     OW16585   2.125   4.039   3.341  0.2034  0.6552  0.2065
 1650SOL    HW116586   2.062   3.995   3.283  0.6473 -1.0015  0.9736
 1650SOL    HW216587   2.194   3.973   3.329 -0.7138 -0.1734 -0.5207
 1651SOL     OW16588   2.726   4.505  12.681  0.3131  0.0582  0.0000
 1651SOL    HW116589   2.644   4.478  12.722  0.7903 -1.0114  0.2648
 1651SOL    HW216590   2.710   4.470  12.593 -0.9370  1.6895 -0.4100
 1652SOL     OW16591   2.754   3.773   6.629  0.0550 -0.1648 -0.2440
 1652SOL    HW116592   2.750   3.823   6.711 -0.7150 -2.8419  1.3628
 1652SOL    HW216593   2.841   3.735   6.639  1.0697  2.2325  0.2073
 1653SOL     OW16594   0.202   0.087  15.767  0.4908 -0.1626 -0.0531
 1653SOL    HW116595   0.198   4.726  15.767  0.1492 -0.1460  0.2532
 1653SOL    HW216596   0.120   0.114  15.726 -0.0575  1.0598  1.8419
 1654SOL     OW16597   3.704   2.819   5.317  0.0591  0.2067 -0.1230
 1654SOL    HW116598   3.750   2.890   5.363 -0.3750  1.1115 -1.0860
 1654SOL    HW216599   3.688   2.869   5.237 -0.0880 -0.5062 -0.5369
 1655SOL     OW16600   3.228   1.575   1.602 -0.4624 -0.3321  0.1246
 1655SOL    HW116601   3.200   1.608   1.687 -0.0203  2.0926 -0.6830
 1655SOL    HW216602   3.143   1.576   1.560  0.1987 -0.4598 -1.2165
 1656SOL     OW16603   2.092   3.170   5.502  0.0792 -0.3995  0.2962
 1656SOL    HW116604   2.071   3.086   5.543  1.6851 -0.9588 -0.0407
 1656SOL    HW216605   2.071   3.145   5.412 -2.1790  0.7327  0.4834
 1657SOL     OW16606   0.353   3.880   5.226  0.1519 -0.0651 -0.3447
 1657SOL    HW116607   0.448   3.876   5.219  0.2072  1.6266 -0.6653
 1657SOL    HW216608   0.341   3.927   5.308  1.3131 -0.7912  0.2433
 1658SOL     OW16609   2.174   0.981   8.670  0.1417  0.5292  0.4275
 1658SOL    HW116610   2.134   0.923   8.605  1.4612 -0.5372  0.5658
 1658SOL    HW216611   2.262   0.945   8.681  0.8807  2.8438  2.1633
 1659SOL     OW16612   4.132   1.944   3.285  0.6385 -0.2027  0.2409
 1659SOL    HW116613   4.205   1.970   3.341  1.3961 -1.4652 -0.1429
 1659SOL    HW216614   4.068   1.929   3.355  0.2432  1.0750  0.1389
 1660SOL     OW16615   3.278   4.262   2.579 -0.7514 -0.2455 -0.0597
 1660SOL    HW116616   3.243   4.314   2.507 -0.6487  1.4879  1.1278
 1660SOL    HW216617   3.223   4.289   2.653 -0.8070 -3.4341  1.0914
 1661SOL     OW16618   4.651   1.060   7.521 -0.0838  0.2207 -0.6736
 1661SOL    HW116619   4.597   1.078   7.445  1.1680  1.0004 -1.3907
 1661SOL    HW216620   4.609   1.131   7.570 -2.4959 -1.2789 -0.5731
 1662SOL     OW16621   3.087   2.051   5.093  0.5597 -0.2724  0.2302
 1662SOL    HW116622   3.121   2.135   5.125  0.8376 -0.7254  1.1169
 1662SOL    HW216623   2.994   2.074   5.101 -0.0048 -2.5346  0.2720
 1663SOL     OW16624   1.146   0.032   0.622 -0.3921  0.1923  0.3029
 1663SOL    HW116625   1.122   4.676   0.643 -1.2580  0.2654 -0.3995
 1663SOL    HW216626   1.092   0.078   0.686 -0.5913  0.9979 -0.4570
 1664SOL     OW16627   0.945   3.969  14.247 -0.1833 -0.2161 -0.1748
 1664SOL    HW116628   0.875   4.025  14.216  0.8844  1.3269  0.1820
 1664SOL    HW216629   0.955   3.908  14.174  0.0855 -0.8869  0.4184
 1665SOL     OW16630   3.069   1.441   2.282 -0.2378  0.7311 -0.1184
 1665SOL    HW116631   3.135   1.400   2.337 -1.2144 -1.2133 -0.3953
 1665SOL    HW216632   2.991   1.416   2.331 -1.5053  3.0073 -0.9754
 1666SOL     OW16633   2.048   1.858   0.995  0.2480  0.4576 -0.3556
 1666SOL    HW116634   2.083   1.869   0.907 -0.3283  1.1484 -0.5027
 1666SOL    HW216635   1.962   1.832   0.962  1.3166 -1.5841 -1.5149
 1667SOL     OW16636   4.322   0.407   4.654 -0.0113  0.2466 -0.6295
 1667SOL    HW116637   4.331   0.322   4.698 -1.7338  1.3507  1.8350
 1667SOL    HW216638   4.242   0.442   4.693 -0.4092 -1.8662  0.4743
 1668SOL     OW16639   1.269   1.892   5.752  0.1883 -0.3870  0.3533
 1668SOL    HW116640   1.291   1.825   5.817 -0.3742 -2.3846 -1.5138
 1668SOL    HW216641   1.271   1.845   5.669  0.1061  0.3095 -0.0383
 1669SOL     OW16642   2.057   2.875   6.558  0.4354 -0.9196 -0.5728
 1669SOL    HW116643   2.067   2.800   6.617  0.4944  1.0910  1.9488
 1669SOL    HW216644   2.082   2.943   6.620  1.1690 -0.3575 -1.4927
 1670SOL     OW16645   0.097   2.652   6.646 -0.0581 -0.4229 -0.0294
 1670SOL    HW116646   0.064   2.562   6.653 -0.7224 -0.2461 -0.9271
 1670SOL    HW216647   0.135   2.644   6.558 -2.3100  0.4872 -1.0772
 1671SOL     OW16648   3.561   2.062   1.743  0.4700 -0.3151  0.2028
 1671SOL    HW116649   3.472   2.063   1.709  0.3254  0.1183  0.5860
 1671SOL    HW216650   3.589   1.979   1.706  1.1098 -0.1473  0.3101
 1672SOL     OW16651   2.557   4.643  17.347 -0.2119  0.3091  0.0021
 1672SOL    HW116652   2.555   4.629  17.253  0.5007  0.7046 -0.0752
 1672SOL    HW216653   2.507   4.725  17.352  0.3233  0.5345  1.8108
 1673SOL     OW16654   4.514   3.704   6.435  0.4135  0.3240  0.2264
 1673SOL    HW116655   4.609   3.718   6.440  0.5200 -1.3493  2.4565
 1673SOL    HW216656   4.506   3.627   6.491 -1.2877 -0.3737 -0.9569
 1674SOL     OW16657   1.250   1.021  12.537 -0.1526 -0.1660  0.0468
 1674SOL    HW116658   1.158   1.044  12.550  0.0599 -0.3263  1.8569
 1674SOL    HW216659   1.251   1.045  12.445  0.4781  2.2508  0.6798
 1675SOL     OW16660   1.155   3.042  16.031  0.1520  0.5087 -0.3701
 1675SOL    HW116661   1.171   2.949  16.014  1.8511  0.7280 -0.0169
 1675SOL    HW216662   1.061   3.041  16.014 -0.2473 -3.0014  2.0677
 1676SOL     OW16663   3.800   3.748   2.433  0.0823  0.3040  0.1577
 1676SOL    HW116664   3.734   3.796   2.383  0.2037 -1.0809 -1.3298
 1676SOL    HW216665   3.795   3.782   2.522  3.6220 -0.9175  0.8057
 1677SOL     OW16666   2.480   2.184   8.656  0.3233  0.7119 -0.4951
 1677SOL    HW116667   2.552   2.164   8.596 -0.2598 -0.1665 -0.9057
 1677SOL    HW216668   2.524   2.187   8.741  2.6278  0.2181 -1.6594
 1678SOL     OW16669   0.180   4.245  15.919 -0.2918 -0.0339 -0.1698
 1678SOL    HW116670   0.221   4.159  15.930 -0.9853 -0.2416  0.9097
 1678SOL    HW216671   0.231   4.303  15.976 -0.1229  0.3338 -0.7003
 1679SOL     OW16672   0.440   1.503  13.489  0.1520  0.3714 -0.4176
 1679SOL    HW116673   0.439   1.459  13.574 -0.6778 -0.4956 -0.8865
 1679SOL    HW216674   0.346   1.519  13.482  0.2490  1.4851  0.7954
 1680SOL     OW16675   4.730   0.069   6.569  0.0980  0.7548 -0.2872
 1680SOL    HW116676   0.075   0.017   6.555  0.8523  1.7360  0.3741
 1680SOL    HW216677   4.690   0.033   6.648  3.1780  0.4676  1.1475
 1681SOL     OW16678   3.975   0.830   5.759  0.0032  0.1423 -0.3921
 1681SOL    HW116679   4.017   0.747   5.783 -2.6432 -0.3974  2.3406
 1681SOL    HW216680   3.885   0.810   5.734  0.5244 -2.7142 -0.0186
 1682SOL     OW16681   2.390   0.983   6.408 -0.2229 -0.4452 -0.2219
 1682SOL    HW116682   2.436   0.961   6.489 -4.3156  0.2673  2.3132
 1682SOL    HW216683   2.382   1.077   6.426 -0.5822 -0.4446 -0.3890
 1683SOL     OW16684   2.503   0.821   7.874 -0.3720  0.2739  0.3073
 1683SOL    HW116685   2.513   0.913   7.848  0.2962  0.1898  0.2653
 1683SOL    HW216686   2.493   0.781   7.787  0.5080 -0.5565  0.5888
 1684SOL     OW16687   4.658   3.183   5.607  0.1006  0.4075 -0.1427
 1684SOL    HW116688   4.698   3.112   5.658  2.0617 -0.1232 -2.4416
 1684SOL    HW216689   4.632   3.242   5.678 -0.0926 -0.6985  0.7037
 1685SOL     OW16690   2.194   2.456   4.462  0.7275 -0.0058  0.3528
 1685SOL    HW116691   2.164   2.537   4.422 -0.8841 -0.9141 -0.3073
 1685SOL    HW216692   2.148   2.390   4.409  1.0285 -1.2543  1.6326
 1686SOL     OW16693   2.239   0.732   6.393 -0.5449 -0.4265 -0.4008
 1686SOL    HW116694   2.155   0.767   6.364 -0.4782 -0.4900 -0.6643
 1686SOL    HW216695   2.295   0.810   6.390 -1.8057  0.4260 -2.0070
 1687SOL     OW16696   1.810   3.927  11.943  0.2747  0.1447 -0.3402
 1687SOL    HW116697   1.866   3.883  12.006  2.3521 -0.3675 -2.5692
 1687SOL    HW216698   1.720   3.912  11.973  0.6924 -2.1092 -0.2225
 1688SOL     OW16699   2.538   1.885   5.504 -0.3754 -0.2222  0.4229
 1688SOL    HW116700   2.479   1.919   5.437  1.8417  2.4036 -0.1668
 1688SOL    HW216701   2.505   1.796   5.515  1.8423 -1.3313 -1.9417
 1689SOL     OW16702   2.249   4.424   9.931 -0.7064 -0.2253  0.2183
 1689SOL    HW116703   2.232   4.335   9.960 -0.6066 -0.4111 -0.2956
 1689SOL    HW216704   2.320   4.415   9.868 -0.5242 -1.9563  0.6684
 1690SOL     OW16705   1.889   4.512   0.878  1.0350 -0.4353  0.7326
 1690SOL    HW116706   1.946   4.579   0.914 -0.5573  1.5156 -0.3851
 1690SOL    HW216707   1.918   4.492   0.789  1.4731  2.2207  0.2961
 1691SOL     OW16708   1.459   1.573  12.687 -0.3979 -0.3572 -0.2099
 1691SOL    HW116709   1.452   1.484  12.722 -0.4632 -0.7633 -1.2432
 1691SOL    HW216710   1.455   1.566  12.592  0.9756 -0.4406 -0.2568
 1692SOL     OW16711   4.585   1.264   8.089 -0.4324  0.2598  0.1972
 1692SOL    HW116712   4.602   1.177   8.053  2.5365  1.7527 -2.0847
 1692SOL    HW216713   4.585   1.245   8.183  1.4795 -1.6351 -0.1849
 1693SOL     OW16714   1.582   1.084   3.451 -0.6597  0.5511 -0.0919
 1693SOL    HW116715   1.667   1.068   3.492 -1.8553  0.4017  2.3473
 1693SOL    HW216716   1.521   1.086   3.525 -0.4565 -1.1199  0.1167
 1694SOL     OW16717   4.151   3.227   8.234  0.5414 -0.1430  0.8398
 1694SOL    HW116718   4.167   3.308   8.185  0.5994 -1.6890 -1.6762
 1694SOL    HW216719   4.141   3.261   8.323  0.1745 -0.5587  0.9575
 1695SOL     OW16720   4.074   2.247  16.808  0.2217  0.0576 -1.0679
 1695SOL    HW116721   4.015   2.181  16.847 -0.8762  2.3996  1.2366
 1695SOL    HW216722   4.153   2.211  16.848 -0.6919 -0.8045  0.0088
 1696SOL     OW16723   2.000   3.327  10.885 -0.1953  0.2144 -0.2231
 1696SOL    HW116724   1.959   3.413  10.870 -0.1147  0.2384 -0.3047
 1696SOL    HW216725   2.058   3.320  10.809 -1.6097 -3.8600 -0.9164
 1697SOL     OW16726   0.888   4.540   7.925 -0.5583 -0.1279 -0.6239
 1697SOL    HW116727   0.911   4.591   8.003  1.5569 -2.1726  0.1017
 1697SOL    HW216728   0.976   4.531   7.888  0.0885  1.6342  0.4937
 1698SOL     OW16729   1.492   0.287  16.213 -0.1704  0.1754  0.2428
 1698SOL    HW116730   1.484   0.382  16.211  0.9435  0.2711  0.3518
 1698SOL    HW216731   1.398   0.273  16.201 -0.1212  0.1458 -0.1076
 1699SOL     OW16732   1.158   3.634   5.142 -0.1842  0.3804 -0.3698
 1699SOL    HW116733   1.196   3.701   5.199 -0.6708 -0.0730  0.4785
 1699SOL    HW216734   1.068   3.630   5.173  0.1299 -2.3537  0.1548
 1700SOL     OW16735   2.687   2.324   4.414  0.0614 -0.1603  0.3057
 1700SOL    HW116736   2.751   2.326   4.485  0.3208  0.5266  0.0505
 1700SOL    HW216737   2.611   2.274   4.444 -0.7275  0.6570 -0.3476
 1701SOL     OW16738   1.014   1.959   4.644 -0.0358  0.1152  0.0032
 1701SOL    HW116739   1.108   1.940   4.640  0.7734  3.8072  1.1452
 1701SOL    HW216740   0.974   1.873   4.638  0.6245 -0.1180 -1.0424
 1702SOL     OW16741   3.381   0.575  12.763  0.2699 -0.2695  0.9138
 1702SOL    HW116742   3.359   0.665  12.788  0.8745 -0.2133  1.2338
 1702SOL    HW216743   3.299   0.539  12.727  0.2826 -1.9687  2.5939
 1703SOL     OW16744   2.948   2.891   5.419  0.1009 -0.4538 -0.4233
 1703SOL    HW116745   2.881   2.823   5.430  1.3538 -2.0607 -2.6682
 1703SOL    HW216746   2.908   2.973   5.389 -0.9323 -1.2476 -1.2227
 1704SOL     OW16747   2.668   3.563   9.997 -0.0099 -0.2634 -0.3153
 1704SOL    HW116748   2.677   3.486  10.053  0.3569 -0.1015 -0.1475
 1704SOL    HW216749   2.758   3.590   9.977 -0.0928  0.0706 -0.2408
 1705SOL     OW16750   4.180   2.208   8.076  0.1088 -0.0382 -0.3188
 1705SOL    HW116751   4.239   2.226   8.003  0.9964 -0.6492  0.2399
 1705SOL    HW216752   4.244   2.199   8.147 -1.8789 -0.5067  1.3962
 1706SOL     OW16753   0.988   4.680   8.142 -0.0986  0.0980  0.0329
 1706SOL    HW116754   0.986   4.647   8.232 -2.5676  0.5683  0.1346
 1706SOL    HW216755   0.932   0.023   8.146 -0.3758 -0.1647  1.2640
 1707SOL     OW16756   0.309   2.484  12.184  0.5875  0.2067  0.8967
 1707SOL    HW116757   0.348   2.464  12.099 -2.1382  2.0902 -0.7937
 1707SOL    HW216758   0.247   2.412  12.189  1.0000 -0.1744  0.4918
 1708SOL     OW16759   2.717   3.301   7.715 -0.2467 -0.3610 -0.2259
 1708SOL    HW116760   2.718   3.241   7.641  1.9058 -0.2919 -0.2493
 1708SOL    HW216761   2.809   3.325   7.727 -0.2904  0.0046 -0.5992
 1709SOL     OW16762   3.208   1.241   4.805 -0.2616  0.4456 -0.0681
 1709SOL    HW116763   3.143   1.201   4.863  2.0109 -2.5243  0.4386
 1709SOL    HW216764   3.263   1.168   4.775 -1.3404 -1.0236  1.4871
 1710SOL     OW16765   3.792   2.250   0.768 -0.3432  0.2688 -0.5793
 1710SOL    HW116766   3.877   2.221   0.734 -1.1686 -1.8690 -0.8656
 1710SOL    HW216767   3.753   2.259   0.681 -0.0825  2.0011 -0.5161
 1711SOL     OW16768   2.066   0.004  10.938  0.5327  0.0087  0.3645
 1711SOL    HW116769   2.101   0.049  10.860 -0.3997 -0.2796 -0.2149
 1711SOL    HW216770   2.006   0.061  10.985 -1.2156  0.0489 -1.9097
 1712SOL     OW16771   1.970   3.686   2.952  0.0695  0.0332  0.2014
 1712SOL    HW116772   1.926   3.606   2.981 -1.5889  0.8353 -0.1605
 1712SOL    HW216773   2.064   3.668   2.966  0.5363  0.7537 -2.0509
 1713SOL     OW16774   0.047   1.949   6.557 -0.0573  0.0479 -0.1303
 1713SOL    HW116775   0.067   1.999   6.478  1.2527 -2.0108 -1.1320
 1713SOL    HW216776   4.686   1.947   6.545 -0.0540 -1.2575  0.0370
 1714SOL     OW16777   3.101   2.681  17.395  0.0179  0.0731  0.1056
 1714SOL    HW116778   3.174   2.734  17.364 -0.3810  0.1596 -0.6897
 1714SOL    HW216779   3.026   2.722  17.350 -1.2797 -1.0757  1.2057
 1715SOL     OW16780   3.309   3.495   7.488 -0.0216 -0.3740  0.4760
 1715SOL    HW116781   3.250   3.466   7.419  2.5225  0.4104 -2.0324
 1715SOL    HW216782   3.257   3.525   7.563  2.4174 -0.4058  2.1817
 1716SOL     OW16783   4.287   3.356   5.052  0.1153  0.5382 -0.5649
 1716SOL    HW116784   4.239   3.354   5.135  0.3888  0.5142 -0.4080
 1716SOL    HW216785   4.341   3.277   5.059  0.1650  0.7961  2.1431
 1717SOL     OW16786   0.071   4.584   0.478 -0.7112 -0.0389 -0.1885
 1717SOL    HW116787   0.002   4.638   0.438 -1.0016  1.0880  1.8518
 1717SOL    HW216788   0.038   4.576   0.567 -0.9458 -2.2300 -0.4762
 1718SOL     OW16789   2.955   2.535   2.566  0.4143  0.2631 -0.5492
 1718SOL    HW116790   3.026   2.542   2.630 -1.8472  2.6804  1.6837
 1718SOL    HW216791   2.993   2.587   2.496 -0.4637  0.3422 -0.9696
 1719SOL     OW16792   2.867   1.213  16.337 -0.2579 -0.4810 -0.3054
 1719SOL    HW116793   2.782   1.233  16.297 -1.2122 -1.4631  1.2091
 1719SOL    HW216794   2.910   1.296  16.317  1.6435 -0.9543  1.7732
 1720SOL     OW16795   1.309   3.423   1.917  0.0139  0.2780 -1.2213
 1720SOL    HW116796   1.341   3.401   2.004  1.3831  0.7456 -1.6116
 1720SOL    HW216797   1.234   3.482   1.930  1.2186  1.3911  0.7062
 1721SOL     OW16798   4.352   4.306   9.527 -0.1141 -0.0910 -0.3304
 1721SOL    HW116799   4.350   4.230   9.468 -0.6719 -0.2376 -0.1307
 1721SOL    HW216800   4.301   4.270   9.600  0.4526 -1.4525 -0.6044
 1722SOL     OW16801   3.312   0.298  16.712 -0.4205 -0.3391  0.2526
 1722SOL    HW116802   3.392   0.319  16.665 -0.1587 -0.0759  0.8099
 1722SOL    HW216803   3.257   0.358  16.661 -0.6204 -2.2022 -1.7420
 1723SOL     OW16804   2.667   3.068   2.117 -0.4267 -0.0967  0.0824
 1723SOL    HW116805   2.591   3.103   2.071  0.8834 -0.9291 -2.6967
 1723SOL    HW216806   2.667   2.979   2.082  1.7180 -0.7564  1.7048
 1724SOL     OW16807   3.901   0.929   5.115  0.3624  0.2663 -0.3047
 1724SOL    HW116808   3.980   0.973   5.147  1.1143 -0.3248 -1.3601
 1724SOL    HW216809   3.936   0.897   5.032 -0.4857 -1.0462 -0.1536
 1725SOL     OW16810   1.972   1.757   3.136 -0.0871  0.3954  0.2893
 1725SOL    HW116811   2.042   1.717   3.084 -0.2288 -1.1867  1.3228
 1725SOL    HW216812   1.891   1.742   3.087  0.4965 -1.0768 -0.2146
 1726SOL     OW16813   2.857   2.234   3.099  0.2600  0.1165  0.4469
 1726SOL    HW116814   2.908   2.225   3.018 -0.4050 -1.9375  0.2532
 1726SOL    HW216815   2.919   2.187   3.155  1.4837  0.6341 -0.4780
 1727SOL     OW16816   0.280   1.100   5.449  0.0522 -0.0562 -0.5445
 1727SOL    HW116817   0.233   1.060   5.523 -1.3021  0.5186 -1.0949
 1727SOL    HW216818   0.305   1.184   5.486  0.0507 -0.1840 -0.2480
 1728SOL     OW16819   1.854   2.813   6.354 -0.3117 -0.2585 -0.3147
 1728SOL    HW116820   1.840   2.721   6.334 -1.8713 -0.0245 -0.3143
 1728SOL    HW216821   1.913   2.809   6.429 -1.5968  1.9392  0.8411
 1729SOL     OW16822   2.778   1.032  17.041 -0.7035 -0.0350  0.5875
 1729SOL    HW116823   2.813   0.949  17.074 -0.6784  0.2051  1.1680
 1729SOL    HW216824   2.854   1.078  17.006 -1.6392 -0.3857 -1.8659
 1730SOL     OW16825   3.903   3.039   2.674  0.4858  0.4522 -0.1589
 1730SOL    HW116826   3.910   3.097   2.598  0.0628  0.5063 -0.1545
 1730SOL    HW216827   3.818   3.073   2.700  0.4365 -0.0340  0.3060
 1731SOL     OW16828   2.105   4.301   4.611  0.4459  0.4555  0.1207
 1731SOL    HW116829   2.086   4.231   4.674  0.7577  0.3955  0.1468
 1731SOL    HW216830   2.057   4.371   4.656 -0.7268 -0.4880  0.3122
 1732SOL     OW16831   3.978   2.235   7.584  0.2753 -0.1524 -0.5627
 1732SOL    HW116832   3.933   2.314   7.554  1.1968  0.0807 -1.3263
 1732SOL    HW216833   4.051   2.268   7.636  0.1538  1.8903 -1.6854
 1733SOL     OW16834   1.147   3.727   6.003  0.5897  0.1947  0.0781
 1733SOL    HW116835   1.154   3.738   5.908  1.3241 -2.7512 -0.2275
 1733SOL    HW216836   1.075   3.788   6.022  1.1608  0.4572  1.3623
 1734SOL     OW16837   3.035   1.960   2.148 -0.5535 -0.0911  0.2447
 1734SOL    HW116838   3.125   1.986   2.129 -1.2859  0.3519 -2.5775
 1734SOL    HW216839   3.038   1.913   2.232  2.2510 -0.7384 -0.2196
 1735SOL     OW16840   4.610   2.632  13.836 -0.5480  0.1700  0.0558
 1735SOL    HW116841   4.612   2.616  13.930 -0.9656  0.1453  0.0637
 1735SOL    HW216842   4.699   2.664  13.823 -0.6147 -1.0445 -3.5164
 1736SOL     OW16843   2.437   3.410   1.411  0.0178 -0.0515 -0.7677
 1736SOL    HW116844   2.463   3.490   1.458 -1.0191 -0.1789  0.0281
 1736SOL    HW216845   2.497   3.420   1.336  0.1931 -1.3703 -0.7911
 1737SOL     OW16846   4.022   3.248  15.203  0.6521  0.2979 -0.4445
 1737SOL    HW116847   3.949   3.273  15.146  0.0335  0.1024  0.2547
 1737SOL    HW216848   4.017   3.152  15.198 -2.4027  0.3806  1.0080
 1738SOL     OW16849   2.382   3.941   9.094 -0.2756  0.1607  0.2315
 1738SOL    HW116850   2.426   3.962   9.176  2.7297 -1.8330 -0.8662
 1738SOL    HW216851   2.460   3.932   9.038  0.3829  0.0296  1.1769
 1739SOL     OW16852   0.098   2.376   4.922 -0.2372 -0.1171 -0.1660
 1739SOL    HW116853   0.036   2.449   4.921  1.1855  1.1059 -0.0762
 1739SOL    HW216854   0.124   2.391   5.013  0.1870  2.0701 -0.6483
 1740SOL     OW16855   0.942   1.688   2.506  0.0580 -0.7702 -0.1385
 1740SOL    HW116856   0.915   1.696   2.414  3.3068 -2.8506 -1.2364
 1740SOL    HW216857   0.864   1.642   2.538 -1.0303  2.5264  2.0249
 1741SOL     OW16858   3.836   2.097   4.841 -0.0658 -0.5916 -0.5713
 1741SOL    HW116859   3.786   2.152   4.781  0.7295  0.1087 -0.5899
 1741SOL    HW216860   3.917   2.080   4.793  1.0310  0.2677  0.9514
 1742SOL     OW16861   0.871   1.715   4.637 -0.2289 -0.7333  0.0309
 1742SOL    HW116862   0.931   1.698   4.564 -3.0481  0.7864 -2.6576
 1742SOL    HW216863   0.841   1.624   4.649  0.1778 -0.9233 -0.4091
 1743SOL     OW16864   2.851   2.851  10.095 -0.8049  0.1870  0.3075
 1743SOL    HW116865   2.923   2.807  10.049 -1.0053 -1.7832  1.8909
 1743SOL    HW216866   2.773   2.820  10.050 -1.8556  1.3222  1.3563
 1744SOL     OW16867   2.106   4.317  13.506  0.9645 -0.3156 -0.3778
 1744SOL    HW116868   2.170   4.308  13.576  0.3797 -2.7491 -0.1579
 1744SOL    HW216869   2.062   4.232  13.506  0.8454 -0.2542 -1.3929
 1745SOL     OW16870   0.126   4.321   3.231  0.2995 -0.2862  0.3911
 1745SOL    HW116871   0.041   4.356   3.206  1.9546  1.3291 -2.9223
 1745SOL    HW216872   0.100   4.235   3.266 -1.6907  0.8221  1.6020
 1746SOL     OW16873   2.291   4.308  13.682  0.2954  1.0451  0.4874
 1746SOL    HW116874   2.374   4.352  13.702  0.8126 -0.0004  0.6814
 1746SOL    HW216875   2.328   4.220  13.691 -0.7728  0.8993  3.2776
 1747SOL     OW16876   3.752   2.394  16.228 -0.2847 -0.1039  0.3435
 1747SOL    HW116877   3.812   2.340  16.176  1.2942 -0.4780  2.5249
 1747SOL    HW216878   3.766   2.351  16.313  0.6549 -0.6254 -0.0816
 1748SOL     OW16879   2.312   1.553   2.062  0.2833 -0.0069 -0.3964
 1748SOL    HW116880   2.393   1.563   2.112 -0.0698 -1.4178  0.4565
 1748SOL    HW216881   2.332   1.489   1.994 -0.1940 -1.6040  0.9736
 1749SOL     OW16882   3.692   2.241  17.031  0.1156  0.0490 -0.2141
 1749SOL    HW116883   3.712   2.320  16.982  0.3921  1.0168  1.4796
 1749SOL    HW216884   3.777   2.224  17.072  0.3017  3.2897  0.7420
 1750SOL     OW16885   4.096   4.467   2.775  0.2660 -0.0289  0.0727
 1750SOL    HW116886   4.122   4.437   2.687  1.1674  0.7028  0.0998
 1750SOL    HW216887   4.034   4.533   2.745  1.2522  1.1450  0.6185
 1751SOL     OW16888   0.342   2.856   5.172  0.0933 -0.4234 -0.2476
 1751SOL    HW116889   0.429   2.885   5.198  0.5816  0.7552 -3.2071
 1751SOL    HW216890   0.301   2.935   5.138  0.7376  0.2030  0.4371
 1752SOL     OW16891   3.738   3.010   4.635 -0.1724 -0.7946 -0.1109
 1752SOL    HW116892   3.818   2.958   4.635  1.3753  1.5751 -2.5336
 1752SOL    HW216893   3.711   3.016   4.543 -0.7773 -1.7544 -0.0047
 1753SOL     OW16894   3.682   2.371   6.931 -0.3550  0.2872  0.1627
 1753SOL    HW116895   3.752   2.307   6.942  0.8063  1.3386 -1.1048
 1753SOL    HW216896   3.661   2.385   7.024 -2.1886 -0.1644 -0.1794
 1754SOL     OW16897   1.957   1.636   8.354 -0.3631 -0.5012  0.1272
 1754SOL    HW116898   2.044   1.658   8.322 -0.8098  0.5473 -0.3746
 1754SOL    HW216899   1.971   1.550   8.394 -0.0509  0.4336  2.0511
 1755SOL     OW16900   4.147   2.830  11.927  0.0065 -0.2221  0.1875
 1755SOL    HW116901   4.169   2.737  11.935 -0.5278 -0.0627  3.5504
 1755SOL    HW216902   4.164   2.853  12.018 -0.0538 -0.0539  0.1560
 1756SOL     OW16903   1.811   1.364  11.952  0.0005 -0.7127  0.4448
 1756SOL    HW116904   1.727   1.319  11.958 -1.2032  1.5894  0.6989
 1756SOL    HW216905   1.787   1.446  11.908  0.0120 -1.2292 -0.5455
 1757SOL     OW16906   4.271   2.811  12.669 -0.1818 -0.2383  0.5182
 1757SOL    HW116907   4.361   2.790  12.643  0.1440  0.9422  0.6750
 1757SOL    HW216908   4.224   2.741  12.623  0.6691 -0.2918 -0.2777
 1758SOL     OW16909   1.995   0.375   4.952 -0.7384  0.4853 -0.0079
 1758SOL    HW116910   2.029   0.462   4.934 -0.5907  0.3267 -0.4951
 1758SOL    HW216911   1.953   0.385   5.037  0.2170  2.1239  0.2746
 1759SOL     OW16912   3.558   1.124   8.135  0.0637 -0.7109 -0.5045
 1759SOL    HW116913   3.590   1.199   8.186  0.6566 -0.3713 -1.3769
 1759SOL    HW216914   3.580   1.162   8.049  2.2810 -1.1269 -0.1169
 1760SOL     OW16915   2.045   3.543  15.251  0.3865 -0.4304 -0.0666
 1760SOL    HW116916   2.045   3.462  15.199 -1.7478 -0.9031  0.7032
 1760SOL    HW216917   1.951   3.559  15.250  0.7344  1.4892 -1.9482
 1761SOL     OW16918   2.909   1.821   3.628  0.5474  0.0976 -0.0273
 1761SOL    HW116919   2.819   1.792   3.614  1.1528 -1.9722  0.3819
 1761SOL    HW216920   2.905   1.864   3.713 -1.7712  1.3280 -0.7404
 1762SOL     OW16921   2.961   0.363   2.004 -0.6800 -0.7720 -0.1706
 1762SOL    HW116922   2.903   0.301   1.960 -1.3958  0.3531 -0.8079
 1762SOL    HW216923   3.035   0.362   1.943 -0.7910  0.5012 -0.3241
 1763SOL     OW16924   2.487   2.478   6.887 -0.1829  0.1137  0.4389
 1763SOL    HW116925   2.533   2.413   6.834 -1.0036 -0.4848  0.4500
 1763SOL    HW216926   2.517   2.563   6.855  1.2717 -0.4822  0.2292
 1764SOL     OW16927   0.137   2.059   1.804 -0.3637  0.5086  0.1464
 1764SOL    HW116928   0.129   2.154   1.816 -1.6745  0.6580 -1.9534
 1764SOL    HW216929   0.193   2.027   1.874  0.6437 -0.4756 -1.1064
 1765SOL     OW16930   2.177   2.340   3.042  0.4612  0.9376  0.6044
 1765SOL    HW116931   2.156   2.299   2.958  3.1466  1.8563 -0.5393
 1765SOL    HW216932   2.217   2.421   3.010 -0.8929  1.4162  0.1451
 1766SOL     OW16933   1.183   0.580  14.290  0.0046  0.5999  0.3961
 1766SOL    HW116934   1.220   0.612  14.372  2.3060  1.8801 -1.1344
 1766SOL    HW216935   1.137   0.657  14.257 -1.7091 -1.8246 -2.8289
 1767SOL     OW16936   1.844   0.061   9.523 -0.1763 -0.0839  0.6034
 1767SOL    HW116937   1.926   0.079   9.569 -0.8757 -0.5430  2.0362
 1767SOL    HW216938   1.792   0.014   9.589  0.6465 -1.1652  0.4945
 1768SOL     OW16939   3.933   0.482   0.791 -0.2212  0.6024  0.1038
 1768SOL    HW116940   3.876   0.435   0.730  0.9609 -2.3043  1.2250
 1768SOL    HW216941   3.954   0.554   0.732 -0.8408  0.1503 -0.6678
 1769SOL     OW16942   1.138   3.536   7.848 -0.7744 -0.0233  0.0658
 1769SOL    HW116943   1.193   3.500   7.918 -1.5901  0.4285  0.9426
 1769SOL    HW216944   1.064   3.476   7.858  0.0810 -0.4867  3.5301
 1770SOL     OW16945   3.897   1.383   3.640 -0.0789 -0.3133 -0.4088
 1770SOL    HW116946   3.840   1.397   3.564  0.0673  2.4542 -0.0022
 1770SOL    HW216947   3.986   1.369   3.608  0.1085  0.1904 -0.0946
 1771SOL     OW16948   4.574   4.419   7.560 -0.0265  0.2875  0.2110
 1771SOL    HW116949   4.607   4.428   7.649 -0.4285 -0.0295  0.3924
 1771SOL    HW216950   4.549   4.509   7.537 -0.8291  0.5589  2.0689
 1772SOL     OW16951   0.860   2.979  14.134 -0.1923  0.0398 -0.3052
 1772SOL    HW116952   0.868   3.005  14.226 -0.0466  0.5951 -0.4784
 1772SOL    HW216953   0.790   2.913  14.134  0.5060 -0.7015  0.7685
 1773SOL     OW16954   1.053   3.293  13.625 -0.1504  0.5644 -0.3345
 1773SOL    HW116955   0.960   3.285  13.603  0.0145 -1.5592 -0.2587
 1773SOL    HW216956   1.059   3.386  13.643  1.2795  0.1109  1.5027
 1774SOL     OW16957   0.373   4.705   3.170 -0.0922 -0.1524 -0.2195
 1774SOL    HW116958   0.402   0.055   3.204  0.9098 -0.1037 -1.1852
 1774SOL    HW216959   0.360   4.656   3.252  2.5991  0.2096  0.4216
 1775SOL     OW16960   1.724   3.801   5.622  0.0787 -0.4705  0.4609
 1775SOL    HW116961   1.654   3.843   5.572  1.1619  0.6684 -0.0988
 1775SOL    HW216962   1.802   3.848   5.594 -0.2432  0.3473  0.9275
 1776SOL     OW16963   4.399   2.410   8.820 -0.5835  0.0994 -0.1544
 1776SOL    HW116964   4.368   2.495   8.788 -2.5440 -0.8797 -0.8431
 1776SOL    HW216965   4.382   2.355   8.744  0.9547 -0.7094  0.0884
 1777SOL     OW16966   4.595   1.913   1.404 -0.2670 -0.8268  0.3234
 1777SOL    HW116967   4.630   1.959   1.327  1.5779 -0.8608  1.1409
 1777SOL    HW216968   4.664   1.848   1.412  1.5091  0.9537 -0.4561
 1778SOL     OW16969   1.510   0.004   0.444  0.6440 -0.2300  0.1423
 1778SOL    HW116970   1.417   4.720   0.430  1.0480 -1.6388 -0.6658
 1778SOL    HW216971   1.504   0.045   0.531 -0.8750  0.2703 -0.2003
 1779SOL     OW16972   0.989   2.871   8.839  0.3285 -0.1607 -0.2316
 1779SOL    HW116973   1.070   2.900   8.882 -0.6348 -1.4022  2.3988
 1779SOL    HW216974   0.941   2.863   8.922 -1.6543  0.1015 -1.3646
 1780SOL     OW16975   2.449   0.688   8.107  0.3136 -0.0969  0.2610
 1780SOL    HW116976   2.539   0.664   8.127  0.4408  0.8613  0.8152
 1780SOL    HW216977   2.458   0.746   8.032 -3.2085  0.6545  0.3944
 1781SOL     OW16978   0.679   0.788   0.697  0.1224 -0.4646 -0.6729
 1781SOL    HW116979   0.705   0.767   0.608  0.6595 -1.4284 -0.2927
 1781SOL    HW216980   0.692   0.703   0.738 -0.5346 -1.1148 -1.8090
 1782SOL     OW16981   1.028   4.187   6.830 -0.1524 -0.2121  0.4884
 1782SOL    HW116982   1.000   4.259   6.773  0.0478 -0.0647  0.5803
 1782SOL    HW216983   1.121   4.190   6.807 -0.4857  1.3337 -0.6591
 1783SOL     OW16984   4.673   0.899  16.228 -0.4823  0.0729  0.2188
 1783SOL    HW116985   0.000   0.841  16.274  1.2304 -0.6740 -3.0786
 1783SOL    HW216986   4.727   0.975  16.247  3.5928 -2.0368 -2.9498
 1784SOL     OW16987   4.502   2.531   1.920  0.2501 -0.2321 -0.0233
 1784SOL    HW116988   4.520   2.537   2.014  0.5653  1.6971 -0.1990
 1784SOL    HW216989   4.473   2.622   1.912  2.1397  0.4399  0.7806
 1785SOL     OW16990   2.924   3.099   6.548 -0.0991 -0.3189  0.3956
 1785SOL    HW116991   2.978   3.175   6.571 -1.0801  0.7666 -0.8715
 1785SOL    HW216992   2.979   3.054   6.483 -1.3056  0.1699 -0.9632
 1786SOL     OW16993   0.456   2.581   1.299 -0.3190 -0.0293 -0.0707
 1786SOL    HW116994   0.411   2.634   1.364 -2.7239  0.3585 -2.0613
 1786SOL    HW216995   0.508   2.519   1.349  0.5841  1.2665  0.6077
 1787SOL     OW16996   2.288   4.079   5.990 -0.1323  0.0972  0.1982
 1787SOL    HW116997   2.258   4.004   5.939 -0.6971 -0.5713  1.5181
 1787SOL    HW216998   2.377   4.054   6.015  0.5866  1.1411 -1.3353
 1788SOL     OW16999   4.466   2.445   4.026  0.5004 -0.7870 -0.1298
 1788SOL    HW117000   4.522   2.371   4.002  1.7276  0.1782 -0.2401
 1788SOL    HW217001   4.502   2.514   3.970 -0.2675  0.0343  0.3778
 1789SOL     OW17002   0.891   3.336   3.634 -0.2176  0.3931  0.4774
 1789SOL    HW117003   0.858   3.313   3.721  0.5118  0.1646  0.6965
 1789SOL    HW217004   0.843   3.280   3.573  0.9369 -0.5240  0.4055
 1790SOL     OW17005   2.168   2.769   5.919 -0.2800  0.2160  0.5089
 1790SOL    HW117006   2.153   2.756   6.013  4.4325 -2.4299  0.8611
 1790SOL    HW217007   2.231   2.700   5.902 -1.1422 -0.5392  0.3879
 1791SOL     OW17008   1.903   4.453   7.652 -0.2356  0.2199  0.5735
 1791SOL    HW117009   1.985   4.458   7.701  0.0327  0.3252  0.1084
 1791SOL    HW217010   1.930   4.496   7.571  1.7310 -1.4044  0.3668
 1792SOL     OW17011   1.598   3.601   2.675 -0.0492  0.1662  0.3938
 1792SOL    HW117012   1.656   3.525   2.681  0.0683  0.0744 -1.9869
 1792SOL    HW217013   1.574   3.617   2.767  0.4266 -1.0733  0.7342
 1793SOL     OW17014   1.935   3.046   7.012  0.2313 -0.0340 -0.0728
 1793SOL    HW117015   1.881   3.089   6.946  0.8656 -0.5949 -0.9438
 1793SOL    HW217016   1.913   2.953   7.005 -1.8370  0.5572 -1.4088
 1794SOL     OW17017   1.517   4.371   8.125  0.0826  0.2807  0.3083
 1794SOL    HW117018   1.462   4.386   8.202 -1.6821 -1.8194 -0.5595
 1794SOL    HW217019   1.453   4.354   8.057 -0.9319  4.5308  0.2032
 1795SOL     OW17020   0.416   0.690   9.696  0.2854  0.2804 -0.0439
 1795SOL    HW117021   0.433   0.668   9.604 -0.1094  0.2361 -0.1073
 1795SOL    HW217022   0.450   0.609   9.735 -1.5049 -1.2002 -1.5127
 1796SOL     OW17023   3.561   0.146   8.157 -0.1064  0.1580 -0.4392
 1796SOL    HW117024   3.487   0.116   8.104  0.5349  1.3261 -2.0154
 1796SOL    HW217025   3.588   0.056   8.173 -0.5043  0.5464  2.4734
 1797SOL     OW17026   4.651   4.337  14.912 -0.0758  0.3418  0.1010
 1797SOL    HW117027   0.010   4.348  14.932 -0.0928  1.6432 -0.5456
 1797SOL    HW217028   4.656   4.260  14.856 -1.1580  0.1361  0.2830
 1798SOL     OW17029   2.726   2.745   2.527  0.3303  0.0429  0.6521
 1798SOL    HW117030   2.726   2.818   2.465 -1.5558  0.1155  0.7608
 1798SOL    HW217031   2.671   2.676   2.489  0.7280  1.4019 -2.3851
 1799SOL     OW17032   4.734   3.767  13.572 -0.0030 -0.4519 -0.3577
 1799SOL    HW117033   4.715   3.854  13.606  3.4714  0.0999  0.1899
 1799SOL    HW217034   0.001   3.789  13.479  1.4079 -2.0506 -0.7232
 1800SOL     OW17035   4.256   0.822  16.717 -0.2015 -0.5540 -0.0991
 1800SOL    HW117036   4.197   0.761  16.674 -0.7435  0.6728 -1.0774
 1800SOL    HW217037   4.267   0.782  16.804 -0.2257  0.6055  0.4407
 1801SOL     OW17038   2.265   1.811   8.163 -0.5460 -0.5431  0.1549
 1801SOL    HW117039   2.308   1.728   8.184 -0.4225 -0.7151 -0.8187
 1801SOL    HW217040   2.330   1.868   8.123 -0.9289 -0.4434 -0.3260
 1802SOL     OW17041   0.202   4.602   9.208  0.1009 -0.1128  0.3426
 1802SOL    HW117042   0.256   4.534   9.169  0.9067  1.0567 -0.5928
 1802SOL    HW217043   0.136   4.598   9.139  0.2858 -0.6998  0.2043
 1803SOL     OW17044   0.073   0.887   6.393  0.4811 -0.1750 -0.0046
 1803SOL    HW117045   0.131   0.842   6.331  0.1191 -0.6999  0.0383
 1803SOL    HW217046   0.044   0.963   6.342 -0.7207 -0.2839  0.5223
 1804SOL     OW17047   3.528   2.649  15.432 -0.6474  0.1374  0.5688
 1804SOL    HW117048   3.513   2.654  15.337 -1.3203  1.5884  0.7519
 1804SOL    HW217049   3.619   2.677  15.427 -0.2709 -0.7505  2.5555
 1805SOL     OW17050   3.770   3.210   7.793  0.3996 -0.2694 -0.0307
 1805SOL    HW117051   3.787   3.301   7.817 -2.7211  0.3052  0.0682
 1805SOL    HW217052   3.840   3.161   7.836  0.4972  0.3947  0.5555
 1806SOL     OW17053   0.577   3.962  17.684  0.2384 -0.0061  0.4150
 1806SOL    HW117054   0.484   3.953  17.707 -0.1828 -1.8712 -2.0263
 1806SOL    HW217055   0.613   3.998   0.029  0.7756  1.2862 -0.4202
 1807SOL     OW17056   4.614   1.781   8.846  0.1814  0.4958 -0.3556
 1807SOL    HW117057   4.572   1.843   8.786 -0.2147 -0.2183 -0.8121
 1807SOL    HW217058   4.612   1.827   8.930  1.1833 -1.1870  0.5817
 1808SOL     OW17059   2.003   2.878   1.349  0.4554  0.2037 -0.2859
 1808SOL    HW117060   1.975   2.789   1.329 -1.3928  0.9852 -1.1406
 1808SOL    HW217061   1.933   2.917   1.401  1.8054  1.1843  0.8080
 1809SOL     OW17062   3.490   2.237   5.699  0.0763  0.0780 -0.5765
 1809SOL    HW117063   3.490   2.285   5.616  3.2791 -1.0898 -1.2522
 1809SOL    HW217064   3.397   2.211   5.701  0.1703  0.0583  4.7873
 1810SOL     OW17065   4.340   0.942  10.808 -0.3909 -0.2090  0.3255
 1810SOL    HW117066   4.261   0.958  10.859  0.5420 -0.0469  1.7087
 1810SOL    HW217067   4.314   0.978  10.723 -1.0644  0.7322  0.9336
 1811SOL     OW17068   1.671   3.231   2.083  0.0915 -0.1076  0.5982
 1811SOL    HW117069   1.645   3.165   2.019 -0.2093 -1.4196  2.0761
 1811SOL    HW217070   1.747   3.269   2.038  0.4771  0.5433  1.7934
 1812SOL     OW17071   2.971   3.642   6.695 -0.3452  0.1883  0.1500
 1812SOL    HW117072   2.976   3.558   6.739  2.7094  0.6848  0.7751
 1812SOL    HW217073   3.052   3.644   6.644  1.1131 -1.3707  2.4398
 1813SOL     OW17074   4.032   1.322   3.277  0.3480 -0.0000 -0.4854
 1813SOL    HW117075   4.113   1.279   3.249  2.1189  1.9018  1.7320
 1813SOL    HW217076   3.975   1.300   3.203 -0.2856  0.0191  0.0019
 1814SOL     OW17077   0.960   0.893   7.849  0.0858 -0.0708  0.1111
 1814SOL    HW117078   0.958   0.948   7.928 -2.6197  0.4029 -0.2951
 1814SOL    HW217079   1.021   0.946   7.798  0.6103 -1.2254 -0.4575
 1815SOL     OW17080   2.676   2.521  14.545 -0.2506 -0.3043 -0.2207
 1815SOL    HW117081   2.585   2.552  14.539 -0.0483  0.1469 -0.8657
 1815SOL    HW217082   2.690   2.476  14.463  0.8545 -1.1268  0.4284
 1816SOL     OW17083   0.231   4.676  14.146  0.3227  0.4111  0.5958
 1816SOL    HW117084   0.157   4.646  14.198  0.6389  1.7569  1.8454
 1816SOL    HW217085   0.297   4.691  14.215 -1.1235 -0.6049  2.2058
 1817SOL     OW17086   2.573   0.429   4.016  0.1230 -0.5412  0.0514
 1817SOL    HW117087   2.572   0.503   4.076  0.4746 -0.7229  0.2818
 1817SOL    HW217088   2.507   0.373   4.059 -0.6043  1.9299  2.1337
 1818SOL     OW17089   1.809   3.149  16.739 -0.1569 -0.2371  0.4673
 1818SOL    HW117090   1.883   3.176  16.793 -0.8316 -2.4453  2.4947
 1818SOL    HW217091   1.738   3.146  16.804 -0.6350  0.4399 -0.0240
 1819SOL     OW17092   2.048   2.260   1.901  0.1926 -0.2062  0.2846
 1819SOL    HW117093   2.120   2.212   1.942  2.1229  3.0609  0.7025
 1819SOL    HW217094   2.055   2.348   1.937 -0.4303 -0.3415  0.7308
 1820SOL     OW17095   3.137   0.768  11.680  0.3397 -0.1104  0.1129
 1820SOL    HW117096   3.179   0.848  11.649  1.2218 -0.0326  1.5182
 1820SOL    HW217097   3.053   0.773  11.635  0.5443 -0.7950 -0.3502
 1821SOL     OW17098   3.720   1.367   2.320 -0.7529 -0.2311 -0.1884
 1821SOL    HW117099   3.628   1.378   2.293 -0.3441  1.5547 -0.8733
 1821SOL    HW217100   3.736   1.462   2.316  0.8292 -0.6246 -2.9157
 1822SOL     OW17101   3.682   4.074   7.892 -0.8397  0.5826 -0.0907
 1822SOL    HW117102   3.610   4.117   7.846 -0.7083  1.5293  0.6018
 1822SOL    HW217103   3.672   3.980   7.875 -0.5124  0.6085 -0.4352
 1823SOL     OW17104   1.287   1.715   7.907  0.1835 -0.1213  1.0108
 1823SOL    HW117105   1.231   1.646   7.943 -0.1469  0.4174  1.5274
 1823SOL    HW217106   1.339   1.668   7.842 -1.4955  1.2149 -1.2685
 1824SOL     OW17107   0.404   2.648  11.411  0.0153 -0.2421 -0.1289
 1824SOL    HW117108   0.440   2.735  11.397  1.3323 -0.7688 -0.0145
 1824SOL    HW217109   0.327   2.638  11.356 -0.3427  3.4128 -0.2488
 1825SOL     OW17110   2.976   4.286   7.603  0.3410 -0.6540  0.3540
 1825SOL    HW117111   2.923   4.209   7.582  0.0299 -0.4652  0.4625
 1825SOL    HW217112   2.937   4.321   7.682 -0.6705 -0.3250 -0.2957
 1826SOL     OW17113   1.845   3.131   1.520  0.1249 -0.3841  0.0779
 1826SOL    HW117114   1.878   3.195   1.457 -0.2298  1.0712  1.3726
 1826SOL    HW217115   1.752   3.115   1.500 -0.4626  0.5370  2.1095
 1827SOL     OW17116   2.139   1.276  16.182  0.2562  0.4367  0.1828
 1827SOL    HW117117   2.134   1.181  16.184  2.5469  0.3533  0.8893
 1827SOL    HW217118   2.170   1.297  16.270 -0.4783 -1.2664  0.8429
 1828SOL     OW17119   0.827   1.833   6.365  0.5823  0.0605  0.1650
 1828SOL    HW117120   0.872   1.887   6.300  1.4733  1.6100  2.0668
 1828SOL    HW217121   0.864   1.750   6.336 -0.3503  0.2968 -1.6677
 1829SOL     OW17122   3.313   3.075   7.850  0.0744  0.3232 -0.1322
 1829SOL    HW117123   3.357   3.010   7.905  1.4981  0.3410 -1.2470
 1829SOL    HW217124   3.355   3.067   7.764  0.8776 -1.1867  0.3916
 1830SOL     OW17125   2.126   3.608  12.848 -0.6214  0.0322  0.7646
 1830SOL    HW117126   2.113   3.643  12.760  0.5516 -0.8525  0.2376
 1830SOL    HW217127   2.121   3.687  12.901 -1.8448  0.8338 -0.5705
 1831SOL     OW17128   0.819   2.963  16.613  0.6279  0.3466  0.3994
 1831SOL    HW117129   0.749   3.027  16.604  3.0419  2.9654  0.2107
 1831SOL    HW217130   0.773   2.894  16.660  0.0575 -0.4221 -1.2788
 1832SOL     OW17131   2.473   1.174  14.881 -0.3731 -0.5623  0.1044
 1832SOL    HW117132   2.411   1.141  14.946 -1.0489  0.0914 -0.2186
 1832SOL    HW217133   2.490   1.254  14.931  0.0482  0.7080 -2.0744
 1833SOL     OW17134   2.673   1.094   2.729 -0.3902 -0.3359  0.4728
 1833SOL    HW117135   2.688   1.112   2.822  0.1154  1.5860  0.0284
 1833SOL    HW217136   2.596   1.149   2.716 -0.5570 -0.7613 -0.3007
 1834SOL     OW17137   2.546   3.434   5.471  0.5503 -0.0817  0.0610
 1834SOL    HW117138   2.460   3.425   5.429 -0.6564  0.8397  2.3207
 1834SOL    HW217139   2.555   3.343   5.501 -1.9433 -0.5977 -0.6982
 1835SOL     OW17140   1.319   3.780  12.090 -0.2080 -0.1455 -0.4930
 1835SOL    HW117141   1.276   3.720  12.029  0.5956 -1.2313  0.0091
 1835SOL    HW217142   1.360   3.725  12.157 -1.8217  0.0284  0.6386
 1836SOL     OW17143   0.582   2.049   4.711 -0.0791 -0.2904 -0.1783
 1836SOL    HW117144   0.597   2.019   4.800  3.3911 -1.1412 -1.0195
 1836SOL    HW217145   0.488   2.064   4.715  0.0456  1.0676 -1.8218
 1837SOL     OW17146   0.471   2.724  12.157 -0.2690 -0.2278  0.1247
 1837SOL    HW117147   0.493   2.797  12.099  1.2470  1.1680  2.4651
 1837SOL    HW217148   0.448   2.653  12.096 -0.5370  0.0867 -0.1401
 1838SOL     OW17149   1.327   4.486   1.983  0.4712 -0.6394 -0.5875
 1838SOL    HW117150   1.252   4.481   1.925 -0.2065  0.5691  0.1804
 1838SOL    HW217151   1.383   4.422   1.939  0.5935 -1.8717  1.3710
 1839SOL     OW17152   0.985   3.036   3.694  0.0197  0.7622  0.0553
 1839SOL    HW117153   0.956   2.960   3.743  1.5521 -0.0489 -0.2837
 1839SOL    HW217154   0.987   2.998   3.606 -1.4794 -2.2380  1.3367
 1840SOL     OW17155   1.504   1.163  13.033 -0.1058 -0.8246  0.2893
 1840SOL    HW117156   1.548   1.199  13.110 -1.0510 -0.4313  0.6539
 1840SOL    HW217157   1.578   1.124  12.988  0.0976  0.8519 -0.8332
 1841SOL     OW17158   0.149   3.863   2.806  0.0770 -0.0205 -0.5451
 1841SOL    HW117159   0.243   3.876   2.796  0.3556  0.0124  2.0564
 1841SOL    HW217160   0.121   3.852   2.715  1.0108  0.4960 -0.8948
 1842SOL     OW17161   3.819   2.457   7.481  0.1843 -0.3060 -0.0136
 1842SOL    HW117162   3.847   2.524   7.544  0.1489 -1.1435  0.9043
 1842SOL    HW217163   3.842   2.505   7.402  1.5174  0.6122  0.9221
 1843SOL     OW17164   0.464   0.572  11.725  0.0708 -0.0743  0.3173
 1843SOL    HW117165   0.476   0.488  11.771  2.5711  0.5349  0.7681
 1843SOL    HW217166   0.526   0.635  11.763 -1.2795  1.7026 -0.4350
 1844SOL     OW17167   0.170   1.583   1.071  0.3824 -0.7241 -0.2683
 1844SOL    HW117168   0.206   1.514   1.015 -2.2539 -0.0765 -2.7322
 1844SOL    HW217169   0.240   1.648   1.072  0.4435 -0.7812 -0.8418
 1845SOL     OW17170   0.476   2.145   9.740  0.9728 -0.2562  0.0866
 1845SOL    HW117171   0.435   2.098   9.813 -1.4263  1.8086  0.0776
 1845SOL    HW217172   0.407   2.144   9.674  0.1103 -3.9780  1.0003
 1846SOL     OW17173   0.746   4.009   5.503 -0.6537  0.6256 -0.3369
 1846SOL    HW117174   0.794   3.982   5.582 -0.1899 -0.3123 -0.9429
 1846SOL    HW217175   0.810   4.071   5.470  0.4663 -0.2926  0.1009
 1847SOL     OW17176   2.851   4.307   9.875 -0.3117 -0.2124  0.1634
 1847SOL    HW117177   2.906   4.338   9.802  0.9925 -0.7354  0.9191
 1847SOL    HW217178   2.837   4.377   9.939  0.9329 -0.9662  1.2626
 1848SOL     OW17179   0.269   0.548   7.405  0.5092  0.2646 -0.3758
 1848SOL    HW117180   0.325   0.501   7.343  0.9923 -0.5538  0.6776
 1848SOL    HW217181   0.209   0.582   7.339 -1.0041 -0.7086  0.4815
 1849SOL     OW17182   1.114   4.545   4.395  0.2758 -0.1707 -0.2894
 1849SOL    HW117183   1.115   4.572   4.303 -1.3202  1.4080  0.1753
 1849SOL    HW217184   1.167   4.618   4.427  0.4697 -1.9263  3.4346
 1850SOL     OW17185   0.434   2.948  11.213  0.3275 -0.3302  0.1361
 1850SOL    HW117186   0.411   2.991  11.130 -0.1454 -1.5116 -0.3390
 1850SOL    HW217187   0.486   2.871  11.193  0.2569 -0.1185 -0.8828
 1851SOL     OW17188   2.777   1.207   6.263  0.4973  0.1570  0.3057
 1851SOL    HW117189   2.857   1.153   6.257  0.6222  0.3633  0.1341
 1851SOL    HW217190   2.805   1.280   6.318 -1.6678  1.1116  0.1194
 1852SOL     OW17191   3.129   2.215   2.340 -0.2020  0.4064 -0.4649
 1852SOL    HW117192   3.158   2.196   2.251 -0.1581 -1.7525  0.0135
 1852SOL    HW217193   3.192   2.284   2.358  2.0849 -2.1143  1.1689
 1853SOL     OW17194   2.258   3.702   7.882  0.2983 -0.0910  0.1689
 1853SOL    HW117195   2.190   3.758   7.844  1.8741  1.5326 -0.2578
 1853SOL    HW217196   2.320   3.698   7.809 -3.0322 -3.1663 -2.4468
 1854SOL     OW17197   2.454   2.229  16.694  0.3638 -0.0281  0.2313
 1854SOL    HW117198   2.449   2.182  16.777  0.7415  0.2439  0.4057
 1854SOL    HW217199   2.548   2.234  16.679  0.3978 -1.1959 -0.0065
 1855SOL     OW17200   3.429   0.238   8.580  0.1622 -0.4169 -0.5389
 1855SOL    HW117201   3.467   0.269   8.497 -0.0834  1.6639  0.1175
 1855SOL    HW217202   3.361   0.306   8.586 -0.0369 -0.8775  2.1978
 1856SOL     OW17203   0.334   4.375   8.263 -0.2177 -0.2861 -0.1238
 1856SOL    HW117204   0.376   4.413   8.340 -0.4811  0.7574 -0.5068
 1856SOL    HW217205   0.284   4.452   8.237 -0.4485 -1.5563 -3.4252
 1857SOL     OW17206   0.001   0.078   8.869  0.0712 -0.2365 -0.3005
 1857SOL    HW117207   4.687   0.113   8.794  0.9850  1.0301 -0.2936
 1857SOL    HW217208   4.690   0.114   8.945  0.6887  0.9604 -0.5052
 1858SOL     OW17209   0.886   4.716   8.439  0.6005 -0.0651  0.7210
 1858SOL    HW117210   0.947   0.055   8.427 -2.8598  2.6313 -0.4816
 1858SOL    HW217211   0.800   0.023   8.432  2.2344  3.2616  0.2788
 1859SOL     OW17212   1.015   3.031   6.492 -0.0257 -0.1831 -0.0868
 1859SOL    HW117213   1.074   3.034   6.417  1.1831 -0.8108  0.8335
 1859SOL    HW217214   1.044   3.102   6.550  0.1060  0.6236 -1.1456
 1860SOL     OW17215   3.336   1.709   3.042 -0.9825  0.1557  0.8858
 1860SOL    HW117216   3.241   1.710   3.036 -0.9737 -0.5469  0.7122
 1860SOL    HW217217   3.350   1.625   3.085  0.8371 -0.5558 -1.0946
 1861SOL     OW17218   1.642   0.229  11.677  0.1895  0.5217  0.0617
 1861SOL    HW117219   1.565   0.254  11.626 -0.8198 -1.4604  0.6417
 1861SOL    HW217220   1.615   0.166  11.743 -0.5541 -0.4277 -1.1462
 1862SOL     OW17221   3.920   1.337   2.967 -0.4690 -0.1817 -0.6816
 1862SOL    HW117222   3.922   1.432   2.980 -0.5016 -0.2943  0.1574
 1862SOL    HW217223   3.867   1.342   2.888 -2.6119 -1.3227  0.6907
 1863SOL     OW17224   0.289   0.955  12.790  0.2088 -0.1866 -0.0850
 1863SOL    HW117225   0.328   0.948  12.703 -0.8956  0.7958 -0.6606
 1863SOL    HW217226   0.204   0.996  12.773 -0.8179 -2.2479  0.1094
 1864SOL     OW17227   1.541   1.841   8.052  0.1191  0.6311  0.0447
 1864SOL    HW117228   1.518   1.773   7.990  1.6939 -0.1566  0.3351
 1864SOL    HW217229   1.613   1.798   8.098  0.7067  0.2864 -1.1948
 1865SOL     OW17230   2.262   2.019   1.117 -0.2833 -1.0480  0.4418
 1865SOL    HW117231   2.240   2.070   1.039 -1.5207  1.3410  2.3445
 1865SOL    HW217232   2.287   2.084   1.184  1.2714 -0.8385 -0.3540
 1866SOL     OW17233   0.375   0.300   3.919  0.2693 -0.2961 -0.2829
 1866SOL    HW117234   0.297   0.343   3.884  0.3810  0.7649  0.7401
 1866SOL    HW217235   0.410   0.240   3.853 -0.6366 -1.5676  0.3878
 1867SOL     OW17236   4.306   3.537  14.638  0.0865 -0.0995 -0.2125
 1867SOL    HW117237   4.345   3.585  14.565  0.6436  2.0554  1.5073
 1867SOL    HW217238   4.380   3.516  14.694 -0.8898 -0.1883  1.0396
 1868SOL     OW17239   1.704   4.527   5.691 -0.2261  0.6641  0.3089
 1868SOL    HW117240   1.793   4.536   5.657  0.1520  1.7234  1.5908
 1868SOL    HW217241   1.720   4.485   5.776 -1.1725 -1.3226 -0.5041
 1869SOL     OW17242   3.299   2.749  16.782  0.0720  0.4392  0.6305
 1869SOL    HW117243   3.244   2.783  16.712  0.0222 -1.5175 -0.2903
 1869SOL    HW217244   3.318   2.830  16.830  1.9027  0.9710 -0.9880
 1870SOL     OW17245   1.161   4.558  12.520  0.7244 -0.1797  0.2282
 1870SOL    HW117246   1.140   4.492  12.585  0.4856  0.2498  0.5820
 1870SOL    HW217247   1.098   4.623  12.551  1.6680  1.1388 -0.5979
 1871SOL     OW17248   4.430   1.445  17.426  0.1050 -0.2402 -0.1797
 1871SOL    HW117249   4.378   1.371  17.395  0.2470 -1.9436  3.6026
 1871SOL    HW217250   4.476   1.470  17.346  0.2425 -2.6205 -0.8431
 1872SOL     OW17251   0.075   1.578   3.369 -0.4839  0.2202 -0.2112
 1872SOL    HW117252   4.722   1.586   3.330  0.2282 -2.0433 -2.2300
 1872SOL    HW217253   0.122   1.536   3.297  0.6020  0.0880  0.5770
 1873SOL     OW17254   3.001   2.812   6.686 -0.1659 -0.1903 -0.4712
 1873SOL    HW117255   3.068   2.877   6.706  0.1802 -0.7937  0.3488
 1873SOL    HW217256   2.930   2.858   6.731  0.1149  1.1803 -1.4560
 1874SOL     OW17257   3.427   1.877   7.922  0.5116  0.4624  0.0450
 1874SOL    HW117258   3.402   1.791   7.888  0.1517  0.5728  0.0277
 1874SOL    HW217259   3.349   1.931   7.910  0.5911  0.7176  0.6743
 1875SOL     OW17260   3.918   1.690  12.819  0.1238 -0.0178  0.0205
 1875SOL    HW117261   3.973   1.765  12.842 -0.4397 -0.2372  2.1169
 1875SOL    HW217262   3.951   1.631  12.887  2.0990  0.9648 -0.1023
 1876SOL     OW17263   0.716   4.386   4.023  0.1314 -0.0921  0.0931
 1876SOL    HW117264   0.754   4.322   4.083 -0.4441 -0.5717 -0.0526
 1876SOL    HW217265   0.679   4.449   4.086 -1.3737 -0.2455 -0.6219
 1877SOL     OW17266   3.985   1.537  13.020 -0.0736 -0.2754  0.4912
 1877SOL    HW117267   4.005   1.454  13.064  1.5845 -0.5168 -0.7222
 1877SOL    HW217268   3.895   1.511  13.000 -0.0489  0.6381 -0.8111
 1878SOL     OW17269   2.152   3.976   0.290 -0.5584 -0.2970  0.3243
 1878SOL    HW117270   2.120   4.002   0.203 -0.2917  1.7622  0.8360
 1878SOL    HW217271   2.134   3.882   0.293 -0.6789 -0.2121  2.0281
 1879SOL     OW17272   2.559   4.086   5.473  0.5417  0.1476  0.2105
 1879SOL    HW117273   2.524   4.009   5.428 -3.8312  0.4111  3.2357
 1879SOL    HW217274   2.641   4.102   5.426  0.6473 -0.4629  0.1827
 1880SOL     OW17275   3.536   2.381  15.294  0.3696 -0.1328 -0.2658
 1880SOL    HW117276   3.562   2.384  15.202  1.5751 -3.4821 -0.0274
 1880SOL    HW217277   3.618   2.406  15.337 -0.0818 -0.4253  0.7718
 1881SOL     OW17278   4.590   1.141   6.588  0.5526 -0.6689 -0.7500
 1881SOL    HW117279   4.549   1.221   6.622 -1.4976 -2.8747  1.9250
 1881SOL    HW217280   4.554   1.074   6.645  0.2117  1.4699  1.5890
 1882SOL     OW17281   4.498   3.893   5.317  0.0499 -0.0609  0.4912
 1882SOL    HW117282   4.570   3.955   5.308  2.7107 -3.2199  0.0240
 1882SOL    HW217283   4.424   3.941   5.280  0.3573  0.5807  0.7090
 1883SOL     OW17284   3.438   3.014   4.527 -0.9130  0.2333  0.1808
 1883SOL    HW117285   3.399   3.037   4.443  0.8250 -2.1550 -1.2672
 1883SOL    HW217286   3.411   2.922   4.529  0.9018 -0.2712  1.4992
 1884SOL     OW17287   2.379   1.649  14.965 -0.1863 -0.2201 -0.1842
 1884SOL    HW117288   2.307   1.587  14.956  1.2020 -2.3899  3.6110
 1884SOL    HW217289   2.327   1.726  14.941 -2.9877 -1.7396  1.0917
 1885SOL     OW17290   1.807   4.620   4.053 -0.0183  0.1993 -0.4376
 1885SOL    HW117291   1.879   4.674   4.020  0.7944 -0.2586  0.6244
 1885SOL    HW217292   1.795   4.567   3.975  1.7184 -1.6999  0.6026
 1886SOL     OW17293   2.127   4.481   6.160 -0.4607 -0.2289 -0.0063
 1886SOL    HW117294   2.095   4.511   6.245  1.3793  1.0441  0.2357
 1886SOL    HW217295   2.164   4.395   6.180  0.2034 -0.1479 -0.8846
 1887SOL     OW17296   3.018   4.235   6.191 -0.2353 -0.2881  0.1007
 1887SOL    HW117297   3.112   4.217   6.185 -0.7858 -2.6747 -1.3740
 1887SOL    HW217298   2.997   4.293   6.118 -1.2457 -0.7622  0.0175
 1888SOL     OW17299   0.103   1.976  11.558 -0.2634  0.7081 -0.5690
 1888SOL    HW117300   0.144   2.059  11.584 -1.3404  0.3551  2.2774
 1888SOL    HW217301   0.156   1.941  11.486 -1.3842 -2.6319  0.2723
 1889SOL     OW17302   3.537   3.153   3.923  0.2096  0.6907  0.0205
 1889SOL    HW117303   3.603   3.099   3.965 -0.3327 -0.4894 -0.6325
 1889SOL    HW217304   3.566   3.153   3.831  0.1138 -2.2410 -0.0238
 1890SOL     OW17305   2.223   3.020   8.493 -0.2114 -0.0436  0.5981
 1890SOL    HW117306   2.266   2.969   8.562 -0.8934  0.9561  1.7696
 1890SOL    HW217307   2.225   3.104   8.540 -0.6570 -0.5586  1.5347
 1891SOL     OW17308   3.554   3.200   4.692  0.1549 -0.0485  0.2436
 1891SOL    HW117309   3.632   3.175   4.740  1.8731 -0.3421 -2.6867
 1891SOL    HW217310   3.531   3.111   4.665  0.1537 -0.5552  1.9457
 1892SOL     OW17311   4.658   3.440   2.865 -0.2735 -0.1078  0.1011
 1892SOL    HW117312   4.692   3.389   2.938  1.3623  0.6836 -0.0997
 1892SOL    HW217313   4.568   3.407   2.873  0.3571 -1.4429  1.5032
 1893SOL     OW17314   4.650   0.787   3.332 -0.5049  0.0791  0.6271
 1893SOL    HW117315   4.608   0.791   3.246 -4.4729 -0.4784  2.5634
 1893SOL    HW217316   4.613   0.858   3.384  0.6216  0.9972  0.1725
 1894SOL     OW17317   4.430   2.040   1.994  0.5915  0.3408  0.0550
 1894SOL    HW117318   4.513   2.087   1.986  0.7559  0.1427  0.5715
 1894SOL    HW217319   4.379   2.085   1.926  0.1752  0.3990  0.4050
 1895SOL     OW17320   2.019   2.644   6.749  0.0781 -0.2226 -0.0263
 1895SOL    HW117321   2.103   2.606   6.773  0.6813  1.2620  0.2192
 1895SOL    HW217322   1.963   2.569   6.730  0.2942 -0.5594  0.6680
 1896SOL     OW17323   1.597   2.311  12.040  0.1108 -0.3454 -0.1872
 1896SOL    HW117324   1.596   2.398  11.999  0.1824 -0.0580  0.4060
 1896SOL    HW217325   1.678   2.270  12.010  1.2351  1.8543 -0.2038
 1897SOL     OW17326   3.871   0.850  12.770 -0.0014  0.3780 -0.2076
 1897SOL    HW117327   3.951   0.889  12.804  0.0608 -1.5247  1.8392
 1897SOL    HW217328   3.907   0.817  12.688  1.5322  1.3445  0.0750
 1898SOL     OW17329   1.210   0.402   2.731 -0.2990  0.4689  0.1220
 1898SOL    HW117330   1.191   0.313   2.701  0.8632 -0.4307  2.0691
 1898SOL    HW217331   1.122   0.434   2.712 -1.7243 -2.7282  1.2931
 1899SOL     OW17332   0.619   2.838   1.639  0.1133 -0.4790  0.0700
 1899SOL    HW117333   0.563   2.913   1.621 -0.2113 -0.7913 -0.2207
 1899SOL    HW217334   0.562   2.768   1.671 -1.8065  1.1351  0.1227
 1900SOL     OW17335   3.920   3.875   3.194  0.1106 -0.6376 -0.4320
 1900SOL    HW117336   3.858   3.938   3.229  2.0738  1.5564 -0.9161
 1900SOL    HW217337   3.866   3.827   3.130 -0.0562 -1.3547  0.2430
 1901SOL     OW17338   1.808   2.580   5.616 -0.7277  0.1014 -0.3531
 1901SOL    HW117339   1.747   2.653   5.601 -0.4288  0.6904  1.2221
 1901SOL    HW217340   1.852   2.596   5.700 -2.5337  0.6735  0.4954
 1902SOL     OW17341   0.224   4.428  12.450  0.1932 -0.3890 -0.0131
 1902SOL    HW117342   0.210   4.469  12.365  0.1164  0.2546  0.3122
 1902SOL    HW217343   0.314   4.454  12.470  0.2652 -1.9172  1.7318
 1903SOL     OW17344   4.584   0.242   4.284 -0.6492  0.5139 -0.2768
 1903SOL    HW117345   4.513   0.179   4.274 -0.3263  0.0726  0.2092
 1903SOL    HW217346   4.596   0.241   4.379 -2.3561 -0.9819 -0.0718
 1904SOL     OW17347   1.383   2.165  12.034 -0.2086 -0.2697  0.1369
 1904SOL    HW117348   1.374   2.153  11.940  2.1075 -0.8759  0.0070
 1904SOL    HW217349   1.452   2.231  12.031 -0.6863  0.1960 -0.8493
 1905SOL     OW17350   2.508   4.145   6.322 -0.1404  0.2697  0.3354
 1905SOL    HW117351   2.435   4.154   6.382 -0.0688  2.3846  0.1104
 1905SOL    HW217352   2.567   4.093   6.376 -1.0722 -2.2470 -1.0567
 1906SOL     OW17353   1.328   4.126  11.239  0.1013  0.3599  0.1650
 1906SOL    HW117354   1.234   4.136  11.254  0.7286  3.7311  1.8457
 1906SOL    HW217355   1.322   4.100  11.147  1.3020  0.4112  0.0834
 1907SOL     OW17356   4.695   0.121   1.374  0.0304 -0.8347  0.0333
 1907SOL    HW117357   4.625   0.073   1.330 -1.9831  1.6429  0.5240
 1907SOL    HW217358   0.025   0.050   1.387  0.5036 -0.2441  0.9620
 1908SOL     OW17359   0.702   1.936   0.759 -1.3063  0.1342 -0.6425
 1908SOL    HW117360   0.716   1.861   0.815 -1.1192  3.0056  3.1324
 1908SOL    HW217361   0.615   1.965   0.784 -1.5873 -0.8877 -0.4704
 1909SOL     OW17362   2.061   2.278   4.795  0.3477 -0.4070  0.7557
 1909SOL    HW117363   2.037   2.359   4.749  0.6843  0.4385  2.0444
 1909SOL    HW217364   2.019   2.211   4.742  0.1273  1.6497 -1.7014
 1910SOL     OW17365   1.594   1.875  12.373  0.7678  0.1082  0.3097
 1910SOL    HW117366   1.656   1.821  12.322  0.4512  1.3545 -1.4045
 1910SOL    HW217367   1.619   1.838  12.457  2.2863  0.1040 -0.1397
 1911SOL     OW17368   1.535   4.087   7.832  0.0906  0.1691 -0.8159
 1911SOL    HW117369   1.576   4.112   7.749 -1.2657  1.5867 -1.0553
 1911SOL    HW217370   1.609   4.058   7.885  2.0966  2.9027 -2.1239
 1912SOL     OW17371   0.424   2.265   4.232 -0.0410  0.4389 -0.5176
 1912SOL    HW117372   0.424   2.217   4.315  0.1560  1.0455 -0.1598
 1912SOL    HW217373   0.343   2.234   4.192 -0.5099  1.5305 -0.4381
 1913SOL     OW17374   0.155   0.951  17.359 -0.3220  0.1218  0.1645
 1913SOL    HW117375   0.200   0.889  17.416 -0.3183  0.2160  0.2641
 1913SOL    HW217376   0.155   1.036  17.403 -0.7860 -0.4784  1.3068
 1914SOL     OW17377   0.188   1.194   7.282 -0.0237 -0.5576 -0.7814
 1914SOL    HW117378   0.204   1.287   7.296 -0.8004 -0.6155  0.5264
 1914SOL    HW217379   0.228   1.161   7.363 -2.3706  1.3878  1.2058
 1915SOL     OW17380   3.462   0.841  16.697 -0.4404 -0.2293  0.3982
 1915SOL    HW117381   3.479   0.921  16.746  0.9290  0.1580 -0.6966
 1915SOL    HW217382   3.393   0.862  16.634 -1.1452  0.7238  1.5084
 1916SOL     OW17383   3.108   1.634   6.395 -0.2332  0.1578 -0.2197
 1916SOL    HW117384   3.109   1.698   6.465  0.7059  1.4648 -1.4276
 1916SOL    HW217385   3.088   1.553   6.442  0.0009  1.1200  1.5054
 1917SOL     OW17386   0.168   4.702   4.978  0.6696  0.4532  0.0130
 1917SOL    HW117387   0.238   4.732   4.920  0.9652 -2.7024 -1.2593
 1917SOL    HW217388   0.173   0.021   5.057  0.9831  2.6143 -1.4532
 1918SOL     OW17389   3.795   4.148   5.185 -0.4535 -0.0941 -0.0474
 1918SOL    HW117390   3.711   4.116   5.151 -0.8038 -2.6292  3.2103
 1918SOL    HW217391   3.762   4.196   5.261 -1.4952 -1.2156  0.2144
 1919SOL     OW17392   1.985   4.402   5.854  0.3285  0.1819 -0.0967
 1919SOL    HW117393   1.964   4.449   5.773 -0.9782 -0.2607 -0.0158
 1919SOL    HW217394   2.070   4.360   5.844  0.7907  0.7798  1.2917
 1920SOL     OW17395   2.436   2.461  15.000  0.2316  0.1804  0.5310
 1920SOL    HW117396   2.452   2.492  14.911 -1.0540  0.8745  0.5359
 1920SOL    HW217397   2.449   2.536  15.057  1.2890  0.3814  0.0277
 1921SOL     OW17398   4.687   2.969  11.455 -0.0827  0.0024 -0.0831
 1921SOL    HW117399   0.026   2.975  11.394 -1.3488  0.3606 -1.5661
 1921SOL    HW217400   4.726   3.029  11.519  0.7049  1.4314 -1.8840
 1922SOL     OW17401   2.275   2.230   4.242 -0.4170  0.1324  0.4881
 1922SOL    HW117402   2.236   2.142   4.248 -0.9884  0.4973  2.0194
 1922SOL    HW217403   2.208   2.290   4.210  0.5078  1.5068  1.1433
 1923SOL     OW17404   3.826   3.628  11.342  0.2722 -0.4976 -0.1416
 1923SOL    HW117405   3.816   3.668  11.428 -1.3466 -3.0727  0.8931
 1923SOL    HW217406   3.739   3.588  11.338  1.1394 -2.4347 -0.0489
 1924SOL     OW17407   1.642   1.215   9.105  0.3212  0.0341  0.4114
 1924SOL    HW117408   1.631   1.246   9.015 -2.5966  0.6050  0.9513
 1924SOL    HW217409   1.732   1.186   9.093  0.9036  1.4995  1.3053
 1925SOL     OW17410   1.660   4.241   6.238 -0.1354 -0.3389 -0.2059
 1925SOL    HW117411   1.695   4.208   6.155  1.1230 -0.3085  0.3101
 1925SOL    HW217412   1.736   4.284   6.276 -0.9442 -0.0216  1.0462
 1926SOL     OW17413   1.904   1.379   4.010  0.1666  0.2816  0.2064
 1926SOL    HW117414   1.829   1.401   3.955 -1.1507 -2.7404  0.8013
 1926SOL    HW217415   1.972   1.394   3.943  0.1540  0.3191  0.2019
 1927SOL     OW17416   1.210   1.858  12.036 -0.6915  0.0134  0.2340
 1927SOL    HW117417   1.165   1.872  12.119  1.9781  1.1043  1.5126
 1927SOL    HW217418   1.300   1.878  12.063 -0.1268 -1.2730 -0.6868
 1928SOL     OW17419   0.174   3.396   6.334  0.3282  0.0912  0.3446
 1928SOL    HW117420   0.203   3.471   6.282 -0.9935  0.7903  0.6474
 1928SOL    HW217421   0.130   3.437   6.408  1.2497 -1.8068  1.9457
 1929SOL     OW17422   0.868   4.410   5.349  1.0823  0.6336 -0.0299
 1929SOL    HW117423   0.847   4.383   5.439 -1.7740 -0.9597 -1.1768
 1929SOL    HW217424   0.781   4.436   5.318  0.1830 -2.8447 -0.4739
 1930SOL     OW17425   1.270   2.988  16.683  0.0249 -0.6959 -0.0521
 1930SOL    HW117426   1.345   2.931  16.699 -0.2310 -1.1761 -0.5418
 1930SOL    HW217427   1.314   3.069  16.710  0.9167 -0.7151 -1.4542
 1931SOL     OW17428   3.451   1.797   3.807  0.0268  0.1428 -0.0074
 1931SOL    HW117429   3.469   1.706   3.831 -0.8471  0.4877  1.9518
 1931SOL    HW217430   3.540   1.832   3.794  1.8605 -2.9954  4.0634
 1932SOL     OW17431   0.438   4.526   6.933  0.2763  0.0312 -0.4210
 1932SOL    HW117432   0.489   4.453   6.896  0.6594  0.5833 -0.9955
 1932SOL    HW217433   0.347   4.508   6.910 -0.2937  0.7314  1.3945
 1933SOL     OW17434   4.394   1.701  17.517  0.0935  0.0371  0.3497
 1933SOL    HW117435   4.367   1.692  17.608 -2.9185  0.3119 -0.5200
 1933SOL    HW217436   4.403   1.609  17.491 -0.7755  0.1240 -0.2854
 1934SOL     OW17437   4.335   1.747   1.209 -0.4357  0.7808 -0.1843
 1934SOL    HW117438   4.327   1.840   1.228 -1.2273  0.7658 -0.4233
 1934SOL    HW217439   4.381   1.705   1.282 -1.8251 -1.0899 -0.4008
 1935SOL     OW17440   2.463   1.879   8.482 -0.6300  0.2169 -0.2579
 1935SOL    HW117441   2.449   1.954   8.424 -1.7206  0.1446 -0.0893
 1935SOL    HW217442   2.373   1.850   8.497  0.0136 -2.6039 -1.7361
 1936SOL     OW17443   1.571   4.505   9.297  0.1908 -0.0122 -0.2906
 1936SOL    HW117444   1.650   4.461   9.327  0.2062 -1.2057 -2.0745
 1936SOL    HW217445   1.606   4.573   9.239  0.1817 -0.7461 -1.1713
 1937SOL     OW17446   3.472   2.286  11.299 -0.3616 -0.2089  0.2509
 1937SOL    HW117447   3.391   2.291  11.248 -0.6317  0.7403  0.7726
 1937SOL    HW217448   3.455   2.224  11.369 -0.7587  0.8174  1.0656
 1938SOL     OW17449   1.614   1.138  10.644  0.4653  0.2816  0.3569
 1938SOL    HW117450   1.537   1.159  10.592 -1.0326  0.6252  2.7414
 1938SOL    HW217451   1.678   1.167  10.579  0.6505 -1.1699 -0.1051
 1939SOL     OW17452   4.272   1.470   2.342  0.9043 -0.1679  0.1910
 1939SOL    HW117453   4.305   1.391   2.386  0.2824  0.4044  1.6744
 1939SOL    HW217454   4.179   1.466   2.364  0.7369  2.6123 -0.0435
 1940SOL     OW17455   1.829   3.518   0.109 -0.1140  0.5431  0.7704
 1940SOL    HW117456   1.919   3.486   0.116  0.2461  1.5764  0.8533
 1940SOL    HW217457   1.835   3.590   0.046 -0.1463  0.8286  1.0975
 1941SOL     OW17458   2.593   4.285   2.730 -0.3081 -0.3516 -0.3502
 1941SOL    HW117459   2.536   4.335   2.788 -0.5827  1.5850 -2.2647
 1941SOL    HW217460   2.657   4.351   2.702 -1.6879  0.8380 -0.6989
 1942SOL     OW17461   1.141   0.442   5.163  0.7125 -0.3455 -0.3979
 1942SOL    HW117462   1.053   0.436   5.128 -0.2270  1.6184  1.6043
 1942SOL    HW217463   1.123   0.456   5.256 -0.4244  0.5486 -0.7569
 1943SOL     OW17464   4.517   3.426   9.822 -0.3816  0.2095 -0.2354
 1943SOL    HW117465   4.432   3.384   9.810  0.0345 -1.7034  3.6583
 1943SOL    HW217466   4.530   3.461   9.733  0.1928 -0.1447 -0.2903
 1944SOL     OW17467   2.652   1.884   9.630 -0.0276 -0.1630 -0.4247
 1944SOL    HW117468   2.665   1.973   9.597 -1.8885 -0.1232 -1.0397
 1944SOL    HW217469   2.564   1.899   9.667  0.8836 -1.1407  2.1411
 1945SOL     OW17470   1.199   3.483  10.466  0.4763 -0.6605  0.0338
 1945SOL    HW117471   1.218   3.500  10.374 -1.8284 -0.7855 -0.4820
 1945SOL    HW217472   1.108   3.455  10.455 -0.3663  3.1940 -2.6589
 1946SOL     OW17473   0.906   3.020  16.939  0.0227  0.5857 -0.3597
 1946SOL    HW117474   0.945   3.086  16.882  0.8016  0.1427 -0.3409
 1946SOL    HW217475   0.828   3.061  16.976  1.6702  0.6207  3.0754
 1947SOL     OW17476   0.144   1.849  13.480  0.1206 -0.0862 -0.3032
 1947SOL    HW117477   0.143   1.766  13.527  1.5418 -1.2142 -2.2667
 1947SOL    HW217478   0.232   1.851  13.443 -0.3025 -0.6239 -1.3604
 1948SOL     OW17479   1.418   4.520   4.099  0.3272  0.5047  0.4599
 1948SOL    HW117480   1.470   4.545   4.024 -1.2509 -1.4335 -1.2793
 1948SOL    HW217481   1.332   4.492   4.068  0.7842  1.1631 -1.3524
 1949SOL     OW17482   0.806   4.340   7.209  0.5755 -0.1002  0.5999
 1949SOL    HW117483   0.758   4.421   7.194 -1.8942 -1.8706 -1.0191
 1949SOL    HW217484   0.778   4.315   7.296 -0.1995 -0.0658  0.3551
 1950SOL     OW17485   2.482   1.455   5.921  0.7146  0.6723  0.1373
 1950SOL    HW117486   2.568   1.448   5.879  0.3713 -1.9780 -0.1210
 1950SOL    HW217487   2.499   1.417   6.007  2.6706 -0.6030 -0.8095
 1951SOL     OW17488   0.191   1.851   4.245 -0.4866 -0.0552 -0.4884
 1951SOL    HW117489   0.263   1.799   4.211 -0.4317 -0.1938 -0.1643
 1951SOL    HW217490   0.156   1.796   4.315  0.5416 -0.9184 -0.6595
 1952SOL     OW17491   2.889   0.419   8.208 -0.2829  0.3406  0.1961
 1952SOL    HW117492   2.903   0.326   8.227  0.3431 -0.0039 -1.9991
 1952SOL    HW217493   2.799   0.424   8.176 -0.0924 -0.2136 -0.4232
 1953SOL     OW17494   4.613   4.158   3.251  0.1582 -0.0060 -0.7547
 1953SOL    HW117495   4.603   4.250   3.273  0.4258 -0.1780  0.0876
 1953SOL    HW217496   4.539   4.151   3.191 -0.6895 -0.3074  0.3387
 1954SOL     OW17497   1.828   0.619   8.439  0.0431 -0.2349  0.0214
 1954SOL    HW117498   1.848   0.713   8.435 -0.7994 -0.0900 -1.0140
 1954SOL    HW217499   1.732   0.622   8.442 -0.0492 -1.9249 -1.1176
 1955SOL     OW17500   0.591   1.810  14.192 -0.3165  0.3110 -0.4691
 1955SOL    HW117501   0.636   1.793  14.109  0.5706 -0.7345  0.2300
 1955SOL    HW217502   0.547   1.893  14.174  3.3354  2.3816  0.2064
 1956SOL     OW17503   1.446   0.258   3.063  0.0519 -0.0857 -0.0894
 1956SOL    HW117504   1.427   0.261   3.157 -0.9276  1.0177 -0.3252
 1956SOL    HW217505   1.412   0.171   3.042  0.3831 -0.6338  1.6149
 1957SOL     OW17506   0.506   1.815  11.450 -0.4696  0.2502 -0.0363
 1957SOL    HW117507   0.503   1.900  11.408  1.6666 -1.8770 -4.4861
 1957SOL    HW217508   0.472   1.846  11.534 -2.2152  0.8806 -0.9795
 1958SOL     OW17509   1.360   2.592   6.650  0.3333 -0.3966 -0.1405
 1958SOL    HW117510   1.455   2.581   6.647  0.4047 -0.0399  0.8993
 1958SOL    HW217511   1.359   2.687   6.662 -1.3404 -0.0639 -2.8334
 1959SOL     OW17512   2.126   3.891   1.716 -0.3763 -0.0339  0.4733
 1959SOL    HW117513   2.037   3.903   1.684 -0.1103  0.3870 -0.0989
 1959SOL    HW217514   2.119   3.918   1.808 -0.5503 -3.0050  1.3436
 1960SOL     OW17515   0.825   1.088   4.962  0.1882  0.3050 -0.5513
 1960SOL    HW117516   0.919   1.107   4.968  0.7602 -2.4208 -1.1832
 1960SOL    HW217517   0.783   1.173   4.979 -0.4578 -0.5329  1.9089
 1961SOL     OW17518   4.700   0.069   5.382 -0.2310  0.0259  0.5476
 1961SOL    HW117519   4.632   0.017   5.425 -0.8855 -0.9635 -1.6932
 1961SOL    HW217520   4.685   0.048   5.289  0.9151  0.6858  0.2193
 1962SOL     OW17521   1.460   0.420   2.835  0.0752 -0.3388  0.1630
 1962SOL    HW117522   1.376   0.405   2.792  0.3903 -0.3370 -0.4589
 1962SOL    HW217523   1.464   0.351   2.901  0.1188 -0.1308  0.3777
 1963SOL     OW17524   3.552   1.147   3.201  0.0312  0.4908  0.4158
 1963SOL    HW117525   3.554   1.069   3.256 -0.6613 -0.2693 -0.6461
 1963SOL    HW217526   3.536   1.126   3.109  0.6965 -1.2448  0.7059
 1964SOL     OW17527   2.066   4.498   2.459 -0.2311 -0.0475 -0.7630
 1964SOL    HW117528   2.096   4.436   2.526 -3.4479 -1.0607 -0.2516
 1964SOL    HW217529   1.974   4.506   2.484 -0.5987 -1.8946 -1.5445
 1965SOL     OW17530   4.298   0.786   2.772  0.1522  0.0277  0.6238
 1965SOL    HW117531   4.204   0.805   2.769  0.4425  0.8307 -2.8323
 1965SOL    HW217532   4.313   0.821   2.860  1.5962 -1.5228  1.0109
 1966SOL     OW17533   3.281   0.715   3.808  0.4905 -0.5221  0.0445
 1966SOL    HW117534   3.283   0.808   3.786  0.8654 -0.9327 -1.7192
 1966SOL    HW217535   3.372   0.697   3.831  1.0309 -0.6652 -2.1852
 1967SOL     OW17536   3.567   2.771  13.508  0.2913 -0.3001 -0.4916
 1967SOL    HW117537   3.614   2.798  13.587  1.5748 -0.1384 -1.3052
 1967SOL    HW217538   3.534   2.854  13.473  2.7636  0.6383 -0.5954
 1968SOL     OW17539   2.761   4.276   7.305  0.2978 -0.0023 -0.3316
 1968SOL    HW117540   2.742   4.196   7.352 -1.1216  0.7075  0.2796
 1968SOL    HW217541   2.706   4.251   7.231 -1.1913  1.0197  0.4283
 1969SOL     OW17542   2.398   1.629   5.563 -0.5548  0.2274  0.4514
 1969SOL    HW117543   2.337   1.572   5.610 -1.1664  0.8886  0.4500
 1969SOL    HW217544   2.371   1.713   5.598  0.4091  0.7111  0.0261
 1970SOL     OW17545   2.753   2.565  16.019  0.5663  0.4760  0.2723
 1970SOL    HW117546   2.790   2.529  16.099  0.4157 -2.2395 -0.8487
 1970SOL    HW217547   2.716   2.643  16.059  1.8319  2.2733 -2.0781
 1971SOL     OW17548   3.143   3.032   8.164 -0.2893  0.0524  0.0224
 1971SOL    HW117549   3.232   3.008   8.190 -0.1586  0.5987  0.0676
 1971SOL    HW217550   3.161   3.107   8.107 -2.1894  1.9042  1.8716
 1972SOL     OW17551   1.237   2.372  12.481 -0.3317  0.0736  0.1566
 1972SOL    HW117552   1.234   2.448  12.424  0.6026 -1.7799 -2.3804
 1972SOL    HW217553   1.320   2.345  12.443 -0.5534 -0.1448 -0.1766
 1973SOL     OW17554   1.484   0.066   1.164 -0.4572 -0.5873 -0.4523
 1973SOL    HW117555   1.395   0.042   1.187 -0.9368  0.9575 -0.7319
 1973SOL    HW217556   1.494   0.126   1.238  0.0464 -0.2837 -0.7604
 1974SOL     OW17557   0.148   2.752   1.308 -0.2057 -0.3433  0.0947
 1974SOL    HW117558   0.213   2.728   1.374 -1.4901 -1.3969  0.9811
 1974SOL    HW217559   0.070   2.710   1.344  0.3735  0.2125  2.0137
 1975SOL     OW17560   2.067   2.956  15.186  0.3586 -0.5912  0.6446
 1975SOL    HW117561   2.161   2.946  15.196 -0.2112 -2.2472  4.4472
 1975SOL    HW217562   2.035   2.901  15.257 -1.2234  0.2061  0.5505
 1976SOL     OW17563   2.196   3.270  15.298  0.2338 -0.0055 -0.0703
 1976SOL    HW117564   2.152   3.250  15.215  0.6482  0.6935 -0.4550
 1976SOL    HW217565   2.255   3.344  15.283  2.0813 -1.2368  1.2156
 1977SOL     OW17566   1.202   2.936   2.075 -0.4420 -0.1208  0.8638
 1977SOL    HW117567   1.261   2.869   2.038  0.1852  0.8760  0.0639
 1977SOL    HW217568   1.260   2.977   2.138  0.0573  0.0058  0.3231
 1978SOL     OW17569   0.293   0.983  15.928 -0.6062 -0.0708 -0.0025
 1978SOL    HW117570   0.297   0.928  16.006 -2.6751  0.6377  0.6251
 1978SOL    HW217571   0.292   0.918  15.858  1.5612 -2.1553  1.9097
 1979SOL     OW17572   2.975   4.193   3.957  0.9243  0.1765  0.1992
 1979SOL    HW117573   2.994   4.191   3.863 -2.7200 -0.4541 -0.5193
 1979SOL    HW217574   2.970   4.288   3.968 -2.1871  0.1952 -1.3374
 1980SOL     OW17575   3.669   1.074   8.652  0.3943  0.4599 -0.3468
 1980SOL    HW117576   3.724   1.031   8.717 -0.7938 -1.0079 -0.3232
 1980SOL    HW217577   3.628   1.149   8.696 -1.4417  0.6281 -2.3471
 1981SOL     OW17578   0.084   0.076   4.618  0.1583 -0.1121  0.3093
 1981SOL    HW117579   0.101   4.717   4.636  1.1151 -0.0058 -0.0394
 1981SOL    HW217580   0.091   0.119   4.703 -0.8249  1.3724 -0.3838
 1982SOL     OW17581   4.611   2.998  13.770 -0.2763  0.7183 -0.3542
 1982SOL    HW117582   4.605   3.038  13.857 -0.0879  1.0300 -0.4841
 1982SOL    HW217583   4.522   3.011  13.740 -1.1891 -1.8406  1.2374
 1983SOL     OW17584   2.188   2.931  14.192 -0.1359  0.5189 -0.3255
 1983SOL    HW117585   2.125   2.869  14.156  0.2542  1.0458 -1.9439
 1983SOL    HW217586   2.144   2.974  14.265  0.0629 -0.5072  0.4111
 1984SOL     OW17587   2.825   2.619   6.866  0.0967  0.0758  0.4075
 1984SOL    HW117588   2.786   2.695   6.824  2.7527  1.5787  0.6742
 1984SOL    HW217589   2.851   2.574   6.786 -3.3479 -1.8283  0.3236
 1985SOL     OW17590   0.791   4.242   3.005  0.6106 -0.3983  0.0205
 1985SOL    HW117591   0.862   4.207   2.951  0.8369  1.4116 -0.8541
 1985SOL    HW217592   0.744   4.307   2.953  2.5916  1.2158  0.2274
 1986SOL     OW17593   0.807   1.818   4.876 -0.3479  0.3524 -0.4529
 1986SOL    HW117594   0.847   1.819   4.789  0.9253  1.7276  0.1485
 1986SOL    HW217595   0.852   1.746   4.919 -1.0008  1.3715  1.9503
 1987SOL     OW17596   3.726   4.560   3.104 -0.3462  0.1037  0.0438
 1987SOL    HW117597   3.788   4.492   3.129 -0.9490 -1.1912 -2.0188
 1987SOL    HW217598   3.778   4.606   3.038 -1.7246 -2.8002 -3.0738
 1988SOL     OW17599   4.168   2.089   2.217 -0.2465 -0.4581 -0.2085
 1988SOL    HW117600   4.210   2.173   2.236  0.3242 -0.3881 -1.8279
 1988SOL    HW217601   4.175   2.097   2.122  0.7282 -0.5814 -0.1445
 1989SOL     OW17602   2.564   3.012   4.258 -0.1520 -0.1735  0.1422
 1989SOL    HW117603   2.544   2.928   4.216  3.5718 -1.5771  1.1850
 1989SOL    HW217604   2.659   3.019   4.259 -0.1554 -0.3423  2.2386
 1990SOL     OW17605   4.565   1.447   6.047 -0.0639  0.0629 -0.0641
 1990SOL    HW117606   4.605   1.423   6.130 -0.3946 -1.6723 -0.3959
 1990SOL    HW217607   4.616   1.524   6.021 -0.1383 -0.0371 -0.5066
 1991SOL     OW17608   4.339   3.324   6.302 -0.3398 -0.5629  0.5199
 1991SOL    HW117609   4.286   3.245   6.290  2.6991 -2.4142 -0.5069
 1991SOL    HW217610   4.419   3.292   6.343  0.9253  1.6464 -0.2535
 1992SOL     OW17611   2.793   2.316   6.375 -0.6161 -0.1691 -0.0196
 1992SOL    HW117612   2.728   2.386   6.370 -0.3254  0.0292 -1.0579
 1992SOL    HW217613   2.747   2.246   6.329  2.3510 -2.1231 -0.0280
 1993SOL     OW17614   0.169   3.246  11.132  0.4271  0.1596  0.0057
 1993SOL    HW117615   0.096   3.278  11.184 -1.3943 -0.6553 -2.0235
 1993SOL    HW217616   0.200   3.335  11.116  2.5624 -0.1783  2.2241
 1994SOL     OW17617   0.380   1.770   1.123 -0.3479  0.5239  0.3685
 1994SOL    HW117618   0.408   1.759   1.214 -0.2028 -0.3649  0.2194
 1994SOL    HW217619   0.401   1.863   1.116 -2.4104  1.0243  0.6209
 1995SOL     OW17620   3.462   1.940   2.992  0.0246 -0.4733 -0.9371
 1995SOL    HW117621   3.387   1.984   3.034 -0.1803 -0.6015 -1.1670
 1995SOL    HW217622   3.449   1.848   3.012 -1.8065 -0.5119 -2.3071
 1996SOL     OW17623   0.070   2.798   8.109  0.5720  0.4484  0.3357
 1996SOL    HW117624   0.080   2.843   8.025 -0.6392 -1.6371 -0.9226
 1996SOL    HW217625   0.112   2.713   8.093 -0.5581  0.1648 -1.1140
 1997SOL     OW17626   1.531   2.023   8.825 -0.6758 -0.5799 -0.4038
 1997SOL    HW117627   1.473   2.098   8.810 -1.0510 -0.5619  1.0728
 1997SOL    HW217628   1.461   1.981   8.876 -0.1007  0.1842  1.0348
 1998SOL     OW17629   1.642   2.498   9.141  0.4332  0.4401  0.3935
 1998SOL    HW117630   1.616   2.434   9.207  0.8635 -0.3869 -0.2437
 1998SOL    HW217631   1.638   2.434   9.070 -1.2179  0.7747  0.1843
 1999SOL     OW17632   1.288   3.255   4.884  0.6551 -0.3179 -0.8292
 1999SOL    HW117633   1.230   3.323   4.919 -1.8037 -2.7129 -0.2389
 1999SOL    HW217634   1.283   3.194   4.957  1.0004 -1.2011 -1.5530
 2000SOL     OW17635   2.524   4.047  15.228  0.1188 -0.1194 -0.1616
 2000SOL    HW117636   2.468   4.032  15.151 -1.1128 -1.0627  0.9068
 2000SOL    HW217637   2.578   3.968  15.237 -1.9749 -1.7430 -1.6746
 2001SOL     OW17638   4.407   2.983   9.569 -0.0733 -0.6399 -0.3137
 2001SOL    HW117639   4.450   3.053   9.520  0.8219 -0.5446  0.6110
 2001SOL    HW217640   4.440   2.907   9.521  1.6108 -0.9396  1.2869
 2002SOL     OW17641   1.713   2.847  13.060 -0.4172 -0.1772  0.8054
 2002SOL    HW117642   1.730   2.761  13.021 -0.1088  0.0857  0.3638
 2002SOL    HW217643   1.782   2.864  13.124 -0.6517  0.5855  0.8525
 2003SOL     OW17644   3.016   4.530   1.707  0.1587  0.1733 -0.5120
 2003SOL    HW117645   3.065   4.551   1.628  3.1226 -2.1892  0.7012
 2003SOL    HW217646   2.940   4.506   1.654  0.5064 -0.0491 -0.9009
 2004SOL     OW17647   2.740   0.764   9.801  0.0140 -0.3951  0.1282
 2004SOL    HW117648   2.777   0.682   9.766 -1.9828 -0.9996 -0.5768
 2004SOL    HW217649   2.682   0.796   9.732 -0.1851 -3.0296 -0.9301
 2005SOL     OW17650   2.297   0.594   4.621 -0.2618 -0.0943  0.3149
 2005SOL    HW117651   2.369   0.556   4.571  1.2574  3.2531  0.0085
 2005SOL    HW217652   2.234   0.522   4.615 -1.9904  1.5020 -0.5073
 2006SOL     OW17653   2.613   2.648   7.667 -0.2372 -0.7563 -0.0950
 2006SOL    HW117654   2.548   2.704   7.709  0.9360  0.9838 -0.6073
 2006SOL    HW217655   2.689   2.668   7.721 -0.5034 -0.8139  0.2996
 2007SOL     OW17656   2.424   1.214  16.076  0.0356 -0.3383  0.1036
 2007SOL    HW117657   2.433   1.281  16.009  2.3486 -0.1688  0.5840
 2007SOL    HW217658   2.334   1.181  16.067 -0.0803  0.3284 -1.0714
 2008SOL     OW17659   0.402   4.144   1.875 -0.4363  0.2823 -0.7170
 2008SOL    HW117660   0.351   4.114   1.950  2.0725 -0.2202  0.7970
 2008SOL    HW217661   0.343   4.209   1.835  0.5975  0.4161 -2.0167
 2009SOL     OW17662   2.892   4.506   0.432 -0.3784 -0.4306 -0.3939
 2009SOL    HW117663   2.814   4.470   0.390  0.7436 -1.9893 -1.1580
 2009SOL    HW217664   2.938   4.422   0.439 -0.2714 -0.4172 -0.9248
 2010SOL     OW17665   3.918   4.656   2.231 -0.7216  0.4950  0.4981
 2010SOL    HW117666   3.939   4.717   2.302 -0.1270  1.5299 -0.5635
 2010SOL    HW217667   3.942   4.713   2.158 -0.1568 -1.3188 -0.7349
 2011SOL     OW17668   0.087   1.221   9.802 -0.2412 -0.1363 -0.3995
 2011SOL    HW117669   0.096   1.176   9.886 -0.1648 -2.1742 -1.4911
 2011SOL    HW217670   0.172   1.264   9.811 -0.0030 -0.7077  0.1871
 2012SOL     OW17671   2.546   4.518   9.991 -0.3968 -0.2677  0.1355
 2012SOL    HW117672   2.472   4.572   9.964  0.1874  0.1422 -0.6668
 2012SOL    HW217673   2.511   4.431  10.009 -0.1073 -0.9588 -2.5922
 2013SOL     OW17674   3.792   0.202   7.634  0.0083 -0.1416  0.0064
 2013SOL    HW117675   3.788   0.163   7.546  0.4649 -1.7156  0.6912
 2013SOL    HW217676   3.719   0.264   7.630 -0.9413 -1.1620  1.3544
 2014SOL     OW17677   2.072   3.425   9.173 -0.2961 -0.2039  0.1671
 2014SOL    HW117678   2.076   3.337   9.209 -0.5530  0.6759  2.3438
 2014SOL    HW217679   2.069   3.408   9.079  1.4752 -0.8574  0.2180
 2015SOL     OW17680   1.841   3.459   7.173 -0.5468 -0.6176 -0.1708
 2015SOL    HW117681   1.780   3.471   7.100 -0.0903 -0.0530 -0.4575
 2015SOL    HW217682   1.862   3.548   7.201 -1.2105 -1.0719  1.7786
 2016SOL     OW17683   0.065   0.273   8.643 -0.9932  0.5773  0.1052
 2016SOL    HW117684   0.069   0.366   8.622 -3.6122  0.3961 -1.2054
 2016SOL    HW217685   4.709   0.245   8.630 -0.4626 -0.7070 -0.7670
 2017SOL     OW17686   0.366   1.959  17.588  0.0387 -0.0136  0.4465
 2017SOL    HW117687   0.412   1.997  17.513 -0.5822 -0.5423 -0.2007
 2017SOL    HW217688   0.336   2.038  17.632  0.6089 -0.4720  1.6864
 2018SOL     OW17689   1.725   4.626   4.308  0.1546  0.5315 -0.0701
 2018SOL    HW117690   1.738   4.611   4.214 -0.2064  0.8511 -0.1693
 2018SOL    HW217691   1.738   4.540   4.348 -0.7381 -0.6890 -2.3545
 2019SOL     OW17692   0.988   3.469   4.958 -0.5444 -0.5399 -0.1901
 2019SOL    HW117693   0.953   3.512   5.036 -2.4699 -2.2581 -0.0915
 2019SOL    HW217694   0.927   3.511   4.898  3.7219  1.6905 -2.9191
 2020SOL     OW17695   1.462   1.932  12.132 -0.4981  0.1176  0.2751
 2020SOL    HW117696   1.441   2.020  12.100 -0.5810  0.1778  0.4985
 2020SOL    HW217697   1.552   1.948  12.160 -0.9696  1.7757  0.8352
 2021SOL     OW17698   1.588   1.662   3.894 -0.5918 -0.2290  0.0063
 2021SOL    HW117699   1.549   1.638   3.810 -1.6107  1.2338  0.0447
 2021SOL    HW217700   1.523   1.626   3.955  2.0989 -0.6719  2.6048
 2022SOL     OW17701   4.436   3.151  14.646 -0.1447 -0.7371 -0.2775
 2022SOL    HW117702   4.465   3.235  14.682 -0.9047 -0.8148  0.5043
 2022SOL    HW217703   4.341   3.148  14.657  0.1702 -2.6148  1.8512
 2023SOL     OW17704   0.233   0.634   4.943 -0.7712  0.2037 -0.0954
 2023SOL    HW117705   0.179   0.691   4.999 -2.3489 -1.8586  0.4671
 2023SOL    HW217706   0.226   0.681   4.860 -0.3599 -0.0904 -0.2921
 2024SOL     OW17707   2.634   2.157   9.524  0.1284  0.1072 -0.2562
 2024SOL    HW117708   2.725   2.148   9.496  0.3202 -0.3755  0.5391
 2024SOL    HW217709   2.592   2.193   9.446  0.6495  0.8106 -0.2157
 2025SOL     OW17710   1.979   0.003   9.290 -0.3022  0.0383  0.5178
 2025SOL    HW117711   2.035   4.669   9.327  0.1454  0.3242  0.3682
 2025SOL    HW217712   1.921   0.013   9.365  1.4380  1.3003  1.7049
 2026SOL     OW17713   4.129   2.635  14.981  0.1897  0.7785  0.0138
 2026SOL    HW117714   4.104   2.610  14.892  0.8499 -0.9465  0.3099
 2026SOL    HW217715   4.061   2.702  14.988  0.9635  1.4656  0.9633
 2027SOL     OW17716   1.212   3.990  11.958 -0.0928  0.4715  0.4658
 2027SOL    HW117717   1.186   3.949  11.875  1.2256 -0.0251  0.2898
 2027SOL    HW217718   1.259   3.920  12.003  0.6155  2.0204  2.1185
 2028SOL     OW17719   0.437   2.398   6.308 -0.1791 -0.2531 -0.1061
 2028SOL    HW117720   0.512   2.434   6.260  0.8737 -2.1508  0.0971
 2028SOL    HW217721   0.397   2.345   6.240 -1.4681  0.7198 -0.0976
 2029SOL     OW17722   1.340   4.617   5.407  0.0353  0.0859 -0.4057
 2029SOL    HW117723   1.372   4.560   5.477  0.3507 -2.0680 -2.2906
 2029SOL    HW217724   1.269   4.565   5.369 -0.0411 -0.7719  0.9157
 2030SOL     OW17725   4.229   4.091   2.280 -0.7797 -0.1381 -0.1207
 2030SOL    HW117726   4.177   4.125   2.207 -0.5414 -1.9645 -1.1193
 2030SOL    HW217727   4.178   4.011   2.291  1.8031 -1.7122  0.2927
 2031SOL     OW17728   3.719   3.683  13.069 -0.7604 -0.0686  0.1708
 2031SOL    HW117729   3.708   3.646  12.981 -0.8469  0.4976 -0.0565
 2031SOL    HW217730   3.657   3.756  13.061 -0.9577 -0.5165 -2.2747
 2032SOL     OW17731   0.829   0.856   2.368 -0.0644  0.0267 -0.1077
 2032SOL    HW117732   0.817   0.829   2.459 -1.9255 -0.9240 -0.6462
 2032SOL    HW217733   0.794   0.779   2.323 -0.2058  0.6293 -1.0405
 2033SOL     OW17734   1.560   0.845   5.598  0.5876 -0.5113 -0.1197
 2033SOL    HW117735   1.655   0.844   5.610  0.4927  2.3129  0.9199
 2033SOL    HW217736   1.534   0.848   5.690  2.6946 -1.8527  0.5275
 2034SOL     OW17737   4.572   0.470   6.966  0.1706 -0.0017  0.0866
 2034SOL    HW117738   4.526   0.446   6.886 -0.1504  1.2783 -0.1124
 2034SOL    HW217739   4.594   0.384   7.002  1.8460 -0.3485 -1.8029
 2035SOL     OW17740   4.435   4.091   1.621  0.0745 -0.3410  0.4942
 2035SOL    HW117741   4.342   4.077   1.603  0.5436 -1.2341 -1.2493
 2035SOL    HW217742   4.465   4.047   1.542 -1.2646  1.0028 -0.7744
 2036SOL     OW17743   0.728   0.406   8.633 -0.7823 -0.1916 -0.0150
 2036SOL    HW117744   0.638   0.437   8.644 -1.1514 -1.3660  0.2303
 2036SOL    HW217745   0.725   0.359   8.549  2.5707  0.0738 -0.2972
 2037SOL     OW17746   2.436   0.127  14.600  0.1693  0.1645  0.2968
 2037SOL    HW117747   2.413   0.162  14.514 -2.7503 -0.8640  0.6661
 2037SOL    HW217748   2.364   0.065  14.610 -0.6272  0.6491 -2.3141
 2038SOL     OW17749   4.649   2.703  11.321 -0.7722  0.1613 -0.1155
 2038SOL    HW117750   4.631   2.769  11.388  3.2760  1.7387 -0.5908
 2038SOL    HW217751   4.692   2.756  11.254 -0.8961  1.0548  0.5058
 2039SOL     OW17752   1.843   4.352   4.742 -1.2338 -0.7056  0.5421
 2039SOL    HW117753   1.880   4.266   4.760  0.3767 -0.4785 -1.6585
 2039SOL    HW217754   1.773   4.326   4.682  0.4838 -0.4454 -1.5800
 2040SOL     OW17755   0.558   3.280  13.880 -0.4330  0.1227  0.0882
 2040SOL    HW117756   0.543   3.357  13.934 -0.8262  1.3187 -1.7222
 2040SOL    HW217757   0.576   3.210  13.942  0.2020 -0.3911 -0.6693
 2041SOL     OW17758   3.509   0.404  16.552  0.0596  0.3094  0.4162
 2041SOL    HW117759   3.546   0.485  16.588  3.0312 -1.2966  0.9502
 2041SOL    HW217760   3.530   0.411  16.459 -0.0734 -2.5961  0.1696
 2042SOL     OW17761   0.913   2.221   6.255 -0.1367 -0.1375  0.2777
 2042SOL    HW117762   0.873   2.227   6.342 -0.8612  2.8720 -0.2577
 2042SOL    HW217763   0.895   2.131   6.230 -3.4585  1.1687 -2.0633
 2043SOL     OW17764   1.449   4.729  11.453 -0.5216 -0.3147  0.3262
 2043SOL    HW117765   1.507   0.006  11.377 -0.3162 -2.7348  0.1463
 2043SOL    HW217766   1.377   0.052  11.427 -0.8114  0.5037  2.8916
 2044SOL     OW17767   2.749   1.197   7.689  0.4338  0.1810 -0.1845
 2044SOL    HW117768   2.782   1.275   7.735 -0.5034  1.3663 -1.5403
 2044SOL    HW217769   2.824   1.149   7.653  1.1578  1.0701  0.1472
 2045SOL     OW17770   2.322   3.874   5.110  0.2972  0.0341  0.1838
 2045SOL    HW117771   2.406   3.844   5.076  0.5499  0.8421  0.1034
 2045SOL    HW217772   2.350   3.881   5.201 -1.5388  1.3838  0.6570
 2046SOL     OW17773   4.019   2.315  12.145  0.0522 -0.2389 -0.0109
 2046SOL    HW117774   4.031   2.221  12.158  2.1354  0.1815  0.9793
 2046SOL    HW217775   4.084   2.348  12.207 -0.7120 -2.1961  1.8301
 2047SOL     OW17776   2.964   4.039   5.536 -0.4262 -0.0413 -0.3490
 2047SOL    HW117777   2.939   4.091   5.612 -0.6324 -1.7671  0.7598
 2047SOL    HW217778   2.913   3.959   5.549 -0.5862 -0.3783 -3.1295
 2048SOL     OW17779   2.139   2.238   5.489 -0.0264 -0.0182 -0.5536
 2048SOL    HW117780   2.112   2.315   5.539  0.1119  1.3339 -2.5535
 2048SOL    HW217781   2.121   2.174   5.558  0.1617  0.9411  0.3775
 2049SOL     OW17782   1.164   0.097  15.440  0.1679 -0.5158 -0.5616
 2049SOL    HW117783   1.117   0.057  15.514 -1.0554 -0.2004 -1.1577
 2049SOL    HW217784   1.095   0.134  15.384 -0.6126 -0.7371  0.2371
 2050SOL     OW17785   2.792   4.136   5.333  0.0353  0.1990 -0.2383
 2050SOL    HW117786   2.884   4.156   5.352 -0.6230  1.9655  1.1408
 2050SOL    HW217787   2.812   4.047   5.306 -0.3343 -0.2242  0.8729
 2051SOL     OW17788   4.518   2.537   8.260 -0.1825  0.3781 -0.1079
 2051SOL    HW117789   4.527   2.463   8.200  2.2686 -0.2763  1.0626
 2051SOL    HW217790   4.602   2.529   8.306 -0.8207  0.2626  1.0244
 2052SOL     OW17791   3.514   3.447   2.461 -0.1643  0.7106 -0.0448
 2052SOL    HW117792   3.473   3.494   2.533 -0.0121  0.8538 -0.0513
 2052SOL    HW217793   3.500   3.506   2.387  0.6213  3.1302  1.7560
 2053SOL     OW17794   3.965   0.329   7.906 -0.6221  0.2597  0.0287
 2053SOL    HW117795   3.935   0.393   7.841 -0.0078  1.2269  0.6986
 2053SOL    HW217796   3.881   0.307   7.947 -1.4048 -2.3553 -3.0135
 2054SOL     OW17797   2.663   3.544   4.524 -0.1824  0.3489  0.0196
 2054SOL    HW117798   2.667   3.454   4.492  0.4693 -0.2495  1.7455
 2054SOL    HW217799   2.684   3.598   4.448  0.6735 -1.0673 -0.7563
 2055SOL     OW17800   1.365   2.764   4.424  0.4921  0.4772 -0.1975
 2055SOL    HW117801   1.303   2.815   4.475  0.7667  0.5984  0.0169
 2055SOL    HW217802   1.309   2.705   4.373  0.9238  1.7650 -2.1608
 2056SOL     OW17803   0.701   0.589   2.349 -0.0904 -0.3955  0.3369
 2056SOL    HW117804   0.709   0.547   2.435  0.0217  1.9246  1.4571
 2056SOL    HW217805   0.649   0.527   2.299 -0.1255 -0.6540  0.6934
 2057SOL     OW17806   3.562   0.565  12.060  0.0592 -0.1908  0.0543
 2057SOL    HW117807   3.582   0.620  12.136 -0.1536  0.5994 -0.4646
 2057SOL    HW217808   3.541   0.478  12.093 -0.4815  0.1719  0.6655
 2058SOL     OW17809   0.403   1.962   8.662  0.1985  0.2390  0.1871
 2058SOL    HW117810   0.328   1.937   8.608  0.2248 -2.8835  1.6053
 2058SOL    HW217811   0.372   1.944   8.751 -0.3916 -0.4652 -0.1736
 2059SOL     OW17812   1.338   0.185   4.413  0.4396  0.1420  0.3775
 2059SOL    HW117813   1.374   0.191   4.502 -0.9642  1.0918  0.8771
 2059SOL    HW217814   1.380   0.104   4.384  0.5056  0.3511 -0.1000
 2060SOL     OW17815   0.286   3.517  15.630 -0.1727  0.3297 -0.0360
 2060SOL    HW117816   0.196   3.492  15.612  0.8727 -2.5661 -1.2938
 2060SOL    HW217817   0.318   3.428  15.650  0.4063  0.4149 -0.5683
 2061SOL     OW17818   0.822   1.756   7.847  0.1635  0.5011 -0.1391
 2061SOL    HW117819   0.860   1.732   7.932 -2.1126 -1.2733  0.3875
 2061SOL    HW217820   0.754   1.817   7.877  1.6682  1.0472  2.1267
 2062SOL     OW17821   3.040   0.124   0.311 -0.1531  0.1054 -0.0040
 2062SOL    HW117822   3.088   0.109   0.230  0.6320 -0.1008  0.4932
 2062SOL    HW217823   3.016   0.217   0.309 -0.4902  0.0347  0.6130
 2063SOL     OW17824   2.157   3.363   2.440  0.2637 -0.0265  0.4482
 2063SOL    HW117825   2.185   3.428   2.505 -0.0887 -0.1823  0.7526
 2063SOL    HW217826   2.079   3.330   2.484  0.9628 -2.3912 -0.0902
 2064SOL     OW17827   0.153   3.227   2.160  0.7218  0.3033 -0.5434
 2064SOL    HW117828   0.098   3.262   2.090 -0.6447  2.1657  1.4936
 2064SOL    HW217829   0.082   3.215   2.224 -1.1304  1.8039 -2.3367
 2065SOL     OW17830   4.442   0.380   5.858 -0.1468  0.4645  0.0146
 2065SOL    HW117831   4.533   0.395   5.886 -0.7529 -0.7094  2.5568
 2065SOL    HW217832   4.393   0.430   5.924  1.6873 -1.0521  2.5401
 2066SOL     OW17833   4.049   3.381   0.307 -0.7469 -0.7707 -0.2362
 2066SOL    HW117834   4.006   3.424   0.233  2.2005  0.1672 -1.3686
 2066SOL    HW217835   4.109   3.444   0.346 -1.4748 -0.7709  0.9065
 2067SOL     OW17836   3.934   1.393   4.431 -0.0063 -0.2437  0.1269
 2067SOL    HW117837   3.867   1.339   4.473  0.9447 -0.0168  1.9530
 2067SOL    HW217838   3.974   1.437   4.506  0.6309 -0.2132 -0.2301
 2068SOL     OW17839   1.201   3.713   8.122  0.0155 -0.1314 -0.0659
 2068SOL    HW117840   1.217   3.627   8.085  1.5845  0.1337 -0.0024
 2068SOL    HW217841   1.274   3.763   8.087 -1.9175  1.6633 -1.5484
 2069SOL     OW17842   3.308   1.504   5.475  0.1803  0.2438 -0.1262
 2069SOL    HW117843   3.356   1.506   5.558 -0.2421  1.3416  0.0960
 2069SOL    HW217844   3.343   1.576   5.422  3.4028  0.3825  2.1298
 2070SOL     OW17845   1.749   2.781   4.974 -0.0241 -0.6452 -0.2615
 2070SOL    HW117846   1.657   2.782   4.947  0.0527  2.0769 -0.4578
 2070SOL    HW217847   1.790   2.744   4.896 -0.3502  1.4485 -1.4198
 2071SOL     OW17848   1.710   4.583   2.828  0.1154 -0.1094 -0.6232
 2071SOL    HW117849   1.698   4.526   2.904  0.1251  0.1293 -0.4440
 2071SOL    HW217850   1.747   4.663   2.866 -0.0952  0.6417 -1.9755
 2072SOL     OW17851   1.167   0.808   3.009  0.3119 -0.0301  0.4732
 2072SOL    HW117852   1.235   0.871   2.985  0.5512 -0.7429 -0.7160
 2072SOL    HW217853   1.088   0.862   3.011  0.4938  0.2348  0.5058
 2073SOL     OW17854   1.372   2.109   3.785 -0.1521 -0.4546  0.1876
 2073SOL    HW117855   1.441   2.054   3.823  1.2877  0.2585 -1.4109
 2073SOL    HW217856   1.299   2.088   3.843  0.6802  1.5014  1.9437
 2074SOL     OW17857   1.945   2.615   7.374  0.2130  0.0130 -0.4787
 2074SOL    HW117858   1.947   2.534   7.424  1.9592 -0.0861 -0.7300
 2074SOL    HW217859   1.979   2.667   7.447 -0.7654  0.3668 -0.2733
 2075SOL     OW17860   1.454   1.551   5.421  0.1337  0.4283  0.1383
 2075SOL    HW117861   1.465   1.503   5.503 -1.2054  0.5503  0.3852
 2075SOL    HW217862   1.384   1.499   5.381 -0.3631  0.7666  0.5655
 2076SOL     OW17863   2.036   0.697  13.743  0.3167  0.2664  0.0093
 2076SOL    HW117864   1.947   0.661  13.736  0.6431 -0.2380 -1.5995
 2076SOL    HW217865   2.046   0.766  13.677  0.7070 -1.3606 -1.6278
 2077SOL     OW17866   1.461   1.897   3.547 -0.4877 -0.0675 -0.0607
 2077SOL    HW117867   1.400   1.836   3.589 -0.4664  0.2389  0.4120
 2077SOL    HW217868   1.509   1.935   3.620  1.4912  0.1937 -1.4850
 2078SOL     OW17869   2.280   0.673   2.580 -0.0139 -0.0786 -0.0493
 2078SOL    HW117870   2.340   0.748   2.573  1.4435 -1.1758  0.6775
 2078SOL    HW217871   2.206   0.710   2.628 -0.5846 -0.3419 -0.7276
 2079SOL     OW17872   3.548   1.872   8.285 -0.7926  0.2224  0.2967
 2079SOL    HW117873   3.458   1.867   8.316 -0.4667 -1.6767  0.9426
 2079SOL    HW217874   3.548   1.925   8.205  0.2827 -0.3918 -0.1110
 2080SOL     OW17875   3.715   3.872   3.646 -0.2766 -0.4910 -0.1976
 2080SOL    HW117876   3.687   3.893   3.557 -1.5696  0.0404  0.3140
 2080SOL    HW217877   3.646   3.809   3.669  0.1918 -1.5932 -1.8568
 2081SOL     OW17878   3.934   0.790  12.501 -0.0599 -0.3755  0.0060
 2081SOL    HW117879   3.891   0.705  12.508  1.5410 -1.1385  0.5668
 2081SOL    HW217880   4.012   0.771  12.449  0.0695  0.7447 -0.1982
 2082SOL     OW17881   0.699   2.283   9.297  0.0946 -0.2529  0.2612
 2082SOL    HW117882   0.661   2.221   9.360  0.0871  0.5084  1.0132
 2082SOL    HW217883   0.746   2.336   9.362  0.0365 -1.0288  0.9274
 2083SOL     OW17884   2.612   2.168   6.243  0.0169 -0.1742 -0.1978
 2083SOL    HW117885   2.592   2.221   6.165  0.4462 -2.2603 -1.7276
 2083SOL    HW217886   2.632   2.080   6.213  0.3051  0.2640 -1.3045
 2084SOL     OW17887   4.519   1.039   3.428  0.2216  0.1136  0.2831
 2084SOL    HW117888   4.425   1.052   3.410  0.1247 -0.4599  0.3885
 2084SOL    HW217889   4.512   1.026   3.523 -0.4148 -1.4555  0.0133
 2085SOL     OW17890   4.362   1.468   2.891  0.4307 -0.2013 -0.2698
 2085SOL    HW117891   4.388   1.501   2.805  0.2629 -2.4015 -1.1570
 2085SOL    HW217892   4.310   1.389   2.876 -2.3845  1.5517  0.2222
 2086SOL     OW17893   4.474   0.908   3.664  0.1899  0.3470  0.2706
 2086SOL    HW117894   4.424   0.850   3.607 -1.7430 -0.2911  2.6002
 2086SOL    HW217895   4.537   0.840   3.689  0.2227  0.7837  1.3760
 2087SOL     OW17896   3.904   1.088  13.848  0.4939  0.1709  0.1408
 2087SOL    HW117897   3.922   1.008  13.798 -0.5238 -0.4609  0.7661
 2087SOL    HW217898   3.926   1.154  13.783  0.0863  1.6139  1.4691
 2088SOL     OW17899   4.345   3.959  16.531 -0.1066 -0.0595 -0.7776
 2088SOL    HW117900   4.280   3.890  16.543  0.3280 -0.0103  1.8662
 2088SOL    HW217901   4.313   4.028  16.589  2.6351 -0.2695  0.9703
 2089SOL     OW17902   0.282   3.519   8.051 -0.6087 -0.1755  0.1358
 2089SOL    HW117903   0.297   3.426   8.033  1.9794  0.5963 -1.7946
 2089SOL    HW217904   0.311   3.515   8.142 -2.4319 -0.0590  0.7060
 2090SOL     OW17905   1.828   1.399   8.464 -0.2440 -0.0546 -0.2059
 2090SOL    HW117906   1.815   1.352   8.381  0.9778  0.4179 -0.6682
 2090SOL    HW217907   1.894   1.342   8.504  2.0686  2.4202 -0.4868
 2091SOL     OW17908   4.272   2.142   1.231 -0.8110 -0.1560  0.3134
 2091SOL    HW117909   4.189   2.189   1.218 -0.5147 -0.1075 -1.4382
 2091SOL    HW217910   4.333   2.180   1.167  1.3944 -0.3841  2.2991
 2092SOL     OW17911   4.050   2.600  10.390  0.6877  0.2480 -0.4206
 2092SOL    HW117912   3.964   2.626  10.424  0.6447  1.6452 -1.5872
 2092SOL    HW217913   4.083   2.560  10.470  0.2277  0.4166 -0.1461
 2093SOL     OW17914   2.934   4.367  17.290 -0.1282  0.2880  0.2321
 2093SOL    HW117915   2.898   4.454  17.310 -1.4841 -0.8086  2.5569
 2093SOL    HW217916   2.886   4.350  17.209  0.7873 -1.2857  0.0237
 2094SOL     OW17917   1.616   2.688   3.029  0.0512  0.1288 -0.1361
 2094SOL    HW117918   1.545   2.746   3.001  0.8408  0.0585 -2.2369
 2094SOL    HW217919   1.578   2.656   3.111 -0.1330  1.9526  0.4981
 2095SOL     OW17920   1.609   4.027   2.711  0.1268 -0.7436  0.4765
 2095SOL    HW117921   1.647   4.112   2.734  0.5665 -1.4699  2.3604
 2095SOL    HW217922   1.658   3.971   2.771  0.4761 -2.1857 -1.1460
 2096SOL     OW17923   1.625   2.910   6.854  0.3370  0.1887 -0.1724
 2096SOL    HW117924   1.711   2.869   6.867 -0.2943 -1.7902 -2.2902
 2096SOL    HW217925   1.580   2.838   6.811  0.0370  0.4464 -0.2897
 2097SOL     OW17926   0.426   1.028   4.997 -0.5646 -0.3019  0.1031
 2097SOL    HW117927   0.473   1.077   4.930 -0.8788 -0.8187 -0.4944
 2097SOL    HW217928   0.382   0.965   4.940 -0.4607  0.1914 -0.5212
 2098SOL     OW17929   0.174   2.658   1.050 -0.0102  0.2692 -0.1267
 2098SOL    HW117930   0.136   2.575   1.078 -2.7240  1.3421 -0.6468
 2098SOL    HW217931   0.159   2.708   1.131  1.9835  0.0508  0.3975
 2099SOL     OW17932   0.342   0.084   9.544  0.7274  0.3413  0.1749
 2099SOL    HW117933   0.280   0.115   9.610 -1.1640 -2.3940 -0.2909
 2099SOL    HW217934   0.351   0.160   9.487 -0.1309 -0.8497 -1.5839
 2100SOL     OW17935   1.914   0.119   5.284 -0.4560  0.7249 -0.1032
 2100SOL    HW117936   1.926   0.118   5.189 -1.0989  1.3245 -0.1913
 2100SOL    HW217937   1.835   0.174   5.288 -1.3886 -0.6472  0.5075
 2101SOL     OW17938   3.779   4.705  15.378 -0.2040  0.1373 -0.8351
 2101SOL    HW117939   3.721   0.028  15.328 -1.8121 -0.8312 -0.1185
 2101SOL    HW217940   3.715   4.637  15.403  1.0448 -1.0605 -0.9165
 2102SOL     OW17941   1.044   1.217  12.612 -0.1459 -0.4154 -0.2293
 2102SOL    HW117942   1.031   1.252  12.523  0.5542  0.4081 -0.0171
 2102SOL    HW217943   0.955   1.182  12.612 -0.7917  1.2114  1.1557
 2103SOL     OW17944   1.278   1.750   5.524  0.2373  0.5584 -0.1603
 2103SOL    HW117945   1.323   1.676   5.484  0.2974  0.0705  0.8024
 2103SOL    HW217946   1.289   1.811   5.452  0.4883  0.4554 -0.2087
 2104SOL     OW17947   0.737   0.691   0.443 -0.0674 -0.1619 -0.3744
 2104SOL    HW117948   0.787   0.610   0.449  0.4360  0.2837  1.4562
 2104SOL    HW217949   0.741   0.713   0.350  0.7420 -2.2626 -0.8370
 2105SOL     OW17950   4.238   0.984   3.437 -0.3416  0.2712  0.2634
 2105SOL    HW117951   4.260   0.894   3.463  0.4400 -0.0634 -1.5035
 2105SOL    HW217952   4.149   0.961   3.411 -1.4688  2.2082  2.4240
 2106SOL     OW17953   3.768   4.395  10.371 -0.1453  0.3509 -0.5138
 2106SOL    HW117954   3.762   4.358  10.283 -1.5652 -1.5389  0.3928
 2106SOL    HW217955   3.861   4.416  10.362  0.1027  0.8045  3.3230
 2107SOL     OW17956   3.875   3.664   4.556  0.1572  0.0491  0.6203
 2107SOL    HW117957   3.903   3.755   4.569 -0.8734  0.3847  0.5382
 2107SOL    HW217958   3.954   3.616   4.533 -0.0138 -0.4590  1.1109
 2108SOL     OW17959   4.556   3.264  10.548 -0.4097  0.0347 -0.6001
 2108SOL    HW117960   4.483   3.270  10.485  0.9804 -0.4610 -2.2618
 2108SOL    HW217961   4.575   3.170  10.554  0.1286  0.1874 -0.0029
 2109SOL     OW17962   1.433   1.506   0.245  0.0747 -0.2628 -0.4094
 2109SOL    HW117963   1.495   1.446   0.203 -1.0974 -2.4750  0.9888
 2109SOL    HW217964   1.371   1.447   0.289 -0.5195  2.1322  1.9488
 2110SOL     OW17965   4.487   3.476   3.619 -0.3368  0.3019 -0.1903
 2110SOL    HW117966   4.464   3.567   3.598 -0.9715  0.0560 -0.5794
 2110SOL    HW217967   4.555   3.458   3.555 -0.8264 -0.3359 -0.5313
 2111SOL     OW17968   1.100   1.071   7.631 -0.4080  0.0379  0.2614
 2111SOL    HW117969   1.116   1.164   7.645  2.6189 -0.2425 -1.3887
 2111SOL    HW217970   1.187   1.032   7.635  0.0761  0.7008 -3.8362
 2112SOL     OW17971   0.458   0.065   7.001  0.3068  0.1622  0.8469
 2112SOL    HW117972   0.529   0.063   6.937 -0.6411  0.5124 -0.2250
 2112SOL    HW217973   0.454   4.703   7.006 -1.1169  0.3948  3.8996
 2113SOL     OW17974   2.706   3.439  16.507  0.5135  0.1424  0.0541
 2113SOL    HW117975   2.662   3.402  16.430 -0.5131 -2.2443  1.7776
 2113SOL    HW217976   2.740   3.515  16.459 -0.2412  1.2587  1.3074
 2114SOL     OW17977   0.381   0.481  15.805  0.0224  0.7111  0.6085
 2114SOL    HW117978   0.333   0.512  15.728  0.5077 -1.2106 -0.4845
 2114SOL    HW217979   0.328   0.510  15.879 -1.4662  2.1619 -1.0134
 2115SOL     OW17980   4.698   1.968  13.630 -0.0966 -0.3876  0.1916
 2115SOL    HW117981   0.026   1.925  13.571  0.1763  0.0279  0.1766
 2115SOL    HW217982   0.015   2.037  13.673 -0.2298 -0.7943  1.0012
 2116SOL     OW17983   1.653   1.874   5.244 -0.0291  0.3822  0.5545
 2116SOL    HW117984   1.697   1.935   5.302 -2.5478 -0.2776  3.1287
 2116SOL    HW217985   1.599   1.929   5.187  0.9475  0.4897 -0.2652
 2117SOL     OW17986   0.600   1.346   6.050 -0.1396  0.0461 -0.2987
 2117SOL    HW117987   0.576   1.306   6.134  1.0942  1.3570  0.6751
 2117SOL    HW217988   0.516   1.326   6.010  0.0225  1.5876 -1.3915
 2118SOL     OW17989   4.654   1.153  16.934 -0.1361 -0.8026  0.2600
 2118SOL    HW117990   0.003   1.113  16.960 -0.5523 -0.0799  2.7663
 2118SOL    HW217991   4.664   1.246  16.955 -0.2029 -0.5388 -0.9280
 2119SOL     OW17992   2.666   3.171   4.680  0.2513  0.3308 -0.3544
 2119SOL    HW117993   2.705   3.182   4.767 -3.4196 -1.0995  1.4736
 2119SOL    HW217994   2.740   3.165   4.619 -0.3503  0.8491 -1.1438
 2120SOL     OW17995   0.727   1.682   7.362 -0.0319 -0.0241 -0.2276
 2120SOL    HW117996   0.685   1.759   7.324 -1.2215 -0.6754 -0.2262
 2120SOL    HW217997   0.681   1.677   7.446  0.1476  0.1971 -0.1150
 2121SOL     OW17998   3.487   3.364   2.862  0.4461 -0.3755  0.0475
 2121SOL    HW117999   3.540   3.285   2.850 -1.8099 -1.8755 -0.0029
 2121SOL    HW218000   3.500   3.378   2.956 -1.2980  0.1281  0.2083
 2122SOL     OW18001   0.792   0.413   0.340  0.6343 -0.0758  0.6489
 2122SOL    HW118002   0.705   0.375   0.331 -0.3281  2.0387  1.0584
 2122SOL    HW218003   0.836   0.366   0.411 -0.5544 -0.8016  0.9072
 2123SOL     OW18004   0.884   2.162   8.873 -0.4245 -0.0711  0.0734
 2123SOL    HW118005   0.868   2.253   8.848 -0.1003 -0.8016 -2.8879
 2123SOL    HW218006   0.815   2.121   8.819  0.0884  0.6758 -1.1579
 2124SOL     OW18007   2.058   2.012   0.214  0.0405  0.0725 -0.7459
 2124SOL    HW118008   1.993   2.018   0.144 -0.3114 -0.0005 -0.4290
 2124SOL    HW218009   2.093   2.099   0.194 -0.4947  0.7375  1.1925
 2125SOL     OW18010   0.592   3.080   9.875  0.5797 -0.1897 -0.1381
 2125SOL    HW118011   0.580   3.052   9.784  0.3656  1.0209 -0.4867
 2125SOL    HW218012   0.550   3.005   9.915  0.4215  0.3898  0.7766
 2126SOL     OW18013   1.441   0.375   7.347 -0.3688 -0.3570  0.7147
 2126SOL    HW118014   1.416   0.289   7.379  0.6797 -0.8091  0.3109
 2126SOL    HW218015   1.529   0.365   7.309 -0.2916  1.2652  0.4653
 2127SOL     OW18016   0.876   1.905  12.444 -0.5064 -0.0956 -0.3373
 2127SOL    HW118017   0.969   1.925  12.432 -0.5695 -0.0548 -0.7784
 2127SOL    HW218018   0.840   1.909  12.355 -1.1801  0.5344 -0.0316
 2128SOL     OW18019   1.673   2.567   8.517  0.2426  0.3151  0.4016
 2128SOL    HW118020   1.748   2.510   8.499  0.2235  0.8598 -1.3967
 2128SOL    HW218021   1.602   2.506   8.495  0.1093 -0.1746  2.2068
 2129SOL     OW18022   2.079   4.243   1.292  0.3163 -0.1444 -0.4065
 2129SOL    HW118023   2.102   4.165   1.241 -0.5250 -1.9522  2.0047
 2129SOL    HW218024   2.001   4.269   1.243 -0.2826 -3.2521 -1.0957
 2130SOL     OW18025   2.941   4.669   5.403  0.7332  0.2097 -0.1319
 2130SOL    HW118026   2.939   0.029   5.388  1.5599  0.1909 -0.3885
 2130SOL    HW218027   2.939   4.665   5.498 -1.9775  1.4343 -0.1549
 2131SOL     OW18028   0.747   0.642   1.046  0.1782 -0.2929  0.0601
 2131SOL    HW118029   0.668   0.679   1.085  0.9392  0.0313  1.2985
 2131SOL    HW218030   0.709   0.603   0.967 -0.3927  2.2255 -0.9169
 2132SOL     OW18031   3.645   2.891   3.734 -0.2929  0.3649 -0.2588
 2132SOL    HW118032   3.625   2.805   3.773 -1.6602  0.3635 -0.9747
 2132SOL    HW218033   3.576   2.890   3.668  0.5725 -0.5322 -1.1454
 2133SOL     OW18034   2.891   2.262   4.203  0.5802 -0.0848  0.3163
 2133SOL    HW118035   2.806   2.273   4.247  0.3926  3.5872 -0.9789
 2133SOL    HW218036   2.924   2.181   4.242  0.9011  0.8245  1.9488
 2134SOL     OW18037   1.352   3.629   2.559  0.3331 -0.0601 -0.1064
 2134SOL    HW118038   1.416   3.699   2.552  0.7046 -0.4829 -0.9381
 2134SOL    HW218039   1.407   3.554   2.579 -0.1931 -0.1484  1.0439
 2135SOL     OW18040   2.640   1.728  15.691  0.8699  0.1886  0.2238
 2135SOL    HW118041   2.628   1.771  15.607  1.2354 -2.2637 -1.0689
 2135SOL    HW218042   2.560   1.677  15.704  1.5391 -0.4742  1.7529
 2136SOL     OW18043   4.628   4.393   1.505  0.1627  0.0748  0.4084
 2136SOL    HW118044   4.693   4.375   1.573 -0.0362  1.8148  1.0887
 2136SOL    HW218045   4.625   4.306   1.467 -0.3529  0.8619 -1.3346
 2137SOL     OW18046   0.609   4.662   9.056 -0.4013  0.0827 -0.0519
 2137SOL    HW118047   0.571   4.598   9.116 -0.5293 -0.2684 -0.5062
 2137SOL    HW218048   0.703   4.641   9.051 -0.6389 -0.7610 -1.0647
 2138SOL     OW18049   4.301   3.477   0.182  0.0799 -0.1577  0.5341
 2138SOL    HW118050   4.243   3.413   0.141 -1.2417  0.3280  1.6402
 2138SOL    HW218051   4.358   3.422   0.236  1.4967  2.3546  1.5755
 2139SOL     OW18052   3.804   2.116   8.168 -0.5005 -0.0581  0.1328
 2139SOL    HW118053   3.725   2.154   8.206 -0.2829  1.5144 -1.0123
 2139SOL    HW218054   3.763   2.074   8.092  0.7230 -2.5762  0.8810
 2140SOL     OW18055   1.740   1.889   2.616  0.2032  0.4760 -0.6768
 2140SOL    HW118056   1.698   1.970   2.645  0.1025 -0.2500  1.2035
 2140SOL    HW218057   1.670   1.827   2.631 -1.1639  1.8030 -1.6053
 2141SOL     OW18058   1.086   3.431   5.502 -0.5639  0.0181  0.4432
 2141SOL    HW118059   1.110   3.413   5.411  0.5457  0.2042  0.7082
 2141SOL    HW218060   0.991   3.418   5.499 -0.2569 -1.9823 -0.3533
 2142SOL     OW18061   3.668   0.191   3.993  0.0201  0.2292 -0.1728
 2142SOL    HW118062   3.722   0.112   3.999  3.3624  2.4502 -0.8150
 2142SOL    HW218063   3.649   0.198   3.900  0.9627 -0.1082 -0.3861
 2143SOL     OW18064   0.802   3.337  13.680 -0.5915 -0.3019 -0.1778
 2143SOL    HW118065   0.786   3.430  13.700  2.6952  0.4996 -1.2374
 2143SOL    HW218066   0.783   3.300  13.766  0.3979  2.7653  1.3601
 2144SOL     OW18067   1.660   0.469   4.922 -0.4556 -0.0494 -0.4882
 2144SOL    HW118068   1.584   0.427   4.963  0.6873 -0.2204  1.4666
 2144SOL    HW218069   1.670   0.420   4.840  3.0174 -1.6157  0.8654
 2145SOL     OW18070   2.546   0.511  15.754 -0.0538 -0.4062  0.1979
 2145SOL    HW118071   2.619   0.523  15.693  2.3427  2.1667  3.5891
 2145SOL    HW218072   2.516   0.602  15.755  1.2488  0.0040  2.1768
 2146SOL     OW18073   4.319   4.228  11.966  0.2922  0.4776 -0.2571
 2146SOL    HW118074   4.245   4.198  11.912  0.6377  1.9071 -1.5390
 2146SOL    HW218075   4.350   4.312  11.933 -0.7945  0.2761 -1.8052
 2147SOL     OW18076   2.058   0.822   7.922 -0.0037 -0.1771 -0.1617
 2147SOL    HW118077   2.118   0.890   7.890  0.2045 -0.4256 -0.3051
 2147SOL    HW218078   1.981   0.853   7.874  1.2021  0.4788 -1.6806
 2148SOL     OW18079   3.728   1.681  10.223 -1.0147 -0.3862 -0.0130
 2148SOL    HW118080   3.646   1.663  10.178 -0.4671 -3.2873  0.1651
 2148SOL    HW218081   3.785   1.683  10.146 -0.8510 -0.2793  0.1083
 2149SOL     OW18082   3.367   4.730   8.349 -0.3774 -0.1370 -0.1799
 2149SOL    HW118083   3.457   4.697   8.348  0.5437  2.4919 -2.2258
 2149SOL    HW218084   3.343   4.702   8.438 -1.0783  0.5969 -0.1391
 2150SOL     OW18085   0.698   2.064   5.616 -0.0684 -0.2523  0.0628
 2150SOL    HW118086   0.775   2.081   5.561  0.5906  2.8152  1.9092
 2150SOL    HW218087   0.708   2.128   5.687  0.3508 -1.6964  1.3137
 2151SOL     OW18088   0.715   4.211   3.251 -0.2593 -0.4362  0.3362
 2151SOL    HW118089   0.777   4.139   3.245 -1.4500 -1.3520 -0.8519
 2151SOL    HW218090   0.732   4.248   3.164 -3.9043 -0.0010 -0.1775
 2152SOL     OW18091   1.411   0.631   6.321  0.4295  0.1883 -0.5983
 2152SOL    HW118092   1.434   0.544   6.288 -1.5269 -0.3952 -0.4724
 2152SOL    HW218093   1.331   0.596   6.362  0.9863 -0.7724 -0.3285
 2153SOL     OW18094   0.840   3.960   6.869 -0.1413 -0.7234 -0.5657
 2153SOL    HW118095   0.879   4.030   6.816  0.4730 -0.3647  0.3716
 2153SOL    HW218096   0.799   4.003   6.943 -1.1028 -2.1608 -0.2539
 2154SOL     OW18097   1.079   2.721   1.508 -0.0048  0.1357 -0.0195
 2154SOL    HW118098   0.988   2.724   1.477  0.0127  1.6650  0.0683
 2154SOL    HW218099   1.125   2.698   1.427  0.7140  1.6616 -0.0584
 2155SOL     OW18100   0.217   0.498   2.199 -0.3605 -0.1910 -0.1417
 2155SOL    HW118101   0.266   0.426   2.161  0.4851  0.8832 -1.0793
 2155SOL    HW218102   0.135   0.494   2.149 -1.3193  0.6686  1.3603
 2156SOL     OW18103   2.809   0.747   1.778 -0.0986  0.5701 -0.3075
 2156SOL    HW118104   2.744   0.804   1.737 -1.2888 -0.5387  0.0470
 2156SOL    HW218105   2.760   0.695   1.841 -0.0758  0.2048 -0.5874
 2157SOL     OW18106   2.089   1.938  17.188  0.1978  0.6313  0.0851
 2157SOL    HW118107   2.056   2.012  17.238 -0.1333  0.2511  0.4300
 2157SOL    HW218108   2.050   1.864  17.235 -1.4021  1.2551 -0.2514
 2158SOL     OW18109   4.063   0.382   2.287  0.1114  0.0567 -0.0463
 2158SOL    HW118110   4.095   0.472   2.285 -0.1691  0.1343 -0.8607
 2158SOL    HW218111   3.981   0.382   2.238  0.3669 -3.8042 -0.4668
 2159SOL     OW18112   4.561   3.159  11.308 -0.3525 -0.6973 -0.1647
 2159SOL    HW118113   4.596   3.089  11.363  1.1099 -0.3182 -0.6024
 2159SOL    HW218114   4.469   3.161  11.332  0.0058  0.2503  1.1398
 2160SOL     OW18115   3.145   3.172   3.640 -0.3021  0.7241 -0.2844
 2160SOL    HW118116   3.167   3.247   3.696 -0.2572 -0.1677  0.8935
 2160SOL    HW218117   3.129   3.108   3.709 -1.1618  2.1267  0.8406
 2161SOL     OW18118   0.233   0.313   3.492 -0.4956  0.1865  0.5154
 2161SOL    HW118119   0.273   0.384   3.543 -1.5773  0.1408  1.4147
 2161SOL    HW218120   0.155   0.305   3.547 -3.5099 -0.2877 -3.8141
 2162SOL     OW18121   1.303   2.939  13.201  0.0552 -0.4161  0.4220
 2162SOL    HW118122   1.317   2.877  13.129  1.5124 -0.1509  0.4751
 2162SOL    HW218123   1.222   2.984  13.179  0.5688 -0.6350 -1.9627
 2163SOL     OW18124   4.669   1.265   1.766 -0.3604 -0.2169 -0.0601
 2163SOL    HW118125   4.611   1.340   1.752 -1.2160 -0.9669 -0.5757
 2163SOL    HW218126   4.657   1.263   1.861 -2.7252  2.1528 -0.3047
 2164SOL     OW18127   4.499   4.714   7.465  0.0875  0.3004 -0.2433
 2164SOL    HW118128   4.425   4.714   7.404 -1.3348  0.3764  1.4635
 2164SOL    HW218129   4.464   0.030   7.539 -0.5844 -1.0696  0.3685
 2165SOL     OW18130   0.242   0.892   6.665  0.1553  0.0876  0.5602
 2165SOL    HW118131   0.179   0.953   6.704 -1.2678  0.7981 -2.7968
 2165SOL    HW218132   0.232   0.921   6.574  0.1334  0.5229  0.7015
 2166SOL     OW18133   4.727   0.962   1.479  0.6188 -0.1548 -0.5045
 2166SOL    HW118134   4.712   0.916   1.397 -1.4540  0.3297 -0.3848
 2166SOL    HW218135   0.057   0.907   1.525 -0.4532 -1.5890 -0.7385
 2167SOL     OW18136   3.972   3.104   4.945 -0.4190  0.4051 -0.2778
 2167SOL    HW118137   3.916   3.176   4.915 -0.9589 -0.1310 -0.5405
 2167SOL    HW218138   3.982   3.133   5.036  0.2716 -0.5965 -0.0399
 2168SOL     OW18139   4.012   2.412   6.837  0.5062  0.4257 -0.3399
 2168SOL    HW118140   3.992   2.353   6.764  2.8332 -0.9749  0.1756
 2168SOL    HW218141   4.102   2.440   6.819  0.8141 -1.0263 -1.0389
 2169SOL     OW18142   4.728   1.477   6.712  0.0389 -0.6300  0.1015
 2169SOL    HW118143   0.045   1.554   6.686 -2.0446  1.0792  1.0136
 2169SOL    HW218144   0.031   1.462   6.799 -0.1618  0.6480  0.4140
 2170SOL     OW18145   2.847   3.011   1.733  0.0338 -0.0052  0.5125
 2170SOL    HW118146   2.941   2.993   1.727 -0.7248 -3.4136 -0.7821
 2170SOL    HW218147   2.843   3.072   1.659  0.8157 -1.8311 -1.0250
 2171SOL     OW18148   1.540   3.014   2.448 -0.3040  0.1907 -0.0570
 2171SOL    HW118149   1.497   2.977   2.526 -0.6334  0.9811  0.1352
 2171SOL    HW218150   1.627   3.024   2.486 -0.5344  2.0915 -0.0477
 2172SOL     OW18151   3.956   3.899   0.509 -0.7949  0.1126 -0.1285
 2172SOL    HW118152   3.989   3.817   0.472  0.2058 -0.1430  1.3270
 2172SOL    HW218153   3.986   3.902   0.600  3.0043 -0.2030 -1.4019
 2173SOL     OW18154   4.178   1.581   8.329 -0.7155  0.1244  0.1683
 2173SOL    HW118155   4.217   1.611   8.246 -1.1042  2.1506  0.7134
 2173SOL    HW218156   4.248   1.600   8.391 -0.1681 -0.2745 -0.3344
 2174SOL     OW18157   2.007   3.321   1.338  0.0540  0.0966 -0.2339
 2174SOL    HW118158   2.075   3.271   1.383 -0.3155 -1.0685 -0.9619
 2174SOL    HW218159   2.001   3.392   1.401 -2.3005 -0.7725  0.5156
 2175SOL     OW18160   3.868   2.760   6.013  0.4928  0.2566  0.4803
 2175SOL    HW118161   3.801   2.824   6.039  0.2169  0.3380 -0.4451
 2175SOL    HW218162   3.841   2.677   6.053  0.5537 -0.6374 -1.3671
 2176SOL     OW18163   4.146   4.419   3.042  0.1720  0.4705 -0.4089
 2176SOL    HW118164   4.138   4.426   2.947  0.1149 -0.6525 -0.4837
 2176SOL    HW218165   4.055   4.442   3.063  0.2809 -0.6867  1.3108
 2177SOL     OW18166   2.071   2.357   0.164  0.3789  0.2283  0.1852
 2177SOL    HW118167   2.056   2.415   0.089  1.5955  0.7492  0.3303
 2177SOL    HW218168   2.167   2.353   0.171  0.4795  3.1771  0.8394
 2178SOL     OW18169   0.868   1.045   7.503  0.8557 -0.3076  0.2145
 2178SOL    HW118170   0.808   1.039   7.577  1.9990  0.5667  1.2021
 2178SOL    HW218171   0.949   1.018   7.547  0.8341  0.5226  0.7631
 2179SOL     OW18172   1.034   2.287  14.521 -0.3910 -0.2035  0.2813
 2179SOL    HW118173   0.967   2.329  14.468  1.2849  2.1194 -0.0287
 2179SOL    HW218174   1.032   2.194  14.498 -1.3616  0.1374 -0.9434
 2180SOL     OW18175   1.550   1.624   2.391 -0.3409  0.4331  0.1426
 2180SOL    HW118176   1.523   1.715   2.379 -3.9922 -0.6815 -0.2763
 2180SOL    HW218177   1.528   1.592   2.303  2.2980  0.3228 -0.4636
 2181SOL     OW18178   0.838   3.256   6.712  0.6530  0.8074 -0.2683
 2181SOL    HW118179   0.906   3.242   6.646  0.3105 -0.6788 -0.3137
 2181SOL    HW218180   0.754   3.219   6.683  0.8741  0.0225  0.0921
 2182SOL     OW18181   4.590   1.300   4.393 -0.3613 -0.4856  0.7061
 2182SOL    HW118182   4.516   1.345   4.353  0.7544  0.7928  0.0808
 2182SOL    HW218183   4.585   1.220   4.342 -1.0744  0.0263 -0.0158
 2183SOL     OW18184   0.379   3.889   4.263 -0.0138 -0.1164 -0.0864
 2183SOL    HW118185   0.376   3.819   4.328 -0.0310  0.0070  0.0468
 2183SOL    HW218186   0.441   3.952   4.301 -0.5336  0.7837 -0.7377
 2184SOL     OW18187   0.220   4.325   8.894 -0.3019 -0.2268 -0.1520
 2184SOL    HW118188   0.198   4.414   8.867 -0.5631 -0.8936 -2.1042
 2184SOL    HW218189   0.310   4.318   8.860  0.1833  0.6640  0.9593
 2185SOL     OW18190   1.605   1.498   4.936 -0.1370  0.2328 -0.1499
 2185SOL    HW118191   1.669   1.431   4.914  0.0092 -0.0078  1.0147
 2185SOL    HW218192   1.538   1.476   4.871  1.4638 -0.5481 -1.5273
 2186SOL     OW18193   2.656   2.831   5.181  0.3527  0.0451 -0.2870
 2186SOL    HW118194   2.697   2.829   5.267 -1.7486  0.6799  0.7429
 2186SOL    HW218195   2.696   2.905   5.134  0.0995 -0.9650 -2.1049
 2187SOL     OW18196   1.357   3.179   3.006  0.1685 -0.0235 -0.0602
 2187SOL    HW118197   1.301   3.218   3.072 -0.4739  1.0699 -1.2403
 2187SOL    HW218198   1.304   3.103   2.982  0.4092 -0.3830  0.5586
 2188SOL     OW18199   2.871   1.368   2.709  0.8407 -0.0244  0.2009
 2188SOL    HW118200   2.944   1.430   2.722 -0.0915  1.5072 -1.9789
 2188SOL    HW218201   2.924   1.289   2.703  1.1898  0.5075 -3.7134
 2189SOL     OW18202   1.858   4.376  16.804 -0.2503 -0.6524  0.3907
 2189SOL    HW118203   1.843   4.409  16.715 -0.9993  1.7089  1.3849
 2189SOL    HW218204   1.951   4.355  16.807 -0.8033 -2.7970  2.8911
 2190SOL     OW18205   1.554   4.470   9.595 -0.3574 -0.2033  0.5459
 2190SOL    HW118206   1.473   4.479   9.646  0.1474  0.8901  1.1585
 2190SOL    HW218207   1.531   4.410   9.524  1.6393  1.3526 -1.4234
 2191SOL     OW18208   1.620   0.115   9.806  0.1983  0.3027 -0.1652
 2191SOL    HW118209   1.563   0.075   9.740 -1.8536 -0.3669  1.9997
 2191SOL    HW218210   1.665   0.037   9.839  0.8978  0.6649 -0.2553
 2192SOL     OW18211   0.017   4.162   7.543  0.3119 -0.0032 -0.2333
 2192SOL    HW118212   0.039   4.186   7.633 -0.4911 -0.3737  0.0617
 2192SOL    HW218213   4.696   4.236   7.519 -0.1336 -0.1979  0.1954
 2193SOL     OW18214   1.723   3.764   7.453 -0.1911  0.2272  0.2316
 2193SOL    HW118215   1.664   3.838   7.465 -1.6096 -0.7438 -0.7224
 2193SOL    HW218216   1.656   3.699   7.433  0.2588  0.3234 -1.6504
 2194SOL     OW18217   3.886   3.930   7.364 -0.7163  0.0607  0.4740
 2194SOL    HW118218   3.905   4.019   7.394 -0.1258  1.4654 -4.0604
 2194SOL    HW218219   3.857   3.883   7.442  2.3925  0.1761  1.6851
 2195SOL     OW18220   0.093   3.121  15.337  0.1828  0.5186  0.0517
 2195SOL    HW118221   0.180   3.090  15.312 -0.4141 -1.5321  0.5708
 2195SOL    HW218222   0.109   3.214  15.352 -1.0068  0.4632  1.6340
 2196SOL     OW18223   1.779   3.897   2.868 -0.2426  0.4141 -0.0992
 2196SOL    HW118224   1.752   3.938   2.949  1.4710  0.3413  0.5166
 2196SOL    HW218225   1.829   3.822   2.902  1.5312  0.8523 -1.6977
 2197SOL     OW18226   4.670   4.285  11.934 -0.5335  0.2734 -0.2740
 2197SOL    HW118227   4.718   4.256  11.856  1.4335  0.9666  0.6737
 2197SOL    HW218228   4.605   4.215  11.939  0.1660 -0.5112 -2.2342
 2198SOL     OW18229   0.841   0.322   3.234  0.3179 -0.1779 -0.5300
 2198SOL    HW118230   0.904   0.390   3.256  0.7342 -1.4733  2.3176
 2198SOL    HW218231   0.896   0.255   3.192  0.2066 -1.5626  1.5189
 2199SOL     OW18232   0.199   2.226  12.127  0.2706  0.4149 -0.3564
 2199SOL    HW118233   0.240   2.218  12.041  3.1690  2.4541  0.8504
 2199SOL    HW218234   0.105   2.231  12.108  0.0875 -1.1844  0.1116
 2200SOL     OW18235   0.115   2.145   0.341 -0.3253 -0.3215  0.0432
 2200SOL    HW118236   0.030   2.137   0.384  0.9365  1.6467  2.9611
 2200SOL    HW218237   0.129   2.239   0.349  1.3755 -0.4545 -1.3336
 2201SOL     OW18238   1.326   2.414  15.856 -0.2321 -0.2826  0.3143
 2201SOL    HW118239   1.278   2.354  15.914  1.1221  1.8418  3.6567
 2201SOL    HW218240   1.298   2.495  15.899 -0.8414 -1.4912  2.2248
 2202SOL     OW18241   0.260   3.566   7.730  0.0427 -0.0795 -0.4259
 2202SOL    HW118242   0.193   3.527   7.673  0.6762 -0.2065 -1.0774
 2202SOL    HW218243   0.309   3.486   7.750  1.7127  1.0473 -0.0557
 2203SOL     OW18244   3.578   3.016   6.208 -0.0241  0.3068 -0.0915
 2203SOL    HW118245   3.531   3.042   6.287  1.1223 -2.5005  1.4951
 2203SOL    HW218246   3.647   2.969   6.253 -1.0211 -0.3030  0.8084
 2204SOL     OW18247   3.626   0.616  16.662  0.2259 -0.0579 -0.1247
 2204SOL    HW118248   3.704   0.627  16.716  0.1638  0.9491 -0.2350
 2204SOL    HW218249   3.566   0.676  16.706 -0.7360 -1.1690  0.0854
 2205SOL     OW18250   2.666   1.533   3.032  0.0667  0.1197 -0.4445
 2205SOL    HW118251   2.665   1.438   3.019  0.2689  0.2040 -1.0846
 2205SOL    HW218252   2.757   1.550   3.057 -0.0626 -0.5219  0.4886
 2206SOL     OW18253   2.073   3.769   6.512  0.2922 -0.2757 -0.5107
 2206SOL    HW118254   2.138   3.738   6.449  0.0552 -0.1945 -0.7980
 2206SOL    HW218255   2.006   3.809   6.455  1.3724  0.0071 -1.5908
 2207SOL     OW18256   0.527   2.239  16.705 -0.0690  0.3036 -0.3338
 2207SOL    HW118257   0.618   2.212  16.716 -0.6022 -0.9003  1.1380
 2207SOL    HW218258   0.516   2.226  16.610  1.4433  0.0441 -0.4758
 2208SOL     OW18259   1.006   4.045   1.088 -0.7673 -0.3617 -0.4211
 2208SOL    HW118260   1.017   4.135   1.117  0.5602 -0.2634 -1.2151
 2208SOL    HW218261   1.049   3.995   1.157 -2.3701  0.5420  1.1954
 2209SOL     OW18262   2.291   4.062  14.625  0.3667  0.1184  0.3924
 2209SOL    HW118263   2.245   4.037  14.545 -0.0393  1.4392  0.2006
 2209SOL    HW218264   2.224   4.024  14.681  1.1267 -1.0861  0.4738
 2210SOL     OW18265   4.118   3.826   2.578  0.2305 -0.3040  0.0754
 2210SOL    HW118266   4.120   3.769   2.655  0.3691 -0.3280  0.0522
 2210SOL    HW218267   4.212   3.826   2.561 -0.0394  0.8578 -1.4339
 2211SOL     OW18268   1.356   0.643   5.521 -0.2923  0.5733 -0.3648
 2211SOL    HW118269   1.283   0.700   5.543  0.2998  1.6678 -1.2104
 2211SOL    HW218270   1.416   0.680   5.586 -3.6120  1.5566  2.1375
 2212SOL     OW18271   3.397   2.519  10.750  0.1061 -0.2432  0.0641
 2212SOL    HW118272   3.475   2.533  10.803  2.4736  0.9994 -3.7561
 2212SOL    HW218273   3.430   2.441  10.706  0.0255 -1.0823  1.5041
 2213SOL     OW18274   4.347   4.628   3.821  0.4550 -0.4361 -0.3861
 2213SOL    HW118275   4.437   4.602   3.838  0.4516 -0.0285  0.2441
 2213SOL    HW218276   4.358   4.708   3.770 -1.8081 -0.0364 -0.2479
 2214SOL     OW18277   4.696   0.717   8.178  0.2780 -0.2509 -0.3545
 2214SOL    HW118278   4.616   0.690   8.134 -0.3482 -2.3096  2.0598
 2214SOL    HW218279   4.717   0.642   8.233 -0.1750  0.8541  1.3490
 2215SOL     OW18280   2.714   1.450   5.784  0.0819 -0.1552 -0.1858
 2215SOL    HW118281   2.662   1.518   5.742 -2.0093 -0.6223  1.6529
 2215SOL    HW218282   2.754   1.495   5.859 -1.1876 -0.1558  0.4905
 2216SOL     OW18283   1.233   0.800   1.657 -0.8853  0.5910 -0.0558
 2216SOL    HW118284   1.219   0.856   1.733 -2.0747  2.1287 -1.4228
 2216SOL    HW218285   1.228   0.713   1.696 -0.0503  1.1549  1.2937
 2217SOL     OW18286   0.779   2.862   6.130 -0.7321  0.6176 -1.0034
 2217SOL    HW118287   0.793   2.927   6.199 -0.9855 -0.9893  0.5778
 2217SOL    HW218288   0.783   2.780   6.179 -0.7621  0.9238 -0.4789
 2218SOL     OW18289   0.911   2.407   0.165 -0.1295 -0.5533 -0.1848
 2218SOL    HW118290   0.914   2.330   0.109 -3.1476 -0.1080 -0.9630
 2218SOL    HW218291   0.894   2.377   0.254  0.8289  1.9502  0.8480
 2219SOL     OW18292   2.735   0.927  10.559  0.1320  0.1737  0.0132
 2219SOL    HW118293   2.748   0.903  10.651 -1.1972  0.5257  0.2829
 2219SOL    HW218294   2.801   0.871  10.517 -0.5270 -0.4916 -0.1297
 2220SOL     OW18295   3.728   1.965  16.964  0.2390  0.3643  0.2254
 2220SOL    HW118296   3.704   2.058  16.970 -1.9309 -0.0825 -1.5635
 2220SOL    HW218297   3.820   1.973  16.989 -0.0672 -0.3537  1.6383
 2221SOL     OW18298   2.201   2.029   5.674 -0.7498 -0.1557 -0.4355
 2221SOL    HW118299   2.172   1.938   5.671  0.3933 -0.5461  0.7311
 2221SOL    HW218300   2.257   2.030   5.751 -1.2851 -1.3671 -0.0254
 2222SOL     OW18301   2.782   0.666   7.323  0.4134  0.2146  0.7257
 2222SOL    HW118302   2.746   0.755   7.324  0.8329  0.3990 -0.7700
 2222SOL    HW218303   2.718   0.614   7.276  0.8226  0.5664 -0.2141
 2223SOL     OW18304   1.978   4.172   9.406  0.2891 -0.2882 -0.0023
 2223SOL    HW118305   2.048   4.216   9.358  0.1552 -0.4411 -0.3395
 2223SOL    HW218306   2.020   4.165   9.491  0.9272 -2.2376 -0.4776
 2224SOL     OW18307   0.377   4.180   8.584 -0.2372 -0.0084 -0.2280
 2224SOL    HW118308   0.284   4.197   8.594 -0.6464 -1.3603 -1.7417
 2224SOL    HW218309   0.398   4.233   8.507  0.3893 -2.4687 -1.7496
 2225SOL     OW18310   4.497   3.828   8.131 -0.2149 -0.9300 -0.2443
 2225SOL    HW118311   4.512   3.851   8.039  1.7915  1.5607  0.7094
 2225SOL    HW218312   4.557   3.883   8.180 -0.9945  0.0358 -0.3817
 2226SOL     OW18313   1.578   1.116  10.962 -0.2108  0.5546 -0.9191
 2226SOL    HW118314   1.655   1.115  11.019  0.0029 -0.4553 -1.2202
 2226SOL    HW218315   1.611   1.098  10.874  1.8918 -1.2179  0.2148
 2227SOL     OW18316   4.357   4.198   8.405 -0.3980 -0.1431 -1.2071
 2227SOL    HW118317   4.398   4.266   8.459 -0.4191 -0.3127 -0.9756
 2227SOL    HW218318   4.404   4.202   8.322 -1.3308 -0.0946 -1.7310
 2228SOL     OW18319   0.488   0.926  15.023 -0.2510  0.0791 -0.2246
 2228SOL    HW118320   0.472   0.852  14.964  0.3673 -0.2953  0.0904
 2228SOL    HW218321   0.480   0.992  14.954  1.1004  2.9413  2.4062
 2229SOL     OW18322   2.712   0.162   8.817  0.2876  0.1488  0.0579
 2229SOL    HW118323   2.664   0.227   8.766  2.1416  1.2632 -0.2798
 2229SOL    HW218324   2.796   0.185   8.777  1.3031 -2.3884  0.7237
 2230SOL     OW18325   1.197   0.489  17.277 -0.0471 -0.0453 -0.5373
 2230SOL    HW118326   1.254   0.420  17.244  0.6755  0.7074 -0.8522
 2230SOL    HW218327   1.125   0.437  17.314  1.8304 -2.4212 -0.1756
 2231SOL     OW18328   3.787   1.312  17.285 -0.2712  0.4557 -0.5741
 2231SOL    HW118329   3.700   1.270  17.278 -1.6737  3.2086  0.4164
 2231SOL    HW218330   3.786   1.353  17.371 -0.3461 -1.1937  0.2089
 2232SOL     OW18331   2.129   1.119   1.943  0.3816 -0.2538 -0.2772
 2232SOL    HW118332   2.082   1.199   1.920  0.3198 -0.4664 -0.8958
 2232SOL    HW218333   2.113   1.057   1.872 -0.3701 -1.5229  1.0327
 2233SOL     OW18334   4.377   3.662   7.807 -0.7054 -0.3353  0.5390
 2233SOL    HW118335   4.399   3.572   7.783  0.1923 -0.3762  1.5409
 2233SOL    HW218336   4.285   3.660   7.835 -0.6208 -2.6744  0.6187
 2234SOL     OW18337   2.784   4.714   2.514 -0.0069 -0.3479 -0.5636
 2234SOL    HW118338   2.698   0.006   2.479 -0.4594 -0.3913  0.5080
 2234SOL    HW218339   2.800   0.054   2.572  2.0632 -0.4189 -1.0520
 2235SOL     OW18340   1.809   1.643   8.030  0.4786  0.1209 -0.0046
 2235SOL    HW118341   1.883   1.704   8.034 -0.4021  1.0774  1.5774
 2235SOL    HW218342   1.803   1.625   7.936  1.1893  0.5269 -0.1261
 2236SOL     OW18343   3.677   3.503   4.112 -0.2000  0.0132 -0.4785
 2236SOL    HW118344   3.663   3.537   4.200  1.0036 -0.7218 -0.0202
 2236SOL    HW218345   3.609   3.436   4.103 -0.6131  0.3031  0.4661
 2237SOL     OW18346   2.076   3.986   1.974 -0.0631 -0.5823 -0.2417
 2237SOL    HW118347   2.075   4.081   1.977 -1.9495 -0.6029 -0.2442
 2237SOL    HW218348   2.147   3.955   2.032  0.2058 -0.0189 -0.2762
 2238SOL     OW18349   0.070   0.059   3.827  0.7172 -0.1655  0.0741
 2238SOL    HW118350   0.052   0.144   3.868 -1.4776 -0.8719  0.5667
 2238SOL    HW218351   0.027   0.001   3.890  2.1531 -1.8624 -0.4878
 2239SOL     OW18352   0.971   4.120   7.619  0.3318 -1.1117  0.0995
 2239SOL    HW118353   1.017   4.096   7.699 -1.3474 -1.1010  1.0726
 2239SOL    HW218354   0.956   4.039   7.571  0.9691 -0.2676 -1.5081
 2240SOL     OW18355   4.651   0.639   5.015  0.0178  0.1648  0.1175
 2240SOL    HW118356   4.700   0.718   4.992 -0.3945  0.7274  1.1761
 2240SOL    HW218357   4.637   0.603   4.927  1.8448 -3.8858  1.4984
 2241SOL     OW18358   2.467   2.914   8.588 -0.7471  0.0170  0.4639
 2241SOL    HW118359   2.533   2.979   8.613 -1.0219 -0.1319  1.5668
 2241SOL    HW218360   2.504   2.833   8.622  0.6312  1.2330  1.8844
 2242SOL     OW18361   1.030   4.448   6.365 -0.1893  0.2890  0.0244
 2242SOL    HW118362   0.962   4.413   6.307 -0.5362  0.9951  0.0059
 2242SOL    HW218363   0.998   4.419   6.450  0.5646  0.7320  0.4630
 2243SOL     OW18364   3.195   3.253   9.338 -0.2688 -0.3671  0.1498
 2243SOL    HW118365   3.237   3.254   9.424  1.6818  0.4134 -0.8138
 2243SOL    HW218366   3.265   3.201   9.298  0.3758  0.5406  0.0955
 2244SOL     OW18367   4.468   1.846  15.886 -0.1642 -0.2628  0.8633
 2244SOL    HW118368   4.408   1.920  15.897  1.2126  0.8386  0.9319
 2244SOL    HW218369   4.553   1.889  15.885  0.3059 -1.2181  0.0178
 2245SOL     OW18370   2.823   2.658   4.097 -0.1583 -0.2238 -0.4871
 2245SOL    HW118371   2.782   2.574   4.115 -0.6836  0.1458  0.0430
 2245SOL    HW218372   2.867   2.629   4.017  0.7452 -1.8152  0.6090
 2246SOL     OW18373   2.973   0.870   5.812  0.3105  0.6957 -0.6610
 2246SOL    HW118374   3.023   0.789   5.812  0.6350  0.9122  2.4706
 2246SOL    HW218375   2.886   0.840   5.836 -0.3273  2.4584 -0.7520
 2247SOL     OW18376   2.354   4.119   2.337 -0.0863  0.1497 -0.1655
 2247SOL    HW118377   2.376   4.133   2.429  0.6229 -1.3221 -0.1114
 2247SOL    HW218378   2.303   4.197   2.316  3.1271  1.9954 -1.0288
 2248SOL     OW18379   2.304   2.156  11.642 -0.4271  0.4133 -0.1158
 2248SOL    HW118380   2.232   2.137  11.702  0.9912 -0.3628  1.3468
 2248SOL    HW218381   2.317   2.250  11.655 -0.3289  0.4547 -0.5252
 2249SOL     OW18382   3.734   1.000   5.856  0.1930  0.7039 -0.2392
 2249SOL    HW118383   3.822   1.018   5.823 -0.3168  1.5309 -1.1577
 2249SOL    HW218384   3.682   1.012   5.776 -0.9901  0.6487  0.5292
 2250SOL     OW18385   1.229   1.498  10.126  0.0612  0.1492 -0.4382
 2250SOL    HW118386   1.322   1.521  10.118 -0.2740  1.6932  0.1454
 2250SOL    HW218387   1.201   1.490  10.035 -1.1323  0.1534 -0.0704
 2251SOL     OW18388   0.440   2.019   6.420  0.3691  0.9833 -0.5106
 2251SOL    HW118389   0.532   2.032   6.443  0.9124 -0.8490 -1.7080
 2251SOL    HW218390   0.408   2.061   6.500  2.5940 -1.2585  1.5460
 2252SOL     OW18391   0.050   4.417  16.240 -0.4952 -0.2519  0.1888
 2252SOL    HW118392   0.016   4.328  16.229 -0.4977 -0.0104 -1.8003
 2252SOL    HW218393   0.143   4.395  16.237 -0.5569 -0.6717  1.4274
 2253SOL     OW18394   0.999   2.208  12.532  0.1253 -0.3286 -0.7391
 2253SOL    HW118395   0.944   2.247  12.600 -0.5288  2.4145 -2.8551
 2253SOL    HW218396   1.064   2.275  12.510 -1.0142  1.0065 -0.0572
 2254SOL     OW18397   4.518   2.301   3.407 -0.2902 -0.4550  0.3924
 2254SOL    HW118398   4.609   2.327   3.394 -0.7115  0.1842 -1.2668
 2254SOL    HW218399   4.470   2.383   3.400  1.9230  0.9024  1.3044
 2255SOL     OW18400   0.249   4.411   1.824  0.4876 -0.1128 -0.3932
 2255SOL    HW118401   0.303   4.418   1.902  1.7028 -0.5847 -1.1858
 2255SOL    HW218402   0.268   4.496   1.784 -0.0340 -0.0134 -0.4268
 2256SOL     OW18403   2.937   3.484   8.725  0.2660  0.4191  0.3490
 2256SOL    HW118404   2.890   3.408   8.760  1.7264 -1.2387 -1.2632
 2256SOL    HW218405   2.879   3.505   8.651 -1.0257  0.3908  1.3461
 2257SOL     OW18406   0.740   4.720   6.410  0.2794 -0.1483 -0.0523
 2257SOL    HW118407   0.707   0.018   6.326  0.0774 -0.7046 -0.1843
 2257SOL    HW218408   0.835   4.715   6.399  0.1230 -2.0277 -0.4905
 2258SOL     OW18409   0.727   2.626   1.121 -0.3488  0.0051  0.1674
 2258SOL    HW118410   0.698   2.652   1.208 -0.1679 -0.3921  0.3470
 2258SOL    HW218411   0.658   2.655   1.061  0.3060 -0.1907 -0.6857
 2259SOL     OW18412   1.029   1.170  15.132  0.2715  0.4740 -0.5540
 2259SOL    HW118413   0.960   1.223  15.173  1.4228  1.5569 -0.0222
 2259SOL    HW218414   1.058   1.232  15.065  0.6553  0.0567 -0.7754
 2260SOL     OW18415   2.330   3.541   9.171 -0.8655  0.0943  0.2082
 2260SOL    HW118416   2.267   3.473   9.195 -0.9638  0.5774  1.3170
 2260SOL    HW218417   2.302   3.564   9.082 -0.7816 -1.5906 -0.2570
 2261SOL     OW18418   2.322   1.303   6.468  0.1130  0.6413  0.2327
 2261SOL    HW118419   2.232   1.336   6.465 -0.3394 -0.5698  0.1308
 2261SOL    HW218420   2.366   1.348   6.396  0.3049  2.2497  1.3546
 2262SOL     OW18421   3.285   3.648   5.197  0.1616 -0.0029 -0.1086
 2262SOL    HW118422   3.310   3.563   5.234  0.5331 -0.3212 -1.0840
 2262SOL    HW218423   3.304   3.629   5.105 -0.7314  0.2906 -0.3533
 2263SOL     OW18424   3.026   4.402  11.740 -0.1804  0.0970  0.2185
 2263SOL    HW118425   2.957   4.460  11.709  1.2993  1.3433 -0.7516
 2263SOL    HW218426   2.971   4.328  11.766 -1.0353  1.0271  1.0529
 2264SOL     OW18427   2.443   1.069  14.467  0.0789 -0.1208  0.4533
 2264SOL    HW118428   2.348   1.061  14.461  0.0845 -0.8927  1.4534
 2264SOL    HW218429   2.471   0.981  14.492  2.9903  0.9802  1.0875
 2265SOL     OW18430   0.492   2.692   7.128 -0.7045  0.1569  0.4048
 2265SOL    HW118431   0.493   2.597   7.120 -0.2584  0.2140 -0.2140
 2265SOL    HW218432   0.568   2.718   7.077 -1.3554 -0.1065 -0.7090
 2266SOL     OW18433   1.757   4.339  16.268 -0.1704  0.1671 -0.5682
 2266SOL    HW118434   1.763   4.430  16.239  2.0666  0.0517 -0.4637
 2266SOL    HW218435   1.662   4.348  16.276 -0.4250 -1.2419 -2.0692
 2267SOL     OW18436   3.376   4.363  16.623  0.0790 -0.0193  0.3838
 2267SOL    HW118437   3.290   4.330  16.593 -0.4870  0.5907  1.3465
 2267SOL    HW218438   3.412   4.396  16.541 -2.8138  0.3558 -0.7643
 2268SOL     OW18439   1.912   0.170  13.035 -0.4224  0.0839 -0.7559
 2268SOL    HW118440   1.973   0.097  13.047 -0.1260  0.2106 -1.4942
 2268SOL    HW218441   1.959   0.252  13.046 -0.9276  0.1708  0.7080
 2269SOL     OW18442   3.487   2.684   6.270 -0.2716 -0.2856  0.2276
 2269SOL    HW118443   3.415   2.734   6.229 -0.9128 -0.1596  1.5045
 2269SOL    HW218444   3.440   2.602   6.281  1.3414 -1.5362 -2.1747
 2270SOL     OW18445   1.030   0.249   5.548 -0.1398 -0.6241  0.3806
 2270SOL    HW118446   1.102   0.241   5.485 -0.5680  0.3182 -0.2398
 2270SOL    HW218447   1.073   0.201   5.618 -0.8246 -1.3059  0.3302
 2271SOL     OW18448   1.361   0.054   9.406 -0.2628  0.1512 -0.1212
 2271SOL    HW118449   1.337   0.126   9.348  1.8904  1.5187  0.6850
 2271SOL    HW218450   1.425   0.007   9.353 -0.2300 -1.0998  1.0497
 2272SOL     OW18451   2.172   0.349   0.464  0.0537 -0.4747  0.0797
 2272SOL    HW118452   2.203   0.338   0.554 -1.4392  2.7609  1.0244
 2272SOL    HW218453   2.102   0.412   0.482  0.3071  0.3255 -1.7914
 2273SOL     OW18454   0.423   2.610   6.634 -0.1934  0.1909 -0.3303
 2273SOL    HW118455   0.490   2.664   6.593 -0.2630 -0.9477 -1.9595
 2273SOL    HW218456   0.364   2.580   6.565 -0.6184 -0.5606  0.3511
 2274SOL     OW18457   2.274   1.120  17.616  0.3414 -0.4449 -0.6640
 2274SOL    HW118458   2.334   1.159  17.552 -1.2006 -1.5315 -2.7873
 2274SOL    HW218459   2.335   1.100  17.687 -1.0898  1.6026  1.1625
 2275SOL     OW18460   2.840   2.879   8.877 -0.3168 -0.4559 -0.5322
 2275SOL    HW118461   2.932   2.879   8.852 -0.4679  2.2248 -1.0650
 2275SOL    HW218462   2.788   2.890   8.797 -0.6932  0.3790 -0.1664
 2276SOL     OW18463   0.712   3.361   7.873 -0.5493 -0.3670 -0.4053
 2276SOL    HW118464   0.674   3.422   7.937  1.1776 -2.3812  2.5063
 2276SOL    HW218465   0.704   3.271   7.903 -0.4261 -1.1938 -2.8860
 2277SOL     OW18466   0.827   4.570  12.768  0.6605 -0.2483 -0.0593
 2277SOL    HW118467   0.849   4.497  12.826  0.2081 -1.4543 -1.4107
 2277SOL    HW218468   0.732   4.578  12.779  0.7436  0.3346  0.1954
 2278SOL     OW18469   0.369   4.250   2.580 -0.8973  0.1444  0.4940
 2278SOL    HW118470   0.351   4.249   2.486  0.0261 -3.6771  0.3888
 2278SOL    HW218471   0.417   4.333   2.587 -1.5030  0.5565 -0.1876
 2279SOL     OW18472   1.198   4.614   7.124  0.6633 -0.4797 -0.1606
 2279SOL    HW118473   1.118   4.667   7.121  1.3970  0.7012  0.9206
 2279SOL    HW218474   1.266   4.678   7.103 -1.9884  2.0680 -0.9341
 2280SOL     OW18475   1.981   4.652   3.625  0.4602  0.0166 -0.2887
 2280SOL    HW118476   2.058   4.676   3.677  0.6869  0.3245 -0.7655
 2280SOL    HW218477   1.924   4.638   3.700  2.6654 -1.1127  1.1660
 2281SOL     OW18478   1.239   1.290   7.899 -0.3521 -0.1939  0.6343
 2281SOL    HW118479   1.237   1.239   7.980  0.2877  0.6793  1.1904
 2281SOL    HW218480   1.320   1.340   7.908  0.0662 -1.4383  3.6938
 2282SOL     OW18481   2.400   4.471  10.869 -0.0664  0.6564  0.4721
 2282SOL    HW118482   2.366   4.479  10.958 -2.8069  0.6465 -0.5865
 2282SOL    HW218483   2.416   4.377  10.874  0.9072  0.7782 -0.2844
 2283SOL     OW18484   0.914   2.977   4.092 -0.2681  0.3052  0.4748
 2283SOL    HW118485   0.880   2.914   4.155 -0.0163  0.0487  0.3525
 2283SOL    HW218486   0.851   2.962   4.022  1.3861 -1.5862 -0.6192
 2284SOL     OW18487   0.805   2.189  15.020  0.6389 -0.0620 -0.5584
 2284SOL    HW118488   0.802   2.278  14.984 -0.4711  0.0896 -0.0995
 2284SOL    HW218489   0.796   2.137  14.941 -0.2832 -0.0545 -0.4563
 2285SOL     OW18490   4.537   4.152   5.186 -0.1679  0.0883  0.0569
 2285SOL    HW118491   4.605   4.195   5.238  2.4298 -1.2517 -2.2177
 2285SOL    HW218492   4.463   4.169   5.244 -1.4358 -0.0772 -1.5027
 2286SOL     OW18493   3.035   4.702   0.816 -0.0504 -0.1715 -0.2865
 2286SOL    HW118494   3.020   4.682   0.724 -1.8754  3.1556 -0.7297
 2286SOL    HW218495   3.122   0.007   0.824 -0.1419  0.2148 -1.2079
 2287SOL     OW18496   0.990   4.166   2.839 -0.2495 -0.2198  0.6147
 2287SOL    HW118497   1.060   4.105   2.816  0.7682  0.0339  3.0127
 2287SOL    HW218498   0.995   4.226   2.764 -0.1174 -2.6873 -1.3692
 2288SOL     OW18499   2.367   1.328   3.436  0.1979  0.2899 -0.6415
 2288SOL    HW118500   2.314   1.378   3.498 -2.1595 -0.6711 -1.9084
 2288SOL    HW218501   2.300   1.274   3.395 -0.5571  1.0290 -0.3899
 2289SOL     OW18502   1.808   1.066   5.905  0.3119  0.3628  0.1620
 2289SOL    HW118503   1.898   1.068   5.870  0.8332 -0.0266  1.4806
 2289SOL    HW218504   1.779   1.147   5.862  0.0776  0.7586  1.0663
 2290SOL     OW18505   4.619   3.515  13.322  0.3921 -0.3236  0.0683
 2290SOL    HW118506   4.676   3.445  13.352 -0.3551 -1.5887 -1.4981
 2290SOL    HW218507   4.661   3.593  13.360  0.8897 -0.8933  0.6805
 2291SOL     OW18508   4.182   3.757   5.549 -0.2780 -0.0032  0.0657
 2291SOL    HW118509   4.127   3.829   5.519  1.3325  0.8452 -0.8150
 2291SOL    HW218510   4.155   3.692   5.484  2.8998  1.4471 -2.6406
 2292SOL     OW18511   3.196   3.850   7.704  0.0463  0.2103 -0.3161
 2292SOL    HW118512   3.178   3.941   7.726  2.0730  0.2676  1.1676
 2292SOL    HW218513   3.134   3.824   7.636 -1.5604  0.7074  0.9534
 2293SOL     OW18514   0.836   2.242   6.523 -0.0403  0.5101 -0.3198
 2293SOL    HW118515   0.870   2.324   6.558 -2.8689  0.6966  2.0461
 2293SOL    HW218516   0.741   2.252   6.538  0.6452  1.2334  3.6906
 2294SOL     OW18517   1.918   3.130  16.261  0.3682 -0.3179 -0.0286
 2294SOL    HW118518   1.835   3.106  16.221  1.3589 -0.2729 -2.0750
 2294SOL    HW218519   1.969   3.051  16.242 -1.4660 -1.6232  0.5319
 2295SOL     OW18520   2.307   0.432   8.710 -0.0440 -0.3174 -0.1057
 2295SOL    HW118521   2.244   0.471   8.650 -1.8044 -3.1068 -0.0733
 2295SOL    HW218522   2.341   0.495   8.774 -0.1251 -1.5627  1.1721
 2296SOL     OW18523   1.453   3.819   8.071 -0.1850  0.1025 -0.0322
 2296SOL    HW118524   1.491   3.731   8.080  2.0752  1.0054 -0.8615
 2296SOL    HW218525   1.512   3.867   8.013  0.0567 -1.3942 -1.0349
 2297SOL     OW18526   1.489   3.510   8.177 -0.5609 -0.5279 -0.2863
 2297SOL    HW118527   1.410   3.497   8.124 -0.5461  0.3926 -0.5308
 2297SOL    HW218528   1.559   3.480   8.119  0.1583 -0.2399  0.4342
 2298SOL     OW18529   4.060   0.355   1.845 -0.5053 -0.1559 -0.3747
 2298SOL    HW118530   4.111   0.436   1.845  0.6534 -0.8766 -1.1402
 2298SOL    HW218531   4.003   0.374   1.919 -1.1106 -0.3752 -0.7828
 2299SOL     OW18532   3.670   4.651   8.575  0.0852 -0.4235  0.4938
 2299SOL    HW118533   3.605   4.720   8.587 -1.0554 -1.6576  1.2806
 2299SOL    HW218534   3.620   4.579   8.538  0.2558  0.4911 -1.5482
 2300SOL     OW18535   4.524   4.300   3.838 -0.1687  0.1287 -0.7128
 2300SOL    HW118536   4.454   4.320   3.777  0.6729  0.0062 -1.7189
 2300SOL    HW218537   4.472   4.269   3.912 -0.0027 -0.5307 -0.8660
 2301SOL     OW18538   1.592   0.009   6.158 -0.2990 -0.0389 -0.0222
 2301SOL    HW118539   1.632   4.660   6.133 -0.4816  0.3174 -1.5151
 2301SOL    HW218540   1.659   0.035   6.220  0.5379 -2.3768  0.0613
 2302SOL     OW18541   4.457   4.231  11.646 -0.3378  0.0201 -0.0923
 2302SOL    HW118542   4.363   4.229  11.632  0.0885  0.6552 -2.9536
 2302SOL    HW218543   4.487   4.236  11.555  0.3596 -1.1139  0.0712
 2303SOL     OW18544   4.299   0.086   8.192 -0.2072  0.3867 -0.0727
 2303SOL    HW118545   4.302   0.174   8.154  0.5702  1.2974  2.0476
 2303SOL    HW218546   4.207   0.068   8.176 -0.7066  1.2948  1.8201
 2304SOL     OW18547   3.405   2.574  16.369  0.0175  0.3817 -0.5352
 2304SOL    HW118548   3.390   2.565  16.275  1.5984  2.4267 -1.0058
 2304SOL    HW218549   3.481   2.633  16.373 -0.2742  0.7362 -0.2872
 2305SOL     OW18550   1.132   2.079  15.597 -0.0806 -0.4172 -0.1708
 2305SOL    HW118551   1.056   2.104  15.650 -0.5502  1.1870 -1.5847
 2305SOL    HW218552   1.164   2.169  15.591 -1.5238  0.2493  1.7973
 2306SOL     OW18553   3.253   1.701  14.758  0.4287  0.5495  0.3107
 2306SOL    HW118554   3.171   1.715  14.710  0.0093  1.4029  1.2642
 2306SOL    HW218555   3.270   1.609  14.738 -0.9991 -0.1462  2.3129
 2307SOL     OW18556   1.337   3.344   2.192 -0.2854 -0.5537 -0.2258
 2307SOL    HW118557   1.422   3.320   2.230  0.1650 -0.0897 -0.9232
 2307SOL    HW218558   1.295   3.402   2.255  1.3698  1.5144 -1.0041
 2308SOL     OW18559   0.394   0.957  16.424  0.0757  0.4809  0.0095
 2308SOL    HW118560   0.413   1.027  16.363  1.7343  0.5769  0.6366
 2308SOL    HW218561   0.433   1.007  16.496  1.3158  1.6490 -1.4911
 2309SOL     OW18562   2.816   2.784  11.691 -0.1418  0.3094  0.6326
 2309SOL    HW118563   2.854   2.758  11.775  1.8658 -0.3560 -0.4730
 2309SOL    HW218564   2.851   2.873  11.700 -2.0696  1.0373  0.7617
 2310SOL     OW18565   1.131   1.903  15.364 -0.4916  0.1326  0.1241
 2310SOL    HW118566   1.097   1.831  15.418 -1.0822  1.5473  1.6319
 2310SOL    HW218567   1.107   1.972  15.426  0.1650 -0.1294  0.6690
 2311SOL     OW18568   1.237   2.926   9.666 -0.0940  0.0668 -0.3187
 2311SOL    HW118569   1.301   2.953   9.601  3.3440 -0.2167  2.9148
 2311SOL    HW218570   1.221   3.016   9.697  1.2213  0.9776 -2.3009
 2312SOL     OW18571   3.669   1.170  12.912  0.1283  0.9368 -0.5363
 2312SOL    HW118572   3.648   1.087  12.868 -1.0482  0.7869  0.2917
 2312SOL    HW218573   3.585   1.185  12.955  0.5215 -1.0567  0.9171
 2313SOL     OW18574   1.736   3.046   7.950  0.1563  0.3201 -0.6219
 2313SOL    HW118575   1.686   2.970   7.978  0.8934 -0.4360 -1.3625
 2313SOL    HW218576   1.811   3.000   7.913  0.0583 -0.7801  0.5484
 2314SOL     OW18577   2.119   0.570   8.540  0.0894 -0.4489  0.0774
 2314SOL    HW118578   2.050   0.541   8.480 -0.0245  0.4091 -0.2047
 2314SOL    HW218579   2.142   0.652   8.497 -0.7369 -0.5039 -0.4710
 2315SOL     OW18580   2.131   4.690   5.783 -0.3530 -0.4119  0.3794
 2315SOL    HW118581   2.149   0.048   5.763  0.0952 -0.4637  0.5405
 2315SOL    HW218582   2.209   4.670   5.834  0.8044  2.0136 -0.4345
 2316SOL     OW18583   4.488   2.200   3.092  0.6222  0.2177 -0.0421
 2316SOL    HW118584   4.418   2.189   3.027 -1.7144 -1.5344  2.7604
 2316SOL    HW218585   4.455   2.278   3.137  0.8161  0.8152 -0.9286
 2317SOL     OW18586   2.562   0.308   8.619 -0.3236 -0.1915  0.2775
 2317SOL    HW118587   2.548   0.346   8.532 -3.1880 -1.3947  0.2024
 2317SOL    HW218588   2.496   0.358   8.668 -1.2562  0.6443 -1.8368
 2318SOL     OW18589   3.248   0.622  16.726  0.0763  0.6303 -0.2049
 2318SOL    HW118590   3.278   0.569  16.800  2.7736 -0.3582 -2.0035
 2318SOL    HW218591   3.320   0.684  16.721  0.8754 -0.2219  0.8074
 2319SOL     OW18592   2.104   1.001   3.479 -0.1588  0.0353 -0.1087
 2319SOL    HW118593   2.158   1.004   3.400  1.9594 -0.6155  1.2905
 2319SOL    HW218594   2.025   0.964   3.439 -0.9608  0.1023  1.4008
 2320SOL     OW18595   0.021   2.876   2.914 -0.2889 -0.0091 -0.1469
 2320SOL    HW118596   0.028   2.889   3.009  0.7226  2.6799 -0.5828
 2320SOL    HW218597   0.017   2.781   2.908 -2.6636  0.1404 -1.1699
 2321SOL     OW18598   2.348   3.832  13.533 -0.6751 -0.0114 -0.0513
 2321SOL    HW118599   2.268   3.884  13.528 -1.2413 -0.8288  0.6007
 2321SOL    HW218600   2.366   3.815  13.440  1.7239 -0.0947  0.4256
 2322SOL     OW18601   3.163   3.004  15.075  0.0118 -0.4485  0.1840
 2322SOL    HW118602   3.090   3.006  15.014 -2.4886 -0.6630  3.1947
 2322SOL    HW218603   3.132   2.939  15.138 -0.2014 -0.0569  0.4846
 2323SOL     OW18604   3.977   1.798   3.743 -0.2018 -0.7826  0.3867
 2323SOL    HW118605   3.938   1.832   3.824 -1.4359 -0.9762 -0.1176
 2323SOL    HW218606   3.975   1.705   3.763  0.0652 -0.6697  0.9365
 2324SOL     OW18607   1.855   0.208   6.070  0.1826 -0.1334 -0.0604
 2324SOL    HW118608   1.811   0.183   6.151  0.5469  0.2610  0.2624
 2324SOL    HW218609   1.895   0.122   6.054 -0.0488 -0.0129 -1.2774
 2325SOL     OW18610   1.780   2.821   1.530 -0.5745  0.0649 -0.0172
 2325SOL    HW118611   1.739   2.735   1.541 -1.1009  0.3086 -0.0477
 2325SOL    HW218612   1.845   2.828   1.600 -1.2020  2.3591  0.3182
 2326SOL     OW18613   1.960   3.894   3.166  0.1399  0.1346 -0.5197
 2326SOL    HW118614   1.868   3.879   3.186  1.1336 -1.0102  3.1894
 2326SOL    HW218615   1.977   3.818   3.109 -1.8818 -0.4328 -0.3552
 2327SOL     OW18616   4.534   3.933   2.633 -0.0246  0.2550 -0.1868
 2327SOL    HW118617   4.556   4.003   2.694  1.0250 -0.8324  0.6917
 2327SOL    HW218618   4.618   3.935   2.588 -0.2780 -2.5632 -0.8233
 2328SOL     OW18619   1.701   1.140  16.976 -0.4143  0.4121  0.2774
 2328SOL    HW118620   1.714   1.169  16.886 -1.5551 -2.0453 -0.7065
 2328SOL    HW218621   1.607   1.139  16.993 -0.9848  3.7632 -2.6513
 2329SOL     OW18622   4.553   3.354   5.801  0.7064 -0.0572  0.2567
 2329SOL    HW118623   4.464   3.374   5.771  1.4075  3.5903  0.6006
 2329SOL    HW218624   4.542   3.334   5.893 -0.4712  1.0838  0.3676
 2330SOL     OW18625   0.244   3.295   8.717  0.5842 -0.0829  0.6671
 2330SOL    HW118626   0.309   3.305   8.787  0.9421 -0.9338  0.4450
 2330SOL    HW218627   0.291   3.333   8.643 -1.9133  2.0366  0.1568
 2331SOL     OW18628   2.978   1.134   2.637 -0.1601 -0.1389  0.2758
 2331SOL    HW118629   2.907   1.078   2.604 -0.2041  0.1702 -0.1509
 2331SOL    HW218630   3.042   1.132   2.566 -0.1936  0.3714  0.2313
 2332SOL     OW18631   0.902   0.945   3.010  0.3447  0.8478  0.1852
 2332SOL    HW118632   0.810   0.943   2.983  0.8369  0.8022 -1.4839
 2332SOL    HW218633   0.911   1.036   3.040  0.4641  1.0065 -0.3388
 2333SOL     OW18634   3.261   4.389   2.349  0.0425  0.5515  0.2918
 2333SOL    HW118635   3.246   4.333   2.273  2.5040 -1.4460  1.2774
 2333SOL    HW218636   3.318   4.457   2.315 -0.9145  0.4181 -1.5657
 2334SOL     OW18637   0.212   2.228  12.993 -0.1977 -0.0704 -0.1162
 2334SOL    HW118638   0.251   2.314  13.011  2.6170 -1.4993  0.5992
 2334SOL    HW218639   0.273   2.193  12.929 -0.3967  2.8505 -1.8951
 2335SOL     OW18640   0.476   1.305   4.775  0.2831 -0.4753  0.1755
 2335SOL    HW118641   0.465   1.400   4.777  1.4892 -0.3044 -1.0488
 2335SOL    HW218642   0.391   1.281   4.739 -0.6753  1.9038  0.8773
 2336SOL     OW18643   3.232   4.497   8.640  0.2663 -0.1013  0.8498
 2336SOL    HW118644   3.164   4.467   8.700 -1.1848  2.5579  0.5500
 2336SOL    HW218645   3.243   4.591   8.654  1.2644 -0.2196  0.8539
 2337SOL     OW18646   2.895   2.415   6.706  0.2600  0.0124  0.0165
 2337SOL    HW118647   2.905   2.341   6.645  0.6495 -0.2811  0.4331
 2337SOL    HW218648   2.805   2.398   6.733  0.4845 -0.5689  0.4090
 2338SOL     OW18649   1.522   4.141  15.636  0.1285 -0.4284 -0.3213
 2338SOL    HW118650   1.534   4.231  15.666  1.1258 -0.4806 -0.5563
 2338SOL    HW218651   1.565   4.085  15.701 -0.4959 -0.9441 -0.3549
 2339SOL     OW18652   3.452   4.658   5.518 -0.7669  0.0221 -0.3846
 2339SOL    HW118653   3.477   4.665   5.610 -0.1004  0.7222 -0.6196
 2339SOL    HW218654   3.487   4.572   5.495  0.1881  0.8403 -2.0376
 2340SOL     OW18655   0.714   1.072  10.127 -0.3078 -0.0914 -0.1772
 2340SOL    HW118656   0.771   1.122  10.185 -0.1403 -0.9307  0.3856
 2340SOL    HW218657   0.653   1.138  10.094  1.5856  1.0536 -1.3527
 2341SOL     OW18658   1.222   4.203   5.532  0.2171  0.1259 -0.0581
 2341SOL    HW118659   1.263   4.274   5.582 -3.5579  2.3450 -0.1598
 2341SOL    HW218660   1.296   4.195   5.472 -0.5502  2.0091 -1.2423
 2342SOL     OW18661   1.466   4.293  10.523 -0.2706 -0.4029 -0.1291
 2342SOL    HW118662   1.521   4.286  10.600  0.0968  0.9841 -0.2684
 2342SOL    HW218663   1.431   4.382  10.531 -0.1709 -0.3730 -0.0321
 2343SOL     OW18664   0.940   4.297  17.541  0.1071  0.2244 -0.1620
 2343SOL    HW118665   0.868   4.235  17.554 -0.0299  0.6579  1.2134
 2343SOL    HW218666   0.964   4.288  17.449  0.3455 -1.1234  0.0299
 2344SOL     OW18667   0.703   3.537   4.463 -0.0490  0.4699  0.5525
 2344SOL    HW118668   0.727   3.629   4.448 -0.7809  0.7108  0.8553
 2344SOL    HW218669   0.702   3.504   4.374 -1.0101  0.6033  0.5121
 2345SOL     OW18670   3.447   3.065   7.200  0.1184 -0.3516  0.4527
 2345SOL    HW118671   3.448   3.157   7.172  0.9681 -1.1739 -2.1711
 2345SOL    HW218672   3.481   3.019   7.124 -1.4688  0.0833 -0.5292
 2346SOL     OW18673   3.369   2.476   1.856  0.3487  0.4038 -0.4449
 2346SOL    HW118674   3.299   2.413   1.872 -0.4912  0.8964 -2.2259
 2346SOL    HW218675   3.324   2.555   1.886  0.6928  0.7696 -0.8881
 2347SOL     OW18676   1.953   4.179  16.074  0.3447  0.3948 -0.8961
 2347SOL    HW118677   1.868   4.135  16.079  0.0357  1.1408  0.4648
 2347SOL    HW218678   1.953   4.223  15.989 -1.1324 -0.1073 -1.1583
 2348SOL     OW18679   1.100   0.469  10.819  0.0011 -0.2005  0.0781
 2348SOL    HW118680   1.083   0.390  10.768 -0.8710 -0.7902  1.3106
 2348SOL    HW218681   1.039   0.537  10.789  1.7450  1.0263 -0.6556
 2349SOL     OW18682   2.047   4.243   8.562  0.1597 -0.6889  0.3435
 2349SOL    HW118683   2.044   4.307   8.491  0.5853  0.7335  1.6328
 2349SOL    HW218684   2.046   4.156   8.521 -0.6508 -0.1796 -0.7141
 2350SOL     OW18685   4.525   1.333   0.765 -0.3831 -0.4303  0.9621
 2350SOL    HW118686   4.510   1.424   0.789  0.4098 -0.3857  1.3115
 2350SOL    HW218687   4.614   1.328   0.730 -0.8774  0.2203 -0.3505
 2351SOL     OW18688   2.621   3.685   2.690  0.2733 -0.2641 -0.4216
 2351SOL    HW118689   2.615   3.600   2.735  2.9105  0.6190  1.5461
 2351SOL    HW218690   2.696   3.714   2.741  1.1645 -0.9194 -1.3562
 2352SOL     OW18691   2.958   1.914   5.401 -0.2662 -0.3049  0.1497
 2352SOL    HW118692   3.013   1.858   5.345  0.0384  2.1223 -1.9839
 2352SOL    HW218693   3.029   1.966   5.441  0.1566  0.1296 -1.1625
 2353SOL     OW18694   1.032   0.816   4.440  0.3487  0.8663  0.4777
 2353SOL    HW118695   1.091   0.858   4.502  2.6930 -0.6234 -0.7384
 2353SOL    HW218696   0.949   0.860   4.461 -0.0174  0.3127  0.1731
 2354SOL     OW18697   3.372   0.584   1.753 -0.0423  0.2788  0.8681
 2354SOL    HW118698   3.376   0.539   1.669  0.2087 -0.5346  1.3136
 2354SOL    HW218699   3.427   0.662   1.746 -0.1289  0.2384 -0.2654
 2355SOL     OW18700   0.918   2.075   7.720  0.5710 -0.1065  0.2281
 2355SOL    HW118701   0.890   2.145   7.779 -0.0730 -2.5706  2.8646
 2355SOL    HW218702   1.013   2.076   7.735  0.2092  1.5373  2.4344
 2356SOL     OW18703   2.007   2.889  16.209 -0.6970 -0.0566 -0.0230
 2356SOL    HW118704   1.938   2.843  16.160 -0.1094  1.0397 -1.8990
 2356SOL    HW218705   2.015   2.825  16.279  1.5332  0.4845  0.2213
 2357SOL     OW18706   1.275   1.993   3.243  0.1300  0.1112  0.0002
 2357SOL    HW118707   1.253   2.028   3.157  2.1687  0.3862 -0.3992
 2357SOL    HW218708   1.267   1.899   3.229  0.3685  0.0965 -0.0364
 2358SOL     OW18709   2.864   4.622  15.612 -0.1373 -0.0598  0.2169
 2358SOL    HW118710   2.904   4.622  15.525 -0.1742  0.5600  0.1986
 2358SOL    HW218711   2.801   4.552  15.599  1.2947 -1.2159 -0.5201
 2359SOL     OW18712   0.789   0.318  10.297 -0.3748  0.5395 -0.3227
 2359SOL    HW118713   0.849   0.370  10.351 -0.8261 -2.0975  2.7532
 2359SOL    HW218714   0.708   0.355  10.334 -1.5460 -1.0429 -1.2913
 2360SOL     OW18715   1.535   1.995   6.392  0.0520  0.3828 -0.5590
 2360SOL    HW118716   1.469   2.056   6.424  0.8428  1.2015 -0.5251
 2360SOL    HW218717   1.490   1.910   6.391 -0.8226  0.8330  0.5699
 2361SOL     OW18718   2.646   2.561   4.291 -0.0814 -0.1928 -0.5533
 2361SOL    HW118719   2.657   2.608   4.374  1.0026 -0.0103 -0.7939
 2361SOL    HW218720   2.635   2.471   4.322  2.8966 -0.0227  1.0852
 2362SOL     OW18721   0.982   0.342   6.517  0.3572 -0.2884  0.6400
 2362SOL    HW118722   0.962   0.374   6.429 -1.3541  0.7091  1.3934
 2362SOL    HW218723   0.913   0.386   6.566  1.1601  0.2798  1.2689
 2363SOL     OW18724   0.068   0.032   2.018  0.3848  0.5001 -0.0325
 2363SOL    HW118725   0.060   0.037   1.923 -0.0883  0.9102  0.0277
 2363SOL    HW218726   0.002   0.096   2.045  1.7876  1.1797  1.7901
 2364SOL     OW18727   0.609   2.395   7.364 -0.1293  0.2317 -0.0610
 2364SOL    HW118728   0.648   2.482   7.354 -0.5813  0.5217  0.6527
 2364SOL    HW218729   0.676   2.335   7.395  0.7929  0.3937 -1.7572
 2365SOL     OW18730   4.194   4.422   3.753 -0.5418 -0.0438 -0.0368
 2365SOL    HW118731   4.241   4.503   3.770 -1.2280  0.6847 -1.5681
 2365SOL    HW218732   4.254   4.388   3.687  1.5171  0.9989  1.3098
 2366SOL     OW18733   3.573   3.766   8.159  0.1486 -0.1683  0.9626
 2366SOL    HW118734   3.485   3.783   8.192  0.3761  0.2271  1.3700
 2366SOL    HW218735   3.620   3.823   8.221 -0.1430  0.7172  0.3760
 2367SOL     OW18736   1.848   3.636   4.026 -0.5351  0.3610 -0.7029
 2367SOL    HW118737   1.885   3.651   4.112 -2.1399 -0.2401  0.0943
 2367SOL    HW218738   1.756   3.614   4.039 -0.3566  0.4881  0.7222
 2368SOL     OW18739   3.597   4.184  11.059 -0.2689 -0.3447  1.0122
 2368SOL    HW118740   3.668   4.228  11.012 -0.9265  0.8324  1.1065
 2368SOL    HW218741   3.517   4.209  11.011 -0.4773 -0.9206  1.0585
 2369SOL     OW18742   4.344   1.849   9.506 -0.2010  0.0807  0.0145
 2369SOL    HW118743   4.354   1.757   9.532  1.3715  0.3581  0.4138
 2369SOL    HW218744   4.384   1.843   9.419 -0.1441  2.2260 -0.1100
 2370SOL     OW18745   1.513   3.122  17.264 -0.4843  0.0864 -0.8329
 2370SOL    HW118746   1.489   3.101  17.174 -0.9191  0.5225 -0.8170
 2370SOL    HW218747   1.606   3.100  17.253 -0.0856  1.4184 -0.2364
 2371SOL     OW18748   1.472   4.631   3.842  0.1319 -0.2944  0.5157
 2371SOL    HW118749   1.527   4.679   3.780 -0.2153 -0.4265  0.1051
 2371SOL    HW218750   1.408   4.700   3.864  0.6641 -0.3154  2.0996
 2372SOL     OW18751   3.565   0.419   5.556  0.0567 -0.0181  0.6186
 2372SOL    HW118752   3.605   0.332   5.565  4.2510  1.7599 -1.1316
 2372SOL    HW218753   3.622   0.478   5.604  0.3520  0.7114 -0.6339
 2373SOL     OW18754   0.372   4.243  12.055  0.4442  0.4629  0.3884
 2373SOL    HW118755   0.377   4.235  11.960 -3.3087  0.5261  0.1714
 2373SOL    HW218756   0.324   4.325  12.063  2.0077  1.2699  1.2552
 2374SOL     OW18757   0.354   4.537  13.327  0.2365 -0.0172  0.4157
 2374SOL    HW118758   0.286   4.499  13.383 -1.3322  0.3262 -1.2265
 2374SOL    HW218759   0.341   4.631  13.334  0.9201  0.0100  1.3076
 2375SOL     OW18760   0.507   0.964   5.227 -0.3028  0.4115  0.0289
 2375SOL    HW118761   0.598   0.936   5.216 -0.2573  0.3980  0.4532
 2375SOL    HW218762   0.479   0.987   5.139 -0.9349  1.1338  0.4163
 2376SOL     OW18763   3.784   3.273   7.028  0.0790 -0.8471  0.3206
 2376SOL    HW118764   3.722   3.224   6.975  0.3802 -1.4692  0.5523
 2376SOL    HW218765   3.778   3.222   7.108  0.5716 -1.4372 -0.0234
 2377SOL     OW18766   3.165   4.307   4.134 -0.1628 -0.4091 -0.1193
 2377SOL    HW118767   3.223   4.372   4.093  0.9933 -0.0951  2.0347
 2377SOL    HW218768   3.146   4.241   4.066  0.7056 -0.7701 -0.0211
 2378SOL     OW18769   2.766   1.731   8.962 -0.8085 -0.7169  0.3262
 2378SOL    HW118770   2.822   1.653   8.970 -0.9936 -0.7235  1.4716
 2378SOL    HW218771   2.744   1.748   9.053  0.1798  0.5514  0.3224
 2379SOL     OW18772   4.475   0.707   7.089 -0.0333 -0.1523 -0.1645
 2379SOL    HW118773   4.446   0.731   7.000 -2.9244 -0.2999  0.7342
 2379SOL    HW218774   4.528   0.632   7.064 -0.9678 -0.7964 -0.2123
 2380SOL     OW18775   0.589   4.010   9.857  0.1388 -0.0204  0.4432
 2380SOL    HW118776   0.499   4.024   9.888  0.3792 -1.1907  1.7003
 2380SOL    HW218777   0.621   4.099   9.841  0.3559 -0.3436 -0.8906
 2381SOL     OW18778   2.867   0.774   3.825 -0.7336  0.2253 -0.5413
 2381SOL    HW118779   2.842   0.697   3.775  2.5489 -0.3908 -1.2226
 2381SOL    HW218780   2.866   0.749   3.917  0.2252  0.7387 -0.3856
 2382SOL     OW18781   1.248   0.309  15.223  0.1893  0.0201 -0.0886
 2382SOL    HW118782   1.253   0.384  15.282  1.6399 -0.0772 -0.1078
 2382SOL    HW218783   1.186   0.256  15.273  2.3393 -2.6651 -0.2722
 2383SOL     OW18784   1.293   4.180   6.784  0.3390  0.4836 -0.0954
 2383SOL    HW118785   1.381   4.195   6.749  1.2292  1.9411  2.7552
 2383SOL    HW218786   1.302   4.236   6.861 -1.7910  0.9093 -0.1601
 2384SOL     OW18787   0.723   0.051   4.020  0.2084  0.3190  0.2016
 2384SOL    HW118788   0.681   0.006   3.947  0.6514 -2.4667  1.6542
 2384SOL    HW218789   0.732   4.715   4.085 -1.5455 -1.1435 -1.1094
 2385SOL     OW18790   3.746   3.569   8.907  0.4978  0.2343  0.2268
 2385SOL    HW118791   3.755   3.559   9.002  1.3575  0.5204  0.1753
 2385SOL    HW218792   3.823   3.520   8.879  0.7825  0.3217  0.8625
 2386SOL     OW18793   0.553   1.294   0.047 -0.0984 -0.5771 -0.0115
 2386SOL    HW118794   0.509   1.350  17.719  2.1787  0.5760 -0.5573
 2386SOL    HW218795   0.504   1.213   0.036 -0.6082 -0.3197  0.3620
 2387SOL     OW18796   3.535   4.158  16.716 -0.2760 -0.5613  0.0048
 2387SOL    HW118797   3.567   4.193  16.799  0.5981 -2.4017  0.4527
 2387SOL    HW218798   3.475   4.224  16.683 -0.8767 -1.2267 -0.2283
 2388SOL     OW18799   3.134   2.180   6.307 -0.5854 -0.0099  0.2156
 2388SOL    HW118800   3.216   2.131   6.309  0.7482  2.0688 -2.7620
 2388SOL    HW218801   3.132   2.216   6.218 -2.8908 -0.5374  0.0568
 2389SOL     OW18802   0.686   1.313   4.972 -0.2203  0.3517 -0.6442
 2389SOL    HW118803   0.662   1.375   5.041 -1.6295 -0.6017 -0.2690
 2389SOL    HW218804   0.603   1.308   4.924  0.8020  1.5672 -2.5148
 2390SOL     OW18805   0.752   1.011  15.092  0.5529  0.0249 -0.0580
 2390SOL    HW118806   0.781   1.029  15.181 -0.3469  0.6128  0.1133
 2390SOL    HW218807   0.702   0.929  15.103 -1.9142  1.6795  1.0932
 2391SOL     OW18808   0.578   3.451   4.692  0.3442  0.1978  0.2260
 2391SOL    HW118809   0.616   3.463   4.605 -1.6952 -1.2715 -0.8689
 2391SOL    HW218810   0.484   3.464   4.678  0.2634  0.2414  0.8226
 2392SOL     OW18811   3.630   3.257   5.091 -0.1227 -0.2421 -0.2909
 2392SOL    HW118812   3.649   3.289   5.179  0.9176 -0.0433 -0.5871
 2392SOL    HW218813   3.720   3.270   5.061  0.2282 -1.5772  0.1745
 2393SOL     OW18814   0.050   4.241   5.846 -0.2364 -0.0438  0.3819
 2393SOL    HW118815   0.081   4.317   5.896 -0.3525 -0.1142  0.5610
 2393SOL    HW218816   0.107   4.245   5.769  0.9391  0.5685  1.2886
 2394SOL     OW18817   4.368   0.046   4.362 -0.3798  0.0773 -0.7723
 2394SOL    HW118818   4.276   0.067   4.343 -0.7541  0.2011  1.1971
 2394SOL    HW218819   4.368   4.707   4.423  0.3960  0.6479 -0.0992
 2395SOL     OW18820   3.127   1.360   3.001 -0.0105 -0.0448 -1.0381
 2395SOL    HW118821   3.084   1.275   2.996  0.4697 -0.3575  0.1711
 2395SOL    HW218822   3.164   1.348   3.089 -0.5251 -0.8418 -0.9266
 2396SOL     OW18823   0.992   2.817   4.871  0.1979  0.2655 -0.1392
 2396SOL    HW118824   0.993   2.725   4.898  2.7542  0.9440  2.0354
 2396SOL    HW218825   0.909   2.823   4.824  0.4695 -0.2749 -0.6988
 2397SOL     OW18826   0.661   1.985  17.665  1.3124  0.3311  0.5541
 2397SOL    HW118827   0.643   2.070  17.625 -0.6797 -0.3557  0.0073
 2397SOL    HW218828   0.710   2.009   0.008 -0.9921  0.3665  1.9751
 2398SOL     OW18829   1.380   1.544   8.463 -0.0506  0.5492  0.2096
 2398SOL    HW118830   1.373   1.635   8.491 -2.0818 -0.1976  2.0993
 2398SOL    HW218831   1.440   1.551   8.389 -1.6779  2.6221 -0.9120
 2399SOL     OW18832   0.942   0.005   6.835 -0.2316  0.5748 -0.3260
 2399SOL    HW118833   0.940   0.039   6.924 -0.6317  0.0913 -0.1560
 2399SOL    HW218834   1.017   0.051   6.796  0.2184  0.2123  0.1183
 2400SOL     OW18835   0.929   3.847  14.018 -0.2522 -0.5387 -0.6801
 2400SOL    HW118836   0.916   3.902  13.941 -3.6499 -0.0845  0.1992
 2400SOL    HW218837   0.999   3.788  13.991 -0.7904 -0.6839 -1.7402
 2401SOL     OW18838   2.812   0.044   4.472 -0.1938 -0.2100  0.5918
 2401SOL    HW118839   2.759   4.700   4.464 -1.6600  0.9733 -1.2440
 2401SOL    HW218840   2.751   0.103   4.517 -1.0025  0.7982 -1.8250
 2402SOL     OW18841   0.547   0.325   6.060 -0.4213  0.4745  0.1177
 2402SOL    HW118842   0.524   0.237   6.032 -0.1714 -0.2935  2.2864
 2402SOL    HW218843   0.475   0.372   6.019 -0.5065  0.5631  0.3676
 2403SOL     OW18844   4.240   3.349   9.724  0.3664 -0.2004  0.0487
 2403SOL    HW118845   4.212   3.278   9.781  0.5850  1.8287  2.6842
 2403SOL    HW218846   4.159   3.396   9.707 -0.8344 -2.9122 -1.7344
 2404SOL     OW18847   3.836   1.533   7.429  0.1402  0.0033  0.4725
 2404SOL    HW118848   3.835   1.593   7.503  1.5331 -0.5287  0.9192
 2404SOL    HW218849   3.747   1.538   7.394  0.3745 -0.3610 -0.1812
 2405SOL     OW18850   1.338   1.820   8.363  0.1621  0.0678 -0.8540
 2405SOL    HW118851   1.332   1.808   8.268 -0.3139 -0.1364 -0.7960
 2405SOL    HW218852   1.253   1.858   8.383  0.8129  0.5142  1.0762
 2406SOL     OW18853   4.439   3.712   2.494 -0.6840  0.4762 -0.0699
 2406SOL    HW118854   4.502   3.647   2.524  0.1344  0.9448 -0.8110
 2406SOL    HW218855   4.472   3.790   2.537 -0.9976  0.8715 -0.5444
 2407SOL     OW18856   1.164   0.953   1.875  0.9460 -0.2510 -0.1399
 2407SOL    HW118857   1.143   1.030   1.928 -0.4324 -0.3111 -0.6049
 2407SOL    HW218858   1.202   0.903   1.947 -1.9554  0.1453  1.6787
 2408SOL     OW18859   1.050   2.437  14.798 -0.2192  0.4484  0.5505
 2408SOL    HW118860   1.062   2.409  14.708  0.0778  0.7800  0.4886
 2408SOL    HW218861   0.960   2.471  14.793 -0.1608  0.4528 -0.4494
 2409SOL     OW18862   1.502   4.040   4.749  0.0636 -0.0767 -0.7250
 2409SOL    HW118863   1.555   3.984   4.806  0.4083  1.1532  0.1600
 2409SOL    HW218864   1.458   3.966   4.707  0.0767 -0.2047 -0.5125
 2410SOL     OW18865   4.250   2.728   0.806 -1.4173 -0.3018 -0.1396
 2410SOL    HW118866   4.340   2.755   0.821 -1.2988 -1.5710  1.3985
 2410SOL    HW218867   4.229   2.776   0.726 -1.2660 -2.3576 -1.4041
 2411SOL     OW18868   4.487   0.833   7.763 -0.0290 -0.0628 -0.1865
 2411SOL    HW118869   4.437   0.874   7.693  0.5850 -0.4738 -0.8661
 2411SOL    HW218870   4.578   0.857   7.745 -0.0725 -0.8794 -1.4958
 2412SOL     OW18871   1.532   0.899   2.941 -0.3618  0.0145 -0.5323
 2412SOL    HW118872   1.497   0.937   3.022  0.2152 -0.4527 -0.0619
 2412SOL    HW218873   1.493   0.812   2.946  3.2390 -1.3350  3.9640
 2413SOL     OW18874   2.192   3.807   4.688  0.3045 -0.5499  0.3198
 2413SOL    HW118875   2.235   3.871   4.745  0.9904  0.5344 -1.4510
 2413SOL    HW218876   2.262   3.771   4.633  1.1485  0.8252  0.4905
 2414SOL     OW18877   3.375   4.690   7.613 -0.2036  0.3622 -0.3034
 2414SOL    HW118878   3.321   4.728   7.683  1.3644  0.7590  0.6908
 2414SOL    HW218879   3.324   4.719   7.538 -1.0133  3.1994  1.3700
 2415SOL     OW18880   4.706   4.386   4.242 -0.3487  0.1120 -0.4953
 2415SOL    HW118881   0.023   4.372   4.321  0.8118 -0.4894 -1.3485
 2415SOL    HW218882   4.632   4.438   4.272  1.0427  2.9094 -1.8734
 2416SOL     OW18883   2.191   4.104   3.902  0.1543 -0.0725 -0.6570
 2416SOL    HW118884   2.176   4.190   3.939  2.1821  0.0190 -0.0370
 2416SOL    HW218885   2.104   4.089   3.866  0.6835  1.1292 -2.4320
 2417SOL     OW18886   3.487   2.996  11.267 -0.2705 -0.4433  0.2851
 2417SOL    HW118887   3.471   2.960  11.180 -1.5175 -0.9095  0.7074
 2417SOL    HW218888   3.407   3.049  11.267 -0.5799 -0.9266  3.7255
 2418SOL     OW18889   2.971   1.017   8.387 -0.1168  0.3579  0.4261
 2418SOL    HW118890   3.053   0.993   8.343  0.7181  1.2708  1.5068
 2418SOL    HW218891   2.985   0.971   8.470 -0.1589  1.1000  0.8376
 2419SOL     OW18892   2.078   0.989  12.554 -0.1631 -0.1008 -0.1050
 2419SOL    HW118893   2.071   0.897  12.529 -0.7888 -0.1264  0.1482
 2419SOL    HW218894   2.018   1.034  12.494 -0.8902  0.0689  0.7550
 2420SOL     OW18895   3.329   3.986   0.260 -0.1928 -0.2661  0.8375
 2420SOL    HW118896   3.328   3.978   0.165 -0.8693 -1.5348  0.9447
 2420SOL    HW218897   3.407   3.941   0.291 -1.4574 -2.8311  0.2959
 2421SOL     OW18898   1.330   4.059   1.958  0.2097 -0.1980  0.0689
 2421SOL    HW118899   1.376   3.978   1.980  2.0147  1.0851  0.9854
 2421SOL    HW218900   1.239   4.036   1.944  0.9303 -2.4534 -0.8195
 2422SOL     OW18901   2.770   0.829   6.937  0.5128 -0.3585 -0.5906
 2422SOL    HW118902   2.834   0.868   6.997 -1.5534  0.7582  0.8884
 2422SOL    HW218903   2.686   0.852   6.977  0.5181 -0.2660 -0.6329
 2423SOL     OW18904   1.243   4.685  10.924 -0.4946 -0.1951 -0.2534
 2423SOL    HW118905   1.252   0.033  10.875  0.1714 -1.5365 -2.3746
 2423SOL    HW218906   1.324   4.689  10.975 -0.0926 -1.9526 -0.7712
 2424SOL     OW18907   0.840   2.604   6.868 -0.5055 -0.5983 -0.1866
 2424SOL    HW118908   0.862   2.632   6.779  1.9159 -4.0503 -0.6896
 2424SOL    HW218909   0.752   2.569   6.856 -0.5393 -0.5653 -0.0366
 2425SOL     OW18910   4.189   1.390   7.247 -0.2378 -0.3710 -0.2108
 2425SOL    HW118911   4.229   1.326   7.306  0.6413  0.3486 -0.0175
 2425SOL    HW218912   4.143   1.332   7.186 -1.7392 -0.8540  1.4053
 2426SOL     OW18913   0.407   0.103   6.284  0.6466 -0.6020 -0.1297
 2426SOL    HW118914   0.424   0.009   6.283  0.1860 -0.6929  1.0870
 2426SOL    HW218915   0.328   0.113   6.232 -0.2289  0.2492  1.3456
 2427SOL     OW18916   0.846   0.738   3.258 -0.2317  0.0386 -0.3588
 2427SOL    HW118917   0.816   0.660   3.305 -1.2418  2.3157  2.7931
 2427SOL    HW218918   0.912   0.703   3.198  0.7595 -1.1562  1.4304
 2428SOL     OW18919   2.048   1.332   1.551 -0.2866 -0.1719 -0.3526
 2428SOL    HW118920   2.059   1.337   1.456  2.1424 -0.1607 -0.0608
 2428SOL    HW218921   1.969   1.385   1.564 -0.7861 -0.6122 -1.5870
 2429SOL     OW18922   1.158   2.496   8.673  0.0891 -0.1604 -0.0245
 2429SOL    HW118923   1.090   2.528   8.614  0.2761  0.4468  0.0883
 2429SOL    HW218924   1.222   2.566   8.659 -1.6868  1.0670 -2.1032
 2430SOL     OW18925   3.474   1.416  16.395 -0.0543  0.2501  0.0214
 2430SOL    HW118926   3.526   1.339  16.417  1.3504  1.3028  0.4674
 2430SOL    HW218927   3.479   1.414  16.300  0.1279 -3.6594  0.1151
 2431SOL     OW18928   3.238   4.152   6.314 -0.0258  0.0572 -0.0884
 2431SOL    HW118929   3.151   4.127   6.345  0.3959 -1.3623 -0.0554
 2431SOL    HW218930   3.266   4.077   6.261 -0.5827  0.0194 -0.3347
 2432SOL     OW18931   1.589   3.239   1.407  0.0547  0.0413 -0.1041
 2432SOL    HW118932   1.584   3.331   1.433  0.2595 -0.5692  2.1277
 2432SOL    HW218933   1.523   3.210   1.471 -0.5711  2.5688  0.3927
 2433SOL     OW18934   0.194   1.963  13.135  0.0902  0.6257  0.1467
 2433SOL    HW118935   0.239   1.945  13.217  0.0522 -2.6560 -0.5403
 2433SOL    HW218936   0.170   2.055  13.140 -1.9364  0.1322 -0.0403
 2434SOL     OW18937   2.249   3.591   8.887 -0.1356  0.2191 -0.3681
 2434SOL    HW118938   2.302   3.588   8.808 -0.1421 -1.4610 -0.3119
 2434SOL    HW218939   2.219   3.682   8.888  0.0506  0.2794 -0.1447
 2435SOL     OW18940   3.609   0.862   2.319  0.3813  0.5851 -0.1852
 2435SOL    HW118941   3.678   0.802   2.293  0.5496  0.0544  1.5235
 2435SOL    HW218942   3.655   0.945   2.308  1.3035  0.1993  0.8266
 2436SOL     OW18943   1.229   1.186   4.476  0.1453  0.0990 -0.1251
 2436SOL    HW118944   1.211   1.105   4.525 -2.6277  1.6662  1.4847
 2436SOL    HW218945   1.171   1.248   4.520 -0.2207 -1.1320  1.1636
 2437SOL     OW18946   0.167   0.607   2.479 -0.0637  0.0798 -0.2324
 2437SOL    HW118947   0.157   0.560   2.396  0.2382 -1.6246  0.6891
 2437SOL    HW218948   0.076   0.614   2.507 -0.4320  0.4565 -1.5288
 2438SOL     OW18949   3.616   4.318   1.156 -0.7292 -0.1993 -0.2890
 2438SOL    HW118950   3.560   4.295   1.083  1.5757 -0.4586 -1.9859
 2438SOL    HW218951   3.674   4.242   1.164 -0.7082 -0.0880  0.6483
 2439SOL     OW18952   1.501   1.220   6.525 -0.2607 -0.2917 -0.3619
 2439SOL    HW118953   1.469   1.214   6.615  0.6591  1.8559  0.1169
 2439SOL    HW218954   1.596   1.213   6.535 -0.2572  0.0143 -0.1766
 2440SOL     OW18955   0.019   3.765   9.682  0.5499  0.6952 -0.2229
 2440SOL    HW118956   0.109   3.797   9.693  0.2851  1.3278  0.0644
 2440SOL    HW218957   0.029   3.671   9.700 -0.6787  0.4633 -0.7925
 2441SOL     OW18958   0.168   1.800  12.395 -0.1261 -0.2711  0.3940
 2441SOL    HW118959   0.248   1.852  12.388 -0.5350 -0.0100 -2.3761
 2441SOL    HW218960   0.149   1.817  12.487  0.3452  1.6850  0.1197
 2442SOL     OW18961   2.791   0.114   7.716 -0.5815 -0.2302  0.7003
 2442SOL    HW118962   2.719   0.145   7.661 -0.5077  0.3895  0.9517
 2442SOL    HW218963   2.763   0.023   7.728 -0.6732  0.1555  3.4282
 2443SOL     OW18964   2.769   0.369   2.336  0.5215 -0.2415  0.2105
 2443SOL    HW118965   2.753   0.410   2.251 -0.7360 -0.2983  0.4182
 2443SOL    HW218966   2.753   0.279   2.308  0.6632 -0.1209 -0.2556
 2444SOL     OW18967   3.551   0.542  12.339 -0.4895 -0.6142  0.7394
 2444SOL    HW118968   3.463   0.577  12.328  0.7017  2.1048 -0.1962
 2444SOL    HW218969   3.543   0.448  12.327 -1.4427 -0.8951  3.5427
 2445SOL     OW18970   2.198   2.333   5.867  0.1683 -0.2584 -0.4664
 2445SOL    HW118971   2.191   2.297   5.955  3.1187 -0.9994 -0.5377
 2445SOL    HW218972   2.114   2.312   5.827 -0.2448  1.0065 -0.2631
 2446SOL     OW18973   1.067   4.347   2.609 -0.2982 -0.0439  0.0837
 2446SOL    HW118974   1.001   4.373   2.544 -0.0346  1.4862  0.4439
 2446SOL    HW218975   1.140   4.390   2.565 -0.3320 -2.1677 -2.0878
 2447SOL     OW18976   3.856   0.697  17.075 -0.1247  0.4769 -0.5787
 2447SOL    HW118977   3.770   0.732  17.052  1.0175 -0.2335 -5.9306
 2447SOL    HW218978   3.823   0.614  17.110  2.2538 -0.0244  0.4881
 2448SOL     OW18979   2.212   1.147   5.331 -0.1357 -0.2601 -0.3375
 2448SOL    HW118980   2.123   1.131   5.300  0.2278  0.8557 -1.9750
 2448SOL    HW218981   2.244   1.207   5.263 -0.0430  1.1054  0.9113
 2449SOL     OW18982   4.074   1.506  13.804 -0.1725 -0.0930 -0.0468
 2449SOL    HW118983   4.006   1.480  13.742 -2.2940  0.0729  2.2153
 2449SOL    HW218984   4.079   1.601  13.789 -0.9867 -0.4640 -2.7650
 2450SOL     OW18985   3.463   2.838  15.670  0.2131 -0.5155  0.2123
 2450SOL    HW118986   3.484   2.783  15.594  1.2651  0.6616 -0.3408
 2450SOL    HW218987   3.545   2.820  15.717  0.5735  1.2305  0.2442
 2451SOL     OW18988   1.883   1.969   7.642 -0.6382  0.2568 -0.7730
 2451SOL    HW118989   1.900   1.875   7.644  0.5329  0.4541 -1.6568
 2451SOL    HW218990   1.823   1.975   7.716 -0.9285 -1.2646 -0.8831
 2452SOL     OW18991   0.499   4.370   5.630  0.3907 -0.3301 -0.7239
 2452SOL    HW118992   0.480   4.422   5.707 -0.4276 -1.7984  0.0710
 2452SOL    HW218993   0.426   4.392   5.572  0.5100  0.0328 -0.7303
 2453SOL     OW18994   1.036   1.039   0.946  0.6433  0.4249 -0.5190
 2453SOL    HW118995   0.974   1.027   0.874  1.7612 -1.2522 -1.2028
 2453SOL    HW218996   1.016   0.959   0.994 -0.9047  0.1904 -1.5542
 2454SOL     OW18997   4.019   0.329   7.494 -0.2423  0.3342 -0.0260
 2454SOL    HW118998   4.097   0.349   7.544  0.1218  0.0755 -0.4902
 2454SOL    HW218999   3.967   0.267   7.546  1.3213  1.1425  2.4995
 2455SOL     OW19000   3.159   1.058   2.425 -0.0837 -0.1041 -0.0464
 2455SOL    HW119001   3.139   1.019   2.340  0.1214 -4.0825  1.7493
 2455SOL    HW219002   3.230   1.003   2.460  0.3489 -0.4708 -1.5156
 2456SOL     OW19003   1.240   1.969   2.359 -0.2130  0.5892 -0.0428
 2456SOL    HW119004   1.225   2.053   2.402  0.4322  0.4956  0.3681
 2456SOL    HW219005   1.182   1.961   2.284  0.8263  0.9654 -0.8962
 2457SOL     OW19006   3.251   0.149  12.336 -0.2046 -0.1613  0.0894
 2457SOL    HW119007   3.251   0.231  12.386  0.6729  0.8041 -1.4928
 2457SOL    HW219008   3.172   0.111  12.375 -0.3472  0.4454  0.3902
 2458SOL     OW19009   1.797   3.542  10.303  0.6479  0.1687  0.2828
 2458SOL    HW119010   1.758   3.488  10.373 -0.0325  0.3515  0.0442
 2458SOL    HW219011   1.878   3.571  10.346 -0.0665 -1.3443  2.6756
 2459SOL     OW19012   2.521   4.358   8.533  0.5938 -1.1182  0.4358
 2459SOL    HW119013   2.457   4.427   8.515  0.2975 -1.6603 -0.5630
 2459SOL    HW219014   2.526   4.352   8.629  2.6449 -1.4132  0.3086
 2460SOL     OW19015   2.511   1.285  14.628 -0.1522  0.5763 -0.0633
 2460SOL    HW119016   2.472   1.198  14.617 -1.7124  1.2122  0.4767
 2460SOL    HW219017   2.507   1.285  14.723 -2.2007 -0.5905 -0.1385
 2461SOL     OW19018   1.236   4.486  11.278 -0.3408 -0.0123 -0.5127
 2461SOL    HW119019   1.303   4.537  11.231  0.1806  0.7322  1.0452
 2461SOL    HW219020   1.291   4.441  11.342 -0.2667  0.4400 -0.2551
 2462SOL     OW19021   3.285   4.523   1.838 -0.1827 -0.0377  0.3514
 2462SOL    HW119022   3.278   4.524   1.933 -1.9340  0.6837  0.2163
 2462SOL    HW219023   3.194   4.501   1.817  0.1637 -0.9079 -0.2404
 2463SOL     OW19024   2.569   3.897  10.290  0.0866 -0.0046 -0.0315
 2463SOL    HW119025   2.540   3.813  10.255 -0.6353  0.2633 -0.0695
 2463SOL    HW219026   2.628   3.875  10.362  0.0009 -1.4246 -0.3930
 2464SOL     OW19027   0.868   2.641  13.888 -0.1402 -0.0229  0.0008
 2464SOL    HW119028   0.779   2.672  13.869 -0.6109 -0.3767  1.6425
 2464SOL    HW219029   0.847   2.556  13.927  0.8920 -0.0640  0.4607
 2465SOL     OW19030   3.961   2.303   2.866 -0.0508  0.3066  0.0922
 2465SOL    HW119031   3.929   2.214   2.877 -3.1858  1.3328 -0.6055
 2465SOL    HW219032   3.888   2.338   2.814  0.5861  1.4880  0.0045
 2466SOL     OW19033   2.124   1.753   5.615  0.3463  0.0818 -0.1403
 2466SOL    HW119034   2.136   1.701   5.695  1.3459  2.7247  1.4609
 2466SOL    HW219035   2.030   1.752   5.599  0.2408 -2.3105  0.6989
 2467SOL     OW19036   1.544   0.766  14.006 -0.1118 -0.7745 -0.3737
 2467SOL    HW119037   1.548   0.808  13.920  2.8125  0.9080  0.5808
 2467SOL    HW219038   1.523   0.676  13.984 -3.5171  0.2674 -1.3481
 2468SOL     OW19039   3.704   4.476   2.785 -0.8784  0.4230 -0.3757
 2468SOL    HW119040   3.691   4.557   2.835  0.6949  0.4932 -0.0692
 2468SOL    HW219041   3.790   4.492   2.747 -1.4960 -0.0356 -1.9784
 2469SOL     OW19042   1.589   3.893   3.910 -0.4203 -0.1643 -0.4217
 2469SOL    HW119043   1.679   3.902   3.941 -0.2971 -0.4032 -0.7097
 2469SOL    HW219044   1.596   3.911   3.816 -1.3628  0.5143 -0.3711
 2470SOL     OW19045   2.023   1.740   3.775  0.8996  0.1562  0.0212
 2470SOL    HW119046   2.074   1.660   3.760  0.0407 -0.5862  1.0893
 2470SOL    HW219047   2.004   1.770   3.686 -0.5410  1.1613  0.6718
 2471SOL     OW19048   4.414   1.169  17.494 -0.1738 -0.1678  0.5610
 2471SOL    HW119049   4.368   1.088  17.473 -0.9301  0.1423  1.0145
 2471SOL    HW219050   4.482   1.177  17.427 -0.8947 -0.6171 -0.2344
 2472SOL     OW19051   1.062   2.596   3.929  0.9974 -0.4041 -0.1845
 2472SOL    HW119052   1.141   2.631   3.970  0.5565  0.7107 -0.2822
 2472SOL    HW219053   1.014   2.594   4.011  0.8064 -1.5830 -0.3221
 2473SOL     OW19054   2.367   3.189  13.621 -0.0082  0.1095  0.2545
 2473SOL    HW119055   2.302   3.162  13.556 -0.3438  1.6858 -0.0678
 2473SOL    HW219056   2.406   3.102  13.615 -0.8864 -0.3036  0.5232
 2474SOL     OW19057   1.496   0.197  13.682  0.1112  0.2927  0.5072
 2474SOL    HW119058   1.435   0.268  13.700 -0.5733  0.4088 -2.1826
 2474SOL    HW219059   1.522   0.184  13.773  0.3234  3.5761  0.8982
 2475SOL     OW19060   1.482   3.925  10.223  0.2973 -0.3131 -0.5719
 2475SOL    HW119061   1.548   3.858  10.241  0.1256  0.1837  1.8848
 2475SOL    HW219062   1.515   4.001  10.271 -0.7802 -0.6376  0.6945
 2476SOL     OW19063   2.941   1.371   4.720 -0.0106  0.1248  0.1732
 2476SOL    HW119064   3.025   1.381   4.676  0.5268  1.1155  1.4482
 2476SOL    HW219065   2.959   1.301   4.783  0.0973 -0.9638 -1.0603
 2477SOL     OW19066   0.564   0.138   0.774  0.0747  0.0742 -0.6253
 2477SOL    HW119067   0.547   0.226   0.807 -0.3421 -0.6216  1.0114
 2477SOL    HW219068   0.485   0.120   0.724 -0.3282  0.1111  0.0030
 2478SOL     OW19069   1.109   2.930   7.681 -0.1021  0.1424  0.4422
 2478SOL    HW119070   1.048   2.857   7.689  0.9086 -0.6030  1.2749
 2478SOL    HW219071   1.187   2.876   7.673 -0.2097 -0.1162  1.1211
 2479SOL     OW19072   4.065   3.642   2.994 -0.2604 -0.0207 -0.1589
 2479SOL    HW119073   4.003   3.714   3.002 -1.0833 -0.6015 -1.2393
 2479SOL    HW219074   4.126   3.675   2.929  0.0050 -2.6692 -1.2646
 2480SOL     OW19075   2.587   2.190   4.953  0.3007 -0.0012  0.5884
 2480SOL    HW119076   2.508   2.141   4.976 -0.2820 -0.1772 -1.8179
 2480SOL    HW219077   2.616   2.211   5.042  2.3332  2.6700 -0.6901
 2481SOL     OW19078   2.991   1.522   8.227 -0.2608 -0.3668 -0.4821
 2481SOL    HW119079   3.083   1.542   8.243 -0.5497 -0.2523  1.0359
 2481SOL    HW219080   2.999   1.428   8.210  0.9673 -0.3934  0.1796
 2482SOL     OW19081   3.890   2.525  15.188  0.3220  0.1702 -0.2232
 2482SOL    HW119082   3.823   2.499  15.125 -0.9195  0.0719  1.1455
 2482SOL    HW219083   3.895   2.619  15.169  1.7399 -0.1262 -1.2938
 2483SOL     OW19084   3.984   2.221  14.021 -0.0329  0.2748 -0.0135
 2483SOL    HW119085   4.028   2.302  14.046  0.9934  0.1213 -1.3652
 2483SOL    HW219086   4.040   2.180  13.955 -2.4471 -0.7227 -1.4562
 2484SOL     OW19087   3.197   4.135  11.221 -0.1021 -0.1428  0.4743
 2484SOL    HW119088   3.291   4.117  11.221 -0.1724 -0.4890 -0.1320
 2484SOL    HW219089   3.155   4.053  11.249  1.3009 -0.8371  0.5009
 2485SOL     OW19090   3.762   4.021   6.346  0.2246 -0.2949  0.2575
 2485SOL    HW119091   3.674   4.054   6.364 -0.6254 -0.1126 -4.0994
 2485SOL    HW219092   3.817   4.072   6.406  1.1946  0.8410 -1.5981
 2486SOL     OW19093   2.869   4.607  17.405 -0.2437  0.1281 -0.0695
 2486SOL    HW119094   2.813   4.670  17.361  0.3815  1.9289  1.6981
 2486SOL    HW219095   2.837   4.617  17.495 -0.1225  1.2358 -0.1430
 2487SOL     OW19096   2.539   1.764   7.813  1.0347 -0.3608 -0.5107
 2487SOL    HW119097   2.517   1.780   7.721  2.1449 -0.0391 -0.7136
 2487SOL    HW219098   2.486   1.686   7.832 -0.1894  0.1316 -1.9220
 2488SOL     OW19099   3.198   3.966   6.082  0.2085 -0.1613 -0.6434
 2488SOL    HW119100   3.197   3.974   5.987 -0.3242 -2.4187 -0.8003
 2488SOL    HW219101   3.103   3.957   6.087  0.2683  0.0065  0.9226
 2489SOL     OW19102   0.368   0.641   3.395 -0.4795  0.9098  0.6711
 2489SOL    HW119103   0.315   0.673   3.469  0.2237  3.2811  0.1391
 2489SOL    HW219104   0.321   0.674   3.318 -0.3338 -0.5463 -0.0252
 2490SOL     OW19105   4.434   1.714   2.420 -0.4508 -0.4563 -0.1098
 2490SOL    HW119106   4.393   1.640   2.375 -0.7816 -0.9096  0.9397
 2490SOL    HW219107   4.405   1.777   2.354 -0.0273 -0.4957 -0.3336
 2491SOL     OW19108   0.199   1.473   7.272  0.0799 -0.0023  0.3037
 2491SOL    HW119109   0.129   1.522   7.315 -0.3639  0.7861 -1.3267
 2491SOL    HW219110   0.278   1.506   7.315 -0.2736 -0.5055  1.3366
 2492SOL     OW19111   3.783   4.098   3.790  0.1302  0.6201  0.4975
 2492SOL    HW119112   3.842   4.132   3.723  1.3039 -2.4621 -0.0569
 2492SOL    HW219113   3.765   4.023   3.733 -0.1384  0.3517  0.9356
 2493SOL     OW19114   2.030   3.412   3.948 -0.2791 -0.3195  0.0404
 2493SOL    HW119115   2.014   3.443   3.859 -1.2725  1.1787  0.7334
 2493SOL    HW219116   1.975   3.480   3.986 -2.9311 -1.9045 -0.9372
 2494SOL     OW19117   3.443   3.901  11.577  0.2289 -0.1607  0.2932
 2494SOL    HW119118   3.382   3.973  11.590 -2.0863 -2.3556  1.5826
 2494SOL    HW219119   3.384   3.836  11.615 -0.6477 -0.0460 -0.8824
 2495SOL     OW19120   2.153   0.559   6.567  0.6818 -0.0833 -0.1048
 2495SOL    HW119121   2.127   0.625   6.632  2.7869  0.1301  0.5238
 2495SOL    HW219122   2.172   0.613   6.490  0.9283 -0.0576 -0.0247
 2496SOL     OW19123   3.816   1.097   8.411 -0.2551  0.7587  0.1227
 2496SOL    HW119124   3.754   1.075   8.480 -0.5769  0.8510 -0.1363
 2496SOL    HW219125   3.793   1.189   8.398  2.0976  1.1267 -1.3563
 2497SOL     OW19126   3.642   3.192   7.553  0.1733  0.3185  0.1826
 2497SOL    HW119127   3.644   3.286   7.535 -0.3366  0.5175  1.2253
 2497SOL    HW219128   3.668   3.187   7.645  0.7158  1.3258  0.0865
 2498SOL     OW19129   1.646   3.367   5.826 -0.0239 -0.3993 -0.5021
 2498SOL    HW119130   1.641   3.462   5.829  1.2379 -0.3839  1.5136
 2498SOL    HW219131   1.709   3.341   5.894  0.0059  0.2126 -0.2913
 2499SOL     OW19132   0.141   0.729   3.517  0.0481 -0.5158  0.5813
 2499SOL    HW119133   0.115   0.805   3.569  0.4002 -0.2330  0.3463
 2499SOL    HW219134   0.064   0.724   3.460 -1.8251  0.2959  3.0449
 2500SOL     OW19135   2.349   2.121   5.398  0.5401 -0.3545  0.0699
 2500SOL    HW119136   2.270   2.169   5.423 -0.4534 -2.6909  1.4424
 2500SOL    HW219137   2.314   2.032   5.401 -0.9576  0.1565 -2.9776
 2501SOL     OW19138   1.172   1.290  10.893 -0.4119 -0.4759  0.6135
 2501SOL    HW119139   1.110   1.262  10.960  2.1514 -0.8059  2.8411
 2501SOL    HW219140   1.251   1.242  10.919 -1.3337 -2.3769 -0.1036
 2502SOL     OW19141   2.757   0.759   5.931  0.1967 -0.2299  0.2246
 2502SOL    HW119142   2.683   0.815   5.907  0.4867 -0.3242 -0.9087
 2502SOL    HW219143   2.734   0.733   6.020  0.4115  2.4853  1.0565
 2503SOL     OW19144   1.214   0.684  17.485  0.5302 -0.0091  0.0874
 2503SOL    HW119145   1.268   0.649  17.555  1.1628  0.0901 -0.3551
 2503SOL    HW219146   1.218   0.608  17.426  1.5163 -0.8700  1.2538
 2504SOL     OW19147   1.288   1.182   7.236 -0.7684 -0.5712 -0.4288
 2504SOL    HW119148   1.209   1.227   7.266 -0.0457  0.0294  0.5988
 2504SOL    HW219149   1.337   1.179   7.318  2.0081 -0.7383 -2.1061
 2505SOL     OW19150   2.777   4.030   9.359  0.4127 -0.3270 -0.0436
 2505SOL    HW119151   2.780   3.948   9.408 -0.2028 -0.0591  0.4464
 2505SOL    HW219152   2.737   3.996   9.279  0.9678 -2.3872  0.5668
 2506SOL     OW19153   2.148   3.315  11.877 -0.2138 -0.4837  0.3153
 2506SOL    HW119154   2.118   3.389  11.930 -1.1994  0.2925 -1.3019
 2506SOL    HW219155   2.113   3.347  11.793 -1.6371 -0.2579  0.9939
 2507SOL     OW19156   3.290   1.542   5.891  0.6045  0.0553 -0.5017
 2507SOL    HW119157   3.213   1.490   5.867 -0.0803  0.3546  1.0353
 2507SOL    HW219158   3.276   1.541   5.986 -0.2450  1.7189 -0.6225
 2508SOL     OW19159   0.725   2.625   5.257  0.2189  0.0091 -0.3608
 2508SOL    HW119160   0.712   2.602   5.350  3.2817  0.0594  0.0611
 2508SOL    HW219161   0.819   2.613   5.245  0.1509 -1.2548  0.3221
 2509SOL     OW19162   4.032   3.382   2.756  0.0985  0.5981 -0.1544
 2509SOL    HW119163   4.084   3.338   2.823 -0.2897  2.1056  1.1530
 2509SOL    HW219164   3.975   3.428   2.818 -0.7949 -0.5983 -0.0877
 2510SOL     OW19165   4.314   4.470   0.202  0.2277 -0.0783  0.2658
 2510SOL    HW119166   4.283   4.389   0.242  2.7790 -0.6051  1.1440
 2510SOL    HW219167   4.352   4.421   0.129  0.4959  2.0864 -1.0605
 2511SOL     OW19168   0.128   3.369   3.987  0.0972  0.0438  0.3949
 2511SOL    HW119169   0.038   3.374   3.955 -0.0480  2.4244  1.1841
 2511SOL    HW219170   0.133   3.451   4.035 -1.8086 -0.4972  1.5077
 2512SOL     OW19171   2.526   2.589   3.806 -0.0680 -0.3919 -0.2249
 2512SOL    HW119172   2.551   2.653   3.872 -0.0662 -0.0113 -0.5961
 2512SOL    HW219173   2.462   2.645   3.762 -2.3563 -0.5888  2.8376
 2513SOL     OW19174   0.593   1.156   5.485 -0.2575  0.2051  0.1602
 2513SOL    HW119175   0.655   1.105   5.434 -1.3237 -1.2720  0.3390
 2513SOL    HW219176   0.512   1.140   5.436 -0.8741  1.0057  0.9138
 2514SOL     OW19177   1.271   3.366   8.367  0.4257  0.5420  0.0111
 2514SOL    HW119178   1.196   3.424   8.374 -0.1575 -0.0161 -1.7372
 2514SOL    HW219179   1.302   3.394   8.280  2.6420 -0.1629  0.5635
 2515SOL     OW19180   0.422   1.939  12.496 -0.2840  0.4176  0.2702
 2515SOL    HW119181   0.396   2.024  12.530  1.0971  0.9542 -0.0264
 2515SOL    HW219182   0.481   1.899  12.560 -0.6336 -0.3239  0.1325
 2516SOL     OW19183   0.907   2.427   9.492  0.2678  0.1390  0.5559
 2516SOL    HW119184   0.995   2.429   9.528 -0.6174  1.5437  2.6413
 2516SOL    HW219185   0.854   2.459   9.565 -2.4467 -1.6501 -0.6299
 2517SOL     OW19186   1.636   4.309   1.653 -0.4984 -0.0219 -0.0797
 2517SOL    HW119187   1.650   4.273   1.566 -1.0156 -0.1056 -0.1251
 2517SOL    HW219188   1.712   4.281   1.705  0.6472  3.3211  0.0097
 2518SOL     OW19189   0.949   2.470   2.246  0.0515 -0.3634 -0.2338
 2518SOL    HW119190   0.932   2.407   2.176  1.3384 -1.8830  0.8184
 2518SOL    HW219191   1.032   2.503   2.212  2.1961 -3.0100  2.4775
 2519SOL     OW19192   3.882   1.542  15.260 -0.3999 -0.5056 -0.1821
 2519SOL    HW119193   3.906   1.610  15.322  0.8139 -0.0727 -1.1359
 2519SOL    HW219194   3.794   1.575  15.240  0.3358  0.3172 -2.0399
 2520SOL     OW19195   0.960   4.001   4.638  0.1827  0.5548 -0.1789
 2520SOL    HW119196   1.033   4.023   4.581  0.4221  0.5978  0.1492
 2520SOL    HW219197   0.945   3.907   4.628 -1.4287  0.6799  0.9775
 2521SOL     OW19198   3.324   0.615  14.080  0.3444 -1.3330 -0.6206
 2521SOL    HW119199   3.294   0.627  14.170 -0.6567 -2.3895 -0.8082
 2521SOL    HW219200   3.274   0.680  14.031  0.3403 -0.5335  0.4479
 2522SOL     OW19201   4.012   1.962   8.856 -0.0786  0.4016 -0.7259
 2522SOL    HW119202   4.049   2.041   8.897 -0.7136  0.0881  0.4420
 2522SOL    HW219203   4.034   1.895   8.920  0.1965  0.8043 -0.4023
 2523SOL     OW19204   3.802   2.901   8.025 -0.3452 -0.1199 -0.3907
 2523SOL    HW119205   3.814   2.808   8.045  2.2198  0.0823 -0.9801
 2523SOL    HW219206   3.862   2.948   8.082 -1.4236 -2.9263  3.0344
 2524SOL     OW19207   2.822   2.729   3.399  0.4017  0.3331 -0.2886
 2524SOL    HW119208   2.746   2.781   3.425 -1.8296 -2.8599 -0.4005
 2524SOL    HW219209   2.832   2.744   3.306 -1.6832 -3.7930 -1.1787
 2525SOL     OW19210   0.400   0.458   8.083  0.1915 -0.8250 -0.4678
 2525SOL    HW119211   0.464   0.432   8.018 -0.1262 -1.3706 -0.5563
 2525SOL    HW219212   0.441   0.527   8.136 -1.0435  0.0432 -0.6337
 2526SOL     OW19213   3.443   2.817   7.926 -0.6509  0.5632  0.8127
 2526SOL    HW119214   3.504   2.885   7.955  1.1701 -1.4962  1.7884
 2526SOL    HW219215   3.408   2.785   8.010 -0.3414 -3.7828 -0.7546
 2527SOL     OW19216   1.465   4.107  13.256  0.1466 -0.6076 -0.2738
 2527SOL    HW119217   1.558   4.097  13.275  0.1418 -2.0024 -0.9408
 2527SOL    HW219218   1.442   4.015  13.238 -1.7138 -0.7831  2.9702
 2528SOL     OW19219   3.028   1.244   8.235 -0.0845 -0.0666  0.2009
 2528SOL    HW119220   3.089   1.200   8.294  0.8114  1.8748  0.6995
 2528SOL    HW219221   2.957   1.181   8.245 -0.2778  0.0438 -0.4342
 2529SOL     OW19222   0.496   2.903  14.502  0.8924 -0.2086 -0.2389
 2529SOL    HW119223   0.532   2.990  14.484  0.3920 -0.1408 -0.8890
 2529SOL    HW219224   0.466   2.883  14.414 -1.8009 -0.2940  0.7007
 2530SOL     OW19225   1.384   4.299   3.195  0.8602  0.6507  0.0354
 2530SOL    HW119226   1.417   4.224   3.243 -1.7453 -0.1980  0.4953
 2530SOL    HW219227   1.309   4.264   3.146 -0.2600  0.4479  1.9181
 2531SOL     OW19228   2.846   1.964   2.568  0.0826  0.7497  0.2942
 2531SOL    HW119229   2.907   2.029   2.602  0.7285  0.8138 -0.9801
 2531SOL    HW219230   2.791   2.026   2.519 -1.2453 -0.2331  0.5425
 2532SOL     OW19231   2.122   2.983   3.335 -0.9814 -0.9528  0.4552
 2532SOL    HW119232   2.045   3.039   3.326 -0.8873 -1.1379 -1.5249
 2532SOL    HW219233   2.106   2.946   3.422  2.3817 -2.1037  0.5796
 2533SOL     OW19234   3.153   4.673  13.797  0.0667 -0.4599  0.0762
 2533SOL    HW119235   3.177   0.012  13.854  0.2630  0.9400 -1.7994
 2533SOL    HW219236   3.234   4.623  13.790  0.0638 -0.6633  1.4016
 2534SOL     OW19237   1.175   2.290   4.254 -0.3480  0.2302 -0.6505
 2534SOL    HW119238   1.081   2.303   4.264 -0.4688 -1.3123  0.1752
 2534SOL    HW219239   1.177   2.201   4.288 -0.0628 -0.8080 -3.3676
 2535SOL     OW19240   3.491   0.831   8.884  0.2046  0.2413  0.3924
 2535SOL    HW119241   3.528   0.744   8.897  0.1510 -0.0613 -1.4385
 2535SOL    HW219242   3.572   0.880   8.902  1.3942 -1.0780 -1.3193
 2536SOL     OW19243   0.615   2.645   8.702 -0.0108 -0.9504  0.0201
 2536SOL    HW119244   0.608   2.732   8.741 -0.6510 -0.3416 -1.4811
 2536SOL    HW219245   0.593   2.669   8.612  1.8841  0.1736 -0.1357
 2537SOL     OW19246   1.411   2.024   1.899  0.0318  0.0900 -0.2853
 2537SOL    HW119247   1.483   2.077   1.864  0.0278  1.3455  1.6110
 2537SOL    HW219248   1.463   1.967   1.954 -2.7806 -1.6230  0.6082
 2538SOL     OW19249   3.338   3.437  15.039 -0.3273 -0.3554 -0.6854
 2538SOL    HW119250   3.359   3.491  15.116 -0.6324 -0.8643 -0.2411
 2538SOL    HW219251   3.325   3.506  14.975 -0.0003 -1.3535 -1.8271
 2539SOL     OW19252   1.134   3.579   8.400 -0.1569  0.3318 -0.3336
 2539SOL    HW119253   1.205   3.631   8.364 -1.4680  1.4188 -1.3750
 2539SOL    HW219254   1.095   3.639   8.464 -0.3124  0.7187 -0.7944
 2540SOL     OW19255   0.576   2.780  15.121  0.2069  0.4141  0.4524
 2540SOL    HW119256   0.573   2.702  15.177  2.2536 -0.0595 -0.1205
 2540SOL    HW219257   0.513   2.746  15.058 -1.2623 -0.7392  2.5229
 2541SOL     OW19258   3.682   1.803   7.608  0.3455 -0.1842  0.3135
 2541SOL    HW119259   3.711   1.888   7.643 -0.0511  0.1796 -0.2324
 2541SOL    HW219260   3.648   1.821   7.520 -1.1266 -1.7176  0.5851
 2542SOL     OW19261   0.830   1.081  10.735  0.3325  0.1446 -0.1949
 2542SOL    HW119262   0.922   1.087  10.710  0.2321  0.5325 -0.4668
 2542SOL    HW219263   0.788   1.090  10.649  1.8273  0.6772 -0.8721
 2543SOL     OW19264   0.633   1.400   3.986  0.5739 -0.0658 -0.8359
 2543SOL    HW119265   0.711   1.407   4.040  0.3973  1.8586 -0.8054
 2543SOL    HW219266   0.662   1.334   3.923  1.4283 -0.1491 -0.3394
 2544SOL     OW19267   1.557   0.168  13.943  0.5241 -0.1659 -0.4768
 2544SOL    HW119268   1.623   0.102  13.926  0.2070 -0.4068 -0.7576
 2544SOL    HW219269   1.575   0.173  14.037 -2.7997  0.5860  0.1035
 2545SOL     OW19270   2.199   0.943  14.461  0.7813  0.4236 -0.3430
 2545SOL    HW119271   2.162   0.934  14.373 -1.8501 -0.8327  0.8821
 2545SOL    HW219272   2.169   0.859  14.495 -0.2529  0.5482 -0.9391
 2546SOL     OW19273   0.616   0.723   7.164 -0.8561 -0.0038  0.4216
 2546SOL    HW119274   0.521   0.710   7.156 -0.8909 -0.9799  2.6358
 2546SOL    HW219275   0.620   0.817   7.144 -0.6587  0.3367  2.0999
 2547SOL     OW19276   2.031   1.016   2.182  0.1377  0.2714 -0.5539
 2547SOL    HW119277   1.938   0.998   2.190  0.3254 -0.5073 -0.1406
 2547SOL    HW219278   2.045   1.028   2.088 -2.7524  2.4226 -0.7127
 2548SOL     OW19279   1.208   3.920   3.180  0.1283  0.1971 -0.1715
 2548SOL    HW119280   1.179   3.832   3.204 -1.5943  0.5256 -1.0324
 2548SOL    HW219281   1.189   3.910   3.087 -2.3731  1.3568  0.2336
 2549SOL     OW19282   2.281   2.542   8.739 -0.2920 -0.0325  0.9171
 2549SOL    HW119283   2.346   2.511   8.802  0.1188 -0.5153  0.2518
 2549SOL    HW219284   2.290   2.477   8.670  0.6148  1.3915 -0.2863
 2550SOL     OW19285   4.279   3.110   7.020  0.4151 -0.4015 -0.3678
 2550SOL    HW119286   4.295   3.027   7.066  1.7308 -0.7183 -1.3924
 2550SOL    HW219287   4.348   3.161   7.062  0.9216 -0.4168 -1.1993
 2551SOL     OW19288   3.870   1.127   5.455 -0.2784 -0.3536  0.3728
 2551SOL    HW119289   3.803   1.096   5.515  0.4230 -2.1978  0.2130
 2551SOL    HW219290   3.943   1.077   5.490 -0.2987 -0.6553 -0.0136
 2552SOL     OW19291   1.270   3.097   0.683 -0.1349  0.2510  0.1618
 2552SOL    HW119292   1.278   3.191   0.670 -0.2302  0.3874  1.0338
 2552SOL    HW219293   1.181   3.097   0.720 -0.2539  0.2734 -0.1268
 2553SOL     OW19294   0.463   3.612   3.325  0.1719  0.2151  0.3427
 2553SOL    HW119295   0.376   3.582   3.297 -0.6850  0.1308  3.1338
 2553SOL    HW219296   0.430   3.651   3.405 -0.3737 -0.6947  0.5688
 2554SOL     OW19297   2.362   3.987   8.417 -0.7382 -0.5322 -0.1370
 2554SOL    HW119298   2.386   4.061   8.362 -0.0788 -0.1212  0.6951
 2554SOL    HW219299   2.268   3.996   8.425 -0.2158  1.8577  3.0374
 2555SOL     OW19300   0.607   3.620   6.835  0.1906 -0.1125 -0.0605
 2555SOL    HW119301   0.644   3.591   6.918  0.3624 -0.1123 -0.1359
 2555SOL    HW219302   0.545   3.689   6.856  0.1004  0.3821 -1.9722
 2556SOL     OW19303   3.486   2.019   2.015  0.0055 -1.1141  0.4310
 2556SOL    HW119304   3.574   2.009   2.050  0.6200  1.4973 -0.3141
 2556SOL    HW219305   3.515   2.047   1.927 -1.4066 -1.6981 -0.2172
 2557SOL     OW19306   3.245   3.598   2.050 -0.0220  0.0799 -0.2528
 2557SOL    HW119307   3.273   3.520   2.098  0.8348 -0.8277 -2.2095
 2557SOL    HW219308   3.152   3.595   2.070  0.1060 -0.4070  0.2693
 2558SOL     OW19309   1.334   0.619   8.008 -0.0098  0.5230 -0.3733
 2558SOL    HW119310   1.313   0.703   7.967 -2.0608  0.1898 -0.0006
 2558SOL    HW219311   1.344   0.564   7.930  0.5002  1.2099 -0.7922
 2559SOL     OW19312   2.988   1.594   7.931  0.0954  0.3803  0.0515
 2559SOL    HW119313   2.999   1.559   8.020 -1.2820 -0.6451 -0.1760
 2559SOL    HW219314   2.916   1.655   7.945 -0.8380 -1.0231  1.4349
 2560SOL     OW19315   3.398   1.343   7.778  0.3318  0.3889  0.0571
 2560SOL    HW119316   3.324   1.374   7.830  0.2168 -0.2100  0.2508
 2560SOL    HW219317   3.439   1.427   7.760 -1.0510  0.9981 -0.2755
 2561SOL     OW19318   0.183   0.252   0.414  0.2813  0.2298 -0.1014
 2561SOL    HW119319   0.167   0.187   0.345 -1.5716 -0.8908  1.4016
 2561SOL    HW219320   0.184   0.334   0.365  0.3992 -0.4436 -1.2525
 2562SOL     OW19321   2.014   0.957   8.865  0.1438 -0.1557  0.3051
 2562SOL    HW119322   2.066   0.981   8.788 -1.4154  3.2641  0.3015
 2562SOL    HW219323   1.981   0.874   8.831 -1.9409  0.4860  0.7688
 2563SOL     OW19324   1.538   4.285   8.753  0.2738  0.2722 -0.2609
 2563SOL    HW119325   1.630   4.260   8.755  0.6424  1.5850 -0.6970
 2563SOL    HW219326   1.507   4.232   8.680 -1.9676  1.2774 -0.0331
 2564SOL     OW19327   2.622   3.745   3.888  1.1111 -0.0939 -0.5335
 2564SOL    HW119328   2.583   3.665   3.922  3.2078  0.3004  2.7338
 2564SOL    HW219329   2.699   3.740   3.944  1.8026  2.5046 -1.2410
 2565SOL     OW19330   0.426   1.430   7.800  0.3499  0.1779 -0.3122
 2565SOL    HW119331   0.396   1.520   7.808 -1.0361 -0.2303 -0.9142
 2565SOL    HW219332   0.507   1.448   7.752  2.3114 -0.1526  2.8582
 2566SOL     OW19333   2.329   3.943  15.030  0.3583 -0.1548  0.1818
 2566SOL    HW119334   2.267   3.975  14.965  0.7082  0.9430  0.3960
 2566SOL    HW219335   2.294   3.863  15.069  0.0109 -0.0152  0.1537
 2567SOL     OW19336   1.463   1.696  16.082 -0.2930 -0.3034  0.2933
 2567SOL    HW119337   1.439   1.787  16.100  3.1214  0.3069  1.8022
 2567SOL    HW219338   1.439   1.689  15.989  1.7417  1.1583 -0.3603
 2568SOL     OW19339   2.671   3.922  16.769  0.7830 -0.0826  0.2296
 2568SOL    HW119340   2.712   3.886  16.690 -0.2304 -3.9664  1.4668
 2568SOL    HW219341   2.618   3.849  16.800 -0.4025  1.4722  1.8627
 2569SOL     OW19342   3.994   3.948   6.786  0.3861  0.4722 -0.1882
 2569SOL    HW119343   4.046   3.873   6.757 -1.0055 -0.2432 -0.8358
 2569SOL    HW219344   4.048   4.020   6.754  0.9590 -0.4300 -1.2333
 2570SOL     OW19345   1.410   3.154  13.076  0.3279  0.2464  0.1402
 2570SOL    HW119346   1.386   3.084  13.137  2.1546 -1.2528 -0.8518
 2570SOL    HW219347   1.445   3.102  13.004 -1.5640 -1.7914  0.7126
 2571SOL     OW19348   1.017   4.142   9.889 -0.0043 -0.1054  0.4838
 2571SOL    HW119349   1.043   4.105   9.805 -2.1117  0.4128 -0.4010
 2571SOL    HW219350   1.013   4.073   9.956  0.2340 -1.0920 -0.5303
 2572SOL     OW19351   1.427   3.673   1.661 -0.1097 -0.2601 -0.5234
 2572SOL    HW119352   1.450   3.616   1.588 -1.1095  0.5069 -1.4359
 2572SOL    HW219353   1.367   3.615   1.708  2.1635 -2.2184 -0.0321
 2573SOL     OW19354   4.429   4.455  11.815 -0.7238 -0.3680  0.8349
 2573SOL    HW119355   4.480   4.403  11.753  2.2188  2.3308  0.9766
 2573SOL    HW219356   4.366   4.503  11.762  0.7530  1.3698  0.6267
 2574SOL     OW19357   1.759   1.653   6.070  0.1675  0.0198 -0.3382
 2574SOL    HW119358   1.751   1.572   6.018 -2.0334  0.4753 -0.6906
 2574SOL    HW219359   1.682   1.647   6.126 -0.7374  1.0418 -1.4766
 2575SOL     OW19360   1.681   4.144   4.265 -0.1003 -0.2391 -0.0808
 2575SOL    HW119361   1.690   4.054   4.294  1.0731 -0.0238  0.2542
 2575SOL    HW219362   1.631   4.133   4.185 -0.4444 -1.4964  0.3108
 2576SOL     OW19363   4.120   3.397   8.444  0.5836 -0.4957  0.3746
 2576SOL    HW119364   4.058   3.436   8.505 -0.0272 -0.8442 -0.0234
 2576SOL    HW219365   4.195   3.455   8.454  0.4565 -0.1534 -0.6150
 2577SOL     OW19366   2.064   2.757   5.382  0.3845  0.1123 -0.7257
 2577SOL    HW119367   2.034   2.740   5.293 -0.3654  2.5981 -0.9483
 2577SOL    HW219368   2.158   2.754   5.365  0.7549  0.4533  1.1946
 2578SOL     OW19369   3.364   2.143   1.566  0.2225 -0.0882 -0.3815
 2578SOL    HW119370   3.350   2.108   1.478 -1.7498 -0.9502  0.2752
 2578SOL    HW219371   3.457   2.165   1.556  0.6982 -1.8339  0.1057
 2579SOL     OW19372   3.418   0.977   7.713  0.0353  0.4082  0.0275
 2579SOL    HW119373   3.359   0.925   7.768 -2.6008  1.1574 -2.0677
 2579SOL    HW219374   3.354   1.016   7.653 -0.5057  0.9065  0.9231
 2580SOL     OW19375   2.780   1.170   7.019 -0.1757  0.3100  0.5806
 2580SOL    HW119376   2.861   1.125   7.045 -0.8932 -1.8777 -1.0088
 2580SOL    HW219377   2.776   1.246   7.077 -0.2061  0.7623 -0.0147
 2581SOL     OW19378   4.679   0.540   5.900 -0.8417 -0.1433 -0.1520
 2581SOL    HW119379   4.595   0.582   5.914 -0.6307  1.1087 -2.5184
 2581SOL    HW219380   0.005   0.610   5.925  0.2916 -1.6426  1.3297
 2582SOL     OW19381   4.653   3.428   3.846 -0.3201 -0.1712  0.0318
 2582SOL    HW119382   4.558   3.425   3.855 -0.0134 -0.2418  3.1922
 2582SOL    HW219383   4.670   3.522   3.837 -1.4774  0.1823  1.4138
 2583SOL     OW19384   3.880   2.948   8.721  0.1153 -0.4457 -0.1129
 2583SOL    HW119385   3.852   3.004   8.648 -0.2772  0.1243  0.4790
 2583SOL    HW219386   3.803   2.891   8.719 -0.1358 -0.1370  0.6137
 2584SOL     OW19387   0.017   3.136   8.009 -0.3643 -0.0337  0.1998
 2584SOL    HW119388   0.047   3.131   8.100 -0.0661 -2.0950 -0.0029
 2584SOL    HW219389   4.659   3.160   8.018 -0.8390 -1.9482  0.5377
 2585SOL     OW19390   4.136   4.134   9.174  0.5836  0.1595 -0.7167
 2585SOL    HW119391   4.118   4.211   9.120  1.1930  0.7234 -0.1160
 2585SOL    HW219392   4.080   4.142   9.252  2.1667  0.2687  0.3999
 2586SOL     OW19393   2.518   3.287   3.675  0.6895  0.0179  0.5442
 2586SOL    HW119394   2.506   3.311   3.767 -0.6737 -0.9172  0.6144
 2586SOL    HW219395   2.524   3.374   3.636  0.0202 -0.4937 -0.6863
 2587SOL     OW19396   4.014   2.691  10.981 -0.0392  0.1117  0.0288
 2587SOL    HW119397   4.088   2.738  11.020 -1.2803  0.7873  1.5646
 2587SOL    HW219398   3.983   2.644  11.058 -0.7771 -0.4829 -0.6289
 2588SOL     OW19399   3.914   0.816   1.768 -0.0526 -0.9165  0.0129
 2588SOL    HW119400   3.899   0.815   1.673 -1.6007 -1.0809  0.2612
 2588SOL    HW219401   3.841   0.870   1.797 -0.0245 -0.3925 -0.9068
 2589SOL     OW19402   1.981   1.561  12.230  0.7520  0.2030  0.1523
 2589SOL    HW119403   2.053   1.508  12.262 -0.4674 -0.8491  1.1315
 2589SOL    HW219404   2.009   1.570  12.139  0.7592  0.2282  0.1567
 2590SOL     OW19405   2.627   0.686   6.170  0.8745 -1.1071 -0.2960
 2590SOL    HW119406   2.556   0.632   6.204  0.0277  1.8944  2.6223
 2590SOL    HW219407   2.652   0.733   6.250 -0.8202 -0.0784 -0.3671
 2591SOL     OW19408   0.793   2.611   7.219  0.0401 -0.0920  0.6393
 2591SOL    HW119409   0.762   2.686   7.168  0.4107  0.4102  1.1563
 2591SOL    HW219410   0.794   2.539   7.156 -0.4068 -0.2195  0.7781
 2592SOL     OW19411   4.657   0.168   8.038 -0.0947  0.1260  0.0627
 2592SOL    HW119412   4.663   0.201   7.948 -0.5763  1.2496  0.4428
 2592SOL    HW219413   4.695   0.236   8.094 -2.3168  0.7147  0.8620
 2593SOL     OW19414   3.123   3.563   7.710 -0.1457  0.1728 -0.2533
 2593SOL    HW119415   3.066   3.487   7.722  0.6588 -0.7057 -2.0097
 2593SOL    HW219416   3.060   3.634   7.699 -1.9679 -1.3089  0.5745
 2594SOL     OW19417   0.733   1.668   3.156 -0.1411  0.0976 -0.2913
 2594SOL    HW119418   0.675   1.690   3.082  1.8668 -0.7956 -2.1334
 2594SOL    HW219419   0.691   1.588   3.188 -1.0101  0.1486 -1.2759
 2595SOL     OW19420   4.456   1.836   5.384 -0.4606  0.7391  0.4326
 2595SOL    HW119421   4.460   1.914   5.440  1.4255  0.7455  0.2963
 2595SOL    HW219422   4.363   1.848   5.368 -0.9757 -1.5662  1.6892
 2596SOL     OW19423   0.138   3.038  11.286 -0.1070  0.0447 -0.1885
 2596SOL    HW119424   0.129   3.120  11.238 -0.0981  1.6518  2.5830
 2596SOL    HW219425   0.223   3.010  11.251  1.5364  1.1234  2.9897
 2597SOL     OW19426   3.275   0.378  12.494 -0.1186  0.6758 -0.2083
 2597SOL    HW119427   3.369   0.366  12.510 -0.7135 -2.1240  1.1652
 2597SOL    HW219428   3.239   0.370  12.582 -0.5871  2.1902 -0.2657
 2598SOL     OW19429   3.161   0.645  13.716 -0.8855  0.2947  0.0294
 2598SOL    HW119430   3.220   0.704  13.668 -0.8591  2.4086  2.6729
 2598SOL    HW219431   3.192   0.665  13.804 -0.9745 -0.4655  0.2374
 2599SOL     OW19432   3.918   3.514   0.068 -0.1193 -0.0129  0.3187
 2599SOL    HW119433   3.947   3.506  17.713  1.1246  0.2415  0.6943
 2599SOL    HW219434   3.857   3.586   0.053 -0.0410 -0.1353 -0.6044
 2600SOL     OW19435   1.861   3.607   5.969  0.0856  0.4657  0.9612
 2600SOL    HW119436   1.823   3.523   5.994  1.9065 -0.3946  0.8332
 2600SOL    HW219437   1.953   3.597   5.993  0.3630  2.8378  0.8560
 2601SOL     OW19438   0.655   2.896   8.792 -0.3594  0.5344  0.0454
 2601SOL    HW119439   0.612   2.982   8.796 -2.7654 -0.5920 -1.2100
 2601SOL    HW219440   0.743   2.913   8.824 -1.7405  2.6337  2.7529
 2602SOL     OW19441   2.607   1.456   2.685  0.3842  0.6093 -0.2221
 2602SOL    HW119442   2.691   1.424   2.717  0.8142 -0.4808 -2.4236
 2602SOL    HW219443   2.553   1.378   2.687  2.1252 -0.6417 -1.5406
 2603SOL     OW19444   0.743   1.934   8.342  0.0611 -0.2409 -0.1307
 2603SOL    HW119445   0.666   1.877   8.334 -1.1112  1.2538  0.5921
 2603SOL    HW219446   0.797   1.875   8.395  1.0820  0.6597 -0.1931
 2604SOL     OW19447   1.969   2.221   3.184 -0.1435  0.1807 -0.2685
 2604SOL    HW119448   1.992   2.285   3.117 -1.3596 -0.2025 -1.0661
 2604SOL    HW219449   1.881   2.257   3.194 -0.1308 -0.1241  0.8677
 2605SOL     OW19450   4.316   2.043   4.526 -0.4880  0.0467  0.5588
 2605SOL    HW119451   4.379   2.019   4.594 -1.3297 -0.5091  1.1542
 2605SOL    HW219452   4.287   2.121   4.573  2.1591  1.6465 -0.5270
 2606SOL     OW19453   2.583   3.879   3.175 -0.1042 -0.0872 -0.6784
 2606SOL    HW119454   2.584   3.908   3.083  0.3858 -0.7546 -0.8812
 2606SOL    HW219455   2.637   3.802   3.162 -0.4538 -0.6062  1.0352
 2607SOL     OW19456   0.155   2.122   1.478  0.1376 -0.1083  0.5731
 2607SOL    HW119457   0.127   2.070   1.402  1.2926  1.5485 -1.0005
 2607SOL    HW219458   0.081   2.097   1.533  0.6734 -0.8805  0.9314
 2608SOL     OW19459   1.418   2.341   5.768 -0.4967  0.1826  0.0824
 2608SOL    HW119460   1.364   2.266   5.794 -0.2637 -0.8888 -2.5117
 2608SOL    HW219461   1.442   2.313   5.680  0.0393 -0.7372  0.5189
 2609SOL     OW19462   4.386   0.505   4.385 -0.1615  0.1399 -0.2034
 2609SOL    HW119463   4.379   0.585   4.437 -4.2536 -0.9843  0.9629
 2609SOL    HW219464   4.394   0.437   4.453 -0.3549  0.9421  0.6138
 2610SOL     OW19465   1.713   3.494   6.314  0.1327  0.2974  0.4295
 2610SOL    HW119466   1.652   3.435   6.269  0.6081  1.2152 -1.4465
 2610SOL    HW219467   1.788   3.445   6.280 -0.5947 -0.2607 -0.3761
 2611SOL     OW19468   0.248   3.262  15.915  0.3311  0.7049 -0.8466
 2611SOL    HW119469   0.307   3.271  15.841  1.0662  1.7616 -0.1315
 2611SOL    HW219470   0.170   3.249  15.862  0.7179 -3.2276 -0.4765
 2612SOL     OW19471   3.396   2.350  12.764 -0.5836 -0.0528 -0.5780
 2612SOL    HW119472   3.393   2.300  12.682 -2.4813  0.6965 -0.9820
 2612SOL    HW219473   3.336   2.412  12.724 -1.4935  0.1310  1.0468
 2613SOL     OW19474   0.086   1.981   1.236 -0.4987 -0.2022 -0.1143
 2613SOL    HW119475   0.180   1.969   1.218  0.1213  0.7928  2.4517
 2613SOL    HW219476   0.055   2.041   1.168 -1.7462  1.1401  1.6402
 2614SOL     OW19477   0.670   4.138   0.140 -0.1277  0.6664  0.1253
 2614SOL    HW119478   0.602   4.152   0.206  1.8342  0.5178  2.1552
 2614SOL    HW219479   0.735   4.202   0.167  0.0912  0.3041  0.4537
 2615SOL     OW19480   1.265   2.000   8.677 -0.4952  0.5094  0.3305
 2615SOL    HW119481   1.267   2.084   8.631 -0.8885 -0.8622 -2.2510
 2615SOL    HW219482   1.223   2.003   8.763  2.4728 -1.0519  1.8276
 2616SOL     OW19483   3.172   4.394  13.405  0.4359 -0.7187 -0.2475
 2616SOL    HW119484   3.128   4.393  13.320 -2.1892 -0.6296  1.0884
 2616SOL    HW219485   3.161   4.485  13.435 -1.1467 -1.4925  1.5113
 2617SOL     OW19486   2.282   0.133   0.341 -0.0306  0.2667  0.6029
 2617SOL    HW119487   2.265   0.152   0.248 -2.8570 -0.6468  0.9317
 2617SOL    HW219488   2.234   0.200   0.388 -0.7784  0.3333 -0.2472
 2618SOL     OW19489   1.796   1.427   1.647  0.7024  0.0019  0.0603
 2618SOL    HW119490   1.703   1.449   1.647  0.5416 -0.6786  0.0706
 2618SOL    HW219491   1.838   1.503   1.688  0.6086  0.5262 -0.8147
 2619SOL     OW19492   2.915   0.055   4.797  0.4151 -0.4182  0.0739
 2619SOL    HW119493   2.941   0.028   4.709  3.2707  0.2529  0.7420
 2619SOL    HW219494   2.856   4.714   4.804  0.0899 -0.0951  0.7935
 2620SOL     OW19495   3.685   2.892   7.589  0.2953  0.2417 -0.2655
 2620SOL    HW119496   3.694   2.987   7.583  2.4803  0.1944  2.0916
 2620SOL    HW219497   3.615   2.878   7.525 -0.4402  0.7581  0.4280
 2621SOL     OW19498   2.380   1.376  16.594 -0.1707  0.0134  0.5208
 2621SOL    HW119499   2.450   1.341  16.649 -0.4692 -0.9773  0.2709
 2621SOL    HW219500   2.419   1.434  16.529 -1.0298 -0.0513 -0.0529
 2622SOL     OW19501   3.901   4.349   5.582 -0.3100 -0.0768  0.4679
 2622SOL    HW119502   3.857   4.352   5.497  2.0908 -1.4426 -0.8276
 2622SOL    HW219503   3.899   4.254   5.594  1.2658 -0.2420 -0.6283
 2623SOL     OW19504   0.020   3.170   5.347  0.2533 -0.9226 -0.0998
 2623SOL    HW119505   4.708   3.092   5.316 -1.5487 -0.4477  1.4058
 2623SOL    HW219506   4.716   3.172   5.435  0.6517 -1.4449  0.0864
 2624SOL     OW19507   2.481   0.215   6.698  0.5419  0.0613 -0.3220
 2624SOL    HW119508   2.418   0.286   6.705  1.5890  0.9103  0.4949
 2624SOL    HW219509   2.543   0.246   6.633 -1.3460 -1.4124 -2.8265
 2625SOL     OW19510   2.092   3.430   8.109 -0.2403 -0.2773  0.7212
 2625SOL    HW119511   2.182   3.458   8.097  0.5686 -2.8500  0.7781
 2625SOL    HW219512   2.071   3.477   8.190 -2.3808  1.2144 -0.6892
 2626SOL     OW19513   2.740   3.862   7.388  0.7150  0.4641 -0.0326
 2626SOL    HW119514   2.761   3.799   7.318 -0.9983  1.2749 -1.2744
 2626SOL    HW219515   2.646   3.878   7.380  0.3457 -2.0148 -0.6961
 2627SOL     OW19516   3.673   1.997   4.509 -0.4660  0.1287  0.1541
 2627SOL    HW119517   3.584   1.973   4.482  0.3946  0.1549 -2.7427
 2627SOL    HW219518   3.656   2.075   4.561  0.0627  0.2234  0.1758
 2628SOL     OW19519   1.729   2.175   8.382  0.4051 -0.0802  0.1210
 2628SOL    HW119520   1.657   2.113   8.368 -0.3099  1.3794 -2.5766
 2628SOL    HW219521   1.752   2.159   8.474  2.4411  0.8850 -0.2296
 2629SOL     OW19522   0.073   1.431   8.391 -0.3084  0.0109 -0.8424
 2629SOL    HW119523   4.716   1.402   8.395 -0.3156  0.5073  2.3012
 2629SOL    HW219524   0.094   1.345   8.353  0.8201 -1.3370  2.8070
 2630SOL     OW19525   3.004   1.522   8.991 -0.4573  0.7284  0.1422
 2630SOL    HW119526   2.937   1.454   8.982 -1.3959  1.9615 -2.1126
 2630SOL    HW219527   3.055   1.496   8.914 -1.8419 -0.8861 -0.2176
 2631SOL     OW19528   2.910   3.026   2.787  0.4896  0.1419  0.3602
 2631SOL    HW119529   2.885   3.085   2.858 -1.5068  4.5935 -4.0099
 2631SOL    HW219530   2.863   2.945   2.809  1.5461 -0.6932 -0.4944
 2632SOL     OW19531   3.151   2.758  11.246 -0.2840 -0.1659 -0.0138
 2632SOL    HW119532   3.147   2.795  11.158 -0.3091 -1.4988 -0.5850
 2632SOL    HW219533   3.194   2.675  11.224  2.8304  0.3137  4.2844
 2633SOL     OW19534   0.091   0.832  10.282  0.1278  0.6363 -0.1384
 2633SOL    HW119535   0.057   0.895  10.346 -0.8019 -0.0472  0.0444
 2633SOL    HW219536   0.183   0.857  10.271  0.7681 -1.8743 -0.4399
 2634SOL     OW19537   2.508   2.738  15.700  0.7061 -0.8598  0.3761
 2634SOL    HW119538   2.509   2.789  15.781  3.1175 -1.0922  0.4991
 2634SOL    HW219539   2.597   2.703  15.714  1.4581  0.8968  0.0003
 2635SOL     OW19540   0.557   3.373   6.704 -0.1138  0.3076  0.4660
 2635SOL    HW119541   0.624   3.377   6.635 -0.8911  1.1550 -0.2375
 2635SOL    HW219542   0.588   3.430   6.775  0.1775 -1.2068  1.5497
 2636SOL     OW19543   1.520   4.699  10.416  0.4587 -0.5307 -0.2207
 2636SOL    HW119544   1.599   4.647  10.428 -0.0072 -1.1231  0.3233
 2636SOL    HW219545   1.529   4.711  10.322  2.1972  2.0612  0.2863
 2637SOL     OW19546   4.498   0.924  17.077 -0.2602 -0.2428 -0.3165
 2637SOL    HW119547   4.457   0.997  17.031  0.1549  0.4594  0.4351
 2637SOL    HW219548   4.503   0.867  17.001  0.0489 -2.3062  1.2441
 2638SOL     OW19549   2.201   3.769   7.449  0.0444  0.5279  0.6321
 2638SOL    HW119550   2.261   3.722   7.506 -2.2893 -0.9070  1.9127
 2638SOL    HW219551   2.125   3.774   7.508 -0.8497 -2.7432 -0.2651
 2639SOL     OW19552   4.001   1.136  17.148  0.0351 -0.4912  0.6574
 2639SOL    HW119553   4.038   1.177  17.069 -2.0615  1.5728  0.7475
 2639SOL    HW219554   4.062   1.062  17.157  0.5471  0.0071  1.2320
 2640SOL     OW19555   1.525   4.003   6.965 -0.4741  0.2907  0.3204
 2640SOL    HW119556   1.437   4.015   7.001 -0.9216  2.0369 -1.3400
 2640SOL    HW219557   1.515   3.918   6.923 -1.0468  1.9021 -2.8432
 2641SOL     OW19558   3.390   1.100   1.862  0.3864 -0.0145  0.1950
 2641SOL    HW119559   3.429   1.176   1.819 -1.2825  1.2400  0.9364
 2641SOL    HW219560   3.392   1.131   1.953 -1.1067  0.5115  0.0454
 2642SOL     OW19561   2.457   2.414  13.752  0.5518 -0.1034  0.0700
 2642SOL    HW119562   2.415   2.338  13.714 -0.4314  1.1139 -1.2839
 2642SOL    HW219563   2.387   2.479  13.746 -0.0265 -1.0755 -3.1551
 2643SOL     OW19564   4.033   3.763   8.724 -0.4079 -0.3373  0.6291
 2643SOL    HW119565   3.986   3.821   8.785 -3.5048 -1.7153 -0.4271
 2643SOL    HW219566   4.121   3.787   8.754  0.6247  0.8081 -3.2814
 2644SOL     OW19567   1.822   1.366   3.074 -0.2516 -0.2456 -0.8352
 2644SOL    HW119568   1.782   1.362   3.161  2.5562 -0.4648  0.4255
 2644SOL    HW219569   1.782   1.444   3.034 -0.4071 -1.2984 -2.6977
 2645SOL     OW19570   1.183   1.876   8.110  0.2945  1.2511  0.2531
 2645SOL    HW119571   1.090   1.861   8.097  0.5304  0.5876 -0.6962
 2645SOL    HW219572   1.235   1.833   8.042  2.5587  1.7410  1.6748
 2646SOL     OW19573   0.297   1.869  12.903  0.5220  0.1356  0.4731
 2646SOL    HW119574   0.301   1.949  12.850  0.8910 -0.3960 -0.2885
 2646SOL    HW219575   0.262   1.903  12.986 -1.9760 -0.5385 -0.2980
 2647SOL     OW19576   3.737   4.689   7.752 -0.3681 -0.5680  0.1289
 2647SOL    HW119577   3.698   4.656   7.671  1.0568 -3.6149  0.6738
 2647SOL    HW219578   3.752   0.046   7.727  1.6159 -0.6364  0.9947
 2648SOL     OW19579   0.933   2.931   7.240  0.0325 -0.3135  0.1757
 2648SOL    HW119580   0.997   3.001   7.230 -1.2569  0.6848 -1.0844
 2648SOL    HW219581   0.961   2.879   7.165 -0.5175 -0.6456  0.1982
 2649SOL     OW19582   3.335   3.660   7.923  1.0065 -0.4292  0.0586
 2649SOL    HW119583   3.262   3.640   7.864  1.3597  1.7481 -1.0989
 2649SOL    HW219584   3.299   3.679   8.010  1.5701 -1.6961  0.5611
 2650SOL     OW19585   4.256   2.211   6.495  0.0925 -0.5932 -0.2618
 2650SOL    HW119586   4.248   2.248   6.407  1.0394 -1.5305 -0.7545
 2650SOL    HW219587   4.169   2.231   6.530  0.8058 -1.8320  2.2407
 2651SOL     OW19588   2.164   4.532  13.984  0.4687  0.1889 -1.0435
 2651SOL    HW119589   2.116   4.463  13.937  0.7953  0.3979 -1.6918
 2651SOL    HW219590   2.153   4.503  14.074 -0.0081  1.2079 -0.7865
 2652SOL     OW19591   1.225   4.107   4.637  0.0532 -0.1110 -0.1865
 2652SOL    HW119592   1.273   4.024   4.642  0.4923  0.1822  0.5358
 2652SOL    HW219593   1.300   4.165   4.625 -0.7328  0.7654 -0.7529
 2653SOL     OW19594   4.726   2.553   5.298 -0.2932  0.3844 -0.1269
 2653SOL    HW119595   4.658   2.498   5.258  2.0401 -1.3469 -1.7579
 2653SOL    HW219596   0.035   2.493   5.359 -0.4914  0.0910 -0.2765
 2654SOL     OW19597   2.434   2.291   7.419 -0.1691 -0.2828 -0.2447
 2654SOL    HW119598   2.428   2.214   7.476 -0.2405  1.0226  1.5024
 2654SOL    HW219599   2.371   2.352   7.458  0.6879 -0.3492  1.2141
 2655SOL     OW19600   2.172   1.289   5.072 -0.3595  0.6050  0.4324
 2655SOL    HW119601   2.194   1.254   4.986 -1.4177 -2.4516  1.3784
 2655SOL    HW219602   2.249   1.342   5.093  1.0092 -1.4933  0.7442
 2656SOL     OW19603   0.606   0.731  14.329 -0.2648 -0.3787  0.1184
 2656SOL    HW119604   0.560   0.811  14.354  2.9350  1.0212  1.5377
 2656SOL    HW219605   0.646   0.695  14.408 -0.6578 -1.1162 -0.0204
 2657SOL     OW19606   4.304   2.046   7.670  0.3050 -0.3812  1.0497
 2657SOL    HW119607   4.241   2.011   7.733  0.5627 -1.2853  0.8050
 2657SOL    HW219608   4.252   2.057   7.590 -1.0126 -0.7441  1.8489
 2658SOL     OW19609   0.054   3.313  13.365 -0.1245  0.0313  0.2503
 2658SOL    HW119610   0.087   3.264  13.440  1.6414 -0.3299 -0.7710
 2658SOL    HW219611   0.114   3.387  13.375 -2.5840  2.0218  0.4583
 2659SOL     OW19612   0.967   2.730   7.420 -0.1512  0.0982  0.0043
 2659SOL    HW119613   0.967   2.788   7.344 -0.3046  0.3310  0.1840
 2659SOL    HW219614   0.918   2.663   7.372 -0.5916  0.2677  0.2233
 2660SOL     OW19615   0.138   2.922   6.764 -0.0184  0.4229 -0.1118
 2660SOL    HW119616   0.140   2.893   6.855  2.0719  1.5059  0.2069
 2660SOL    HW219617   0.131   2.833   6.730 -0.4564  0.3264  0.2256
 2661SOL     OW19618   0.218   0.461   8.451  0.0132  0.5106 -0.7886
 2661SOL    HW119619   0.178   0.546   8.431 -1.4361 -0.3589 -1.5300
 2661SOL    HW219620   0.297   0.484   8.501  0.0227 -2.1568  0.4126
 2662SOL     OW19621   1.451   4.141   6.392 -0.1416 -0.3991 -0.0441
 2662SOL    HW119622   1.387   4.212   6.398  1.9600  1.4427  0.6718
 2662SOL    HW219623   1.518   4.180   6.335 -0.9967  0.6719 -0.3207
 2663SOL     OW19624   0.874   3.515   8.277  0.3771 -0.3996  0.4609
 2663SOL    HW119625   0.954   3.567   8.284  0.1091 -0.2253  2.3189
 2663SOL    HW219626   0.808   3.584   8.275 -0.9731 -1.6379  1.6733
 2664SOL     OW19627   4.366   0.524  17.141  0.0188  0.2144 -0.6333
 2664SOL    HW119628   4.426   0.536  17.215  1.1100 -2.0385 -1.1693
 2664SOL    HW219629   4.301   0.467  17.182  1.0595  0.1172  0.8588
 2665SOL     OW19630   0.603   0.452   6.305  0.1856  0.5066  0.0868
 2665SOL    HW119631   0.694   0.477   6.320  0.6338 -0.3967 -1.0832
 2665SOL    HW219632   0.594   0.425   6.214 -1.2959  1.3992 -0.0321
 2666SOL     OW19633   4.267   1.253   6.467  0.1259  0.1290  0.1561
 2666SOL    HW119634   4.336   1.294   6.520  0.8905  0.2062 -0.9110
 2666SOL    HW219635   4.260   1.317   6.396  1.7789  0.6467  0.4455
 2667SOL     OW19636   2.054   3.920   2.291  0.0982  0.2575  0.6419
 2667SOL    HW119637   1.966   3.895   2.320  0.1459 -0.1748  0.4021
 2667SOL    HW219638   2.088   3.832   2.281  2.6763  1.1932  1.2881
 2668SOL     OW19639   1.769   2.586   6.174 -0.3768 -0.2902  0.2732
 2668SOL    HW119640   1.677   2.611   6.179 -0.1608  0.4038  0.6879
 2668SOL    HW219641   1.778   2.569   6.080  0.6768 -2.5236  0.7744
 2669SOL     OW19642   4.091   1.641   0.195  0.0576 -0.3204 -0.4332
 2669SOL    HW119643   4.106   1.670   0.285  2.9122  0.8866 -1.3098
 2669SOL    HW219644   4.048   1.721   0.167 -0.1304 -0.5334 -0.7623
 2670SOL     OW19645   2.573   3.822   4.978 -0.4982  0.1039 -0.1448
 2670SOL    HW119646   2.581   3.844   4.885  1.1927  0.3421  0.0436
 2670SOL    HW219647   2.579   3.727   4.973 -1.1005  0.0863 -0.5290
 2671SOL     OW19648   0.128   2.210   5.944 -0.2920 -0.2047  0.2668
 2671SOL    HW119649   0.040   2.181   5.967 -0.1623 -1.8720 -1.3507
 2671SOL    HW219650   0.115   2.297   5.981 -0.4817 -0.3733  0.5951
 2672SOL     OW19651   4.306   0.601   8.458  0.6677  0.1302  0.0292
 2672SOL    HW119652   4.329   0.589   8.366  1.5477  0.9466  0.1372
 2672SOL    HW219653   4.300   0.696   8.464 -2.7075 -0.2589  2.6278
 2673SOL     OW19654   0.909   0.858   6.435 -0.3312  0.0735  0.3784
 2673SOL    HW119655   0.945   0.941   6.465 -0.8873 -0.1513  1.6655
 2673SOL    HW219656   0.942   0.854   6.345  0.5171 -0.0833  0.6981
 2674SOL     OW19657   0.279   0.633   5.696 -1.0771  0.4450  0.4526
 2674SOL    HW119658   0.194   0.589   5.686 -0.7166 -0.5941  1.9290
 2674SOL    HW219659   0.308   0.628   5.606  1.3139  1.2575  1.1869
 2675SOL     OW19660   1.187   4.506   8.868  0.0045  0.4912 -0.0502
 2675SOL    HW119661   1.275   4.484   8.898 -0.4977 -0.0519  1.0302
 2675SOL    HW219662   1.178   4.599   8.890 -1.0705 -0.3159  2.8607
 2676SOL     OW19663   0.276   4.517   3.364  0.0969  0.0908  0.3007
 2676SOL    HW119664   0.226   4.453   3.313  0.5986  0.4679 -0.6506
 2676SOL    HW219665   0.233   4.507   3.449  0.3003 -0.3471  0.3525
 2677SOL     OW19666   3.863   0.178   0.238  0.4202  0.3403  0.6312
 2677SOL    HW119667   3.789   0.186   0.298  1.2061  2.5771  1.2978
 2677SOL    HW219668   3.930   0.213   0.296  0.6565  1.7589 -0.4960
 2678SOL     OW19669   0.302   2.383  15.264 -0.1967  0.2275 -0.3335
 2678SOL    HW119670   0.303   2.352  15.354  0.4715  0.8563 -0.1210
 2678SOL    HW219671   0.212   2.392  15.233 -0.4620  0.1360  0.4185
 2679SOL     OW19672   0.488   2.047  17.356 -0.3359  0.6085 -0.0469
 2679SOL    HW119673   0.476   2.142  17.353 -1.0431  0.6066  2.1292
 2679SOL    HW219674   0.480   2.021  17.264  1.3005 -3.3660  0.9335
 2680SOL     OW19675   2.043   1.432   2.574  0.1928  0.0454  0.4372
 2680SOL    HW119676   2.108   1.422   2.503  0.7013  0.6418  0.8181
 2680SOL    HW219677   1.966   1.460   2.524 -0.4540 -1.3547  0.6501
 2681SOL     OW19678   3.630   0.898  16.449 -0.6426  0.1592  0.6833
 2681SOL    HW119679   3.664   0.824  16.399  1.1529  0.4707  1.4303
 2681SOL    HW219680   3.615   0.859  16.535 -0.5115 -1.2465  0.0690
 2682SOL     OW19681   1.733   0.389   5.746  0.3150 -0.6241  0.0426
 2682SOL    HW119682   1.681   0.391   5.666 -1.3638 -1.1760  1.1277
 2682SOL    HW219683   1.815   0.403   5.699  0.7422  2.3715  1.6802
 2683SOL     OW19684   0.244   2.135  11.870 -0.9519 -0.1887  0.7376
 2683SOL    HW119685   0.271   2.164  11.784 -1.4436 -0.3787  0.5174
 2683SOL    HW219686   0.216   2.045  11.853  0.3627  0.0800 -2.7099
 2684SOL     OW19687   4.349   2.693   2.288  0.1669 -0.1496  0.3033
 2684SOL    HW119688   4.275   2.645   2.324 -1.8915  1.6872 -1.4750
 2684SOL    HW219689   4.344   2.768   2.347  1.2778  0.9251 -0.9365
 2685SOL     OW19690   4.116   0.588  16.292 -0.0896 -0.3807  0.1346
 2685SOL    HW119691   4.039   0.633  16.256  0.2830  0.7769  0.7995
 2685SOL    HW219692   4.183   0.634  16.243  3.3217 -2.0944  3.2209
 2686SOL     OW19693   4.678   2.267  13.884  0.6856 -0.1705  0.2662
 2686SOL    HW119694   4.623   2.265  13.963  0.5586 -0.9318  0.1615
 2686SOL    HW219695   4.638   2.342  13.840  0.6992 -1.5118 -2.0101
 2687SOL     OW19696   0.379   2.822   2.253  0.1284 -0.4623  0.0258
 2687SOL    HW119697   0.327   2.819   2.333 -1.3324  1.6182 -0.8348
 2687SOL    HW219698   0.462   2.834   2.299 -0.5139 -1.2253  1.3596
 2688SOL     OW19699   1.561   2.911   7.132  0.3386  0.2080  0.5612
 2688SOL    HW119700   1.626   2.853   7.173 -0.1747 -0.2473  0.7317
 2688SOL    HW219701   1.585   2.905   7.040  0.1877 -1.0425  0.5948
 2689SOL     OW19702   1.414   4.328   4.323 -0.4223  0.1602  0.2050
 2689SOL    HW119703   1.402   4.407   4.270 -0.7315 -1.1550 -1.6724
 2689SOL    HW219704   1.509   4.326   4.330 -0.6127 -0.2585  2.5157
 2690SOL     OW19705   1.806   2.170   1.982  0.6616 -0.2225 -0.4786
 2690SOL    HW119706   1.882   2.202   1.935  0.1732  1.8355  0.1092
 2690SOL    HW219707   1.836   2.133   2.065  1.5122 -0.4818 -0.9110
 2691SOL     OW19708   4.251   1.157  17.714 -0.6590 -0.1865 -0.2941
 2691SOL    HW119709   4.205   1.094  17.660 -2.2542  1.3997 -0.7860
 2691SOL    HW219710   4.326   1.180  17.660  0.1853 -3.4823 -0.5320
 2692SOL     OW19711   1.156   4.193  11.647  0.6851 -0.2923  0.6264
 2692SOL    HW119712   1.168   4.232  11.734  0.4529  1.5374 -0.1665
 2692SOL    HW219713   1.071   4.151  11.661  0.1528  0.1260 -1.3492
 2693SOL     OW19714   0.951   2.170   4.808  0.2521 -0.0776  0.1697
 2693SOL    HW119715   0.926   2.096   4.752 -1.5775 -0.0109  0.9152
 2693SOL    HW219716   0.915   2.240   4.754 -0.8914  0.0150  1.0818
 2694SOL     OW19717   0.520   4.676   9.719  0.3346 -0.1347 -0.1907
 2694SOL    HW119718   0.448   4.694   9.660  1.6939 -0.9256 -2.0921
 2694SOL    HW219719   0.583   4.624   9.668 -2.2871 -1.1390 -2.3711
 2695SOL     OW19720   3.381   0.595   5.659 -0.2310  0.2980  0.3210
 2695SOL    HW119721   3.404   0.503   5.646  2.4244  1.2704 -1.7959
 2695SOL    HW219722   3.418   0.634   5.580 -1.6166  0.2081 -0.3694
 2696SOL     OW19723   1.521   0.065   5.515  0.3870  0.2836 -0.0251
 2696SOL    HW119724   1.464   4.727   5.488  0.8966  0.0815 -0.5512
 2696SOL    HW219725   1.595   0.047   5.456  1.4729  2.7995  0.5554
 2697SOL     OW19726   3.212   3.144  10.885 -0.4597  0.3690 -0.2195
 2697SOL    HW119727   3.291   3.130  10.938  0.9012  2.2477 -1.7840
 2697SOL    HW219728   3.210   3.064  10.832  0.2755 -1.6070  2.6919
 2698SOL     OW19729   0.743   1.975   7.527 -0.3872 -0.1129  0.3109
 2698SOL    HW119730   0.808   1.987   7.596  0.3714  2.0821 -0.7657
 2698SOL    HW219731   0.803   1.961   7.453  1.1068  2.3403  1.0314
 2699SOL     OW19732   2.731   1.023   0.331  0.1253 -0.2444 -0.4393
 2699SOL    HW119733   2.801   0.967   0.365 -0.4698 -0.2487  0.7713
 2699SOL    HW219734   2.762   1.079   0.259  1.3067  0.2096  0.4293
 2700SOL     OW19735   3.653   3.649   3.228  0.2333 -0.5617  0.2671
 2700SOL    HW119736   3.630   3.558   3.208  0.7877 -0.0497 -2.7162
 2700SOL    HW219737   3.689   3.667   3.142 -0.4930  0.6206  0.2072
 2701SOL     OW19738   4.036   2.035   2.669 -0.0146 -0.2883 -0.2020
 2701SOL    HW119739   4.118   2.058   2.624  0.9034 -0.0827  1.5856
 2701SOL    HW219740   4.054   2.053   2.761  1.1606 -1.6786 -0.1613
 2702SOL     OW19741   0.551   3.157   7.609 -0.0695 -0.2404 -0.2297
 2702SOL    HW119742   0.547   3.073   7.563  0.4964  0.5074 -1.6349
 2702SOL    HW219743   0.636   3.140   7.651 -0.2086  1.0253  0.5539
 2703SOL     OW19744   2.294   0.026   3.394 -0.0253  0.3550  0.5266
 2703SOL    HW119745   2.297   4.705   3.316  1.0012  0.7662  0.2770
 2703SOL    HW219746   2.375   0.076   3.389 -0.0212  0.1762 -1.1290
 2704SOL     OW19747   3.319   2.084  17.313 -0.0463 -0.5305  0.1891
 2704SOL    HW119748   3.283   1.997  17.297  0.6514 -0.5980 -0.9622
 2704SOL    HW219749   3.259   2.119  17.378 -0.4506 -0.9233  0.0249
 2705SOL     OW19750   1.901   2.684   3.688 -0.9130  0.3735 -0.0711
 2705SOL    HW119751   1.824   2.731   3.656 -1.1379 -0.3173 -0.5522
 2705SOL    HW219752   1.961   2.691   3.614 -0.3173 -0.4164  0.3307
 2706SOL     OW19753   3.261   1.165   7.609  0.3252  0.0655  0.0462
 2706SOL    HW119754   3.310   1.214   7.674 -3.3214  2.7484  0.7864
 2706SOL    HW219755   3.207   1.237   7.575 -0.2376 -0.1877  0.3934
 2707SOL     OW19756   3.451   0.270   9.374 -0.5274  0.2043 -0.5360
 2707SOL    HW119757   3.377   0.298   9.428  0.4502  0.2317  0.7919
 2707SOL    HW219758   3.414   0.253   9.288 -1.0632  1.6601 -0.6021
 2708SOL     OW19759   3.264   2.681   2.062  0.7911  0.3724  0.0983
 2708SOL    HW119760   3.196   2.738   2.097 -0.8249 -1.1745 -0.5620
 2708SOL    HW219761   3.209   2.627   2.005  2.7991 -0.8628 -0.6707
 2709SOL     OW19762   4.548   0.765  10.969 -0.4825 -0.1535 -0.1857
 2709SOL    HW119763   4.531   0.728  11.055  0.1456  0.5507  0.2392
 2709SOL    HW219764   4.467   0.795  10.927 -1.4831 -0.0151  1.8284
 2710SOL     OW19765   3.716   1.144  17.594 -0.2602 -0.8252 -0.0419
 2710SOL    HW119766   3.761   1.114  17.515  1.7393  2.3332 -0.1340
 2710SOL    HW219767   3.695   1.236  17.575 -0.7993 -0.8409  0.4906
 2711SOL     OW19768   1.997   1.810   8.055  0.4859  0.3164  0.0895
 2711SOL    HW119769   1.949   1.857   8.124  1.1889 -0.7030  1.2837
 2711SOL    HW219770   2.091   1.823   8.071  0.8006  0.4181 -1.8321
 2712SOL     OW19771   4.482   1.899   8.038 -0.4234  0.4610  0.3244
 2712SOL    HW119772   4.571   1.889   8.003  0.2020 -1.6778  2.5435
 2712SOL    HW219773   4.441   1.940   7.962 -0.6671  0.4695  0.4625
 2713SOL     OW19774   4.083   0.397  14.915 -0.0703 -0.0560  0.0200
 2713SOL    HW119775   4.000   0.438  14.891  0.8528  1.7171 -0.1653
 2713SOL    HW219776   4.053   0.332  14.979  1.1837 -1.6453 -0.9999
 2714SOL     OW19777   1.148   4.633   3.081 -0.0552  0.0414  0.1716
 2714SOL    HW119778   1.108   4.577   3.148  0.3895 -0.2565  0.1889
 2714SOL    HW219779   1.138   4.576   3.005 -3.2203 -0.2673  0.8292
 2715SOL     OW19780   4.390   1.696   6.825  0.0951  0.2682  0.2984
 2715SOL    HW119781   4.430   1.649   6.899  1.2846 -2.8349 -2.3116
 2715SOL    HW219782   4.465   1.752   6.804  0.9600 -0.6982  0.7780
 2716SOL     OW19783   1.802   4.259   8.720 -0.1330  0.5281 -0.2128
 2716SOL    HW119784   1.867   4.290   8.784  1.1684  0.1769 -1.3656
 2716SOL    HW219785   1.861   4.262   8.645  1.5337 -1.8177  0.9720
 2717SOL     OW19786   4.420   2.297   1.072  0.2551 -0.2732 -0.3593
 2717SOL    HW119787   4.374   2.366   1.024  1.4049  1.4525  1.0439
 2717SOL    HW219788   4.467   2.340   1.143  1.7756 -1.2170 -0.8162
 2718SOL     OW19789   4.435   4.191   6.102 -0.3582  0.2371  0.0146
 2718SOL    HW119790   4.395   4.165   6.185 -1.2348 -2.8689 -1.3817
 2718SOL    HW219791   4.355   4.212   6.053 -0.7813 -2.2698 -0.3612
 2719SOL     OW19792   3.902   1.489   5.739 -0.2140  0.1012 -0.0797
 2719SOL    HW119793   3.942   1.415   5.784 -0.0696 -0.3756 -0.9797
 2719SOL    HW219794   3.968   1.501   5.670  1.1814 -0.4411  1.1486
 2720SOL     OW19795   4.069   2.651   9.526 -0.0388 -0.5495  0.3670
 2720SOL    HW119796   4.111   2.567   9.507 -1.7796 -1.3126 -0.1207
 2720SOL    HW219797   4.027   2.625   9.608 -0.7474 -0.5369  0.0163
 2721SOL     OW19798   0.494   3.023   9.630 -0.5985  0.1873 -0.6284
 2721SOL    HW119799   0.404   3.056   9.627 -0.1543  1.4623 -0.0901
 2721SOL    HW219800   0.537   3.067   9.557  0.1681 -0.1970 -0.4030
 2722SOL     OW19801   0.886   1.221   5.298 -0.0490 -0.2640  0.1867
 2722SOL    HW119802   0.905   1.150   5.359 -0.5143 -1.7420 -1.3913
 2722SOL    HW219803   0.943   1.192   5.227 -0.3532 -1.7918  0.5733
 2723SOL     OW19804   1.157   4.451   2.898 -0.3564 -0.2459  0.2653
 2723SOL    HW119805   1.242   4.433   2.859 -0.4700  0.3029 -0.2160
 2723SOL    HW219806   1.141   4.366   2.940 -1.4498 -0.0857  0.1714
 2724SOL     OW19807   2.403   4.651  13.702  0.2557  0.5006 -0.3563
 2724SOL    HW119808   2.482   4.685  13.743  1.5095  0.3540 -2.6567
 2724SOL    HW219809   2.414   4.555  13.705 -1.1778  0.4770  3.7344
 2725SOL     OW19810   2.075   4.005   5.068  0.0357  0.0415  0.3071
 2725SOL    HW119811   2.161   3.963   5.076  0.5472  1.1624  0.6961
 2725SOL    HW219812   2.047   3.962   4.987  0.0531  3.4878 -1.5119
 2726SOL     OW19813   4.140   0.942   3.905  0.1783 -0.7350  0.5240
 2726SOL    HW119814   4.141   0.968   3.813  0.2588 -1.7681  0.2378
 2726SOL    HW219815   4.219   0.987   3.936  1.4124 -3.4209  1.2194
 2727SOL     OW19816   1.405   2.908   6.446 -0.0012  0.0682  0.3141
 2727SOL    HW119817   1.330   2.870   6.400  0.6724 -0.5208 -0.2875
 2727SOL    HW219818   1.465   2.936   6.377 -1.2469  0.0248 -0.7811
 2728SOL     OW19819   3.051   3.604  15.952  0.0950 -0.4098  0.2192
 2728SOL    HW119820   3.097   3.586  15.870  1.0969  1.5593  0.3397
 2728SOL    HW219821   3.101   3.680  15.984  2.0357 -1.2897 -0.7162
 2729SOL     OW19822   1.037   3.218   0.432  0.3970  0.3772  0.3884
 2729SOL    HW119823   1.118   3.210   0.381 -0.9160  3.1098 -2.0711
 2729SOL    HW219824   1.011   3.304   0.399 -0.4019  0.6179  1.6337
 2730SOL     OW19825   0.403   0.024  14.816  0.5359 -0.0279  0.2516
 2730SOL    HW119826   0.333   4.708  14.857  2.4057 -1.3063  1.9098
 2730SOL    HW219827   0.434   4.695  14.752 -2.0834 -0.0033 -1.0411
 2731SOL     OW19828   2.024   3.083   6.047  0.0676 -0.6064 -0.0084
 2731SOL    HW119829   2.108   3.071   6.091  0.0499 -2.1426 -0.4196
 2731SOL    HW219830   2.046   3.148   5.980  1.3211 -0.0670  0.9196
 2732SOL     OW19831   3.061   1.557  13.583  0.5956 -0.3317 -0.1929
 2732SOL    HW119832   3.078   1.530  13.674 -0.6587  1.5508  0.5878
 2732SOL    HW219833   3.149   1.579  13.551  0.9050  0.4548  1.2112
 2733SOL     OW19834   3.590   1.119   2.097 -0.0191  0.0682  0.2426
 2733SOL    HW119835   3.502   1.138   2.130  0.0457  1.6833 -0.5449
 2733SOL    HW219836   3.642   1.159   2.166  0.7466 -0.9348  0.2589
 2734SOL     OW19837   3.757   3.632   6.348 -0.1851 -0.6839 -0.6607
 2734SOL    HW119838   3.779   3.711   6.299 -0.6029  0.0073  0.2851
 2734SOL    HW219839   3.839   3.582   6.349 -0.7570 -1.5867  2.3833
 2735SOL     OW19840   4.098   1.402   6.862 -0.1970  0.5463 -0.3350
 2735SOL    HW119841   4.047   1.432   6.787 -0.4545  2.3223  0.5495
 2735SOL    HW219842   4.048   1.333   6.905  0.2399  0.4219 -0.0275
 2736SOL     OW19843   4.514   1.731   2.907  0.3571  0.3896  0.9506
 2736SOL    HW119844   4.421   1.710   2.919 -0.2845  1.4870 -2.1161
 2736SOL    HW219845   4.500   1.773   2.822 -0.6939  0.6253  1.2494
 2737SOL     OW19846   2.832   0.621   4.068 -0.3930  0.0070  0.5377
 2737SOL    HW119847   2.927   0.633   4.070 -0.1496 -1.8165 -0.2157
 2737SOL    HW219848   2.825   0.525   4.071 -0.6379 -0.0185 -0.9500
 2738SOL     OW19849   0.071   4.679   7.481 -0.8753 -0.5162 -0.7521
 2738SOL    HW119850   0.038   4.692   7.570 -1.2464  0.1111 -0.9785
 2738SOL    HW219851   0.038   0.025   7.442  1.3089  1.4993  1.5182
 2739SOL     OW19852   0.568   1.677   9.155  0.6459  0.2933 -0.1236
 2739SOL    HW119853   0.599   1.663   9.244  0.6475 -0.6925 -0.2753
 2739SOL    HW219854   0.517   1.597   9.140  0.1295  0.8921 -1.5423
 2740SOL     OW19855   3.368   2.182  12.558 -0.4030  0.4004  0.1690
 2740SOL    HW119856   3.319   2.109  12.595  0.1383  1.0305  2.1324
 2740SOL    HW219857   3.347   2.172  12.465  3.3895 -2.5591 -0.3641
 2741SOL     OW19858   4.681   2.246  12.193 -0.0381 -0.2071 -0.9765
 2741SOL    HW119859   4.682   2.177  12.260  0.0952 -1.8463 -2.6524
 2741SOL    HW219860   4.642   2.198  12.120 -1.0830 -0.3560 -0.3178
 2742SOL     OW19861   3.448   0.047   6.836  0.4569 -0.1534  0.2039
 2742SOL    HW119862   3.432   0.124   6.780  3.1865  1.2252  1.3526
 2742SOL    HW219863   3.441   0.098   6.916 -2.5459  0.1694 -0.2400
 2743SOL     OW19864   4.162   1.903   7.857  0.0924 -0.3232 -0.8430
 2743SOL    HW119865   4.154   1.890   7.951  1.4151 -1.0753 -0.8390
 2743SOL    HW219866   4.198   1.822   7.821 -1.4994 -0.7964 -1.3710
 2744SOL     OW19867   1.939   1.806   5.202 -0.2884  0.0575  0.3406
 2744SOL    HW119868   1.846   1.818   5.221 -0.7608  0.3432 -2.1690
 2744SOL    HW219869   1.937   1.805   5.106 -2.3915 -1.9746  0.4180
 2745SOL     OW19870   0.160   4.001   3.898 -0.5376 -0.1779  0.7896
 2745SOL    HW119871   0.075   3.986   3.940 -0.6265  0.1698  0.7331
 2745SOL    HW219872   0.206   4.036   3.975  0.0336  1.5971 -0.3586
 2746SOL     OW19873   2.995   0.651   2.421 -0.3627  0.0694 -0.0261
 2746SOL    HW119874   2.983   0.600   2.342  1.5496  1.2336 -1.0826
 2746SOL    HW219875   3.081   0.615   2.445 -0.5118 -1.5960 -1.9993
 2747SOL     OW19876   4.723   2.200   9.002 -0.1036 -0.1365 -0.0601
 2747SOL    HW119877   0.031   2.286   9.002  1.0473 -0.6979 -0.3669
 2747SOL    HW219878   0.032   2.151   8.932  0.0885 -0.6857  0.4329
 2748SOL     OW19879   2.462   4.532   1.647 -0.2046 -0.3799 -0.0756
 2748SOL    HW119880   2.427   4.519   1.559 -1.5534 -1.9652  0.7049
 2748SOL    HW219881   2.518   4.456   1.660 -0.6019 -0.7083 -0.2825
 2749SOL     OW19882   3.444   2.205   4.248  0.1482  0.0232 -0.2195
 2749SOL    HW119883   3.371   2.219   4.309  0.2133  1.4019 -0.4541
 2749SOL    HW219884   3.472   2.116   4.267  0.0225  0.3244  1.4181
 2750SOL     OW19885   0.456   0.723   0.438 -0.4483 -0.2446  0.3146
 2750SOL    HW119886   0.428   0.631   0.443  0.9058 -0.7233 -0.9371
 2750SOL    HW219887   0.547   0.705   0.416 -0.4956  0.6786 -0.5851
 2751SOL     OW19888   1.599   4.140  10.332 -0.5548 -0.8970  0.1534
 2751SOL    HW119889   1.678   4.191  10.346 -0.2986 -1.3567  0.3987
 2751SOL    HW219890   1.531   4.200  10.363  1.8675  2.7782 -1.6252
 2752SOL     OW19891   1.106   2.275   0.621 -0.3411  0.0104 -0.2940
 2752SOL    HW119892   1.059   2.194   0.642 -0.0069 -0.4784 -1.4031
 2752SOL    HW219893   1.182   2.243   0.573 -0.4585 -2.4647  1.1593
 2753SOL     OW19894   0.955   0.332   8.767 -0.4758 -0.2904 -0.5000
 2753SOL    HW119895   0.869   0.366   8.742  0.5114 -0.4386 -4.0018
 2753SOL    HW219896   0.953   0.238   8.753  2.4054  0.0595 -3.2978
 2754SOL     OW19897   0.448   3.337   9.172  0.1706 -0.6205  0.8803
 2754SOL    HW119898   0.492   3.367   9.252 -1.1415  0.2695  1.2737
 2754SOL    HW219899   0.367   3.387   9.183 -0.9017 -3.0715  4.1732
 2755SOL     OW19900   1.850   1.742   2.093  0.3476  0.4257 -0.1436
 2755SOL    HW119901   1.875   1.650   2.098 -0.1656  0.2298 -0.9865
 2755SOL    HW219902   1.871   1.770   2.182 -1.7552  0.6195  0.2888
 2756SOL     OW19903   3.479   3.440   3.508  0.4381 -0.0202 -0.1450
 2756SOL    HW119904   3.516   3.360   3.471 -0.3454 -0.3415 -0.2240
 2756SOL    HW219905   3.389   3.409   3.498  0.0928  0.6588  0.8602
 2757SOL     OW19906   1.419   4.534   8.322 -0.1309 -0.2228 -0.7003
 2757SOL    HW119907   1.469   4.615   8.313 -0.8363  0.2799 -0.0692
 2757SOL    HW219908   1.462   4.501   8.401 -1.2059  1.0057  0.4001
 2758SOL     OW19909   4.033   2.877   9.014 -0.2294  0.5302  0.1846
 2758SOL    HW119910   4.114   2.828   9.022  0.1644  0.8016 -2.1965
 2758SOL    HW219911   3.973   2.816   9.057 -0.2397 -0.1172 -0.7411
 2759SOL     OW19912   1.755   3.295   0.331 -1.2374  0.7941  0.2020
 2759SOL    HW119913   1.681   3.351   0.306 -1.0588 -0.4586 -3.0774
 2759SOL    HW219914   1.827   3.353   0.360 -0.2700 -1.2292  1.8236
 2760SOL     OW19915   4.187   0.326   8.098 -0.4736  0.3033  0.3059
 2760SOL    HW119916   4.128   0.332   8.023  0.4451  0.9783 -0.3631
 2760SOL    HW219917   4.264   0.374   8.069  0.2295 -0.8473  0.2622
 2761SOL     OW19918   4.344   3.054   3.929  0.0393  0.1735  0.2027
 2761SOL    HW119919   4.253   3.043   3.900  1.0330 -1.6464 -2.2372
 2761SOL    HW219920   4.360   3.147   3.914  0.2458 -0.0621 -1.0569
 2762SOL     OW19921   0.308   2.490   8.398 -0.0842  0.5434 -0.1694
 2762SOL    HW119922   0.348   2.553   8.338 -1.1245  0.4357 -0.9742
 2762SOL    HW219923   0.388   2.454   8.435 -0.8426 -0.6626  0.3001
 2763SOL     OW19924   2.513   1.472  16.378 -0.4264 -0.1358 -0.2001
 2763SOL    HW119925   2.545   1.391  16.338 -3.2972 -2.3331  1.9690
 2763SOL    HW219926   2.596   1.496  16.420  0.7679 -0.3830 -2.4234
 2764SOL     OW19927   0.038   2.349  15.273  0.3572  0.0451 -0.2493
 2764SOL    HW119928   4.705   2.383  15.214  1.9582  1.3377 -1.3445
 2764SOL    HW219929   4.725   2.337  15.355  1.5219  1.1361  0.5784
 2765SOL     OW19930   2.524   4.121   6.789  0.2245 -0.3749  0.5696
 2765SOL    HW119931   2.580   4.189   6.751 -1.1847  0.2297 -0.4480
 2765SOL    HW219932   2.445   4.172   6.808 -0.7279 -2.5966  2.5706
 2766SOL     OW19933   2.418   1.761   3.344  0.0022 -0.1156  0.2585
 2766SOL    HW119934   2.396   1.670   3.324 -0.0701 -0.6899  2.8863
 2766SOL    HW219935   2.376   1.805   3.271  0.8026 -1.2366 -0.8719
 2767SOL     OW19936   0.155   0.175   2.406 -0.4080  1.0178 -0.4005
 2767SOL    HW119937   0.080   0.232   2.397 -0.0904  1.6028  0.7107
 2767SOL    HW219938   0.119   0.098   2.361 -0.1096 -0.3507  1.6734
 2768SOL     OW19939   3.580   0.602   3.989  0.1523 -0.3430  0.6443
 2768SOL    HW119940   3.505   0.543   3.992  1.1696 -1.6716  0.3727
 2768SOL    HW219941   3.583   0.645   4.074  1.5207 -0.3446  0.6099
 2769SOL     OW19942   0.005   3.326   1.097  0.5218  0.5444  0.1809
 2769SOL    HW119943   4.723   3.405   1.046  0.4102  0.6393  0.3649
 2769SOL    HW219944   0.026   3.262   1.029  0.1774  0.5343  0.0826
 2770SOL     OW19945   3.462   4.509  10.472 -0.1535  0.0118  0.2299
 2770SOL    HW119946   3.434   4.541  10.558 -1.1285  0.7888 -0.3773
 2770SOL    HW219947   3.514   4.432  10.496  1.1127  0.1236 -2.0856
 2771SOL     OW19948   1.905   0.130   2.632 -0.4373 -0.1016  0.3163
 2771SOL    HW119949   1.818   0.125   2.673 -0.0810 -1.6294  0.8859
 2771SOL    HW219950   1.872   0.097   2.548  1.2872  0.6390 -0.6448
 2772SOL     OW19951   0.057   0.615   3.051 -0.0942  0.6128 -0.1428
 2772SOL    HW119952   4.730   0.678   3.013 -1.3966 -1.8005 -1.9694
 2772SOL    HW219953   0.022   0.605   3.139 -2.2691  0.1320 -1.0754
 2773SOL     OW19954   0.967   1.899  14.173 -0.0867 -0.4053  0.2975
 2773SOL    HW119955   1.051   1.857  14.154 -0.5318 -0.9540 -0.4653
 2773SOL    HW219956   1.001   1.973  14.223  0.5385 -0.9531  0.6673
 2774SOL     OW19957   3.421   1.924   4.316  0.2058 -0.1236  0.7620
 2774SOL    HW119958   3.375   1.872   4.251 -1.7295  1.2707  1.0439
 2774SOL    HW219959   3.408   1.855   4.382  0.9132 -0.3076  0.7167
 2775SOL     OW19960   1.870   2.678  13.216  0.1151 -0.4641 -0.5270
 2775SOL    HW119961   1.853   2.633  13.134  0.6198  0.2385 -1.0106
 2775SOL    HW219962   1.931   2.739  13.175  1.2248 -0.5313  1.0072
 2776SOL     OW19963   1.082   0.317   5.939  0.5727  0.1466 -0.4397
 2776SOL    HW119964   1.151   0.263   5.976  1.1142  0.3818 -1.1187
 2776SOL    HW219965   1.007   0.265   5.967  1.2274 -1.7408 -2.2089
 2777SOL     OW19966   4.296   4.141   7.648 -0.5006  0.4426 -0.3638
 2777SOL    HW119967   4.261   4.057   7.618  0.8726  0.5541 -2.2940
 2777SOL    HW219968   4.302   4.133   7.743 -0.5904 -0.8688 -0.4677
 2778SOL     OW19969   1.731   0.125   1.019 -0.1145  0.1517 -0.4200
 2778SOL    HW119970   1.636   0.114   1.015 -0.4248  2.8462 -0.5257
 2778SOL    HW219971   1.742   0.166   0.933 -0.4021  2.8788  0.8439
 2779SOL     OW19972   2.693   2.760   6.409  0.0363 -0.4066 -0.5796
 2779SOL    HW119973   2.786   2.740   6.403 -0.7758 -4.1174 -0.6723
 2779SOL    HW219974   2.691   2.851   6.437 -0.9669 -1.0180  1.3412
 2780SOL     OW19975   1.671   3.129   1.839  0.1953 -0.3028  0.0814
 2780SOL    HW119976   1.593   3.076   1.822 -0.4035  0.3479  0.8052
 2780SOL    HW219977   1.635   3.214   1.814 -0.7511  0.3645  3.7472
 2781SOL     OW19978   0.899   2.568   8.530 -0.3053 -0.0003 -0.1851
 2781SOL    HW119979   0.888   2.661   8.511  0.5750  0.2022  0.3207
 2781SOL    HW219980   0.825   2.521   8.490 -0.2248 -0.2262 -0.0683
 2782SOL     OW19981   0.217   1.066  10.008 -0.0636 -0.5742  0.3507
 2782SOL    HW119982   0.285   1.019   9.960  1.1923 -0.7136  2.2692
 2782SOL    HW219983   0.256   1.073  10.095  0.4537 -1.1849  0.1660
 2783SOL     OW19984   0.694   4.592   7.198 -0.2291  0.0723  0.2924
 2783SOL    HW119985   0.710   4.685   7.186  0.7053  0.1819  2.3057
 2783SOL    HW219986   0.694   4.587   7.294 -1.9999  0.9495  0.3404
 2784SOL     OW19987   1.520   2.764   7.489 -0.4581  0.0122  0.4724
 2784SOL    HW119988   1.554   2.708   7.559  0.4434 -0.9351 -0.7211
 2784SOL    HW219989   1.599   2.814   7.474 -1.3720  0.5120 -2.5958
 2785SOL     OW19990   4.673   1.926   9.107 -0.1265  0.0400 -0.1170
 2785SOL    HW119991   4.673   2.020   9.124 -1.1109 -0.4643  2.6579
 2785SOL    HW219992   0.031   1.905   9.123 -0.1034 -0.4943 -0.9822
 2786SOL     OW19993   1.267   2.670   2.870  0.4166  0.6959  0.0307
 2786SOL    HW119994   1.251   2.615   2.794 -3.1181  0.9085  0.6305
 2786SOL    HW219995   1.202   2.659   2.939  1.2313  0.1117  0.6977
 2787SOL     OW19996   1.486   4.543  13.810  0.1552 -0.0648  0.1983
 2787SOL    HW119997   1.539   4.494  13.747  0.9533  1.8654 -0.6338
 2787SOL    HW219998   1.528   4.525  13.894  2.1755 -0.1533 -0.8308
 2788SOL     OW19999   2.651   3.786   0.903  0.0855  0.0258  0.1262
 2788SOL    HW120000   2.660   3.709   0.847  1.2678  0.1060  0.2040
 2788SOL    HW220001   2.682   3.754   0.987  2.6494 -0.5814 -1.0525
 2789SOL     OW20002   3.969   4.670   2.688  0.1914 -0.1427  1.2350
 2789SOL    HW120003   4.017   0.010   2.725  0.1654  0.9083 -0.8428
 2789SOL    HW220004   3.996   4.676   2.596  1.4939 -0.0782  1.6156
 2790SOL     OW20005   4.638   1.412  10.569  0.1743  0.2931  1.0545
 2790SOL    HW120006   4.722   1.375  10.597  0.8986  1.8023  0.8777
 2790SOL    HW220007   4.578   1.379  10.636 -0.3459  3.6364  2.1953
 2791SOL     OW20008   3.786   0.294   1.913 -0.4097  0.4201 -0.5385
 2791SOL    HW120009   3.693   0.274   1.910 -0.0795 -1.8621  4.7617
 2791SOL    HW220010   3.813   0.206   1.886  1.6002  0.2919  1.8704
 2792SOL     OW20011   4.656   2.421   6.670 -0.4333 -0.0572 -0.0607
 2792SOL    HW120012   4.562   2.405   6.667 -0.2969 -0.7900 -0.4841
 2792SOL    HW220013   4.692   2.352   6.726  0.7161  1.7937  1.4900
 2793SOL     OW20014   4.605   2.858   9.315 -0.8714  0.6341 -0.4827
 2793SOL    HW120015   4.644   2.825   9.395  0.2830  1.1750 -0.8327
 2793SOL    HW220016   4.604   2.952   9.332 -0.7257  0.7565 -1.1349
 2794SOL     OW20017   2.803   1.345  10.162  0.7211  0.5002  0.1886
 2794SOL    HW120018   2.798   1.276  10.229 -1.4865  1.5051  1.0337
 2794SOL    HW220019   2.890   1.378  10.187  1.2975 -0.7470 -0.1595
 2795SOL     OW20020   0.331   3.850  11.096 -0.7110  0.1038  0.0871
 2795SOL    HW120021   0.406   3.792  11.105 -1.0174 -0.4082 -0.6130
 2795SOL    HW220022   0.367   3.935  11.120  0.6829 -0.0491 -1.4486
 2796SOL     OW20023   4.053   2.763   5.228 -0.0740 -0.3861 -0.3616
 2796SOL    HW120024   3.995   2.759   5.153  0.9390  3.0383 -1.3470
 2796SOL    HW220025   4.025   2.684   5.274  0.6949 -0.4839 -0.0462
 2797SOL     OW20026   3.416   2.549   3.157 -0.3820 -0.1990  0.6524
 2797SOL    HW120027   3.501   2.594   3.156 -1.2728  1.4747  0.2127
 2797SOL    HW220028   3.410   2.519   3.247 -0.8689 -0.4392  0.5367
 2798SOL     OW20029   2.361   1.954   1.731  0.1977 -0.2354 -0.2529
 2798SOL    HW120030   2.441   1.946   1.784 -1.1024 -1.5406  1.5124
 2798SOL    HW220031   2.319   1.873   1.760  0.2276 -0.0302  0.3726
 2799SOL     OW20032   1.716   0.277   2.939  0.4862  0.1216  0.7405
 2799SOL    HW120033   1.655   0.298   3.010  1.8352  2.3429  1.2283
 2799SOL    HW220034   1.653   0.235   2.881  0.7387  1.3952 -0.4583
 2800SOL     OW20035   4.527   3.356  17.185  0.1384  0.4938 -0.1605
 2800SOL    HW120036   4.489   3.443  17.199  0.2979  0.8011 -1.5507
 2800SOL    HW220037   4.616   3.387  17.166  0.3339  1.9462  3.1975
 2801SOL     OW20038   3.204   3.000   6.707  0.3270  0.4820  0.0475
 2801SOL    HW120039   3.284   2.951   6.724  0.8971  1.6763  0.8120
 2801SOL    HW220040   3.231   3.034   6.622 -0.1483  2.6063  0.7266
 2802SOL     OW20041   0.197   1.228   4.110  0.3845  0.7567 -0.3400
 2802SOL    HW120042   0.280   1.226   4.157 -0.3758 -2.7302  0.8225
 2802SOL    HW220043   0.230   1.282   4.038  2.8864 -1.6664 -1.0223
 2803SOL     OW20044   4.506   0.450   1.938  0.6262 -0.6209 -0.0176
 2803SOL    HW120045   4.508   0.490   1.851  0.3556 -0.4915  0.0371
 2803SOL    HW220046   4.414   0.437   1.962  0.7984 -0.7131  0.6036
 2804SOL     OW20047   3.060   2.847   7.557 -0.1375 -0.0669 -0.0672
 2804SOL    HW120048   3.152   2.856   7.583  0.0782  0.6630 -1.0739
 2804SOL    HW220049   3.075   2.814   7.468 -1.3668  1.0864 -0.6990
 2805SOL     OW20050   1.518   2.722   3.895 -0.4408  0.2452  0.3629
 2805SOL    HW120051   1.547   2.684   3.812  0.4692  1.1127  0.2824
 2805SOL    HW220052   1.469   2.800   3.869 -1.3706  0.3060  2.2656
 2806SOL     OW20053   2.343   2.575   5.880 -0.6395  0.0487 -0.3794
 2806SOL    HW120054   2.401   2.568   5.804 -0.0525  3.4916 -0.2650
 2806SOL    HW220055   2.293   2.496   5.860 -0.1709 -0.9375  2.3663
 2807SOL     OW20056   1.243   4.087   3.392 -0.3235 -0.1487 -1.0361
 2807SOL    HW120057   1.235   4.015   3.329  0.1496  0.7983 -2.1735
 2807SOL    HW220058   1.158   4.131   3.381 -0.2801  0.0641 -0.5004
 2808SOL     OW20059   1.561   2.911  13.307 -0.4245  0.2489  0.3339
 2808SOL    HW120060   1.467   2.909  13.287 -1.4072 -0.0755  4.9991
 2808SOL    HW220061   1.599   2.847  13.247 -0.1132  1.4611 -0.7595
 2809SOL     OW20062   0.410   2.325  14.725 -0.0780 -0.3435 -0.4310
 2809SOL    HW120063   0.490   2.300  14.679 -1.0707 -1.3382 -1.6191
 2809SOL    HW220064   0.379   2.408  14.689 -1.0771 -0.8920 -0.8403
 2810SOL     OW20065   0.378   3.106  11.014 -0.9062  0.4206  0.5132
 2810SOL    HW120066   0.441   3.172  11.044  1.6619 -1.4102 -0.8904
 2810SOL    HW220067   0.299   3.156  11.033  0.5322  2.6345  0.6826
 2811SOL     OW20068   1.695   2.346   3.181  0.2574 -0.4511 -0.1103
 2811SOL    HW120069   1.608   2.313   3.202 -0.6350  0.5991 -2.1602
 2811SOL    HW220070   1.712   2.419   3.241 -1.5844  0.6261 -0.8709
 2812SOL     OW20071   3.448   4.443   8.462  0.2718  0.2560  0.4279
 2812SOL    HW120072   3.375   4.438   8.525 -0.2076  0.1886 -0.1374
 2812SOL    HW220073   3.455   4.349   8.445  3.1439  0.4075  0.7639
 2813SOL     OW20074   3.116   2.571   2.813  0.1196 -0.0380  0.3846
 2813SOL    HW120075   3.123   2.506   2.883  0.1156 -2.7462 -2.1058
 2813SOL    HW220076   3.031   2.609   2.835 -0.5965 -1.8712  0.7760
 2814SOL     OW20077   3.240   1.553   9.151 -0.7897  0.2476  0.3547
 2814SOL    HW120078   3.151   1.528   9.125 -0.4185  1.0258 -1.6521
 2814SOL    HW220079   3.266   1.623   9.091  0.9018 -3.1078 -2.8722
 2815SOL     OW20080   0.017   2.112   9.312  0.6264  0.6369  0.0740
 2815SOL    HW120081   0.043   2.117   9.404 -2.9189  2.8692  0.9890
 2815SOL    HW220082   4.688   2.184   9.312  0.8522  0.8176 -3.3228
 2816SOL     OW20083   2.590   3.388   1.184  0.2194  0.2974  0.2707
 2816SOL    HW120084   2.630   3.468   1.150 -0.2255 -0.0540 -1.0831
 2816SOL    HW220085   2.520   3.383   1.119  0.0204 -2.1441  0.6641
 2817SOL     OW20086   3.011   2.561  17.627 -0.1197  0.1188 -0.1401
 2817SOL    HW120087   2.920   2.552  17.598  0.2477 -1.3944 -0.7924
 2817SOL    HW220088   3.056   2.614  17.562 -0.1720  1.8885  1.2644
 2818SOL     OW20089   1.686   4.195   2.418 -0.2251 -0.0198 -0.1486
 2818SOL    HW120090   1.689   4.288   2.442 -0.2042 -0.0163 -0.1647
 2818SOL    HW220091   1.774   4.185   2.381  0.5520  0.6504  1.4732
 2819SOL     OW20092   2.817   1.404   3.368  0.7320  0.0094 -0.0148
 2819SOL    HW120093   2.834   1.498   3.374  1.0414 -0.1339  1.2305
 2819SOL    HW220094   2.763   1.387   3.444  1.5113  2.8718  1.1630
 2820SOL     OW20095   2.132   0.386   4.629 -0.1056 -0.5212  0.0357
 2820SOL    HW120096   2.095   0.299   4.644 -1.5395 -0.0436 -0.7314
 2820SOL    HW220097   2.097   0.415   4.545 -0.4154 -0.9211  0.0308
 2821SOL     OW20098   1.504   0.117   7.485 -0.7733 -0.2698 -0.0959
 2821SOL    HW120099   1.442   0.050   7.457 -1.3778 -0.5766  1.9641
 2821SOL    HW220100   1.482   0.133   7.577  0.9762 -1.7006  0.5911
 2822SOL     OW20101   4.481   1.381   6.645 -0.0416  0.1700  0.3294
 2822SOL    HW120102   4.562   1.431   6.632 -0.7709  1.6719  1.5793
 2822SOL    HW220103   4.461   1.404   6.736  2.2505 -1.0217  1.1487
 2823SOL     OW20104   4.507   2.431   2.912  0.6494 -0.7480  0.8348
 2823SOL    HW120105   4.520   2.426   3.006  0.5386 -0.9356  0.8398
 2823SOL    HW220106   4.416   2.456   2.899  0.7978 -1.7077 -2.2411
 2824SOL     OW20107   2.075   0.240   1.346  0.2265 -0.2040  0.4708
 2824SOL    HW120108   2.119   0.273   1.268 -0.7120 -0.5667 -0.2105
 2824SOL    HW220109   1.983   0.241   1.320  0.1666  1.3978  0.7498
 2825SOL     OW20110   3.893   4.089  14.143 -0.2136  0.0642 -0.2733
 2825SOL    HW120111   3.972   4.105  14.195 -2.5046 -0.2236  3.2839
 2825SOL    HW220112   3.826   4.089  14.211 -0.7939  3.6344 -0.8880
 2826SOL     OW20113   2.409   0.646   9.096  0.0066 -0.1924  0.2289
 2826SOL    HW120114   2.372   0.559   9.113 -0.7791  0.7680  3.3087
 2826SOL    HW220115   2.500   0.632   9.119  0.6620  0.5487 -1.9178
 2827SOL     OW20116   0.989   2.125  16.903  0.8823 -0.2512 -0.6777
 2827SOL    HW120117   1.065   2.082  16.865  1.2324  0.5515 -0.8774
 2827SOL    HW220118   0.979   2.062  16.975  0.1760 -0.7457 -1.2106
 2828SOL     OW20119   3.266   0.226   6.105  0.2184  0.0834 -0.2211
 2828SOL    HW120120   3.174   0.214   6.129  0.6157 -1.2528  0.6343
 2828SOL    HW220121   3.265   0.315   6.069 -2.2225  1.2084  2.6528
 2829SOL     OW20122   2.078   3.908   4.151  0.1517  0.2672 -0.4005
 2829SOL    HW120123   2.173   3.911   4.139  0.1849 -0.6363 -0.3620
 2829SOL    HW220124   2.074   3.895   4.246  3.8706  0.3262 -0.2413
 2830SOL     OW20125   1.495   4.721  11.766 -0.3137 -0.3490 -0.3717
 2830SOL    HW120126   1.410   4.677  11.773 -0.6438  0.2350 -0.6489
 2830SOL    HW220127   1.498   4.723  11.670 -3.1129 -0.5686 -0.4832
 2831SOL     OW20128   1.687   4.220   5.251 -0.1221 -0.1445 -0.2044
 2831SOL    HW120129   1.771   4.244   5.289 -0.0025 -0.1857 -0.4446
 2831SOL    HW220130   1.713   4.230   5.160 -0.3257 -0.1665 -0.2657
 2832SOL     OW20131   4.217   3.144  13.891 -0.0089  0.4874 -0.0577
 2832SOL    HW120132   4.279   3.144  13.964  0.8937 -0.1098 -0.8183
 2832SOL    HW220133   4.177   3.230  13.906  0.5245  0.4085  1.8070
 2833SOL     OW20134   2.549   4.033   6.093 -0.3047  0.6428  0.1480
 2833SOL    HW120135   2.541   4.093   6.167 -2.4368 -1.0548  1.2712
 2833SOL    HW220136   2.644   4.030   6.098 -0.3686  1.1936  1.5688
 2834SOL     OW20137   3.453   2.840   5.410 -0.5141  0.2525 -0.3317
 2834SOL    HW120138   3.501   2.865   5.489 -0.4981 -0.3893 -0.1351
 2834SOL    HW220139   3.525   2.797   5.365  0.5584  0.2332  1.3945
 2835SOL     OW20140   3.696   1.017   0.272 -0.2601  0.1621 -1.1310
 2835SOL    HW120141   3.671   1.098   0.316 -0.2647  0.0779 -0.9779
 2835SOL    HW220142   3.790   1.028   0.284 -0.1254 -1.3169 -0.7737
 2836SOL     OW20143   3.503   2.035  16.837 -0.5851 -0.1082 -0.3805
 2836SOL    HW120144   3.571   1.984  16.881 -1.3264 -2.1397 -1.6157
 2836SOL    HW220145   3.541   2.113  16.797  0.3062 -0.8988 -1.0716
 2837SOL     OW20146   2.132   0.274   8.008  0.4327 -0.0654  0.0429
 2837SOL    HW120147   2.199   0.329   7.968  1.2845 -1.8813 -1.0136
 2837SOL    HW220148   2.150   0.288   8.101  1.2553 -0.7663 -0.0115
 2838SOL     OW20149   4.419   1.233   7.589 -0.1918 -0.1190  0.5493
 2838SOL    HW120150   4.410   1.140   7.568  3.2173 -0.8689  2.4113
 2838SOL    HW220151   4.336   1.250   7.633  1.2486  1.3152  2.7352
 2839SOL     OW20152   3.913   4.592   7.992 -0.2071 -0.1828 -0.6399
 2839SOL    HW120153   3.821   4.610   7.974 -0.0387  2.6316  1.3526
 2839SOL    HW220154   3.928   4.506   7.953  1.5475 -1.5195  2.8865
 2840SOL     OW20155   2.462   2.341   3.094 -0.0987  0.7126  0.1432
 2840SOL    HW120156   2.513   2.268   3.129 -0.7356  0.2753  0.1470
 2840SOL    HW220157   2.392   2.349   3.158 -0.5243  1.1768 -0.3833
 2841SOL     OW20158   1.826   1.087   6.788 -0.2416 -0.2099 -0.2026
 2841SOL    HW120159   1.731   1.090   6.796 -0.1617 -1.2513  1.1070
 2841SOL    HW220160   1.837   1.181   6.803 -1.7473  0.1545 -1.4682
 2842SOL     OW20161   1.889   2.255   6.164  0.5872 -0.3565 -0.4704
 2842SOL    HW120162   1.837   2.248   6.084 -1.7962  1.1995  0.9583
 2842SOL    HW220163   1.840   2.195   6.220  0.6288 -0.9764 -1.0967
 2843SOL     OW20164   0.625   2.083   2.545 -0.6100  0.4113  0.0422
 2843SOL    HW120165   0.568   2.091   2.621 -0.2852  0.0946  0.3169
 2843SOL    HW220166   0.560   2.115   2.483 -0.6396  1.3032  0.5292
 2844SOL     OW20167   3.733   0.385   4.210  0.3379  0.3421  0.2452
 2844SOL    HW120168   3.744   0.318   4.278  0.3739  0.6756  0.5654
 2844SOL    HW220169   3.691   0.330   4.145  1.4453 -0.4140  0.1628
 2845SOL     OW20170   2.522   4.680   5.394  0.6596  0.4766 -0.4680
 2845SOL    HW120171   2.432   4.668   5.365  0.2425  0.6552  0.7418
 2845SOL    HW220172   2.525   4.611   5.460 -0.3300  1.2600  0.3805
 2846SOL     OW20173   2.883   0.668  11.841  0.0486 -0.2088  0.0241
 2846SOL    HW120174   2.969   0.694  11.808  0.5808 -0.0332  1.5304
 2846SOL    HW220175   2.912   0.661  11.932  0.1369 -0.3374 -0.0133
 2847SOL     OW20176   3.561   0.855   1.270  0.2788  0.6173  0.2715
 2847SOL    HW120177   3.513   0.776   1.296 -1.8446  1.6873 -0.3483
 2847SOL    HW220178   3.579   0.889   1.357 -1.9734  2.7936 -0.0952
 2848SOL     OW20179   0.923   0.719   2.636  0.0889  0.1934  0.1046
 2848SOL    HW120180   0.948   0.665   2.711 -1.7632 -2.7335 -1.3754
 2848SOL    HW220181   0.828   0.704   2.640 -0.1174  1.5471  0.2882
 2849SOL     OW20182   1.961   0.748  15.094  0.0186 -0.4248  0.0623
 2849SOL    HW120183   1.967   0.781  15.004  0.3734  2.5438  1.1823
 2849SOL    HW220184   2.015   0.670  15.084 -0.0811 -0.4463 -0.3194
 2850SOL     OW20185   4.519   0.531   8.980 -0.2219 -0.0970  0.6210
 2850SOL    HW120186   4.593   0.474   8.958 -1.9264 -1.8252 -0.6242
 2850SOL    HW220187   4.546   0.622   8.964  0.6814 -0.2022  1.5083
 2851SOL     OW20188   1.761   3.661   4.495 -0.4449  0.2996  0.4116
 2851SOL    HW120189   1.732   3.583   4.541  2.4161  0.2903  2.1994
 2851SOL    HW220190   1.851   3.631   4.482 -0.9135 -1.7205  1.9000
 2852SOL     OW20191   2.624   0.962  13.280 -0.0943 -0.2967  0.4908
 2852SOL    HW120192   2.583   0.963  13.366  1.0607 -2.5159  1.0955
 2852SOL    HW220193   2.571   1.024  13.232 -0.0649  0.4524  1.4173
 2853SOL     OW20194   1.861   1.344   7.895 -0.7145 -0.4766  0.3080
 2853SOL    HW120195   1.789   1.318   7.952 -1.2217 -3.6167 -1.7550
 2853SOL    HW220196   1.828   1.301   7.816 -0.0467 -0.5130  0.0489
 2854SOL     OW20197   0.404   2.497   9.650  0.7685 -0.3725  0.9097
 2854SOL    HW120198   0.373   2.581   9.685 -0.0218 -0.4638  0.4526
 2854SOL    HW220199   0.359   2.426   9.696  1.2747 -2.0738 -1.2019
 2855SOL     OW20200   0.285   3.246   2.410  0.1270  0.2374  0.5928
 2855SOL    HW120201   0.343   3.171   2.419  0.4308  0.3108 -0.8727
 2855SOL    HW220202   0.255   3.236   2.320 -2.1635  0.6791  1.2907
 2856SOL     OW20203   0.669   3.409   2.626 -0.2192 -0.5202 -0.2165
 2856SOL    HW120204   0.647   3.471   2.695  0.5047  0.5061 -0.9072
 2856SOL    HW220205   0.606   3.441   2.561  0.3042  1.0964  0.0732
 2857SOL     OW20206   3.503   3.053  16.632 -0.2803  0.8651 -0.3924
 2857SOL    HW120207   3.479   2.970  16.591  1.9897 -0.2048  0.4673
 2857SOL    HW220208   3.445   3.061  16.708 -0.0844  0.7713 -0.2316
 2858SOL     OW20209   3.381   2.959   6.022 -0.0476 -0.2635  0.4792
 2858SOL    HW120210   3.438   2.957   6.099  2.4000  1.2952 -1.2937
 2858SOL    HW220211   3.407   2.883   5.970  0.7499  1.0672 -1.0707
 2859SOL     OW20212   0.986   3.469   3.327 -0.3101  0.0518  0.4716
 2859SOL    HW120213   0.895   3.449   3.350  0.7291 -3.6421  1.3668
 2859SOL    HW220214   0.993   3.396   3.265  2.1231  1.0143 -0.3962
 2860SOL     OW20215   1.971   3.337  10.530  0.4285 -0.0263  0.3962
 2860SOL    HW120216   1.935   3.393  10.599 -1.7942 -0.4326 -0.4325
 2860SOL    HW220217   2.028   3.289  10.590  0.6079  0.2139  0.4172
 2861SOL     OW20218   2.368   4.652   8.806 -0.8431  0.3990 -0.7652
 2861SOL    HW120219   2.374   0.013   8.814 -2.3713  0.3829  0.5079
 2861SOL    HW220220   2.297   4.623   8.863 -0.3123  1.7657  0.5944
 2862SOL     OW20221   3.683   0.608   1.734  0.2348  0.0700  0.5258
 2862SOL    HW120222   3.721   0.654   1.660 -0.7760  1.6250  0.9599
 2862SOL    HW220223   3.687   0.517   1.707  1.8257  0.0237  0.9451
 2863SOL     OW20224   3.714   2.244   4.641 -0.5106  0.1797 -0.1953
 2863SOL    HW120225   3.785   2.270   4.583 -0.3414 -0.4609 -0.2718
 2863SOL    HW220226   3.703   2.328   4.687 -1.8924  0.5919 -1.2730
 2864SOL     OW20227   0.752   2.560   6.210  0.4724  0.1408 -0.0579
 2864SOL    HW120228   0.819   2.572   6.278  0.0734  1.4944  0.0920
 2864SOL    HW220229   0.799   2.499   6.152  0.3885 -0.4284  0.4747
 2865SOL     OW20230   4.524   1.914  13.369 -0.1608  0.1107 -0.2274
 2865SOL    HW120231   4.488   1.923  13.281 -0.5466 -1.5546 -0.2528
 2865SOL    HW220232   4.607   1.961  13.360  0.4388 -0.6719  1.2530
 2866SOL     OW20233   0.275   2.174   9.574 -0.1094  0.4788  0.2868
 2866SOL    HW120234   0.285   2.240   9.505 -1.4187  2.0763  1.6095
 2866SOL    HW220235   0.183   2.190   9.598  0.3459  0.6478  1.8514
 2867SOL     OW20236   1.251   1.680   7.388  0.3155 -0.1681 -0.7446
 2867SOL    HW120237   1.165   1.637   7.386 -0.5057  1.4482 -0.3014
 2867SOL    HW220238   1.310   1.605   7.380  2.7148  1.4667  1.3769
 2868SOL     OW20239   4.028   0.856   4.860  0.2793  0.1131  0.0236
 2868SOL    HW120240   4.103   0.915   4.861 -0.8206  1.4366  2.1674
 2868SOL    HW220241   4.071   0.785   4.812 -1.6594 -0.3614 -0.9966
 2869SOL     OW20242   1.502   4.694   5.813 -0.0603  0.3619  0.2658
 2869SOL    HW120243   1.501   4.637   5.890 -2.0546 -0.6532 -0.5234
 2869SOL    HW220244   1.588   4.676   5.776 -0.4052 -0.7091 -0.0004
 2870SOL     OW20245   0.474   3.341  14.205  0.2362  0.2211  0.6075
 2870SOL    HW120246   0.424   3.362  14.283 -0.2086  0.3758  0.2805
 2870SOL    HW220247   0.491   3.428  14.167  0.1421 -0.0272 -0.0146
 2871SOL     OW20248   2.533   2.496   8.149 -0.4441  0.3519  0.0080
 2871SOL    HW120249   2.559   2.589   8.152  0.4276  0.0775  0.9109
 2871SOL    HW220250   2.565   2.474   8.062  1.0991 -0.1167  0.6969
 2872SOL     OW20251   2.870   1.479   1.778 -0.0990 -0.0009 -0.4858
 2872SOL    HW120252   2.786   1.447   1.812 -0.0034  1.2885  0.9845
 2872SOL    HW220253   2.896   1.411   1.716  1.1134  0.4383 -0.4502
 2873SOL     OW20254   0.742   2.402   3.879 -0.1985  0.6726 -0.6221
 2873SOL    HW120255   0.786   2.428   3.960  0.6249  1.5706 -1.3499
 2873SOL    HW220256   0.653   2.410   3.913 -0.4733 -2.7956 -0.5644
 2874SOL     OW20257   4.509   2.621   2.552 -0.0225 -0.2960 -0.0866
 2874SOL    HW120258   4.557   2.583   2.479  0.8552 -1.6505  1.2060
 2874SOL    HW220259   4.487   2.714   2.546  1.6894  0.1287  0.0656
 2875SOL     OW20260   2.831   2.476   5.758 -0.3858 -0.5836 -0.3103
 2875SOL    HW120261   2.796   2.407   5.814  0.1368 -1.5256 -1.1515
 2875SOL    HW220262   2.909   2.429   5.730 -0.7385 -1.0152 -0.5611
 2876SOL     OW20263   3.427   3.913  16.808  0.3946 -0.0845  0.1505
 2876SOL    HW120264   3.451   3.853  16.738  0.8133  2.7066 -2.1119
 2876SOL    HW220265   3.431   3.996  16.761 -0.9020  0.9658  1.8691
 2877SOL     OW20266   1.733   1.040  12.926  0.0375  0.0025 -0.1462
 2877SOL    HW120267   1.789   1.050  12.849 -0.7903  2.1071 -0.4888
 2877SOL    HW220268   1.797   1.007  12.989  2.4966 -1.1160 -3.2572
 2878SOL     OW20269   1.339   2.822   2.578  0.4646  0.3494  0.0635
 2878SOL    HW120270   1.276   2.757   2.546  1.2665 -0.6452  0.4741
 2878SOL    HW220271   1.424   2.777   2.573  0.5218  0.2260  1.9400
 2879SOL     OW20272   0.011   0.887  10.027 -0.5000  0.3407 -0.1487
 2879SOL    HW120273   0.080   0.949  10.006 -0.1864  1.1938  3.4430
 2879SOL    HW220274   4.724   0.893  10.120  0.2321  1.2904 -0.0469
 2880SOL     OW20275   3.207   2.953  10.390 -0.4270 -0.1727 -0.6418
 2880SOL    HW120276   3.132   3.003  10.356 -0.8288 -1.3221 -1.4810
 2880SOL    HW220277   3.260   3.015  10.439  0.0052 -1.6271  0.7150
 2881SOL     OW20278   3.357   1.582   1.946 -0.1121 -0.3707  0.2916
 2881SOL    HW120279   3.265   1.599   1.926  0.1462 -0.1025 -0.6673
 2881SOL    HW220280   3.358   1.616   2.036  0.1674 -2.4926  1.1152
 2882SOL     OW20281   2.090   3.366   4.703 -0.4057 -0.2266 -0.2048
 2882SOL    HW120282   2.138   3.284   4.694 -0.5035 -0.3937  0.8214
 2882SOL    HW220283   2.020   3.341   4.763 -0.4224  0.3845  0.0266
 2883SOL     OW20284   3.720   3.534  16.614 -0.3150 -0.2158 -0.1123
 2883SOL    HW120285   3.636   3.531  16.659 -0.2566  0.4408  0.0404
 2883SOL    HW220286   3.709   3.468  16.546  0.5105 -1.9334  1.4368
 2884SOL     OW20287   1.093   3.550   6.399  0.1282 -0.0381 -0.3818
 2884SOL    HW120288   1.148   3.606   6.344  1.2510  0.2763  1.0584
 2884SOL    HW220289   1.133   3.572   6.483 -1.9074  1.4337  0.1892
 2885SOL     OW20290   4.677   3.233   3.630  0.3719  0.0835  0.2965
 2885SOL    HW120291   4.694   3.313   3.680  2.1858 -1.0595  1.4938
 2885SOL    HW220292   4.673   3.179   3.710 -2.2010  0.7426  0.6104
 2886SOL     OW20293   4.638   1.943  14.430  0.5925  0.4068  0.0480
 2886SOL    HW120294   4.620   1.984  14.515 -0.8912  2.5570 -1.2889
 2886SOL    HW220295   4.614   1.852  14.448  2.0844 -0.1452 -0.7785
 2887SOL     OW20296   2.971   0.189   5.355 -0.0069  0.6784 -0.3282
 2887SOL    HW120297   3.022   0.216   5.279 -0.6041 -1.1503 -1.3802
 2887SOL    HW220298   2.938   0.274   5.381 -2.2828 -0.8172  1.6608
 2888SOL     OW20299   0.276   1.166   0.537  0.2258  0.1573 -0.0931
 2888SOL    HW120300   0.245   1.107   0.606  0.5847  1.9214  1.5728
 2888SOL    HW220301   0.369   1.175   0.557 -0.4198  2.5923  1.8622
 2889SOL     OW20302   0.909   2.338   8.260 -0.2562  0.0565 -0.2395
 2889SOL    HW120303   0.852   2.264   8.238 -2.0943  0.6654  2.4566
 2889SOL    HW220304   0.858   2.404   8.214 -0.5218  0.4145  0.5741
 2890SOL     OW20305   2.818   4.410   5.015 -0.0781  0.6706 -0.0017
 2890SOL    HW120306   2.871   4.463   5.075 -2.2190  1.4435  1.1794
 2890SOL    HW220307   2.755   4.380   5.080  1.7248 -0.7606  1.0674
 2891SOL     OW20308   0.528   4.454   3.217 -0.1828  0.3069 -0.2905
 2891SOL    HW120309   0.474   4.445   3.295  0.1059  0.6299 -0.0520
 2891SOL    HW220310   0.461   4.426   3.155  0.3332  3.0810 -2.0751
 2892SOL     OW20311   0.563   4.683   5.473  0.1603 -0.3036  0.7012
 2892SOL    HW120312   0.501   4.729   5.530 -0.9896 -0.7333 -0.2124
 2892SOL    HW220313   0.649   4.697   5.513 -0.0058  0.7388  0.6967
 2893SOL     OW20314   0.945   1.195   3.096  0.4609 -0.0843  0.0058
 2893SOL    HW120315   1.001   1.221   3.022 -0.8596 -0.1869 -1.0196
 2893SOL    HW220316   1.008   1.150   3.152  1.7898 -0.1220 -1.5226
 2894SOL     OW20317   1.293   3.724  13.631 -0.8118  0.1979  0.3224
 2894SOL    HW120318   1.281   3.770  13.548 -0.6226 -0.2616  0.0394
 2894SOL    HW220319   1.253   3.788  13.690 -0.0486  1.0736 -0.1320
 2895SOL     OW20320   2.324   3.673   7.062  0.2426 -0.1999  0.5579
 2895SOL    HW120321   2.288   3.611   7.125 -1.4923 -0.0836 -0.2949
 2895SOL    HW220322   2.392   3.622   7.020  2.2405  2.3241  0.7361
 2896SOL     OW20323   1.555   1.192   6.808  0.3986  0.5739  0.0985
 2896SOL    HW120324   1.532   1.279   6.840  0.8056  0.0265  1.8696
 2896SOL    HW220325   1.522   1.133   6.876 -0.9573 -0.1833 -1.2162
 2897SOL     OW20326   0.948   2.351   9.826  0.0182  0.5107 -0.1618
 2897SOL    HW120327   1.004   2.290   9.875  0.9702  1.4992 -0.0220
 2897SOL    HW220328   0.880   2.290   9.797 -0.5476  1.5608 -1.0023
 2898SOL     OW20329   0.607   3.697   2.939 -0.3167 -0.2321  0.5197
 2898SOL    HW120330   0.700   3.675   2.950 -0.3081 -0.3740  0.1719
 2898SOL    HW220331   0.556   3.628   2.981 -2.3743  2.2467  2.0985
 2899SOL     OW20332   4.251   1.174   7.840  0.4387 -0.1020 -0.5073
 2899SOL    HW120333   4.169   1.126   7.824  0.4921 -0.4443  0.2558
 2899SOL    HW220334   4.303   1.101   7.873  1.3610  1.2541  1.0463
 2900SOL     OW20335   3.446   0.728  11.892 -0.6040 -0.2281 -0.5118
 2900SOL    HW120336   3.507   0.695  11.957 -1.4735 -1.0246 -0.1131
 2900SOL    HW220337   3.362   0.719  11.937 -0.6860 -0.5929 -0.7435
 2901SOL     OW20338   4.047   2.949  14.112  0.0695  0.5757  0.0879
 2901SOL    HW120339   4.121   2.968  14.055  0.4095  0.7768  0.5916
 2901SOL    HW220340   3.982   3.011  14.079  0.1967  1.1782  0.9556
 2902SOL     OW20341   2.034   0.671   8.144 -0.1493  0.4616  0.4086
 2902SOL    HW120342   2.068   0.712   8.064  0.7416 -0.8843  0.0990
 2902SOL    HW220343   1.964   0.626   8.096 -0.3031  0.7984  0.3206
 2903SOL     OW20344   3.907   2.809   4.172 -0.3530  0.3823 -0.0042
 2903SOL    HW120345   3.970   2.881   4.163  1.7381 -1.5055 -0.5523
 2903SOL    HW220346   3.866   2.801   4.086  1.2452  0.4559 -0.7858
 2904SOL     OW20347   4.619   0.481   4.779  0.1970  0.7113  0.1243
 2904SOL    HW120348   4.536   0.508   4.739  0.7319  0.5588 -1.0585
 2904SOL    HW220349   4.669   0.456   4.702  1.8268 -0.4340  1.5385
 2905SOL     OW20350   4.505   0.835   5.429  0.1174 -0.4557  0.5663
 2905SOL    HW120351   4.508   0.883   5.511  0.2708  1.2538 -0.4483
 2905SOL    HW220352   4.598   0.837   5.406  0.2160 -0.9448  0.9063
 2906SOL     OW20353   1.843   2.896   6.042  0.4675  0.0852  0.8564
 2906SOL    HW120354   1.813   2.888   6.132  1.2395  1.0859  1.2021
 2906SOL    HW220355   1.912   2.962   6.039 -1.5634  2.1607 -0.7617
 2907SOL     OW20356   2.255   2.778   2.703 -0.0731 -0.3393 -0.2238
 2907SOL    HW120357   2.247   2.788   2.798 -0.0411 -0.2641 -0.2289
 2907SOL    HW220358   2.171   2.755   2.664 -0.3022 -0.4934  0.3542
 2908SOL     OW20359   0.715   0.423   5.577 -0.4722  0.4009  0.0456
 2908SOL    HW120360   0.802   0.401   5.542  0.2589  0.3859  1.8649
 2908SOL    HW220361   0.731   0.441   5.670 -0.4423 -0.2488  0.1737
 2909SOL     OW20362   1.738   4.240   6.964 -0.3626 -0.0104 -0.4616
 2909SOL    HW120363   1.695   4.325   6.966 -2.0861 -0.8199 -3.2333
 2909SOL    HW220364   1.657   4.191   6.952 -0.2113 -0.3905  0.0427
 2910SOL     OW20365   3.786   3.757   1.933  0.0001 -0.7268 -0.0783
 2910SOL    HW120366   3.755   3.671   1.962 -0.4065 -0.1814  1.1034
 2910SOL    HW220367   3.734   3.776   1.855 -0.7621  1.3649  0.9455
 2911SOL     OW20368   4.682   4.594   9.095  0.3003  0.5428  0.8859
 2911SOL    HW120369   4.644   4.591   9.007 -0.2621  1.6210  1.0853
 2911SOL    HW220370   4.624   4.656   9.141 -3.4398 -1.8530 -0.6314
 2912SOL     OW20371   3.176   3.249   5.648 -0.0820 -0.2518 -0.7018
 2912SOL    HW120372   3.157   3.156   5.639  0.2928 -0.2252 -1.7076
 2912SOL    HW220373   3.253   3.249   5.704 -0.5437 -0.2745 -0.0630
 2913SOL     OW20374   1.771   2.149   7.462  0.1331 -0.0890 -0.2803
 2913SOL    HW120375   1.817   2.075   7.502 -3.7256 -2.4989 -0.3227
 2913SOL    HW220376   1.691   2.159   7.514  1.0481  1.9392  0.7398
 2914SOL     OW20377   2.363   1.536   0.756  0.0068  0.2129 -0.3096
 2914SOL    HW120378   2.457   1.527   0.740  0.1816 -1.7480  1.8197
 2914SOL    HW220379   2.369   1.619   0.803  2.0453 -0.8827  1.3902
 2915SOL     OW20380   2.289   0.230  16.464  0.0643 -0.1967  0.2984
 2915SOL    HW120381   2.324   0.293  16.402 -1.9166  1.6773  1.0909
 2915SOL    HW220382   2.355   0.161  16.465  2.4115  2.0243 -1.7785
 2916SOL     OW20383   1.515   4.492   8.582 -0.5817 -0.0144  0.1466
 2916SOL    HW120384   1.542   4.571   8.629 -0.7593  0.1008  0.0539
 2916SOL    HW220385   1.530   4.416   8.639  1.0910  1.0435  1.1075
 2917SOL     OW20386   0.164   4.255   1.342  0.6088 -0.1491  0.2310
 2917SOL    HW120387   0.179   4.188   1.408 -0.0711  0.3878  0.9309
 2917SOL    HW220388   0.069   4.247   1.335  0.6106 -0.1940  0.2592
 2918SOL     OW20389   2.138   1.637   5.256  0.0312  0.1885  0.7170
 2918SOL    HW120390   2.067   1.701   5.256  0.7384  0.9666  0.1514
 2918SOL    HW220391   2.104   1.547   5.257  1.1667 -0.2660 -1.3089
 2919SOL     OW20392   4.384   1.758  10.988 -0.0566  0.0428 -0.5015
 2919SOL    HW120393   4.425   1.693  10.931 -1.0224 -1.3047  0.3509
 2919SOL    HW220394   4.411   1.839  10.943 -0.3822  1.3067  1.5892
 2920SOL     OW20395   1.927   0.858   2.950 -0.4858 -0.1548  0.3360
 2920SOL    HW120396   1.876   0.939   2.953  0.0639  0.2863 -1.8928
 2920SOL    HW220397   1.860   0.799   2.985  0.0324 -2.1309 -1.9740
 2921SOL     OW20398   3.122   2.568   3.743 -0.1787  0.2535  0.8163
 2921SOL    HW120399   3.035   2.596   3.771 -0.3578  0.8058 -0.2615
 2921SOL    HW220400   3.172   2.650   3.743 -0.6275  0.5257 -2.9075
 2922SOL     OW20401   3.619   3.606  14.484  0.5671 -0.0479  0.0316
 2922SOL    HW120402   3.713   3.626  14.485  0.4767  0.4119 -1.1605
 2922SOL    HW220403   3.583   3.690  14.458  1.9955  0.2389 -0.9651
 2923SOL     OW20404   2.827   0.567  10.677 -0.1002 -0.2382 -0.1612
 2923SOL    HW120405   2.871   0.652  10.680  2.0016 -1.3177 -0.9357
 2923SOL    HW220406   2.755   0.593  10.619  1.4368 -1.9814 -2.8664
 2924SOL     OW20407   2.731   1.149   2.326  0.1753 -0.5411  0.1545
 2924SOL    HW120408   2.769   1.075   2.373  0.7210  0.6707  1.6158
 2924SOL    HW220409   2.774   1.123   2.245  1.0789 -4.3473  1.8967
 2925SOL     OW20410   1.710   1.273  13.168 -0.3640  0.0940  0.5669
 2925SOL    HW120411   1.786   1.217  13.185  0.3161  0.6154 -0.7449
 2925SOL    HW220412   1.729   1.353  13.217 -2.1132  1.5248 -1.1426
 2926SOL     OW20413   2.282   3.260   1.142 -0.0654 -0.0422 -0.2907
 2926SOL    HW120414   2.203   3.206   1.144 -0.7624  0.9750 -0.4001
 2926SOL    HW220415   2.338   3.206   1.198 -2.6930 -1.3680  1.0727
 2927SOL     OW20416   0.351   4.282   3.061 -0.5127 -0.1482 -0.4167
 2927SOL    HW120417   0.344   4.289   2.966  1.4807  0.3704 -0.5132
 2927SOL    HW220418   0.264   4.309   3.092  0.2853  0.2058  1.5070
 2928SOL     OW20419   0.108   3.847   1.143 -0.4158  0.4760  0.2731
 2928SOL    HW120420   0.128   3.822   1.233  0.9653  0.1957 -0.1084
 2928SOL    HW220421   0.196   3.869   1.114 -0.1086  0.0006  0.8505
 2929SOL     OW20422   0.458   1.739   2.691  0.8994  0.1102 -0.2832
 2929SOL    HW120423   0.374   1.748   2.737  2.3852  1.2923  2.2084
 2929SOL    HW220424   0.450   1.655   2.645 -1.5487 -0.3949  1.0074
 2930SOL     OW20425   1.060   0.995   0.603  0.1528 -0.3919  0.0154
 2930SOL    HW120426   1.039   1.073   0.553 -1.0200  0.0540  1.2118
 2930SOL    HW220427   0.991   0.986   0.670  0.9115 -1.1645  0.6891
 2931SOL     OW20428   1.895   3.046  13.466  0.1505  0.5264 -0.2159
 2931SOL    HW120429   1.818   3.102  13.459 -0.6868 -0.6232 -0.2769
 2931SOL    HW220430   1.863   2.956  13.475 -2.0667  1.4182  0.9210
 2932SOL     OW20431   2.774   0.274   4.993  0.6696 -0.5251  0.7099
 2932SOL    HW120432   2.803   0.300   5.081  0.2071  1.4433  0.2932
 2932SOL    HW220433   2.738   0.187   5.010  1.4216 -0.4331  2.9046
 2933SOL     OW20434   3.890   3.175   9.001 -0.3576 -0.1403  0.0496
 2933SOL    HW120435   3.887   3.210   9.090  1.7996 -1.5924  0.6761
 2933SOL    HW220436   3.805   3.202   8.965  0.5099 -0.5990 -2.3290
 2934SOL     OW20437   0.567   1.247   8.786  0.3008  0.1911 -0.1018
 2934SOL    HW120438   0.548   1.248   8.880  0.7479  0.8045 -0.0144
 2934SOL    HW220439   0.615   1.167   8.762  2.3882  2.0164 -2.0074
 2935SOL     OW20440   2.748   3.031   5.026  0.3071 -0.4153  0.1885
 2935SOL    HW120441   2.808   2.983   4.969 -1.4260  0.3450 -2.2677
 2935SOL    HW220442   2.750   3.119   4.989 -1.9615 -0.6925 -0.5920
 2936SOL     OW20443   3.157   3.364   5.000 -0.0982 -0.1953 -0.0134
 2936SOL    HW120444   3.120   3.434   4.945  0.4075  0.9400  1.0799
 2936SOL    HW220445   3.241   3.346   4.959 -0.1123  1.2661 -0.7130
 2937SOL     OW20446   0.661   4.028   2.772 -0.0794 -0.1399  0.2527
 2937SOL    HW120447   0.712   4.079   2.834 -1.9140 -1.3945  2.7888
 2937SOL    HW220448   0.589   3.989   2.821 -0.6840 -0.3760 -0.8299
 2938SOL     OW20449   0.501   2.910  11.471 -0.6285 -0.1001  0.5697
 2938SOL    HW120450   0.422   2.933  11.521  0.5930  3.2205  0.9767
 2938SOL    HW220451   0.484   2.957  11.390 -1.1533 -2.2154 -0.5589
 2939SOL     OW20452   2.298   0.177   8.855 -0.2064  0.7657  0.1734
 2939SOL    HW120453   2.290   0.260   8.808 -0.3662  0.8414  0.3331
 2939SOL    HW220454   2.212   0.154   8.890  0.2422 -0.2692  0.6058
 2940SOL     OW20455   0.682   2.406  15.366  0.3482 -0.3576 -0.7991
 2940SOL    HW120456   0.683   2.380  15.458  0.1583 -1.9423 -1.2350
 2940SOL    HW220457   0.647   2.326  15.326  1.5855 -0.1705 -2.2652
 2941SOL     OW20458   3.864   4.530  16.843 -0.4893  0.1329 -0.0499
 2941SOL    HW120459   3.781   4.568  16.873 -0.1417  0.8188  0.0492
 2941SOL    HW220460   3.866   4.455  16.903 -1.9996  0.0661 -0.0652
 2942SOL     OW20461   0.012   4.248   6.805 -0.0366  0.0857 -0.2667
 2942SOL    HW120462   0.065   4.197   6.745 -0.1027 -0.0194 -0.2347
 2942SOL    HW220463   0.027   4.199   6.886  0.2388 -1.0020 -0.9863
 2943SOL     OW20464   0.369   2.815   8.240  0.0677  0.1476  0.7371
 2943SOL    HW120465   0.299   2.825   8.176 -0.0823 -2.8269  0.4381
 2943SOL    HW220466   0.362   2.902   8.280 -0.1947  0.4719 -0.0219
 2944SOL     OW20467   1.260   2.721   4.073  0.0036 -0.0494  0.4896
 2944SOL    HW120468   1.354   2.708   4.059  0.3146  1.8244  0.8109
 2944SOL    HW220469   1.250   2.816   4.077 -1.8341 -0.1556 -2.3635
 2945SOL     OW20470   0.494   4.342   8.832  0.2260 -0.2648 -0.5347
 2945SOL    HW120471   0.571   4.388   8.799 -0.5624  1.5194  0.0919
 2945SOL    HW220472   0.532   4.258   8.859  0.0690 -0.7964 -1.9423
 2946SOL     OW20473   2.448   2.861   3.055 -0.1285  0.5044  0.5636
 2946SOL    HW120474   2.495   2.918   3.116  1.2986 -1.5520  1.3980
 2946SOL    HW220475   2.501   2.782   3.062 -0.2881  0.3523  0.0361
 2947SOL     OW20476   1.060   1.702   0.736  0.1123 -0.0018 -0.1698
 2947SOL    HW120477   0.998   1.644   0.779  2.3113 -1.7106  0.6511
 2947SOL    HW220478   1.103   1.639   0.678 -1.2614 -1.8457  0.8576
 2948SOL     OW20479   1.979   0.649  15.880  0.3712 -0.3049 -0.1115
 2948SOL    HW120480   2.048   0.715  15.894 -0.2961  0.2943  0.3155
 2948SOL    HW220481   1.892   0.688  15.883  0.8447  0.5254  2.3067
 2949SOL     OW20482   0.298   0.420   4.718 -0.1898 -0.0292  0.3946
 2949SOL    HW120483   0.282   0.452   4.807  2.4683  1.9695  0.1382
 2949SOL    HW220484   0.208   0.429   4.686  0.3302 -0.7741 -1.2612
 2950SOL     OW20485   2.850   3.561   2.064 -0.0281 -0.3331 -0.0387
 2950SOL    HW120486   2.842   3.466   2.051 -0.5820 -0.3785  0.7017
 2950SOL    HW220487   2.889   3.597   1.984  0.0893 -0.0917  0.1266
 2951SOL     OW20488   3.184   4.238   8.392 -0.1486  0.0700 -0.2300
 2951SOL    HW120489   3.263   4.195   8.426  1.2175  1.4726 -1.5938
 2951SOL    HW220490   3.172   4.174   8.322 -0.8139  0.5196 -0.5150
 2952SOL     OW20491   3.305   3.595  14.456  0.7061 -0.4041  0.0639
 2952SOL    HW120492   3.235   3.579  14.392  0.7024  0.8580 -0.2333
 2952SOL    HW220493   3.338   3.512  14.491  3.2323  1.0465  1.0926
 2953SOL     OW20494   3.673   3.573  17.536 -0.2668  0.0319  0.7222
 2953SOL    HW120495   3.647   3.492  17.492  1.7007 -0.6992  0.9128
 2953SOL    HW220496   3.759   3.583  17.495  0.4147 -1.3341  1.8092
 2954SOL     OW20497   0.521   3.987   7.468  0.5725 -0.4131  0.0112
 2954SOL    HW120498   0.526   3.992   7.563  0.9956 -0.9710  0.0255
 2954SOL    HW220499   0.530   3.891   7.468  0.0584 -0.4603  0.6565
 2955SOL     OW20500   3.509   4.198   7.719  0.0624 -0.0034  0.0083
 2955SOL    HW120501   3.534   4.155   7.637 -0.7640  0.9635 -0.7471
 2955SOL    HW220502   3.471   4.280   7.687  2.4155  1.1683  0.1832
 2956SOL     OW20503   2.588   2.971   1.809 -0.1531  0.4155 -0.1206
 2956SOL    HW120504   2.586   3.057   1.852  0.5815  0.2342  0.2685
 2956SOL    HW220505   2.671   2.975   1.762 -0.8412 -1.2129 -1.4540
 2957SOL     OW20506   1.963   0.534   5.631  0.6989  0.0294 -0.4921
 2957SOL    HW120507   1.996   0.618   5.598  0.9354 -0.0383 -0.4258
 2957SOL    HW220508   2.000   0.480   5.562 -1.0840 -2.0896  0.2268
 2958SOL     OW20509   0.510   1.560   1.520  0.2052  0.0002 -0.1931
 2958SOL    HW120510   0.448   1.543   1.449 -0.7618  2.3000  0.0803
 2958SOL    HW220511   0.513   1.471   1.554 -0.7363 -0.1664 -0.5296
 2959SOL     OW20512   2.684   2.806   2.817 -0.2708 -0.0954  0.0297
 2959SOL    HW120513   2.717   2.804   2.727 -0.6503 -0.5362 -0.1030
 2959SOL    HW220514   2.742   2.736   2.847  0.0523  0.6647  1.1762
 2960SOL     OW20515   4.443   4.440  10.545 -0.6242  0.8107  0.0844
 2960SOL    HW120516   4.477   4.387  10.617 -0.3311  0.5342 -0.2614
 2960SOL    HW220517   4.397   4.506  10.597 -0.2455  2.6695 -1.9530
 2961SOL     OW20518   2.364   1.925   9.739  0.3185 -0.0970 -0.3958
 2961SOL    HW120519   2.391   1.944   9.830 -0.0939  0.0755 -0.3092
 2961SOL    HW220520   2.279   1.886   9.758  0.8874 -0.6975  0.9589
 2962SOL     OW20521   4.613   2.340   9.392  0.2697 -0.2365 -0.1085
 2962SOL    HW120522   4.597   2.414   9.334 -1.1744  1.6421  2.6782
 2962SOL    HW220523   4.577   2.385   9.469  1.9735 -1.8747  1.6546
 2963SOL     OW20524   4.166   0.628  13.604 -0.4105  0.0648  0.2351
 2963SOL    HW120525   4.178   0.722  13.592 -0.1788 -0.1486 -1.2644
 2963SOL    HW220526   4.107   0.610  13.530  0.2172  0.4173 -0.3498
 2964SOL     OW20527   3.826   1.257  11.263  0.0211  0.0333 -0.2237
 2964SOL    HW120528   3.790   1.180  11.219 -0.2819  0.1793 -0.2257
 2964SOL    HW220529   3.890   1.285  11.197 -1.0184  2.3575 -0.2540
 2965SOL     OW20530   4.561   0.171   4.540 -0.3144  0.4367  0.7495
 2965SOL    HW120531   4.581   0.113   4.613 -0.2768  0.7395  0.9824
 2965SOL    HW220532   4.479   0.141   4.501  1.4836 -2.6838 -0.5539
 2966SOL     OW20533   2.732   2.158   8.062 -0.5175 -0.5812  0.1605
 2966SOL    HW120534   2.814   2.120   8.030 -0.5742  0.9675 -1.8370
 2966SOL    HW220535   2.732   2.236   8.006  0.6202 -1.1317 -0.6011
 2967SOL     OW20536   0.004   0.727  14.095 -0.0770  0.3736 -0.0724
 2967SOL    HW120537   4.654   0.698  14.061 -1.1160  2.0604  1.0519
 2967SOL    HW220538   4.712   0.809  14.138 -0.9398  0.3487 -0.5518
 2968SOL     OW20539   4.639   2.216   6.335  0.4530 -0.0983  0.3148
 2968SOL    HW120540   4.730   2.224   6.362 -0.1969  1.4973  2.0829
 2968SOL    HW220541   4.608   2.160   6.406  0.3928  0.0116  0.3756
 2969SOL     OW20542   0.099   3.848   8.634  0.8217  0.8085  0.3316
 2969SOL    HW120543   0.113   3.779   8.698  3.8117  0.4791 -0.7076
 2969SOL    HW220544   0.186   3.884   8.645  1.6933 -0.5549 -2.0342
 2970SOL     OW20545   0.403   4.577   9.433  0.1258 -0.3840  0.3307
 2970SOL    HW120546   0.321   4.551   9.392  1.2906 -1.0847 -1.5498
 2970SOL    HW220547   0.377   4.663   9.467 -1.7274 -0.7298 -0.2389
 2971SOL     OW20548   0.607   3.141   8.444  0.2924  0.2606  0.4984
 2971SOL    HW120549   0.662   3.156   8.367  1.9430  1.0849  1.8376
 2971SOL    HW220550   0.667   3.100   8.507  0.0267 -0.6712  0.1436
 2972SOL     OW20551   3.212   1.506   3.631  0.6121  0.5172 -0.3385
 2972SOL    HW120552   3.222   1.599   3.610  2.3187  0.2168 -0.8343
 2972SOL    HW220553   3.248   1.474   3.549  0.7600 -0.9848  0.3042
 2973SOL     OW20554   4.268   1.811   3.632 -0.2727 -0.6854 -0.2496
 2973SOL    HW120555   4.311   1.866   3.567  1.0724 -0.0715  1.1403
 2973SOL    HW220556   4.205   1.873   3.671  1.3527  1.7654 -1.5012
 2974SOL     OW20557   2.106   3.887  12.812  0.1787 -0.2899  0.2232
 2974SOL    HW120558   2.131   3.979  12.828 -1.5829  0.0397  1.0810
 2974SOL    HW220559   2.015   3.911  12.796  0.7146 -0.1813 -2.6504
 2975SOL     OW20560   2.223   0.394  15.299  0.6641 -1.0709  0.2627
 2975SOL    HW120561   2.269   0.349  15.228  0.9961 -1.3378  0.6455
 2975SOL    HW220562   2.280   0.466  15.324  1.2307 -1.2365 -0.5595
 2976SOL     OW20563   1.460   3.828   3.161  0.1284 -0.3101  0.2437
 2976SOL    HW120564   1.501   3.773   3.228  0.8975 -0.3860 -0.2925
 2976SOL    HW220565   1.384   3.870   3.202  0.1172  0.5952 -0.6957
 2977SOL     OW20566   1.856   3.243  17.172 -0.3699  0.3655 -0.2466
 2977SOL    HW120567   1.808   3.173  17.216 -1.8594  1.4962 -0.0861
 2977SOL    HW220568   1.808   3.326  17.179  0.8793  1.1503 -0.8893
 2978SOL     OW20569   1.542   3.132   4.285 -0.8015 -0.4391 -0.1190
 2978SOL    HW120570   1.532   3.072   4.358  2.6295 -2.9037 -1.6807
 2978SOL    HW220571   1.597   3.201   4.323 -2.9755  1.2198  0.0154
 2979SOL     OW20572   2.508   4.277  11.481  0.1462 -0.0866  0.7571
 2979SOL    HW120573   2.548   4.197  11.516  0.9097 -0.4037 -0.8257
 2979SOL    HW220574   2.519   4.274  11.386 -0.6468  1.1037  0.6299
 2980SOL     OW20575   2.511   3.411  12.501  0.1186  0.0659  0.0316
 2980SOL    HW120576   2.592   3.454  12.530  0.2365  1.0430 -1.7571
 2980SOL    HW220577   2.531   3.400  12.408  0.2033 -1.5145  0.2402
 2981SOL     OW20578   2.282   2.159   8.127 -0.5590  0.9558 -0.2726
 2981SOL    HW120579   2.370   2.155   8.165 -1.0470  0.2434  0.7760
 2981SOL    HW220580   2.240   2.103   8.193 -1.3071 -0.6113 -2.0648
 2982SOL     OW20581   3.932   3.468   4.329 -0.1916  0.1787 -0.4123
 2982SOL    HW120582   3.884   3.546   4.356  1.2155  1.2363 -1.0119
 2982SOL    HW220583   3.990   3.442   4.400  0.1155  1.0494 -0.3435
 2983SOL     OW20584   4.208   2.428   9.531 -0.3560 -0.1151  0.7313
 2983SOL    HW120585   4.270   2.434   9.458 -1.3724  0.5573 -0.0941
 2983SOL    HW220586   4.230   2.349   9.581 -2.1293 -0.8252  0.4049
 2984SOL     OW20587   4.524   0.308   6.540 -0.2108  0.0629  0.4968
 2984SOL    HW120588   4.557   0.218   6.537 -0.4984  0.0501 -2.1362
 2984SOL    HW220589   4.601   0.361   6.556 -0.8183  0.9716  0.4110
 2985SOL     OW20590   1.042   3.944   3.703  0.0080  0.1026  0.3677
 2985SOL    HW120591   1.091   4.024   3.723 -0.3894  0.4821 -0.1723
 2985SOL    HW220592   0.961   3.965   3.749 -1.1996 -1.4864 -1.0358
 2986SOL     OW20593   0.773   0.791   9.656 -0.0407 -0.6328 -0.4088
 2986SOL    HW120594   0.836   0.786   9.727 -2.1034  0.7350  1.5268
 2986SOL    HW220595   0.745   0.702   9.636  0.1507 -0.4899 -1.3420
 2987SOL     OW20596   4.708   4.048  15.980 -0.5642  0.0181  0.2908
 2987SOL    HW120597   4.731   4.131  15.938 -1.2208 -0.5969 -1.2868
 2987SOL    HW220598   4.663   3.999  15.911  1.7013 -2.1978  0.3874
 2988SOL     OW20599   2.493   4.457   3.655  0.1703  0.6405 -0.1949
 2988SOL    HW120600   2.510   4.525   3.720  0.5718  0.8644 -0.5343
 2988SOL    HW220601   2.544   4.382   3.686 -2.2482 -1.0516 -0.2914
 2989SOL     OW20602   0.969   3.030  16.386  0.1866 -0.0355 -1.0608
 2989SOL    HW120603   0.946   3.113  16.343 -1.7997 -0.6150 -1.1153
 2989SOL    HW220604   0.918   3.021  16.467  1.2548 -3.4358 -0.7755
 2990SOL     OW20605   2.606   3.953   6.484 -0.2500  0.2121 -0.2380
 2990SOL    HW120606   2.636   3.875   6.438  1.0334  0.0319  0.8969
 2990SOL    HW220607   2.623   3.921   6.573 -0.7693  0.5157 -0.0314
 2991SOL     OW20608   1.724   3.812   1.420  0.1129  0.5125  1.1385
 2991SOL    HW120609   1.803   3.784   1.466  1.7894  0.4505 -1.7600
 2991SOL    HW220610   1.755   3.814   1.329 -1.2093  0.3049  0.6816
 2992SOL     OW20611   3.737   1.459  12.934  0.1459  0.7261  0.1059
 2992SOL    HW120612   3.678   1.495  12.869 -0.8503  0.4533  0.8680
 2992SOL    HW220613   3.722   1.364  12.928  2.9542  0.3104 -0.6131
 2993SOL     OW20614   3.028   3.494  12.345 -0.1650  0.2984  0.5651
 2993SOL    HW120615   3.105   3.495  12.402 -0.2314  0.0065  0.6611
 2993SOL    HW220616   2.969   3.447  12.404 -2.4891  1.2375 -1.0047
 2994SOL     OW20617   0.834   2.530   3.223  0.1443 -0.7995 -0.5103
 2994SOL    HW120618   0.841   2.625   3.224  0.4235 -0.8483  2.0181
 2994SOL    HW220619   0.755   2.522   3.278 -0.6869 -1.2714 -1.7734
 2995SOL     OW20620   0.514   2.060   9.406  0.4917 -0.0773 -0.0264
 2995SOL    HW120621   0.439   2.111   9.435  1.8357  1.3250  0.9523
 2995SOL    HW220622   0.472   1.999   9.345 -0.5340  2.5472 -1.9328
 2996SOL     OW20623   0.879   2.839   9.088 -0.0331 -0.1736 -0.2482
 2996SOL    HW120624   0.823   2.768   9.057 -0.3103 -0.0946  0.0756
 2996SOL    HW220625   0.910   2.795   9.167  1.2135  1.1271  0.0081
 2997SOL     OW20626   2.756   2.649  15.754  0.1805 -0.0781  0.2830
 2997SOL    HW120627   2.754   2.616  15.843  2.1255 -1.4671 -0.1715
 2997SOL    HW220628   2.836   2.701  15.763  0.4056 -0.2866 -0.4930
 2998SOL     OW20629   0.237   1.859   3.677 -0.2160  0.3608 -0.1852
 2998SOL    HW120630   0.295   1.930   3.702  0.4560 -0.0227 -0.6643
 2998SOL    HW220631   0.215   1.884   3.588 -1.7974 -0.2405  0.0207
 2999SOL     OW20632   2.882   2.745   7.740 -0.7938 -0.0237 -0.0767
 2999SOL    HW120633   2.959   2.775   7.692  0.9198 -1.1439  1.9601
 2999SOL    HW220634   2.893   2.795   7.821  1.1494 -1.5261  0.5777
 3000SOL     OW20635   2.117   3.040   6.783  0.1657  0.1696 -0.4168
 3000SOL    HW120636   2.074   3.021   6.866  1.1694 -0.7319 -0.1004
 3000SOL    HW220637   2.120   3.136   6.777  0.4133  0.2751  1.6457
 3001SOL     OW20638   3.470   2.284   8.808 -0.1380  0.0114 -0.4070
 3001SOL    HW120639   3.550   2.335   8.799 -0.3832 -0.1699 -3.8171
 3001SOL    HW220640   3.408   2.357   8.818  0.1118 -0.2874  3.0050
 3002SOL     OW20641   1.219   0.113  11.301  0.2304 -0.4285  0.6067
 3002SOL    HW120642   1.262   0.135  11.219  3.0369 -3.0471  1.4179
 3002SOL    HW220643   1.177   0.196  11.327  0.5253 -0.4322  1.0859
 3003SOL     OW20644   0.762   1.091   8.614 -0.1497 -0.7020  0.0738
 3003SOL    HW120645   0.834   1.145   8.647  0.1162 -1.3462  0.5272
 3003SOL    HW220646   0.816   1.014   8.629  1.4032  0.0194 -1.7950
 3004SOL     OW20647   1.421   4.007   4.339 -0.1852 -0.0112 -0.8095
 3004SOL    HW120648   1.453   4.096   4.319  0.5530  0.3771  2.0768
 3004SOL    HW220649   1.488   3.979   4.402  0.8777  1.8064 -1.1157
 3005SOL     OW20650   1.491   2.252   4.435 -0.0570  0.3393  0.2462
 3005SOL    HW120651   1.548   2.261   4.358 -1.9695 -1.2984 -1.3529
 3005SOL    HW220652   1.406   2.284   4.405 -0.4582 -1.7757 -0.8157
 3006SOL     OW20653   0.770   4.090   8.195 -1.2472  0.0125 -0.3343
 3006SOL    HW120654   0.823   4.160   8.158 -0.0218 -0.2707  0.9216
 3006SOL    HW220655   0.838   4.026   8.214  0.9956  2.5697  0.1421
 3007SOL     OW20656   0.109   3.543   4.773  0.1786 -0.3831 -0.5247
 3007SOL    HW120657   0.204   3.545   4.787  0.3451 -0.4360 -1.5792
 3007SOL    HW220658   0.110   3.476   4.704 -0.3165  0.6911 -1.5745
 3008SOL     OW20659   0.937   0.895  16.934 -0.1612  0.4550  0.2523
 3008SOL    HW120660   0.903   0.984  16.924  1.2315  0.9443 -0.1162
 3008SOL    HW220661   1.027   0.913  16.905  0.1640  0.7957  1.5021
 3009SOL     OW20662   0.862   4.714   1.401  0.4836  0.6828 -0.0154
 3009SOL    HW120663   0.902   0.033   1.470 -4.4715  1.4950  2.2030
 3009SOL    HW220664   0.835   0.043   1.334  2.7124  0.6869 -0.9451
 3010SOL     OW20665   2.348   2.642   9.474 -0.0410  0.7595  0.0821
 3010SOL    HW120666   2.268   2.591   9.489  0.2199  0.4531  0.4455
 3010SOL    HW220667   2.343   2.634   9.379 -2.0510 -0.5656  0.3026
 3011SOL     OW20668   0.479   2.469   4.013 -0.1688  0.3392  0.4211
 3011SOL    HW120669   0.415   2.540   4.024  0.8635  1.3284 -0.0286
 3011SOL    HW220670   0.466   2.411   4.089  1.0029 -2.5571 -1.5990
 3012SOL     OW20671   0.407   3.725   4.043  0.2230  0.5906  0.4964
 3012SOL    HW120672   0.403   3.785   4.117 -0.0947  1.3053 -0.1054
 3012SOL    HW220673   0.463   3.776   3.985  0.7275  0.9636  1.3202
 3013SOL     OW20674   1.386   2.960   3.873  0.3873 -0.1289  0.1876
 3013SOL    HW120675   1.313   2.985   3.930 -1.5847  1.1399 -2.8984
 3013SOL    HW220676   1.336   2.966   3.791  0.0311  1.4728  0.5069
 3014SOL     OW20677   1.146   1.406   6.315 -0.0877 -0.2648  0.2670
 3014SOL    HW120678   1.121   1.359   6.236 -1.3580  0.5832  0.1708
 3014SOL    HW220679   1.240   1.413   6.302 -0.2429 -2.8730 -2.3554
 3015SOL     OW20680   4.241   3.690   4.415 -0.4291 -0.4127 -0.7065
 3015SOL    HW120681   4.292   3.681   4.335 -0.5896  0.5300 -0.9163
 3015SOL    HW220682   4.180   3.761   4.397 -0.7701 -0.4497  0.3026
 3016SOL     OW20683   2.031   1.198  15.917  0.2582 -0.1833 -0.8852
 3016SOL    HW120684   2.029   1.290  15.890 -2.1695 -0.4753 -1.7005
 3016SOL    HW220685   2.113   1.173  15.873  0.7120  1.9108 -1.2403
 3017SOL     OW20686   4.377   0.276  16.676  0.1023  0.4300 -0.2338
 3017SOL    HW120687   4.393   0.289  16.770 -1.0150  1.5925 -0.2053
 3017SOL    HW220688   4.309   0.210  16.680  1.6494 -1.0978  0.9006
 3018SOL     OW20689   2.586   0.326   9.216  0.0819  0.2267  0.0468
 3018SOL    HW120690   2.584   0.396   9.151  1.1719  0.4021  0.2119
 3018SOL    HW220691   2.551   0.250   9.170  1.2390 -0.9485  1.1208
 3019SOL     OW20692   3.347   2.596   1.505  0.4858 -0.6422  0.4925
 3019SOL    HW120693   3.397   2.575   1.584  0.1875 -1.5424  0.4471
 3019SOL    HW220694   3.317   2.511   1.472  1.1515 -0.3354 -0.9153
 3020SOL     OW20695   1.978   4.527   5.628 -0.2230  0.2284  0.4568
 3020SOL    HW120696   2.050   4.578   5.665  0.7007 -1.1231  0.5321
 3020SOL    HW220697   1.978   4.547   5.535  0.3285  0.2011  0.4548
 3021SOL     OW20698   2.936   3.057  10.292 -0.0483  0.1313  0.4165
 3021SOL    HW120699   2.907   3.006  10.216  0.1460  1.1295 -0.3229
 3021SOL    HW220700   2.862   3.026  10.345  0.2778 -1.2921  0.0281
 3022SOL     OW20701   2.607   4.276   1.654  0.0211  0.4172 -0.5887
 3022SOL    HW120702   2.651   4.256   1.737  1.3533 -0.0658 -1.4062
 3022SOL    HW220703   2.520   4.251   1.685  0.9202 -1.1518  0.6824
 3023SOL     OW20704   2.728   1.559  14.823  0.0648 -0.0909  0.0939
 3023SOL    HW120705   2.786   1.505  14.769 -0.9335  0.1345 -1.2283
 3023SOL    HW220706   2.646   1.510  14.823 -0.3925  0.6608 -1.0000
 3024SOL     OW20707   4.177   2.796   3.908  0.0751 -0.0799  0.1445
 3024SOL    HW120708   4.119   2.729   3.944 -1.0830  0.0792 -1.4043
 3024SOL    HW220709   4.188   2.861   3.977  1.4271  0.0390 -0.1842
 3025SOL     OW20710   2.156   3.254   4.312  0.2585  0.4708 -0.1227
 3025SOL    HW120711   2.142   3.166   4.347  2.4980  0.5156  0.9006
 3025SOL    HW220712   2.077   3.257   4.258  0.0117 -1.1598  0.1328
 3026SOL     OW20713   2.347   1.111   2.135 -0.0377  0.1468  0.4375
 3026SOL    HW120714   2.293   1.064   2.199 -1.3794  1.9424  0.6222
 3026SOL    HW220715   2.292   1.092   2.059 -0.4195  1.4551  0.3899
 3027SOL     OW20716   0.243   4.628   4.449  0.0143  0.2390 -0.7169
 3027SOL    HW120717   0.230   4.719   4.422  1.4857  0.2747 -1.3033
 3027SOL    HW220718   0.325   4.607   4.405  0.6726  0.8103  0.2471
 3028SOL     OW20719   4.286   2.753   5.556 -0.0774  0.2287  0.4307
 3028SOL    HW120720   4.271   2.675   5.503 -0.9350  1.0929 -0.5911
 3028SOL    HW220721   4.381   2.761   5.563  0.0707  0.5361 -1.8464
 3029SOL     OW20722   0.321   4.162  12.317  0.0405 -0.7455 -0.0991
 3029SOL    HW120723   0.331   4.252  12.347 -2.1854 -0.6502  0.3469
 3029SOL    HW220724   0.319   4.166  12.221 -0.5788  0.2115 -0.0437
 3030SOL     OW20725   3.198   3.496   4.525 -0.1386 -0.3506 -0.8368
 3030SOL    HW120726   3.144   3.438   4.579 -0.2378  0.5900  0.0764
 3030SOL    HW220727   3.186   3.578   4.572  0.6048  0.3202 -1.8049
 3031SOL     OW20728   3.501   2.644   8.584  0.2654  0.5133 -0.7002
 3031SOL    HW120729   3.450   2.585   8.639 -0.5690  1.6538 -0.2492
 3031SOL    HW220730   3.511   2.603   8.498  0.5088 -1.1740  0.1385
 3032SOL     OW20731   4.150   1.624   2.671  0.0847 -0.1930  0.4357
 3032SOL    HW120732   4.179   1.683   2.741 -2.5725  0.9637  0.5698
 3032SOL    HW220733   4.103   1.676   2.607 -1.4704 -0.7686  1.1107
 3033SOL     OW20734   2.551   3.598   6.827  0.0922  0.5535 -0.3041
 3033SOL    HW120735   2.579   3.678   6.871 -1.0803  0.9009 -0.1817
 3033SOL    HW220736   2.514   3.637   6.748 -0.0021  0.8251 -0.1272
 3034SOL     OW20737   4.096   2.776   7.776 -0.1967 -0.2544  0.4272
 3034SOL    HW120738   4.162   2.747   7.839  1.6835  1.9382 -0.5730
 3034SOL    HW220739   4.094   2.694   7.725 -0.5122 -0.5040  0.8387
 3035SOL     OW20740   2.042   2.938  10.772  0.0196 -0.0481  0.2159
 3035SOL    HW120741   1.980   2.886  10.822  0.8890 -0.3931  0.9456
 3035SOL    HW220742   2.101   2.979  10.836 -1.1203 -0.2070  1.3578
 3036SOL     OW20743   3.747   1.349   3.999  0.0812 -0.0281 -0.9701
 3036SOL    HW120744   3.740   1.327   4.091 -0.6252  0.3768 -0.9287
 3036SOL    HW220745   3.752   1.264   3.956  1.3443  0.2909 -1.4509
 3037SOL     OW20746   1.602   4.696   8.745 -0.7782 -0.0167 -0.1163
 3037SOL    HW120747   1.687   0.005   8.736 -0.9423  0.2456 -0.4135
 3037SOL    HW220748   1.550   0.040   8.759  1.0517  1.1318  0.2684
 3038SOL     OW20749   1.755   0.826   6.792 -0.2872  1.2555 -0.1659
 3038SOL    HW120750   1.777   0.919   6.792  2.8067  0.5068 -3.0637
 3038SOL    HW220751   1.721   0.820   6.703 -0.7662  0.8875  0.0374
 3039SOL     OW20752   1.821   3.277  16.474 -0.5489  0.2130 -0.2962
 3039SOL    HW120753   1.881   3.229  16.417 -0.6004  3.0928 -2.7301
 3039SOL    HW220754   1.838   3.240  16.561  0.5387 -0.6813 -0.8780
 3040SOL     OW20755   2.690   0.823   2.626  0.2384  0.1964 -1.0878
 3040SOL    HW120756   2.677   0.906   2.672 -1.6438 -0.7790  0.1137
 3040SOL    HW220757   2.625   0.828   2.556 -0.6257 -1.5887 -0.4070
 3041SOL     OW20758   4.031   4.691   5.900 -0.0807  0.2545 -0.4541
 3041SOL    HW120759   3.996   4.701   5.988 -1.2027  0.0237 -0.8687
 3041SOL    HW220760   4.122   4.720   5.904  0.1601 -0.7232  0.8435
 3042SOL     OW20761   0.967   0.783   8.344 -0.3625  0.4219  0.1439
 3042SOL    HW120762   0.911   0.754   8.416  0.6033 -1.4698  0.1470
 3042SOL    HW220763   1.045   0.737   8.373  0.0240  2.0173  1.6187
 3043SOL     OW20764   4.599   3.499  16.483  0.8072 -0.5542 -0.5915
 3043SOL    HW120765   4.621   3.581  16.437  0.5322 -0.0509  0.1735
 3043SOL    HW220766   4.529   3.469  16.425 -1.9900  2.7621  1.0470
 3044SOL     OW20767   4.357   3.295   9.455  0.1815  0.1496 -0.0377
 3044SOL    HW120768   4.297   3.259   9.391  1.0160  0.1557 -0.8223
 3044SOL    HW220769   4.297   3.304   9.529  0.8783 -1.1398  0.6802
 3045SOL     OW20770   3.797   3.193   7.316  0.4514  0.0251  0.1474
 3045SOL    HW120771   3.726   3.177   7.378  2.6308 -1.6927  2.2235
 3045SOL    HW220772   3.866   3.230   7.372  1.3136 -0.1424 -0.8074
 3046SOL     OW20773   3.247   4.723   2.105 -0.0045 -0.2287  0.2562
 3046SOL    HW120774   3.256   0.066   2.161  1.9997 -0.7323  0.6306
 3046SOL    HW220775   3.182   0.021   2.043 -1.2682 -1.3151  1.0213
 3047SOL     OW20776   3.443   4.051   4.492 -0.1882  0.2953  0.1470
 3047SOL    HW120777   3.492   4.134   4.496 -0.3015  0.3010  1.4938
 3047SOL    HW220778   3.408   4.043   4.581 -1.8900  1.3129 -0.4429
 3048SOL     OW20779   2.544   0.688   9.983 -0.0957 -0.0676  0.2387
 3048SOL    HW120780   2.585   0.604   9.962 -1.5559 -0.9174  0.7795
 3048SOL    HW220781   2.607   0.753   9.949  1.2639 -1.8178 -0.5974
 3049SOL     OW20782   4.015   0.125   2.383  0.0425 -0.7690 -0.3093
 3049SOL    HW120783   4.020   0.214   2.346  0.0820 -0.5178  0.3029
 3049SOL    HW220784   4.084   0.120   2.449 -0.5754  3.9137  0.7050
 3050SOL     OW20785   2.505   3.997  17.638 -0.7530 -0.2726  0.7766
 3050SOL    HW120786   2.599   3.997  17.619 -1.2037  1.1381 -1.4115
 3050SOL    HW220787   2.489   4.090  17.654  1.5773  0.5774 -1.7817
 3051SOL     OW20788   1.877   0.409   5.188 -0.0929  0.0677  0.5892
 3051SOL    HW120789   1.876   0.499   5.222 -1.1324  0.9766 -1.7853
 3051SOL    HW220790   1.792   0.375   5.218 -0.0034  1.0419  1.9483
 3052SOL     OW20791   4.475   2.777   4.547  0.9345 -0.5449  0.0783
 3052SOL    HW120792   4.511   2.699   4.588  0.7225 -1.6201 -1.7413
 3052SOL    HW220793   4.494   2.847   4.608  2.2929  0.0335 -0.9979
 3053SOL     OW20794   3.390   2.868  16.215 -0.4063 -0.2460  0.3311
 3053SOL    HW120795   3.384   2.829  16.127  0.4989  0.5232 -0.0754
 3053SOL    HW220796   3.395   2.961  16.193  0.6395 -0.5439 -0.7144
 3054SOL     OW20797   1.781   1.494   6.574 -0.0649  0.1080 -0.1034
 3054SOL    HW120798   1.786   1.400   6.557 -0.7953  0.3467 -1.6019
 3054SOL    HW220799   1.809   1.532   6.491  0.3087  0.3366  0.1270
 3055SOL     OW20800   4.250   1.641   0.660 -0.1388  0.3335 -0.1900
 3055SOL    HW120801   4.208   1.583   0.723 -2.1838  1.0036 -0.9497
 3055SOL    HW220802   4.338   1.631   0.698 -0.5171 -4.0943 -0.5092
 3056SOL     OW20803   2.084   0.544  14.009  0.0544  0.4115 -0.0421
 3056SOL    HW120804   2.038   0.465  14.037 -0.4674  1.2000  1.3167
 3056SOL    HW220805   2.061   0.569  13.919  0.0250  2.3500  0.4942
 3057SOL     OW20806   3.613   3.670  14.942  0.2263  0.1670 -0.0827
 3057SOL    HW120807   3.590   3.736  14.876 -0.1839  1.3087  1.1995
 3057SOL    HW220808   3.682   3.707  14.996  1.8417 -1.4751 -1.0499
 3058SOL     OW20809   4.457   0.580   9.702  0.2378  0.2344 -0.0495
 3058SOL    HW120810   4.550   0.563   9.685  0.1673 -0.2003 -0.0062
 3058SOL    HW220811   4.438   0.662   9.657 -1.3748  0.3244  0.7719
 3059SOL     OW20812   0.273   1.635   3.835 -0.7201  0.1856 -0.8039
 3059SOL    HW120813   0.244   1.719   3.799 -1.0956 -0.7069 -2.5596
 3059SOL    HW220814   0.367   1.657   3.841 -0.8922  0.4218  1.1632
 3060SOL     OW20815   1.177   3.646   1.398 -1.1543 -0.4109 -0.1477
 3060SOL    HW120816   1.115   3.625   1.468 -0.9233  0.1777  0.2290
 3060SOL    HW220817   1.208   3.558   1.377 -1.8843 -0.4576 -1.0206
 3061SOL     OW20818   0.009   1.595  14.340  0.2406 -0.2691  0.5544
 3061SOL    HW120819   0.100   1.565  14.341  0.6073  0.8089 -0.1768
 3061SOL    HW220820   0.008   1.673  14.284 -1.2276 -0.6767 -0.0081
 3062SOL     OW20821   1.034   0.351   6.870 -0.3377  0.1227 -0.3487
 3062SOL    HW120822   0.983   0.430   6.852  0.3044  0.4985 -0.5216
 3062SOL    HW220823   1.124   0.382   6.876 -0.8263  0.9939  2.2079
 3063SOL     OW20824   0.181   1.627   6.254  0.1196  0.1921 -0.0980
 3063SOL    HW120825   0.214   1.656   6.169  0.0448 -3.4411 -1.3779
 3063SOL    HW220826   0.244   1.666   6.314 -0.4181  0.4106  0.3258
 3064SOL     OW20827   4.115   4.443   6.579  0.0589  0.9148  0.3973
 3064SOL    HW120828   4.092   4.469   6.668 -0.3992 -0.0510  0.5630
 3064SOL    HW220829   4.200   4.484   6.561 -0.3815  0.7351 -2.1680
 3065SOL     OW20830   2.994   3.361   8.291 -0.4354  0.0008 -0.0214
 3065SOL    HW120831   3.037   3.423   8.349 -0.8699  0.6975 -0.4342
 3065SOL    HW220832   3.045   3.371   8.211 -1.4207 -0.8819 -0.7572
 3066SOL     OW20833   3.319   3.697   7.212  0.9759 -0.4719  0.0598
 3066SOL    HW120834   3.274   3.672   7.292 -0.0753 -2.3912 -1.1145
 3066SOL    HW220835   3.384   3.762   7.238  1.4057 -0.7515 -0.3161
 3067SOL     OW20836   1.210   0.744   2.045  0.9203  0.1722  0.7334
 3067SOL    HW120837   1.160   0.781   2.118 -0.0589  2.4036 -1.0557
 3067SOL    HW220838   1.236   0.662   2.087  1.6434 -0.0583 -0.1812
 3068SOL     OW20839   0.240   3.500  11.017  0.0123  0.1149  0.3311
 3068SOL    HW120840   0.166   3.546  10.977  0.0403  0.9052  1.1778
 3068SOL    HW220841   0.320   3.522  10.968  0.1212 -1.0547 -0.0036
 3069SOL     OW20842   1.260   2.159   6.891  0.1412 -0.0362  0.3550
 3069SOL    HW120843   1.244   2.089   6.955 -1.1483  0.3013  0.4046
 3069SOL    HW220844   1.207   2.228   6.930  1.5995 -0.0946  2.4609
 3070SOL     OW20845   1.504   3.999   5.524  0.4848  0.0901 -0.1908
 3070SOL    HW120846   1.487   4.087   5.491  1.1220 -1.1527 -3.8198
 3070SOL    HW220847   1.478   4.011   5.616 -1.9080  1.3262 -1.0132
 3071SOL     OW20848   0.682   0.902   4.811  0.5320  0.2322  0.6751
 3071SOL    HW120849   0.731   0.945   4.882  2.2753 -1.3714  0.4560
 3071SOL    HW220850   0.682   0.970   4.744 -0.1642 -0.6974 -0.2721
 3072SOL     OW20851   2.282   1.571  16.277 -0.1835  0.3940  0.0992
 3072SOL    HW120852   2.375   1.552  16.287 -0.0161  0.4088 -1.4825
 3072SOL    HW220853   2.278   1.657  16.321  1.9172  1.2389 -1.3858
 3073SOL     OW20854   1.211   1.417   5.381 -0.2702 -0.5702 -0.2062
 3073SOL    HW120855   1.154   1.389   5.309 -2.4255 -0.0075  1.2916
 3073SOL    HW220856   1.180   1.350   5.442 -0.8012  0.7119  0.9321
 3074SOL     OW20857   3.665   1.254  11.498 -1.0617  0.4510  0.0862
 3074SOL    HW120858   3.729   1.239  11.428 -1.3784 -0.2977 -0.0483
 3074SOL    HW220859   3.701   1.336  11.531 -2.1635 -0.0404  2.4479
 3075SOL     OW20860   2.690   0.387  14.750 -0.5716 -0.0305  0.0122
 3075SOL    HW120861   2.647   0.452  14.806  0.1603  0.3261  0.1583
 3075SOL    HW220862   2.744   0.436  14.688  3.4675  0.0832  3.6040
 3076SOL     OW20863   1.356   0.811   6.097 -0.3292  0.2277  0.4270
 3076SOL    HW120864   1.383   0.745   6.033 -0.0255  0.1938  0.5921
 3076SOL    HW220865   1.360   0.756   6.175  0.4234 -1.7186 -0.9559
 3077SOL     OW20866   3.245   2.515  15.986  0.2921 -0.6344 -0.4309
 3077SOL    HW120867   3.329   2.470  15.988  0.1701 -0.8030  1.2509
 3077SOL    HW220868   3.185   2.441  15.988  0.6004 -0.8241  1.4318
 3078SOL     OW20869   4.091   4.312   3.359 -0.1163 -0.9396 -0.2065
 3078SOL    HW120870   4.166   4.253   3.349 -1.8152 -2.6260 -2.9182
 3078SOL    HW220871   4.120   4.398   3.328 -0.9117 -0.0558  1.5200
 3079SOL     OW20872   0.269   2.023   3.145 -0.1170  0.4288 -0.5273
 3079SOL    HW120873   0.220   2.086   3.091 -0.0561 -1.0221 -2.2817
 3079SOL    HW220874   0.209   1.948   3.139 -0.1003  0.2392  1.6031
 3080SOL     OW20875   1.824   1.662   6.364  0.0248  0.1636  0.2498
 3080SOL    HW120876   1.880   1.709   6.425  0.6671  0.4324 -0.5428
 3080SOL    HW220877   1.852   1.689   6.276 -2.3024 -2.7752 -1.4099
 3081SOL     OW20878   2.970   4.329   1.330  0.1162 -0.2995 -0.3000
 3081SOL    HW120879   2.886   4.341   1.286 -0.8367 -1.1693  1.2744
 3081SOL    HW220880   2.949   4.276   1.407 -0.6400  2.4030  1.3700
 3082SOL     OW20881   0.229   1.840   8.519 -0.0931 -0.2287  0.1172
 3082SOL    HW120882   0.149   1.844   8.466  0.9199 -0.4681 -1.4212
 3082SOL    HW220883   0.229   1.749   8.550  1.4422 -0.7948 -1.5399
 3083SOL     OW20884   2.870   3.505   5.393 -0.1442 -0.2098 -0.1880
 3083SOL    HW120885   2.912   3.525   5.310 -0.8168  0.9700 -0.2463
 3083SOL    HW220886   2.821   3.587   5.392 -0.9206 -0.6585  1.5507
 3084SOL     OW20887   3.209   0.866  12.078 -0.1288 -0.1925  0.6819
 3084SOL    HW120888   3.252   0.929  12.021  0.3125 -0.6743  0.4778
 3084SOL    HW220889   3.239   0.904  12.160  0.2013 -0.4301  0.6748
 3085SOL     OW20890   2.520   0.207   8.036  0.3894  0.3343  0.6030
 3085SOL    HW120891   2.560   0.122   8.020  0.4090  0.8652 -2.1218
 3085SOL    HW220892   2.512   0.252   7.952 -1.4929 -2.5424 -0.7565
 3086SOL     OW20893   1.335   1.564   6.560  0.0374 -0.0233 -0.0856
 3086SOL    HW120894   1.307   1.618   6.634  0.5362  0.8233 -0.5104
 3086SOL    HW220895   1.420   1.602   6.537 -0.7553  1.9391  0.2360
 3087SOL     OW20896   3.750   3.798   7.594  0.4255 -0.2961  0.3226
 3087SOL    HW120897   3.717   3.836   7.676 -2.3603  0.7664 -1.3309
 3087SOL    HW220898   3.690   3.724   7.587  0.8804 -0.5351 -0.9162
 3088SOL     OW20899   0.577   1.648  11.993  0.0473 -0.3648 -0.5746
 3088SOL    HW120900   0.654   1.654  11.936 -0.5560 -1.8911 -1.5416
 3088SOL    HW220901   0.520   1.618  11.922 -0.6308 -0.1591 -0.1236
 3089SOL     OW20902   2.958   4.419   6.412 -0.0020 -0.4308  0.1504
 3089SOL    HW120903   2.895   4.357   6.448 -0.4418  1.7721  3.2036
 3089SOL    HW220904   2.999   4.372   6.339 -0.5441 -0.1954 -0.3091
 3090SOL     OW20905   2.779   1.142  12.382  0.5387  0.0213  0.7015
 3090SOL    HW120906   2.724   1.070  12.353  1.2334  1.2991 -3.8142
 3090SOL    HW220907   2.832   1.147  12.302  2.7810  0.1187  2.1766
 3091SOL     OW20908   4.111   0.621   1.828  0.0205  0.5429 -0.9639
 3091SOL    HW120909   4.157   0.621   1.744  1.8866 -1.2543  0.0743
 3091SOL    HW220910   4.048   0.693   1.815  0.2674  0.7816 -0.8529
 3092SOL     OW20911   4.479   0.424   3.669  0.1306  0.0692  0.1835
 3092SOL    HW120912   4.424   0.465   3.736 -2.6433 -0.7894 -1.5764
 3092SOL    HW220913   4.415   0.412   3.598  1.2137  1.7127 -1.0653
 3093SOL     OW20914   2.368   0.082   9.858 -0.6328  0.3670 -0.0614
 3093SOL    HW120915   2.300   0.029   9.816 -0.0395  0.3998 -1.0633
 3093SOL    HW220916   2.318   0.159   9.886 -0.9354  0.5167 -0.9838
 3094SOL     OW20917   3.538   0.453   0.797 -0.0878  0.0068 -0.1594
 3094SOL    HW120918   3.536   0.379   0.858  1.3877  0.3940  0.3623
 3094SOL    HW220919   3.527   0.531   0.851 -0.9902 -1.2835  1.5463
 3095SOL     OW20920   3.564   4.648   7.265 -0.1697 -0.0134 -0.3545
 3095SOL    HW120921   3.478   4.689   7.267  0.3308  1.0708 -0.6840
 3095SOL    HW220922   3.583   4.626   7.174 -2.4880 -1.3591 -0.5022
 3096SOL     OW20923   1.767   4.503   3.810  0.1311  0.3186 -0.6337
 3096SOL    HW120924   1.733   4.483   3.722 -1.4658  1.4227 -0.2719
 3096SOL    HW220925   1.744   4.421   3.854  0.1544  1.1714  0.9445
 3097SOL     OW20926   0.763   4.312   5.624 -0.4948 -0.1448 -0.0615
 3097SOL    HW120927   0.750   4.241   5.686 -0.3536 -0.3406 -0.2589
 3097SOL    HW220928   0.672   4.333   5.606 -0.4719 -0.9071 -1.0344
 3098SOL     OW20929   0.924   2.496  10.421  0.4445 -0.0040 -0.4276
 3098SOL    HW120930   0.958   2.422  10.471 -0.5663 -0.2238 -0.0773
 3098SOL    HW220931   1.000   2.528  10.372 -0.6959  0.3095 -1.9921
 3099SOL     OW20932   4.608   4.433   5.085  0.6136 -0.4149 -0.5001
 3099SOL    HW120933   4.575   4.450   5.173  2.4721  1.6563 -0.2055
 3099SOL    HW220934   4.567   4.349   5.066 -1.4749  0.1980  1.2930
 3100SOL     OW20935   1.849   0.534   4.125 -0.7468  0.0268  0.1606
 3100SOL    HW120936   1.899   0.455   4.104  0.5092  1.1131 -0.9453
 3100SOL    HW220937   1.914   0.579   4.179  1.7793 -1.7161 -1.4010
 3101SOL     OW20938   1.430   3.735  16.499 -0.2031 -0.2542  0.1269
 3101SOL    HW120939   1.488   3.776  16.435 -1.1285  0.1522 -0.4630
 3101SOL    HW220940   1.494   3.721  16.569  0.0114 -0.7691 -0.1729
 3102SOL     OW20941   4.087   2.944   7.423  0.4282  0.3489 -0.3055
 3102SOL    HW120942   4.009   2.891   7.404  2.0059 -2.2479  0.4550
 3102SOL    HW220943   4.152   2.899   7.370  0.1246  0.4641 -0.7757
 3103SOL     OW20944   0.281   4.047   6.757  0.1068  0.1020  0.2902
 3103SOL    HW120945   0.200   4.017   6.716  0.0293  2.0251 -0.9531
 3103SOL    HW220946   0.346   4.003   6.702  0.6190  0.1053  0.8899
 3104SOL     OW20947   3.596   1.494  13.886 -0.2452  0.0048 -0.1444
 3104SOL    HW120948   3.596   1.417  13.830  1.8674  0.2278 -0.4408
 3104SOL    HW220949   3.517   1.541  13.860 -0.5801  0.9288  2.5626
 3105SOL     OW20950   4.492   1.450   7.400  0.1447  0.8627  0.0763
 3105SOL    HW120951   4.557   1.410   7.342 -3.2192  0.0463 -3.1321
 3105SOL    HW220952   4.486   1.391   7.475  1.2050  0.4027 -0.2083
 3106SOL     OW20953   4.712   2.826   6.340 -0.1661 -0.2529  0.3573
 3106SOL    HW120954   4.680   2.875   6.415 -0.9931  0.5902 -0.5484
 3106SOL    HW220955   4.640   2.766   6.319 -2.2094  1.9830  0.8663
 3107SOL     OW20956   1.963   3.433   8.618  0.0262 -0.3700  0.1128
 3107SOL    HW120957   1.907   3.438   8.540 -0.6108  0.0425  0.6007
 3107SOL    HW220958   1.999   3.521   8.617  2.5952 -1.4587 -2.3206
 3108SOL     OW20959   3.344   2.759   5.148 -0.1065  0.1343  0.1735
 3108SOL    HW120960   3.388   2.785   5.229  0.5722  1.2339 -0.5441
 3108SOL    HW220961   3.337   2.844   5.104  2.3911  0.0594 -0.3540
 3109SOL     OW20962   0.990   1.095   4.002  0.1847 -0.6933  0.0884
 3109SOL    HW120963   1.042   1.034   4.054 -1.6613 -2.1978  0.1668
 3109SOL    HW220964   0.983   1.056   3.915  1.7899  1.1150 -0.8537
 3110SOL     OW20965   3.801   1.484  17.073 -0.0992 -0.1310  0.1626
 3110SOL    HW120966   3.725   1.465  17.017 -0.0978 -1.5042  0.6233
 3110SOL    HW220967   3.804   1.413  17.137 -1.7313 -0.6697 -0.3482
 3111SOL     OW20968   0.801   4.365   0.252 -0.2283  0.1215 -0.0305
 3111SOL    HW120969   0.795   4.451   0.294 -0.7994  0.0514  0.0307
 3111SOL    HW220970   0.855   4.392   0.178  0.1677  0.4517  0.3844
 3112SOL     OW20971   0.316   0.834  16.146 -0.0564  0.0479  0.2109
 3112SOL    HW120972   0.286   0.748  16.118  0.2906 -0.1381  0.4173
 3112SOL    HW220973   0.301   0.829  16.240  2.6395  1.1527  0.7048
 3113SOL     OW20974   1.271   0.583   4.976  0.4429 -0.2320  0.2223
 3113SOL    HW120975   1.321   0.655   5.015  2.1913 -0.1418 -2.1621
 3113SOL    HW220976   1.217   0.541   5.044 -0.3623 -0.4758 -0.5753
 3114SOL     OW20977   2.812   1.782   7.893 -0.4964 -0.1689  0.1766
 3114SOL    HW120978   2.831   1.839   7.819 -1.0183  0.1596  0.2948
 3114SOL    HW220979   2.719   1.766   7.878 -0.2132 -0.2175 -1.5483
 3115SOL     OW20980   4.468   2.259   9.073 -0.4940 -0.2976  0.3119
 3115SOL    HW120981   4.449   2.309   8.994  3.3205  0.4485 -0.1164
 3115SOL    HW220982   4.563   2.247   9.065 -0.2275  0.9897  1.5772
 3116SOL     OW20983   2.381   1.715   8.799 -0.0976  0.6195  0.4838
 3116SOL    HW120984   2.447   1.785   8.798 -1.4052  1.7989 -3.0893
 3116SOL    HW220985   2.381   1.694   8.892  0.1016 -0.9163  0.1380
 3117SOL     OW20986   2.326   2.200   3.792  0.4478 -0.0035 -0.0895
 3117SOL    HW120987   2.375   2.205   3.874 -1.7485  3.3930  1.0254
 3117SOL    HW220988   2.390   2.167   3.729 -0.1139 -1.3188  0.0276
 3118SOL     OW20989   0.908   0.313   0.581 -0.3150  0.3329  0.1231
 3118SOL    HW120990   0.979   0.268   0.625  1.8575  1.5287 -2.1767
 3118SOL    HW220991   0.928   0.407   0.584  0.7828  0.0212  2.1498
 3119SOL     OW20992   1.777   0.673   0.750 -0.5834  0.0436 -0.1551
 3119SOL    HW120993   1.761   0.686   0.657 -1.6411 -0.2480 -0.0159
 3119SOL    HW220994   1.690   0.702   0.779  0.7178  1.8825  1.9696
 3120SOL     OW20995   4.470   3.984   0.681 -0.6715  0.4049  0.3356
 3120SOL    HW120996   4.503   4.016   0.597  0.0834  0.3885  0.6211
 3120SOL    HW220997   4.377   4.000   0.667 -0.8580 -1.8032 -0.9656
 3121SOL     OW20998   2.491   3.482   9.794  0.1287  0.0409 -0.3203
 3121SOL    HW120999   2.574   3.455   9.756  1.8550  0.9672  2.8205
 3121SOL    HW221000   2.522   3.506   9.881  1.7284 -1.9696 -0.3308
 3122SOL     OW21001   4.056   3.257   7.443  0.0883  0.4314 -0.8454
 3122SOL    HW121002   4.071   3.164   7.423  0.8531  0.2701  0.4603
 3122SOL    HW221003   4.109   3.278   7.520 -0.8833  0.5633 -0.2152
 3123SOL     OW21004   2.012   0.857  13.966 -0.3186 -0.3803 -0.0785
 3123SOL    HW121005   2.077   0.922  13.941 -1.3324  0.9512  0.7095
 3123SOL    HW221006   2.007   0.791  13.896  0.4390 -0.2742 -0.2319
 3124SOL     OW21007   1.470   2.299  12.306 -0.3519  0.0920  0.2892
 3124SOL    HW121008   1.560   2.310  12.274 -0.7135  0.7399 -0.5291
 3124SOL    HW221009   1.422   2.289  12.223  3.3081  1.3863 -1.9962
 3125SOL     OW21010   3.924   2.397  16.624  0.1204  0.5299 -0.6985
 3125SOL    HW121011   3.884   2.351  16.550 -0.9242  1.6523 -0.8419
 3125SOL    HW221012   3.992   2.334  16.648  0.3554  0.3129 -1.9100
 3126SOL     OW21013   0.554   1.261   6.515 -0.0888 -0.6397 -0.0822
 3126SOL    HW121014   0.631   1.286   6.566  0.1345  0.1974 -0.8429
 3126SOL    HW221015   0.515   1.195   6.573 -2.3978 -1.0609 -2.1008
 3127SOL     OW21016   0.404   2.248   6.064  0.3567 -0.6713 -0.0940
 3127SOL    HW121017   0.438   2.288   5.984 -2.0498  0.9218 -0.3433
 3127SOL    HW221018   0.324   2.203   6.037 -0.6047  0.5994  0.6455
 3128SOL     OW21019   0.958   3.511   4.228 -0.0484  0.4475  0.5687
 3128SOL    HW121020   1.014   3.506   4.150  1.1337 -1.2841  1.5260
 3128SOL    HW221021   0.878   3.485   4.182  1.1591 -1.1716 -0.5979
 3129SOL     OW21022   2.882   1.267   8.702  0.1499 -0.1087  0.6465
 3129SOL    HW121023   2.884   1.290   8.795  0.1380  0.0073  0.6180
 3129SOL    HW221024   2.924   1.342   8.659  1.1523 -0.3344  1.2177
 3130SOL     OW21025   1.158   2.001   7.825 -0.1931 -0.8169  0.4288
 3130SOL    HW121026   1.135   1.911   7.801 -1.2035 -0.1768 -0.9472
 3130SOL    HW221027   1.220   1.985   7.897 -1.5183  3.2692  2.4869
 3131SOL     OW21028   0.716   1.055  14.509 -0.4356  0.2566  0.2011
 3131SOL    HW121029   0.632   1.014  14.527 -0.5236  0.2707 -0.1643
 3131SOL    HW221030   0.746   1.073  14.598  0.5615  1.5097 -0.3848
 3132SOL     OW21031   0.498   2.125  11.390  0.6085 -0.0651 -0.1811
 3132SOL    HW121032   0.460   2.141  11.304  1.3720  0.4344 -0.4206
 3132SOL    HW221033   0.592   2.128  11.373  0.5978  1.5388  0.0252
 3133SOL     OW21034   2.515   3.869   5.822 -0.0807 -0.3652  0.0327
 3133SOL    HW121035   2.552   3.922   5.893 -0.6154 -1.0348  0.8070
 3133SOL    HW221036   2.529   3.925   5.745  1.3676  1.0678  1.3313
 3134SOL     OW21037   3.538   1.227  13.171  0.5471 -0.5465  0.3272
 3134SOL    HW121038   3.468   1.203  13.232 -0.5865  1.4203 -0.1983
 3134SOL    HW221039   3.586   1.144  13.173 -0.3693 -1.1265 -1.6632
 3135SOL     OW21040   2.505   4.295   7.745  0.6146  0.7820 -0.2737
 3135SOL    HW121041   2.492   4.268   7.654  3.3877 -0.4077 -0.3289
 3135SOL    HW221042   2.450   4.237   7.797  1.5594  0.1899  0.0802
 3136SOL     OW21043   3.691   3.844   9.892  0.2398  0.3385  0.2983
 3136SOL    HW121044   3.616   3.891   9.929 -0.4338 -0.3981 -0.1348
 3136SOL    HW221045   3.686   3.879   9.803 -2.7983 -0.8741 -0.0135
 3137SOL     OW21046   3.990   2.492   4.783 -0.0870  0.2157 -0.1008
 3137SOL    HW121047   4.059   2.433   4.811 -0.0654  1.3560  2.2754
 3137SOL    HW221048   3.970   2.458   4.696  1.0089 -1.7661  0.4389
 3138SOL     OW21049   3.812   3.381   6.694  0.0337  0.2649 -0.6250
 3138SOL    HW121050   3.878   3.428   6.642 -0.7757  1.4800 -0.5701
 3138SOL    HW221051   3.803   3.451   6.758 -0.4299  0.4976 -0.9432
 3139SOL     OW21052   1.217   2.576   1.267  0.4936  0.7232 -0.9765
 3139SOL    HW121053   1.188   2.485   1.258  0.6983  0.6698 -1.0967
 3139SOL    HW221054   1.170   2.625   1.200  0.0647  1.9499  0.2158
 3140SOL     OW21055   1.795   3.806   8.800 -0.0067 -0.3055 -0.5681
 3140SOL    HW121056   1.721   3.748   8.818 -0.0850 -0.5682 -1.7291
 3140SOL    HW221057   1.755   3.888   8.828 -0.6716 -0.8413  0.0672
 3141SOL     OW21058   2.918   4.002   7.827 -0.2703  0.2981  0.2364
 3141SOL    HW121059   2.864   3.950   7.768  0.2748  0.1448 -0.1374
 3141SOL    HW221060   2.883   4.090   7.819 -2.8853 -0.6973  0.8022
 3142SOL     OW21061   3.577   1.506   6.653  0.4917  0.3754  0.0313
 3142SOL    HW121062   3.609   1.426   6.610 -1.5067  0.0526 -0.8680
 3142SOL    HW221063   3.567   1.567   6.580  0.5834  1.2862  0.7909
 3143SOL     OW21064   0.152   3.454   0.030 -0.9744  0.1754 -0.3404
 3143SOL    HW121065   0.091   3.498  17.707  0.3634  1.0393 -1.0773
 3143SOL    HW221066   0.222   3.450  17.701  0.0444 -1.6725  0.8570
 3144SOL     OW21067   0.689   0.653  14.568  0.1665  0.3279 -0.0040
 3144SOL    HW121068   0.758   0.705  14.609  0.2073  0.2441  0.0342
 3144SOL    HW221069   0.704   0.565  14.603 -0.1846  0.3071  0.0862
 3145SOL     OW21070   1.452   2.626   5.045 -0.1684  0.1045  0.4607
 3145SOL    HW121071   1.359   2.604   5.050  0.1051 -0.8652  1.2910
 3145SOL    HW221072   1.491   2.541   5.025  0.5481  0.5204  0.0854
 3146SOL     OW21073   2.646   4.274   4.878 -0.1997 -0.2917 -0.3923
 3146SOL    HW121074   2.697   4.208   4.831 -3.4724 -3.0719  0.0054
 3146SOL    HW221075   2.717   4.333   4.906 -0.6751  0.8685 -1.6401
 3147SOL     OW21076   2.091   2.685   4.309 -0.0687  0.1889 -0.1860
 3147SOL    HW121077   2.081   2.604   4.260 -0.7829  1.4870 -2.1713
 3147SOL    HW221078   2.137   2.746   4.252  0.5766 -1.3715 -1.3031
 3148SOL     OW21079   0.036   0.228   4.846  0.0833 -0.0585 -0.0528
 3148SOL    HW121080   0.091   0.237   4.923 -1.7735 -0.8605  1.3752
 3148SOL    HW221081   4.713   0.305   4.844 -0.2476 -0.2838  0.7725
 3149SOL     OW21082   3.786   3.974   2.091 -0.2022 -0.6767  0.4760
 3149SOL    HW121083   3.693   3.992   2.081 -0.4588  0.6708  5.3115
 3149SOL    HW221084   3.795   3.880   2.074  5.3685 -0.6547  3.1215
 3150SOL     OW21085   0.026   1.673   1.362 -0.0091 -0.5285 -0.2634
 3150SOL    HW121086   0.044   1.649   1.453 -0.9975 -0.7953 -0.1325
 3150SOL    HW221087   0.110   1.672   1.317  0.7509  1.3085  1.1248
 3151SOL     OW21088   3.041   0.853   1.903  0.3322  0.7355  0.0053
 3151SOL    HW121089   3.025   0.947   1.910  0.8740  0.7877  0.5516
 3151SOL    HW221090   2.957   0.822   1.869  0.1591 -0.7012  1.7397
 3152SOL     OW21091   0.347   1.643   8.298  0.6116  0.1930  0.1067
 3152SOL    HW121092   0.344   1.551   8.270  0.1248  0.2842 -0.1387
 3152SOL    HW221093   0.255   1.662   8.278  0.8534  0.7527 -0.4624
 3153SOL     OW21094   0.842   1.911   2.068 -0.2011 -0.6340  0.0662
 3153SOL    HW121095   0.758   1.873   2.094 -0.3358  0.4738  1.2290
 3153SOL    HW221096   0.821   2.004   2.071  1.7015 -0.1462 -1.7045
 3154SOL     OW21097   0.558   4.034   2.281 -0.3491 -0.0432  0.3445
 3154SOL    HW121098   0.589   3.947   2.303  2.4129  1.0391  0.7904
 3154SOL    HW221099   0.586   4.040   2.189  0.0659  0.9915  0.5332
 3155SOL     OW21100   3.967   4.281   3.632  0.4178  0.3348 -0.1616
 3155SOL    HW121101   4.039   4.295   3.694 -1.2080  0.0364  1.7860
 3155SOL    HW221102   4.016   4.288   3.550 -1.7174  1.6458 -1.3005
 3156SOL     OW21103   0.259   1.911  11.338 -0.3881 -0.0257  0.1164
 3156SOL    HW121104   0.282   1.823  11.309 -1.3285  0.0661 -0.8817
 3156SOL    HW221105   0.303   1.972  11.279 -0.8762 -1.2596 -1.4888
 3157SOL     OW21106   1.758   4.119   4.952  0.1001  0.0014 -0.3719
 3157SOL    HW121107   1.817   4.089   4.883 -0.7922 -3.6096  0.4776
 3157SOL    HW221108   1.734   4.035   4.989 -0.1051 -0.0015 -0.5157
 3158SOL     OW21109   2.135   3.531   0.106  0.5159 -0.2321  0.0631
 3158SOL    HW121110   2.207   3.549   0.046  0.7249 -1.0741  0.0529
 3158SOL    HW221111   2.159   3.445   0.142 -1.2315 -0.5189  0.5416
 3159SOL     OW21112   1.751   0.518   4.458  0.0915 -0.0123  0.3514
 3159SOL    HW121113   1.824   0.491   4.401  0.3386  0.4541  0.4495
 3159SOL    HW221114   1.684   0.544   4.395 -0.0319 -4.2959 -1.3348
 3160SOL     OW21115   4.357   2.725   8.844  0.5679  0.0699  0.4736
 3160SOL    HW121116   4.401   2.795   8.893 -1.5439  0.0403  2.4609
 3160SOL    HW221117   4.420   2.708   8.775  0.2474  2.3349 -0.3818
 3161SOL     OW21118   1.866   3.902   4.553 -0.2045  0.5177  0.1433
 3161SOL    HW121119   1.837   3.811   4.555 -1.2340  0.8714  1.3075
 3161SOL    HW221120   1.790   3.932   4.503  0.4960  2.0960  0.0388
 3162SOL     OW21121   2.154   2.339   1.049  0.3594 -0.0071  0.6223
 3162SOL    HW121122   2.126   2.424   1.014 -2.6793 -0.4557  2.0095
 3162SOL    HW221123   2.093   2.328   1.123  0.1897 -1.8078  0.2132
 3163SOL     OW21124   3.192   2.978   5.721  0.3961  0.4421  0.4124
 3163SOL    HW121125   3.262   3.030   5.761  1.6859  0.2665 -1.6132
 3163SOL    HW221126   3.136   2.960   5.796  0.3734 -0.6118  0.1346
 3164SOL     OW21127   1.172   1.402  13.230 -0.4035  0.2253 -0.4619
 3164SOL    HW121128   1.163   1.343  13.305 -0.7147  0.4825 -0.2936
 3164SOL    HW221129   1.175   1.337  13.160 -0.1361  1.4424 -1.5674
 3165SOL     OW21130   4.097   4.253  12.697  0.0630 -0.2935  0.2628
 3165SOL    HW121131   4.100   4.190  12.625 -1.3293 -0.8097  0.6467
 3165SOL    HW221132   4.091   4.340  12.657  0.8746  0.2285  1.2559
 3166SOL     OW21133   1.908   4.089   2.559  0.0375  0.4376 -0.0418
 3166SOL    HW121134   1.975   4.141   2.604 -1.2564  3.7288 -1.8777
 3166SOL    HW221135   1.831   4.125   2.603  0.9089  0.5881  1.3416
 3167SOL     OW21136   1.155   3.926   4.363 -0.4054  0.2181  0.4329
 3167SOL    HW121137   1.234   3.978   4.349 -1.4588  1.3565 -1.3035
 3167SOL    HW221138   1.171   3.852   4.303 -1.5045 -1.0190  1.6653
 3168SOL     OW21139   2.282   2.325   2.482  0.2872 -0.1679  0.2517
 3168SOL    HW121140   2.314   2.384   2.550  0.7100 -0.8610  0.6493
 3168SOL    HW221141   2.198   2.371   2.472  2.8445  3.9876 -1.9251
 3169SOL     OW21142   0.801   0.020   0.715  0.0583  0.8253  0.2242
 3169SOL    HW121143   0.778   0.020   0.622  0.2456  0.0297  0.1767
 3169SOL    HW221144   0.715   0.038   0.753 -0.5728 -0.3326 -0.6555
 3170SOL     OW21145   2.428   4.464   8.156 -0.1094 -0.0740 -0.0455
 3170SOL    HW121146   2.339   4.498   8.163  0.2657  1.4726 -2.8862
 3170SOL    HW221147   2.476   4.516   8.221 -0.5000  1.9470 -1.3795
 3171SOL     OW21148   0.385   2.871   6.407 -0.3792  0.2073  0.1598
 3171SOL    HW121149   0.293   2.852   6.389 -1.0706 -0.1549  3.9626
 3171SOL    HW221150   0.399   2.926   6.330  0.2472 -0.8109 -0.4401
 3172SOL     OW21151   4.265   2.094   9.501  0.0865 -0.6908 -0.6723
 3172SOL    HW121152   4.316   2.020   9.468 -1.4691 -1.7023 -0.7948
 3172SOL    HW221153   4.257   2.150   9.424  0.8787  2.0256  1.1916
 3173SOL     OW21154   1.588   1.133   4.734  0.2552  0.3276  0.3439
 3173SOL    HW121155   1.534   1.056   4.756  0.9174  0.1779  1.4762
 3173SOL    HW221156   1.652   1.102   4.670 -1.0468  0.5983 -1.1012
 3174SOL     OW21157   4.240   2.339   8.601 -0.1570  0.4041  0.7915
 3174SOL    HW121158   4.178   2.399   8.558 -1.5356 -1.7196 -0.1688
 3174SOL    HW221159   4.177   2.271   8.624  0.0949 -0.2816 -0.5621
 3175SOL     OW21160   2.255   1.868   5.391  0.2023 -0.3010 -0.0625
 3175SOL    HW121161   2.198   1.838   5.463  0.6782 -3.3376 -0.9511
 3175SOL    HW221162   2.226   1.806   5.323  2.2680  1.0111 -2.1300
 3176SOL     OW21163   3.826   3.779   4.228  0.0696 -0.1896 -0.2268
 3176SOL    HW121164   3.750   3.794   4.284  0.3897  2.8535 -0.6283
 3176SOL    HW221165   3.796   3.696   4.192  0.2103  0.5200 -2.0061
 3177SOL     OW21166   0.061   3.513   7.537 -0.3353  0.9422  0.7810
 3177SOL    HW121167   4.710   3.525   7.494  0.0144 -0.7348 -0.4244
 3177SOL    HW221168   0.116   3.577   7.492 -0.5391  1.6151  1.4872
 3178SOL     OW21169   3.977   2.158   6.378  0.8738 -0.9706  0.5335
 3178SOL    HW121170   3.958   2.064   6.379  0.9271 -0.9767  1.1056
 3178SOL    HW221171   3.917   2.185   6.309  0.4422 -0.1030  1.2581
 3179SOL     OW21172   3.403   1.546   7.192  0.5517  0.6430 -0.3340
 3179SOL    HW121173   3.466   1.545   7.264  0.8652 -1.3759 -0.6255
 3179SOL    HW221174   3.421   1.634   7.160  1.7493  0.8977  1.0501
 3180SOL     OW21175   1.135   4.212   6.540  0.1880  0.5599 -0.0427
 3180SOL    HW121176   1.092   4.284   6.586 -1.6172 -0.7700  0.3330
 3180SOL    HW221177   1.202   4.193   6.606 -1.3105  0.6304  1.4822
 3181SOL     OW21178   2.679   0.583   9.067  0.3116  0.3963  0.5190
 3181SOL    HW121179   2.767   0.548   9.052  0.1965 -0.4089  1.7162
 3181SOL    HW221180   2.705   0.671   9.040 -3.0680  1.2495  0.0952
 3182SOL     OW21181   2.512   4.371   4.328 -0.1758  0.0524 -0.0559
 3182SOL    HW121182   2.468   4.301   4.376 -1.7703  0.9460 -0.2257
 3182SOL    HW221183   2.555   4.325   4.256 -1.9163 -1.5425 -0.0632
 3183SOL     OW21184   0.424   4.411   6.098 -0.7008 -0.7554 -0.3167
 3183SOL    HW121185   0.341   4.436   6.058 -0.6927  1.2602  0.9231
 3183SOL    HW221186   0.477   4.392   6.021  0.3474 -0.7110  0.3934
 3184SOL     OW21187   4.109   0.897  12.259  0.1295  0.2019  0.4991
 3184SOL    HW121188   4.043   0.943  12.206  0.9348  1.6940  0.7996
 3184SOL    HW221189   4.153   0.967  12.307  2.6715  0.3219 -1.9879
 3185SOL     OW21190   0.914   0.632   5.715  0.0895  0.0132 -0.2729
 3185SOL    HW121191   1.007   0.610   5.718  0.2529  0.6599 -0.5055
 3185SOL    HW221192   0.875   0.586   5.789 -0.0934 -0.3301 -0.5836
 3186SOL     OW21193   4.096   4.267   6.091 -0.3250  0.1145  0.1328
 3186SOL    HW121194   4.121   4.242   6.179  0.0561  1.9328  0.5475
 3186SOL    HW221195   4.011   4.223   6.089 -0.3497  0.0575  2.1886
 3187SOL     OW21196   2.026   0.454   4.375 -0.4532 -0.5187  0.1609
 3187SOL    HW121197   2.071   0.387   4.323  0.5891 -0.0246  0.4449
 3187SOL    HW221198   2.074   0.534   4.353  0.2106 -1.1364 -0.6421
 3188SOL     OW21199   3.635   3.712   8.466  0.3341 -0.0576 -0.1363
 3188SOL    HW121200   3.650   3.753   8.551  0.9608 -0.7696  0.0929
 3188SOL    HW221201   3.675   3.783   8.415  0.4520 -0.6893 -0.9161
 3189SOL     OW21202   4.507   3.475   9.549  1.1657  0.1320  0.1403
 3189SOL    HW121203   4.456   3.397   9.526 -1.3945  1.9196 -0.1747
 3189SOL    HW221204   4.530   3.504   9.461  0.7616  0.1436  0.0404
 3190SOL     OW21205   2.449   1.518   3.218  0.2258 -0.5267 -0.8940
 3190SOL    HW121206   2.518   1.487   3.159  0.0610 -0.5338 -1.0794
 3190SOL    HW221207   2.426   1.452   3.283 -1.2141  0.0383 -0.8250
 3191SOL     OW21208   1.902   0.989   0.083  0.2254 -0.1838  0.1368
 3191SOL    HW121209   1.951   0.917   0.123  1.5992 -0.5537 -2.2236
 3191SOL    HW221210   1.828   1.008   0.141  0.3815  1.1184 -0.0956
 3192SOL     OW21211   1.191   4.467  15.512  0.2363  0.0379  0.0738
 3192SOL    HW121212   1.267   4.521  15.488  1.3824 -1.0276  1.2875
 3192SOL    HW221213   1.226   4.425  15.590  1.2691 -0.9286 -0.9192
 3193SOL     OW21214   1.488   0.883   4.875  0.4350  0.5854 -0.2789
 3193SOL    HW121215   1.516   0.812   4.817  1.9076 -0.0994  1.2334
 3193SOL    HW221216   1.455   0.833   4.949 -1.2766  0.1226 -1.3677
 3194SOL     OW21217   2.354   2.436   5.199 -0.6168  0.0447 -0.1965
 3194SOL    HW121218   2.314   2.408   5.116  1.6584 -1.2856 -0.8595
 3194SOL    HW221219   2.421   2.368   5.197 -1.8241 -1.1548  0.7331
 3195SOL     OW21220   0.327   0.801  11.835 -0.2497 -0.0373 -0.2934
 3195SOL    HW121221   0.236   0.821  11.813  0.5605  2.4797 -1.3451
 3195SOL    HW221222   0.337   0.709  11.809  1.1882  0.1669 -0.4713
 3196SOL     OW21223   0.098   0.172  14.736  0.1650 -0.0041 -0.1321
 3196SOL    HW121224   0.083   0.139  14.825  0.2213 -3.2623 -1.3049
 3196SOL    HW221225   0.013   0.209  14.713 -0.4406 -2.5379 -2.0109
 3197SOL     OW21226   0.342   3.968   2.615 -0.1996 -0.3817 -0.0344
 3197SOL    HW121227   0.401   3.950   2.688 -2.4056 -0.6114  1.7030
 3197SOL    HW221228   0.341   4.062   2.632 -1.5226 -0.4306  0.1961
 3198SOL     OW21229   2.805   0.922  14.113  0.1348  0.0582  1.2655
 3198SOL    HW121230   2.796   0.853  14.048 -0.0528  0.6640  0.6384
 3198SOL    HW221231   2.896   0.926  14.140  0.3893  1.1307  0.2768
 3199SOL     OW21232   4.417   0.338   5.216 -0.2922 -0.5642 -0.5110
 3199SOL    HW121233   4.410   0.300   5.304 -0.6760  0.0995 -0.2579
 3199SOL    HW221234   4.465   0.419   5.231 -1.0120 -0.1093 -0.6534
 3200SOL     OW21235   4.624   3.563   9.279 -0.3137 -0.2820 -0.5080
 3200SOL    HW121236   4.544   3.614   9.263 -0.1786 -0.2620 -1.1276
 3200SOL    HW221237   4.685   3.620   9.232 -1.5246  0.2858 -1.4060
 3201SOL     OW21238   2.866   4.607   2.824 -0.3150 -0.6866  0.1770
 3201SOL    HW121239   2.825   4.569   2.745 -1.2488 -0.5359  0.5867
 3201SOL    HW221240   2.869   4.526   2.876  2.2202  0.7854  2.3168
 3202SOL     OW21241   0.146   0.785   4.598 -0.4285 -0.0723  0.3226
 3202SOL    HW121242   0.059   0.781   4.637 -1.7457 -3.6286 -2.9890
 3202SOL    HW221243   0.124   0.761   4.508  3.8252  0.1467 -0.7579
 3203SOL     OW21244   4.560   1.369   5.756 -0.2735  0.7686 -0.2228
 3203SOL    HW121245   4.593   1.438   5.814  1.0987  0.0911 -0.2073
 3203SOL    HW221246   4.640   1.318   5.747  0.7496  2.4657 -0.8656
 3204SOL     OW21247   3.498   2.293  10.628  0.0523  1.0117  0.0712
 3204SOL    HW121248   3.555   2.217  10.636 -0.4448  0.6233 -0.1113
 3204SOL    HW221249   3.445   2.265  10.554  1.4051 -1.1964 -0.0667
 3205SOL     OW21250   2.395   4.671   4.191 -0.0519  0.4864  0.3282
 3205SOL    HW121251   2.381   4.676   4.286  2.0513  0.3339  0.6412
 3205SOL    HW221252   2.476   4.621   4.180  0.8180  1.8964  0.3069
 3206SOL     OW21253   3.469   1.694  11.060  0.3599  0.2147 -0.2712
 3206SOL    HW121254   3.509   1.611  11.085 -0.3830  0.4911  1.8705
 3206SOL    HW221255   3.428   1.719  11.144 -1.4114 -0.1631 -1.0148
 3207SOL     OW21256   4.730   3.690   8.394 -0.3001 -0.3846  0.3688
 3207SOL    HW121257   4.724   3.764   8.454 -1.8252 -1.2109  1.2558
 3207SOL    HW221258   0.089   3.670   8.391 -0.5262 -1.0692 -2.0387
 3208SOL     OW21259   3.483   4.142  11.295 -0.0923  0.2300 -0.2599
 3208SOL    HW121260   3.527   4.163  11.212  1.1385  2.9558  1.1054
 3208SOL    HW221261   3.530   4.062  11.321  1.5297  1.6562  1.1410
 3209SOL     OW21262   2.416   4.205   5.659  1.0444 -0.3870  0.4950
 3209SOL    HW121263   2.468   4.142   5.609 -0.4660 -0.8273 -0.5305
 3209SOL    HW221264   2.484   4.243   5.715  1.6217 -1.2599  0.3860
 3210SOL     OW21265   1.816   2.662   2.078  0.0039 -0.2297  0.4845
 3210SOL    HW121266   1.777   2.622   2.000 -1.5692  0.6102  0.8364
 3210SOL    HW221267   1.856   2.744   2.049  1.3351 -0.8408  0.6407
 3211SOL     OW21268   2.076   2.844  15.732 -0.3009  0.2462  0.2019
 3211SOL    HW121269   2.037   2.794  15.804 -0.9130  0.0962 -0.2431
 3211SOL    HW221270   2.115   2.921  15.773 -2.2375  3.2614 -3.6508
 3212SOL     OW21271   2.071   1.461  15.823 -0.3046  1.0614 -0.2330
 3212SOL    HW121272   2.120   1.524  15.875  0.9455  0.7845 -1.0724
 3212SOL    HW221273   2.054   1.522  15.751  0.8061  3.5069  1.6184
 3213SOL     OW21274   1.179   0.875   5.456 -0.5654 -0.1270  0.8241
 3213SOL    HW121275   1.164   0.868   5.550 -2.7918  1.1087  0.5595
 3213SOL    HW221276   1.262   0.923   5.447 -1.0057  0.2114 -1.4687
 3214SOL     OW21277   3.893   2.384   4.525  0.5609  0.0126 -0.2921
 3214SOL    HW121278   3.854   2.448   4.466  1.2851  0.1378 -0.6350
 3214SOL    HW221279   3.950   2.338   4.464  2.1697  1.1727  0.3454
 3215SOL     OW21280   1.787   0.878  16.837  0.1032 -0.2947 -0.7901
 3215SOL    HW121281   1.731   0.856  16.912  2.9107  0.4253  1.5539
 3215SOL    HW221282   1.814   0.967  16.860  1.2987 -1.1601  1.2283
 3216SOL     OW21283   2.639   4.008   8.215  0.2037  0.0799 -0.2592
 3216SOL    HW121284   2.595   4.092   8.231 -1.4584 -0.9424  0.5728
 3216SOL    HW221285   2.721   4.039   8.177  0.8584 -0.4904  0.6935
 3217SOL     OW21286   1.625   2.511   2.253  0.2800 -0.0254 -0.6532
 3217SOL    HW121287   1.615   2.458   2.174  2.8308  1.3190 -1.8656
 3217SOL    HW221288   1.710   2.554   2.245 -0.6814  2.0466  0.1432
 3218SOL     OW21289   4.333   1.382  11.914  0.2996  0.3083 -0.5251
 3218SOL    HW121290   4.333   1.348  11.825 -0.3881  1.9407 -1.1469
 3218SOL    HW221291   4.428   1.382  11.930  0.0907 -1.5767  0.7688
 3219SOL     OW21292   1.155   4.189   6.209  0.0036 -0.5768 -0.2158
 3219SOL    HW121293   1.109   4.171   6.291  0.1435  1.8227  0.3871
 3219SOL    HW221294   1.214   4.255   6.246 -0.0395 -0.7379  0.1419
 3220SOL     OW21295   2.371   2.018   7.558  0.3414  0.0676  0.5516
 3220SOL    HW121296   2.345   2.013   7.650 -0.2247 -1.5252  0.3121
 3220SOL    HW221297   2.410   1.931   7.566 -0.8063 -0.4898  0.0786
 3221SOL     OW21298   2.386   1.267   6.766  0.0118  0.2612 -0.4107
 3221SOL    HW121299   2.475   1.231   6.762 -0.3215 -0.2269 -4.2468
 3221SOL    HW221300   2.355   1.250   6.676 -1.4628 -1.0680  0.3445
 3222SOL     OW21301   2.468   2.737   1.575 -1.2237  0.3021  0.3669
 3222SOL    HW121302   2.450   2.734   1.481 -1.1081 -2.6783  0.4265
 3222SOL    HW221303   2.378   2.738   1.610 -0.4608 -0.4017  2.3359
 3223SOL     OW21304   0.241   0.129  13.125 -0.0413  0.1384  0.1720
 3223SOL    HW121305   0.210   0.216  13.149  0.0375  0.0645  0.5506
 3223SOL    HW221306   0.288   0.107  13.206 -0.5759 -2.3476 -0.1864
 3224SOL     OW21307   3.837   2.349  11.358 -0.0799  0.3381  0.0225
 3224SOL    HW121308   3.853   2.326  11.449  0.2011 -1.6086 -0.5174
 3224SOL    HW221309   3.794   2.435  11.358  2.0510  1.3838  0.9466
 3225SOL     OW21310   3.365   2.536   3.454 -0.2190  0.1442 -0.0220
 3225SOL    HW121311   3.302   2.472   3.488  1.2914 -2.0397 -1.3222
 3225SOL    HW221312   3.438   2.512   3.511 -0.2756 -0.6356 -0.2815
 3226SOL     OW21313   0.493   2.538  14.952 -0.1122 -0.0194 -0.0398
 3226SOL    HW121314   0.437   2.583  15.015  1.8932 -0.8583  2.3245
 3226SOL    HW221315   0.474   2.589  14.873  0.0383 -2.4576 -1.6509
 3227SOL     OW21316   2.715   0.890   6.346  0.0140  0.0234  0.5417
 3227SOL    HW121317   2.798   0.915   6.388 -0.8909  1.8128  1.2967
 3227SOL    HW221318   2.689   0.973   6.305 -1.1295 -0.9779 -0.7270
 3228SOL     OW21319   1.893   2.420   9.021  0.1128 -0.2234 -0.2535
 3228SOL    HW121320   1.838   2.487   8.981  3.4996  3.0991  0.6288
 3228SOL    HW221321   1.957   2.409   8.950  0.3034 -0.2802 -0.0750
 3229SOL     OW21322   3.690   0.588  12.974 -0.0773 -0.1214  0.5534
 3229SOL    HW121323   3.710   0.494  12.974  1.8222  0.2874  2.6538
 3229SOL    HW221324   3.724   0.615  13.060  1.7315  1.9545 -0.8312
 3230SOL     OW21325   1.816   2.303   7.124 -0.5108 -0.1826 -0.6032
 3230SOL    HW121326   1.810   2.216   7.165 -1.3010 -1.1205 -2.7121
 3230SOL    HW221327   1.742   2.299   7.064  0.3036 -1.1394 -1.5389
 3231SOL     OW21328   0.133   3.382   1.738 -0.0246 -0.3494 -0.2486
 3231SOL    HW121329   0.056   3.395   1.793  1.9212 -0.7533  2.5520
 3231SOL    HW221330   0.187   3.342   1.806 -1.2604  1.9978  2.1125
 3232SOL     OW21331   1.957   2.640   3.939  0.2078  0.7557 -0.4577
 3232SOL    HW121332   1.927   2.648   3.849  1.6439 -1.2527 -1.1140
 3232SOL    HW221333   2.052   2.641   3.928  0.1452 -0.8554 -1.1025
 3233SOL     OW21334   0.538   4.125   0.720 -0.1317 -0.2429 -0.0019
 3233SOL    HW121335   0.552   4.198   0.781  1.0997  0.1448 -0.7482
 3233SOL    HW221336   0.451   4.152   0.689 -0.5121 -0.7983  0.5720
 3234SOL     OW21337   0.485   3.323   1.451  0.5485  0.0533 -0.1555
 3234SOL    HW121338   0.567   3.365   1.476 -0.8005  1.8522  1.2339
 3234SOL    HW221339   0.433   3.385   1.400 -1.1944 -0.9666  0.4071
 3235SOL     OW21340   4.295   1.966  16.729  0.2625  0.3637  0.5425
 3235SOL    HW121341   4.202   1.947  16.743 -0.4298  2.1869 -1.5732
 3235SOL    HW221342   4.291   2.049  16.777 -1.0395 -1.6235  3.9021
 3236SOL     OW21343   3.746   2.981  14.462  0.0237 -0.4974  0.0573
 3236SOL    HW121344   3.831   2.936  14.469  0.4461  0.5051  1.3131
 3236SOL    HW221345   3.757   3.070  14.495 -0.1626 -0.7198  0.7201
 3237SOL     OW21346   4.616   3.834   2.038  0.0456 -0.2953  0.4291
 3237SOL    HW121347   4.536   3.885   2.051 -1.2174 -1.9253 -1.0076
 3237SOL    HW221348   4.640   3.874   1.954  1.4910 -0.7127  0.6333
 3238SOL     OW21349   1.186   1.677   6.996  0.1341 -0.3525  0.0018
 3238SOL    HW121350   1.132   1.599   7.010 -0.6451  0.2283  0.2350
 3238SOL    HW221351   1.186   1.683   6.900 -1.0173 -0.8328 -0.0263
 3239SOL     OW21352   2.465   4.390   8.773  0.3360 -0.1135 -0.2288
 3239SOL    HW121353   2.410   4.344   8.836 -0.0936 -2.7220 -2.5118
 3239SOL    HW221354   2.435   4.480   8.782 -0.9563 -0.7575  1.8469
 3240SOL     OW21355   0.439   1.473   8.669 -0.2951 -0.2305  0.1604
 3240SOL    HW121356   0.461   1.406   8.734 -0.5438 -0.0389  0.4405
 3240SOL    HW221357   0.415   1.404   8.607  0.0443  0.9810 -1.3102
 3241SOL     OW21358   4.256   0.250   5.019 -0.2899 -0.0759 -0.3519
 3241SOL    HW121359   4.218   0.179   5.071 -0.8020  0.0862 -0.5025
 3241SOL    HW221360   4.320   0.273   5.086  1.9793 -1.7582 -1.9470
 3242SOL     OW21361   0.470   3.998   5.488 -0.7517 -0.3558  0.1606
 3242SOL    HW121362   0.464   3.907   5.518 -0.0945 -0.5228 -0.2208
 3242SOL    HW221363   0.564   3.996   5.470 -0.1554  1.5579  3.0510
 3243SOL     OW21364   0.039   1.929   6.142 -0.1006 -0.3710  0.2239
 3243SOL    HW121365   0.004   1.988   6.075 -0.4980 -0.1103  0.6615
 3243SOL    HW221366   0.126   1.912   6.106 -0.7325 -0.0328 -1.4514
 3244SOL     OW21367   4.248   3.975   7.381  0.2006  0.3127  0.1081
 3244SOL    HW121368   4.243   4.071   7.389  0.1750  0.3192  0.0141
 3244SOL    HW221369   4.343   3.972   7.374  0.2634  2.4604 -0.0683
 3245SOL     OW21370   1.550   4.474   3.041 -0.4153 -0.0582 -0.0618
 3245SOL    HW121371   1.478   4.411   3.052  1.5609 -2.4286 -0.5850
 3245SOL    HW221372   1.518   4.556   3.079 -0.0999  0.1043 -0.1483
 3246SOL     OW21373   4.175   1.570   1.985  0.3037 -0.5014 -0.2117
 3246SOL    HW121374   4.232   1.643   1.965 -0.2063 -1.0442 -3.7316
 3246SOL    HW221375   4.140   1.570   1.895  1.7196  0.2363 -0.7564
 3247SOL     OW21376   0.096   1.600   1.596 -0.4405  0.3676 -0.3857
 3247SOL    HW121377   0.059   1.579   1.681  0.4774  0.3868  0.0112
 3247SOL    HW221378   0.182   1.635   1.618  0.1573 -1.5875  0.3209
 3248SOL     OW21379   2.607   4.681   2.045 -0.0987  0.1678 -0.2371
 3248SOL    HW121380   2.632   4.709   1.957 -0.7997 -1.5620 -0.9882
 3248SOL    HW221381   2.688   4.635   2.067 -0.6518 -1.2241 -1.0880
 3249SOL     OW21382   4.687   4.251  12.973  0.8644 -0.5528 -0.1886
 3249SOL    HW121383   4.675   4.346  12.971 -0.5325 -0.7479 -0.8530
 3249SOL    HW221384   0.041   4.246  13.011  0.4362  0.8614  0.9748
 3250SOL     OW21385   4.542   0.547  12.486  0.3829 -0.2367  0.2171
 3250SOL    HW121386   4.536   0.459  12.450  0.7931 -0.2248  0.1164
 3250SOL    HW221387   4.469   0.593  12.444 -0.3327 -0.0603  1.6712
 3251SOL     OW21388   0.835   1.290   5.940 -0.2406 -0.3407  0.0535
 3251SOL    HW121389   0.753   1.314   5.983  0.0780 -1.3445  1.2102
 3251SOL    HW221390   0.844   1.357   5.872  0.6106  1.5589  2.0663
 3252SOL     OW21391   3.060   0.953   7.891  0.6612  0.2543 -0.0502
 3252SOL    HW121392   3.036   0.913   7.975  0.9707  1.8675  0.8225
 3252SOL    HW221393   3.089   0.871   7.851  1.1551  1.8069 -2.8972
 3253SOL     OW21394   2.217   1.528   3.567  0.4768 -0.3202  0.0616
 3253SOL    HW121395   2.153   1.575   3.514  1.3514  0.8631  0.0610
 3253SOL    HW221396   2.283   1.591   3.595  2.0996 -0.5725 -3.1451
 3254SOL     OW21397   0.704   3.102   7.992  0.4351 -0.0188  0.4979
 3254SOL    HW121398   0.620   3.089   8.035 -0.1435  1.0080 -0.3360
 3254SOL    HW221399   0.718   3.024   7.938 -0.5339 -1.3435  2.1700
 3255SOL     OW21400   3.964   2.548   7.272 -0.4833  0.4439  0.1777
 3255SOL    HW121401   3.987   2.457   7.252  2.3326  1.2099  0.0445
 3255SOL    HW221402   3.943   2.565   7.180 -1.2601  2.2694  0.7090
 3256SOL     OW21403   4.694   0.349   2.393  0.1780  0.3608 -0.4191
 3256SOL    HW121404   4.673   0.406   2.319  0.8690 -1.4781 -2.0141
 3256SOL    HW221405   4.614   0.298   2.407  1.5505 -1.0135  2.5948
 3257SOL     OW21406   4.396   1.207   5.012  0.0819 -0.2475 -0.0915
 3257SOL    HW121407   4.490   1.214   4.997 -0.0512  1.1726 -0.2744
 3257SOL    HW221408   4.392   1.157   5.094 -2.1936 -2.2312 -1.4120
 3258SOL     OW21409   1.014   2.395   3.748 -0.1588  0.1939  0.5487
 3258SOL    HW121410   0.921   2.400   3.771 -0.2129 -0.1991  0.4075
 3258SOL    HW221411   1.049   2.451   3.817 -1.9506 -0.5786  2.0876
 3259SOL     OW21412   3.950   1.019  12.082 -0.1837  0.0364 -0.2438
 3259SOL    HW121413   3.908   1.074  12.148 -0.5083 -1.4902  0.8198
 3259SOL    HW221414   3.979   1.085  12.019 -0.3348  1.4706  1.1810
 3260SOL     OW21415   1.631   4.125   1.878 -0.6109  0.2741  0.8946
 3260SOL    HW121416   1.634   4.042   1.830  2.8368  0.7013  0.3982
 3260SOL    HW221417   1.536   4.132   1.886 -0.5729  2.8515 -1.1404
 3261SOL     OW21418   2.986   4.550  12.809 -0.0737  0.4517  1.1649
 3261SOL    HW121419   2.967   4.508  12.893 -0.9144 -0.3156  0.5847
 3261SOL    HW221420   2.907   4.532  12.757 -0.3338  0.5925  1.5035
 3262SOL     OW21421   3.192   2.704   3.115 -0.3105 -0.1846 -0.0359
 3262SOL    HW121422   3.101   2.677   3.101 -1.4571  3.0221  1.1323
 3262SOL    HW221423   3.244   2.624   3.114 -1.1836 -0.7420 -1.2174
 3263SOL     OW21424   1.114   2.127   3.430 -0.4501  0.2274 -0.2472
 3263SOL    HW121425   1.204   2.095   3.427 -1.2284 -1.9065 -0.1281
 3263SOL    HW221426   1.092   2.123   3.337  1.6073 -1.0871 -0.6745
 3264SOL     OW21427   2.064   4.586   5.079 -0.2306  0.6863 -0.7145
 3264SOL    HW121428   2.037   4.676   5.061 -0.4771  0.8487  0.4549
 3264SOL    HW221429   1.982   4.540   5.061  0.2737 -0.3205 -0.4644
 3265SOL     OW21430   4.443   3.306   9.101 -0.3012  0.1162  0.4837
 3265SOL    HW121431   4.465   3.360   9.025  1.8247 -1.5364 -0.0807
 3265SOL    HW221432   4.518   3.326   9.157  1.0626  1.2411 -1.7367
 3266SOL     OW21433   3.150   0.312   3.795 -0.1074  0.3008  0.1811
 3266SOL    HW121434   3.099   0.281   3.720 -3.4739  1.0003  2.1728
 3266SOL    HW221435   3.238   0.324   3.759  0.2822 -1.4863  0.5405
 3267SOL     OW21436   1.984   1.999   5.871  0.6687 -0.2958 -0.1596
 3267SOL    HW121437   1.994   2.089   5.839 -2.3826  0.1442  0.1074
 3267SOL    HW221438   1.897   2.002   5.909  1.3861 -1.4046  1.5704
 3268SOL     OW21439   3.776   3.719   5.725  0.0416  0.3620 -0.0645
 3268SOL    HW121440   3.726   3.782   5.778  0.5915 -1.6239  2.8259
 3268SOL    HW221441   3.823   3.677   5.797 -1.2824  0.7856  1.0495
 3269SOL     OW21442   2.732   1.573   3.622 -0.1932 -0.1788 -0.0921
 3269SOL    HW121443   2.811   1.542   3.667  0.2774  2.0775  0.6485
 3269SOL    HW221444   2.689   1.490   3.601 -0.5351 -0.0041 -0.0848
 3270SOL     OW21445   4.615   1.552   8.654 -0.3795  0.7267 -0.0823
 3270SOL    HW121446   4.607   1.603   8.735 -2.2595  1.5201 -0.7704
 3270SOL    HW221447   4.707   1.528   8.653 -0.6469 -0.2468 -0.7272
 3271SOL     OW21448   0.059   4.136  16.229  0.8565 -0.3119 -0.0867
 3271SOL    HW121449   0.152   4.114  16.219  1.2788  1.2554  0.3105
 3271SOL    HW221450   0.007   4.088  16.165  0.9107 -1.5039  0.7680
 3272SOL     OW21451   0.108   1.164   6.694 -0.9370 -0.5337 -0.0489
 3272SOL    HW121452   0.145   1.223   6.629 -2.3646 -0.1834 -0.5403
 3272SOL    HW221453   0.017   1.149   6.668 -0.4063 -1.7736 -1.1696
 3273SOL     OW21454   0.021   2.762   9.512  0.4685 -0.1038  0.1648
 3273SOL    HW121455   4.728   2.724   9.596 -2.3194  0.3617 -0.5113
 3273SOL    HW221456   0.069   2.683   9.486  0.7224 -0.2762  1.1787
 3274SOL     OW21457   2.844   3.135   2.560  0.6929 -0.0074  0.0326
 3274SOL    HW121458   2.930   3.144   2.520 -0.4099 -0.6918 -2.4787
 3274SOL    HW221459   2.862   3.081   2.637 -2.8364 -0.2991  0.6356
 3275SOL     OW21460   4.391   3.949   6.510  0.1777  0.3153  0.4905
 3275SOL    HW121461   4.444   3.961   6.588  0.8529  0.1760  0.0516
 3275SOL    HW221462   4.439   3.874   6.474  1.4094  0.9617  0.7844
 3276SOL     OW21463   1.871   3.327   4.881 -0.0312 -0.6394 -0.3173
 3276SOL    HW121464   1.799   3.384   4.851 -0.2273 -0.6657  0.1020
 3276SOL    HW221465   1.873   3.360   4.971 -1.9386 -0.3193 -0.3961
 3277SOL     OW21466   4.704   2.515   1.744  0.2154  0.2688  0.2126
 3277SOL    HW121467   0.021   2.591   1.772  0.1004 -0.1635  1.6199
 3277SOL    HW221468   4.627   2.525   1.800 -0.1405 -0.7659 -0.0941
 3278SOL     OW21469   3.697   2.988   4.043  0.3127 -0.6359  0.1455
 3278SOL    HW121470   3.728   2.967   4.131 -2.2608  2.3624  1.7415
 3278SOL    HW221471   3.760   2.943   3.986 -1.3204 -2.4341 -0.2594
 3279SOL     OW21472   4.655   4.138   4.158  0.3203  0.2931 -0.3537
 3279SOL    HW121473   0.003   4.089   4.166 -1.3325 -2.1412  1.4853
 3279SOL    HW221474   4.679   4.224   4.193  0.2979  0.1772 -0.0549
 3280SOL     OW21475   0.945   4.002   9.337  0.1518 -0.1186 -0.1841
 3280SOL    HW121476   1.009   3.953   9.388  0.1907 -0.3638 -0.4681
 3280SOL    HW221477   0.893   3.930   9.301 -0.0996  0.4097 -0.8785
 3281SOL     OW21478   1.823   3.584   8.368 -0.3682  0.4394  0.1792
 3281SOL    HW121479   1.815   3.569   8.273  0.5925  0.1321  0.1476
 3281SOL    HW221480   1.800   3.495   8.394  0.7410  0.2268  0.4178
 3282SOL     OW21481   4.481   1.406  17.704 -0.0857 -0.3255 -0.3703
 3282SOL    HW121482   4.459   1.397  17.611  0.2400  1.8358 -0.6410
 3282SOL    HW221483   4.423   1.480  17.717  0.7394  0.3323 -0.4476
 3283SOL     OW21484   0.915   3.730   6.992  0.2228  0.4417 -0.1883
 3283SOL    HW121485   0.997   3.769   7.021 -1.9413  2.9154  2.5429
 3283SOL    HW221486   0.891   3.791   6.922 -0.3647  0.7490  0.2791
 3284SOL     OW21487   3.962   3.541   8.625  0.7198 -0.7157  0.2792
 3284SOL    HW121488   3.989   3.631   8.642 -0.7211 -0.3872  0.8365
 3284SOL    HW221489   3.970   3.509   8.716 -0.6410 -1.6161  0.0932
 3285SOL     OW21490   4.639   0.007   6.830  0.5472 -0.8678  0.2624
 3285SOL    HW121491   4.571   4.717   6.894 -0.4545  0.7836 -0.1756
 3285SOL    HW221492   4.684   0.082   6.871  2.7393 -1.5422 -0.9271
 3286SOL     OW21493   1.023   0.782   1.434  0.6102  0.3090 -0.2511
 3286SOL    HW121494   0.967   0.727   1.487  0.1262  0.2389 -0.8318
 3286SOL    HW221495   1.052   0.846   1.499 -0.6334  1.1545 -0.5354
 3287SOL     OW21496   1.402   0.262   3.326  0.0418 -0.2062 -0.2594
 3287SOL    HW121497   1.362   0.177   3.340  0.6990 -0.3006  0.9993
 3287SOL    HW221498   1.402   0.294   3.416 -0.4166 -1.7817  0.3053
 3288SOL     OW21499   0.097   0.645   6.917 -0.4893 -0.7965  0.5762
 3288SOL    HW121500   0.132   0.612   6.835  0.6489  0.2805  0.6295
 3288SOL    HW221501   0.024   0.587   6.937 -0.8771 -1.8845 -4.1224
 3289SOL     OW21502   1.906   4.172  12.643 -0.0758  0.0022 -0.0384
 3289SOL    HW121503   1.977   4.121  12.603 -1.7044 -0.8948 -1.7510
 3289SOL    HW221504   1.956   4.206  12.717 -1.7225  1.6303  0.2913
 3290SOL     OW21505   1.890   0.640   4.941 -0.6762 -0.6847 -0.1179
 3290SOL    HW121506   1.821   0.583   4.976 -0.3651 -0.2578  1.1778
 3290SOL    HW221507   1.868   0.650   4.848  1.2596  1.2583 -0.3544
 3291SOL     OW21508   3.272   1.432   6.600  0.1067 -0.3983  0.0748
 3291SOL    HW121509   3.357   1.442   6.642 -1.2658  0.5368  2.6391
 3291SOL    HW221510   3.278   1.349   6.553  1.0622  0.1839 -0.8269
 3292SOL     OW21511   0.681   0.200   8.153  0.4488 -0.3964 -0.7497
 3292SOL    HW121512   0.753   0.169   8.098  2.3676  1.5166  0.7239
 3292SOL    HW221513   0.650   0.281   8.112  3.0247  0.6437 -0.6262
 3293SOL     OW21514   0.155   4.489   6.945 -0.1282 -0.1165 -0.1525
 3293SOL    HW121515   0.139   4.484   6.850 -0.5388 -0.8120 -0.0482
 3293SOL    HW221516   0.075   4.456   6.985 -0.8373  1.7200 -0.0674
 3294SOL     OW21517   4.596   1.102   2.125  0.1207 -0.3437  0.1908
 3294SOL    HW121518   4.533   1.035   2.097  0.0893  0.6565 -2.1343
 3294SOL    HW221519   4.671   1.049   2.150  1.4844  1.8285  0.6877
 3295SOL     OW21520   2.291   0.921   5.700  0.1296 -0.0449  0.2413
 3295SOL    HW121521   2.379   0.940   5.731  0.4077 -0.5850 -0.2141
 3295SOL    HW221522   2.300   0.919   5.604  0.2354  0.1858  0.2457
 3296SOL     OW21523   2.137   1.664   9.352 -0.0804  0.5993 -0.2857
 3296SOL    HW121524   2.042   1.668   9.341 -0.0149  1.7405 -0.4270
 3296SOL    HW221525   2.143   1.571   9.375 -0.2847  1.0182  1.4061
 3297SOL     OW21526   2.278   3.019   7.817 -0.1407  0.2371 -0.2142
 3297SOL    HW121527   2.317   3.097   7.777 -1.3472  0.9538  0.0061
 3297SOL    HW221528   2.244   3.059   7.897  0.3253 -0.5264  0.3702
 3298SOL     OW21529   2.479   0.747  17.447 -0.3794  0.0210 -0.5880
 3298SOL    HW121530   2.506   0.713  17.362  0.2721  0.0903 -0.4063
 3298SOL    HW221531   2.401   0.797  17.424  0.0485  0.7488 -0.4552
 3299SOL     OW21532   1.183   1.886  17.034 -0.5062 -0.2149 -0.0930
 3299SOL    HW121533   1.246   1.918  16.969  0.1597  1.1097  1.2175
 3299SOL    HW221534   1.235   1.872  17.113  1.3161  0.8105 -1.1150
 3300SOL     OW21535   1.333   2.693   5.427 -0.0678 -1.1529  0.2018
 3300SOL    HW121536   1.256   2.675   5.481  0.7715 -1.8602  1.1438
 3300SOL    HW221537   1.321   2.779   5.388 -0.4528 -1.0547  0.5420
 3301SOL     OW21538   1.352   2.190   6.360  0.0188  0.3215  0.0151
 3301SOL    HW121539   1.279   2.214   6.415 -1.2432 -1.6727 -0.7902
 3301SOL    HW221540   1.372   2.273   6.316 -0.8243 -0.3732 -1.6631
 3302SOL     OW21541   3.111   4.488   6.973  0.1689  0.0314 -0.2878
 3302SOL    HW121542   3.145   4.447   7.052 -1.9859 -1.6917 -0.2656
 3302SOL    HW221543   3.042   4.535   7.018  0.8779 -0.5620  1.4032
 3303SOL     OW21544   0.877   0.030   8.725 -0.1390 -0.0318  0.1760
 3303SOL    HW121545   0.899   0.008   8.635  2.1512 -0.1283  0.7783
 3303SOL    HW221546   0.800   4.708   8.730 -0.5683  0.4211 -1.1975
 3304SOL     OW21547   0.068   1.961   6.965 -0.0530 -0.5170 -0.2597
 3304SOL    HW121548   0.059   1.935   7.056 -0.2369  1.2668  0.2337
 3304SOL    HW221549   0.142   1.913   6.927  1.0955  2.5839 -1.9288
 3305SOL     OW21550   2.322   3.808  13.170 -0.0453  1.0087 -0.7228
 3305SOL    HW121551   2.241   3.757  13.166 -1.3359  2.8870  1.8189
 3305SOL    HW221552   2.374   3.732  13.195 -2.0803  0.7490  2.7290
 3306SOL     OW21553   4.173   4.487   4.163 -0.2969 -0.1273  0.1494
 3306SOL    HW121554   4.138   4.557   4.108  2.7617  1.6482  0.4602
 3306SOL    HW221555   4.158   4.405   4.115  0.7210 -0.7637  0.9061
 3307SOL     OW21556   3.420   3.324   4.926 -0.1794 -0.3037 -1.0393
 3307SOL    HW121557   3.463   3.281   5.000  0.5221  1.2606 -0.5206
 3307SOL    HW221558   3.471   3.288   4.854 -1.5042 -1.1534 -1.5462
 3308SOL     OW21559   2.147   1.238   6.180  0.1342  0.1504  0.3972
 3308SOL    HW121560   2.166   1.271   6.092 -0.5346  0.6184  0.4242
 3308SOL    HW221561   2.083   1.168   6.165  1.6817 -0.8945 -1.3724
 3309SOL     OW21562   4.373   3.663   9.030 -0.0058  0.2765  0.1217
 3309SOL    HW121563   4.405   3.696   9.114  1.9616 -0.5569 -0.3134
 3309SOL    HW221564   4.448   3.690   8.978 -0.2696 -0.7692 -0.8058
 3310SOL     OW21565   4.639   1.517  13.448  0.1924  0.3014 -0.3482
 3310SOL    HW121566   4.608   1.436  13.408 -0.9288  1.0321 -0.9740
 3310SOL    HW221567   4.571   1.578  13.418  1.6451  1.1704 -1.9171
 3311SOL     OW21568   2.512   3.200   1.927  0.0293 -0.0070 -0.5630
 3311SOL    HW121569   2.420   3.178   1.945 -0.0059  0.9776  0.4945
 3311SOL    HW221570   2.504   3.280   1.874 -1.6601 -0.0258 -0.3550
 3312SOL     OW21571   0.531   0.530   4.609 -0.4325  0.1956 -0.3215
 3312SOL    HW121572   0.450   0.499   4.650 -0.2512  1.2873  0.8841
 3312SOL    HW221573   0.519   0.497   4.520 -0.5761 -1.3996  0.2951
 3313SOL     OW21574   2.218   0.098   8.397 -0.3531 -0.0882 -0.4822
 3313SOL    HW121575   2.243   0.178   8.349 -0.1922  1.5056  2.2411
 3313SOL    HW221576   2.303   0.088   8.439 -0.1518  1.1763 -0.5852
 3314SOL     OW21577   2.497   3.752   8.428  0.0162  0.0210 -0.5072
 3314SOL    HW121578   2.447   3.833   8.426 -0.2876 -0.1361  0.9787
 3314SOL    HW221579   2.540   3.760   8.513 -1.1764  1.2284 -0.0264
 3315SOL     OW21580   3.252   0.374  16.376  0.0715  0.0802 -0.1442
 3315SOL    HW121581   3.211   0.415  16.453  1.5337  0.5466  0.3777
 3315SOL    HW221582   3.177   0.348  16.323  0.2190  0.2378 -0.4297
 3316SOL     OW21583   2.454   3.933   9.390 -0.2683 -0.1334  0.6683
 3316SOL    HW121584   2.475   3.931   9.483 -1.5869  1.3329  0.9941
 3316SOL    HW221585   2.484   4.023   9.376  0.2684 -0.4353 -0.1322
 3317SOL     OW21586   3.104   2.829  10.987  0.1163 -0.5839  0.6510
 3317SOL    HW121587   3.024   2.778  10.973  2.0070 -3.1456 -0.8572
 3317SOL    HW221588   3.124   2.847  10.895  3.4239 -1.6953  1.1334
 3318SOL     OW21589   1.664   2.113   4.976 -0.4868  0.1523  0.5607
 3318SOL    HW121590   1.749   2.095   5.015 -0.5297  1.0700  1.0672
 3318SOL    HW221591   1.694   2.130   4.887  2.4846  1.4199  1.8383
 3319SOL     OW21592   3.298   1.295   7.284  0.1707  0.8329 -0.8726
 3319SOL    HW121593   3.233   1.323   7.349  1.1273  0.3125  0.3136
 3319SOL    HW221594   3.309   1.376   7.233  0.4647  0.3350 -1.5952
 3320SOL     OW21595   2.941   4.054   0.343 -0.0515  0.6076  0.2750
 3320SOL    HW121596   2.999   4.111   0.292  0.8411  1.0508  1.7959
 3320SOL    HW221597   2.984   3.969   0.351 -0.3772  0.3874 -0.2630
 3321SOL     OW21598   2.849   0.783  15.499  1.5149  0.1500 -0.1515
 3321SOL    HW121599   2.935   0.755  15.466  1.3479 -0.1619 -0.3223
 3321SOL    HW221600   2.862   0.797  15.593  2.2194 -0.3963 -0.1624
 3322SOL     OW21601   2.065   0.045   1.863  0.0605 -0.2371 -0.3001
 3322SOL    HW121602   2.129   0.115   1.874  0.1237 -0.5217  1.0993
 3322SOL    HW221603   1.996   0.089   1.813  1.3914  1.0193 -1.0257
 3323SOL     OW21604   0.800   1.274   7.389 -0.4452  0.1361  0.1005
 3323SOL    HW121605   0.764   1.230   7.312  1.0095  2.1168 -1.7421
 3323SOL    HW221606   0.840   1.199   7.432  2.5921  2.5570  1.5139
 3324SOL     OW21607   0.875   4.586   9.061 -0.3176  0.8258 -0.4823
 3324SOL    HW121608   0.948   4.601   9.001  1.1893 -1.0378  0.8765
 3324SOL    HW221609   0.898   4.641   9.136  0.0684  0.5182 -0.3716
 3325SOL     OW21610   3.460   3.976   6.429 -0.1059  0.2597  0.0089
 3325SOL    HW121611   3.494   3.905   6.375  0.1201 -0.5570  1.2301
 3325SOL    HW221612   3.503   3.954   6.512 -0.4642 -4.5630 -1.0740
 3326SOL     OW21613   2.012   1.324   4.269 -0.0812  0.8161 -0.3249
 3326SOL    HW121614   2.100   1.358   4.250  0.8293 -1.8667 -0.8750
 3326SOL    HW221615   1.954   1.354   4.199  0.1041 -0.1189 -0.8709
 3327SOL     OW21616   4.029   3.637   6.298  0.4137  0.5171  0.3897
 3327SOL    HW121617   4.014   3.709   6.236 -0.8724 -1.3612 -1.4997
 3327SOL    HW221618   4.094   3.582   6.255 -0.8190 -0.8149  0.2433
 3328SOL     OW21619   1.875   0.868  14.803 -0.1812 -0.2649  0.1595
 3328SOL    HW121620   1.876   0.958  14.836  0.1761 -0.8531  1.7526
 3328SOL    HW221621   1.874   0.872  14.707 -0.2110 -2.3534  0.0792
 3329SOL     OW21622   0.657   0.473   7.373  0.4404 -0.8820 -0.5905
 3329SOL    HW121623   0.647   0.566   7.393  1.0889 -0.9496  0.0804
 3329SOL    HW221624   0.595   0.458   7.302  0.0950  0.0857 -0.4810
 3330SOL     OW21625   4.530   4.630   4.922  0.0668  0.1900  0.5641
 3330SOL    HW121626   4.547   4.558   4.984  4.1547  0.9514  0.3153
 3330SOL    HW221627   4.530   4.705   4.981 -0.4435 -0.1515  1.0018
 3331SOL     OW21628   2.267   0.158   9.344 -0.4299 -0.0787  0.4930
 3331SOL    HW121629   2.203   0.178   9.413 -1.8321 -0.7448 -0.6230
 3331SOL    HW221630   2.219   0.176   9.263 -0.9363  0.4506  0.9152
 3332SOL     OW21631   4.614   0.208  17.371  0.2350 -0.2834 -0.1078
 3332SOL    HW121632   4.652   0.227  17.456  2.3142  0.0664 -1.1243
 3332SOL    HW221633   4.541   0.145  17.373 -0.3461  0.4189  0.5305
 3333SOL     OW21634   2.690   0.705   2.288  0.0451  1.0620  0.0728
 3333SOL    HW121635   2.675   0.625   2.338  0.5921  0.1015 -1.3080
 3333SOL    HW221636   2.770   0.681   2.241  0.9440 -0.4524  2.3539
 3334SOL     OW21637   0.009   0.168  14.361 -0.1541 -0.1171 -0.0761
 3334SOL    HW121638   4.728   0.105  14.431  1.2871 -1.1887 -0.7427
 3334SOL    HW221639   0.103   0.156  14.351 -0.2439  0.0778 -1.1132
 3335SOL     OW21640   0.856   1.196   9.324  0.0223 -0.5001 -0.0871
 3335SOL    HW121641   0.821   1.110   9.347 -1.1245  0.6386  2.3099
 3335SOL    HW221642   0.941   1.186   9.366 -0.0501  0.8351  0.3715
 3336SOL     OW21643   0.636   4.537   7.478  0.6983 -0.4613  0.1880
 3336SOL    HW121644   0.649   4.446   7.501 -1.2658 -0.9029 -0.4439
 3336SOL    HW221645   0.667   4.575   7.560 -2.8578 -0.0150  1.3583
 3337SOL     OW21646   0.780   0.280  10.832  0.1201  0.2813 -0.2726
 3337SOL    HW121647   0.830   0.209  10.872 -0.6927 -0.6834 -0.9509
 3337SOL    HW221648   0.789   0.334  10.910 -0.5394  1.2220 -0.8421
 3338SOL     OW21649   0.473   4.019   7.733 -0.1205  0.7292 -0.0231
 3338SOL    HW121650   0.545   4.041   7.792  0.4694  0.7448 -0.7415
 3338SOL    HW221651   0.475   3.924   7.717 -0.1704  1.0673 -2.0155
 3339SOL     OW21652   3.283   1.902   8.305  0.0792  0.3599 -0.0753
 3339SOL    HW121653   3.305   1.963   8.375 -1.3026 -1.4879  1.9787
 3339SOL    HW221654   3.257   1.967   8.239 -2.4615  1.0659  1.6073
 3340SOL     OW21655   1.967   2.703   8.883  0.1481  0.4006 -0.4463
 3340SOL    HW121656   1.953   2.794   8.857 -2.0757  0.1861  0.0271
 3340SOL    HW221657   2.024   2.678   8.811  0.9178 -0.6636  0.5354
 3341SOL     OW21658   1.440   1.715   6.808 -0.0024 -0.0268  0.1506
 3341SOL    HW121659   1.468   1.789   6.753  0.2376 -0.3183 -0.1177
 3341SOL    HW221660   1.389   1.758   6.876  0.7401 -0.6631  1.1024
 3342SOL     OW21661   3.966   3.366  12.154 -0.4410  0.3956  0.1597
 3342SOL    HW121662   3.884   3.401  12.188 -0.0057  0.7885  0.8086
 3342SOL    HW221663   4.021   3.437  12.188 -1.8744  1.5037  0.1735
 3343SOL     OW21664   3.082   3.136  12.663  0.3085 -0.5957  0.2750
 3343SOL    HW121665   2.993   3.169  12.652  1.0693  1.4286  0.1511
 3343SOL    HW221666   3.065   3.045  12.685  0.4809 -0.9126 -0.9208
 3344SOL     OW21667   1.033   0.107   0.377 -0.3420 -0.4311  0.2582
 3344SOL    HW121668   1.058   0.187   0.330  1.7881 -1.2270  0.0510
 3344SOL    HW221669   1.098   0.096   0.446 -0.8285  1.2705  0.9814
 3345SOL     OW21670   0.748   3.204  11.134  0.1316  0.0296  0.2495
 3345SOL    HW121671   0.811   3.276  11.142  0.4069  0.0865 -2.4332
 3345SOL    HW221672   0.698   3.213  11.215  1.0765  0.0281  0.8302
 3346SOL     OW21673   2.328   2.461  10.631 -0.2320  0.0994  0.4512
 3346SOL    HW121674   2.278   2.541  10.646  2.1623  1.8037 -0.5796
 3346SOL    HW221675   2.321   2.451  10.536 -1.8926  0.6395  0.5222
 3347SOL     OW21676   0.509   4.399   4.312 -0.3329  0.1672 -0.5875
 3347SOL    HW121677   0.460   4.323   4.280 -1.2210  0.8178 -0.8106
 3347SOL    HW221678   0.535   4.383   4.402  0.9723 -0.3990 -1.0642
 3348SOL     OW21679   2.673   1.552   8.699 -0.3335 -0.0466 -0.5936
 3348SOL    HW121680   2.644   1.642   8.681 -1.4240 -0.1789  0.5162
 3348SOL    HW221681   2.640   1.556   8.789 -1.3622 -0.2208 -0.9684
 3349SOL     OW21682   2.064   3.372   8.896  0.0977  0.2178 -0.0153
 3349SOL    HW121683   2.030   3.368   8.807 -0.1197  0.9819  0.0285
 3349SOL    HW221684   2.124   3.444   8.878  0.0881  0.0481 -0.7172
 3350SOL     OW21685   2.315   3.922   2.115  0.7397 -0.1996 -0.6641
 3350SOL    HW121686   2.296   3.832   2.141  3.5971 -0.4754  0.3997
 3350SOL    HW221687   2.311   3.963   2.201  0.0143 -0.0166 -0.7808
 3351SOL     OW21688   2.338   2.116   5.044 -0.2414 -0.1340 -0.5635
 3351SOL    HW121689   2.299   2.196   5.011 -3.1213 -1.9641 -1.6321
 3351SOL    HW221690   2.290   2.057   4.985 -0.6002 -0.0784 -0.3245
 3352SOL     OW21691   3.893   3.214   0.486 -0.7235 -0.1888  0.8052
 3352SOL    HW121692   3.818   3.273   0.485  0.1313  0.8602 -1.4052
 3352SOL    HW221693   3.957   3.267   0.438 -0.6747 -0.4699  0.5646
 3353SOL     OW21694   0.961   0.266  13.465 -0.2818  0.0905  0.4736
 3353SOL    HW121695   1.028   0.241  13.529  0.4364  0.0507 -0.2884
 3353SOL    HW221696   0.978   0.201  13.397 -0.9834 -0.1786  0.5580
 3354SOL     OW21697   3.254   0.739   8.358 -0.1678  0.2980  0.1778
 3354SOL    HW121698   3.327   0.793   8.328 -0.6554 -1.0354 -3.4400
 3354SOL    HW221699   3.236   0.786   8.439  1.0410  1.1672 -0.0579
 3355SOL     OW21700   1.519   3.018  14.887  0.7157  0.5388  0.2230
 3355SOL    HW121701   1.597   3.045  14.838  0.5142  1.7999  0.6070
 3355SOL    HW221702   1.456   2.998  14.817  0.4272 -0.2167  0.6897
 3356SOL     OW21703   1.627   0.289   1.936  0.0168  0.2949  0.6436
 3356SOL    HW121704   1.708   0.269   1.889 -1.5053 -0.3038 -1.7499
 3356SOL    HW221705   1.595   0.199   1.944 -0.8716  0.6341  0.9428
 3357SOL     OW21706   0.899   0.017   9.285  0.2180  0.6188  0.1632
 3357SOL    HW121707   0.817   4.703   9.298  0.7286 -0.6499 -1.4393
 3357SOL    HW221708   0.946   0.001   9.367 -0.4180  1.7457  0.7580
 3358SOL     OW21709   2.311   2.852  11.216  0.4445 -0.6931  0.2557
 3358SOL    HW121710   2.400   2.822  11.233  0.6566  0.6758  1.6043
 3358SOL    HW221711   2.325   2.947  11.217  1.0043 -0.7848  0.9915
 3359SOL     OW21712   3.083   0.424  17.656 -0.3893 -0.0752  0.2735
 3359SOL    HW121713   3.108   0.447  17.566  1.1417  1.5759  1.1159
 3359SOL    HW221714   3.131   0.500  17.690  1.9505 -0.4132 -2.2228
 3360SOL     OW21715   4.237   0.553   0.421  0.2535 -0.2933  0.0549
 3360SOL    HW121716   4.163   0.492   0.427 -0.7593  0.6044 -3.1997
 3360SOL    HW221717   4.215   0.615   0.351 -3.3908 -0.3235  1.1838
 3361SOL     OW21718   4.576   1.723  10.619 -0.1208 -0.4998 -0.0575
 3361SOL    HW121719   4.532   1.685  10.695 -0.1173  0.4058  0.3936
 3361SOL    HW221720   4.622   1.653  10.573 -0.0914 -0.3553 -0.2506
 3362SOL     OW21721   4.170   2.317   4.918  0.6226 -0.3018 -0.3787
 3362SOL    HW121722   4.227   2.361   4.982 -1.6818  1.2168  0.6486
 3362SOL    HW221723   4.130   2.250   4.973 -0.2608  2.0397  1.8480
 3363SOL     OW21724   3.855   1.665   9.961 -0.1986 -0.2353  0.5856
 3363SOL    HW121725   3.822   1.718   9.888  0.7431 -1.4028 -0.6829
 3363SOL    HW221726   3.929   1.632   9.911 -0.1011  0.6823  0.1124
 3364SOL     OW21727   0.551   4.179   8.322  0.3559 -0.4710 -0.0020
 3364SOL    HW121728   0.510   4.236   8.257 -0.0602 -0.5523  0.1871
 3364SOL    HW221729   0.613   4.142   8.259 -0.3764  0.2603 -1.1672
 3365SOL     OW21730   3.291   1.748   3.517 -0.3445 -0.3421  0.2301
 3365SOL    HW121731   3.282   1.840   3.541  3.7525  0.2186 -0.4021
 3365SOL    HW221732   3.270   1.757   3.424 -0.3888 -0.3740  0.2371
 3366SOL     OW21733   2.603   2.876   4.006  0.1774 -0.0124 -0.5562
 3366SOL    HW121734   2.698   2.873   4.001  0.2460 -0.2274  0.9322
 3366SOL    HW221735   2.592   2.965   3.971 -2.8355 -1.0731 -2.3865
 3367SOL     OW21736   3.159   3.697   7.002  0.1274 -0.2289  0.0739
 3367SOL    HW121737   3.209   3.694   7.084  1.6018 -0.2431 -0.8481
 3367SOL    HW221738   3.225   3.733   6.943 -2.2953  2.8425 -0.7899
 3368SOL     OW21739   2.655   1.456  14.454  1.0729 -0.4810 -0.6539
 3368SOL    HW121740   2.748   1.464  14.474  0.7661 -1.3816  1.1176
 3368SOL    HW221741   2.619   1.408  14.529 -0.0551  1.0768 -0.1990
 3369SOL     OW21742   1.425   1.588   7.669  0.2215 -0.6371 -0.5025
 3369SOL    HW121743   1.376   1.559   7.592  0.4268 -2.4877  0.0635
 3369SOL    HW221744   1.482   1.513   7.686 -0.9812 -0.8713  2.5154
 3370SOL     OW21745   0.939   4.313   8.113 -0.5764  0.1321 -0.0831
 3370SOL    HW121746   0.936   4.352   8.201 -0.2034  3.1697 -1.4207
 3370SOL    HW221747   0.875   4.365   8.064 -0.1583  0.4416 -0.2981
 3371SOL     OW21748   3.791   2.344  15.389  0.9893  0.1276 -0.7503
 3371SOL    HW121749   3.832   2.258  15.379 -1.2931 -0.9815 -0.4893
 3371SOL    HW221750   3.834   2.400  15.324 -0.5073  1.6600 -0.4136
 3372SOL     OW21751   0.219   3.796   2.046  0.1835  0.3123  0.2332
 3372SOL    HW121752   0.195   3.771   1.957  0.5111 -0.9279  0.4961
 3372SOL    HW221753   0.162   3.740   2.099  0.4072  1.4170  1.6666
 3373SOL     OW21754   1.316   3.540   0.248 -0.1396 -0.4354 -0.1490
 3373SOL    HW121755   1.334   3.558   0.156  0.9752 -1.1883 -0.0837
 3373SOL    HW221756   1.270   3.456   0.242  1.4996 -1.2582 -1.1028
 3374SOL     OW21757   0.148   2.334   1.842  0.7310 -0.1494 -0.5140
 3374SOL    HW121758   0.120   2.318   1.932  0.6013  1.9030 -0.1763
 3374SOL    HW221759   0.094   2.405   1.808  0.2846 -0.8885 -1.3472
 3375SOL     OW21760   3.764   0.978   3.004 -0.2164  0.6868 -0.2555
 3375SOL    HW121761   3.698   0.944   2.944  0.0326  2.5839 -1.5812
 3375SOL    HW221762   3.722   0.959   3.088 -0.4607  1.4267 -0.2085
 3376SOL     OW21763   1.583   3.652  10.212 -0.0132 -0.1297 -0.5786
 3376SOL    HW121764   1.647   3.607  10.267  0.1893  1.5060  0.5121
 3376SOL    HW221765   1.620   3.636  10.125 -0.7960  0.6598 -1.0647
 3377SOL     OW21766   0.741   2.384  14.865 -0.7081 -0.0190  0.6259
 3377SOL    HW121767   0.674   2.427  14.919 -2.0075 -1.0276 -0.1644
 3377SOL    HW221768   0.693   2.333  14.800 -1.5621  0.3263  0.9718
 3378SOL     OW21769   1.315   2.968   3.607 -0.3052 -0.2568 -0.6091
 3378SOL    HW121770   1.351   2.879   3.608 -2.0842 -0.9727 -0.1063
 3378SOL    HW221771   1.284   2.978   3.517 -0.6069 -0.2927 -0.5091
 3379SOL     OW21772   2.287   4.405  11.570 -0.9012 -0.2431 -0.3965
 3379SOL    HW121773   2.251   4.355  11.643  0.6093 -0.2145  0.3716
 3379SOL    HW221774   2.367   4.355  11.556 -0.2018  1.2445 -1.7410
 3380SOL     OW21775   3.659   0.579   6.684 -0.0917 -0.2711 -0.0259
 3380SOL    HW121776   3.579   0.553   6.729  0.4879  0.5402  1.4991
 3380SOL    HW221777   3.665   0.673   6.701  0.2200 -0.6094  1.7286
 3381SOL     OW21778   0.409   4.698  14.361  0.0294  0.6804 -0.5843
 3381SOL    HW121779   0.326   4.705  14.407 -0.4772 -1.7192 -1.1259
 3381SOL    HW221780   0.470   4.680  14.433 -1.1467 -1.1366 -0.0410
 3382SOL     OW21781   3.403   2.513  14.111 -0.5895 -0.4457  0.2297
 3382SOL    HW121782   3.492   2.531  14.082 -0.8355  0.9655  0.3604
 3382SOL    HW221783   3.357   2.585  14.069  0.5582  0.7788  1.0911
 3383SOL     OW21784   2.998   2.210   7.349  0.6311 -0.3989  0.4783
 3383SOL    HW121785   2.961   2.296   7.331 -1.1874 -1.3054 -0.0237
 3383SOL    HW221786   2.938   2.161   7.293  0.1433 -0.8250  1.3745
 3384SOL     OW21787   4.318   0.809   5.706 -0.4501  0.0371  0.0844
 3384SOL    HW121788   4.388   0.772   5.759 -1.7847 -1.3145  0.8996
 3384SOL    HW221789   4.278   0.727   5.676 -1.9111  0.9133 -0.3744
 3385SOL     OW21790   3.304   0.455   8.372  0.3111  0.3260 -0.0909
 3385SOL    HW121791   3.293   0.549   8.354  0.7861  0.2234 -0.9233
 3385SOL    HW221792   3.399   0.449   8.370  0.3431  0.5729  0.6346
 3386SOL     OW21793   4.358   4.516   2.355 -0.0797 -0.0533 -0.1997
 3386SOL    HW121794   4.324   4.576   2.288  1.4990  0.9280 -0.1096
 3386SOL    HW221795   4.436   4.481   2.314  0.3379  2.4032 -1.5162
 3387SOL     OW21796   0.846   4.071  15.463  0.3061  0.1465 -0.5022
 3387SOL    HW121797   0.869   4.158  15.431 -2.3152  1.0071 -0.0274
 3387SOL    HW221798   0.881   4.076  15.552 -0.8840  0.8767 -0.0838
 3388SOL     OW21799   4.090   3.243   2.261 -0.1808 -0.1198  0.3812
 3388SOL    HW121800   4.001   3.211   2.274  0.4877 -2.1141  0.0770
 3388SOL    HW221801   4.119   3.264   2.350  1.4174 -0.9227  0.0410
 3389SOL     OW21802   2.858   2.350   4.625 -0.2570  0.3437  0.3505
 3389SOL    HW121803   2.936   2.297   4.640 -0.2441  0.3757  0.3958
 3389SOL    HW221804   2.867   2.401   4.705  0.7676  0.5867  0.0854
 3390SOL     OW21805   1.832   1.360   6.837  0.1104 -0.2513 -0.4268
 3390SOL    HW121806   1.761   1.413   6.802  0.3782  0.7084  0.4699
 3390SOL    HW221807   1.914   1.399   6.806 -0.2234  0.4819 -0.3979
 3391SOL     OW21808   1.817   2.273  10.829  0.4743 -0.5432  0.2739
 3391SOL    HW121809   1.881   2.213  10.791  0.7091 -0.2790  0.2501
 3391SOL    HW221810   1.867   2.301  10.906 -0.0359 -1.3987  0.9120
 3392SOL     OW21811   1.356   1.265  14.848  0.5195  0.0769 -0.4916
 3392SOL    HW121812   1.414   1.238  14.777  0.1609  3.1869 -1.9265
 3392SOL    HW221813   1.409   1.244  14.926  0.9308  1.2226 -0.4664
 3393SOL     OW21814   4.432   0.149   3.661 -0.0337  0.3481 -0.1253
 3393SOL    HW121815   4.489   0.133   3.585  0.6795  1.1968  0.2323
 3393SOL    HW221816   4.462   0.235   3.689 -0.5759  0.0209  1.4214
 3394SOL     OW21817   3.353   1.368  12.374  0.3147 -0.4185  0.3629
 3394SOL    HW121818   3.314   1.370  12.287  1.8542 -2.8022 -0.3743
 3394SOL    HW221819   3.305   1.297  12.415 -0.3737 -1.3442 -2.0772
 3395SOL     OW21820   4.543   4.603  12.010 -0.6856  0.0861 -0.0114
 3395SOL    HW121821   4.458   4.593  12.054 -0.6111 -1.8726 -0.2800
 3395SOL    HW221822   4.534   4.527  11.952 -2.0117 -0.3788  0.7962
 3396SOL     OW21823   1.818   3.859   6.063 -0.3849 -0.6247  0.5134
 3396SOL    HW121824   1.849   3.769   6.050  0.2650 -0.4405  0.7552
 3396SOL    HW221825   1.723   3.848   6.066 -0.6676  1.8659  0.2949
 3397SOL     OW21826   3.470   0.911   6.194  0.4204 -0.2583 -0.3341
 3397SOL    HW121827   3.500   0.993   6.156  2.2866 -0.6741  0.2617
 3397SOL    HW221828   3.545   0.870   6.237  2.6794  1.6540 -2.4656
 3398SOL     OW21829   1.711   0.397  11.041  0.2216  0.6035 -1.1248
 3398SOL    HW121830   1.644   0.389  10.973  0.1249 -1.3125 -0.8016
 3398SOL    HW221831   1.653   0.436  11.106  2.8715  2.3906  0.1523
 3399SOL     OW21832   3.614   0.796  16.108 -0.4962 -0.2393 -0.7042
 3399SOL    HW121833   3.653   0.758  16.187 -2.2218  3.4394  1.9031
 3399SOL    HW221834   3.570   0.872  16.146 -2.8105 -1.0866 -1.7183
 3400SOL     OW21835   2.849   1.801  17.542  0.2360  0.0111  0.5013
 3400SOL    HW121836   2.854   1.807  17.638 -0.4407  0.1219  0.5323
 3400SOL    HW221837   2.937   1.771  17.520  0.8337  2.0243  0.1423
 3401SOL     OW21838   0.114   2.821  10.238  0.1727  0.3155  0.0075
 3401SOL    HW121839   0.172   2.748  10.259  2.5014  2.8622  2.4180
 3401SOL    HW221840   0.110   2.870  10.320 -0.3053  0.5641 -0.1641
 3402SOL     OW21841   3.032   1.767  14.590 -0.1056  0.1631 -0.0312
 3402SOL    HW121842   2.992   1.802  14.670 -2.6263  1.3488 -1.7869
 3402SOL    HW221843   3.034   1.848  14.538 -2.6421 -1.1877 -2.2359
 3403SOL     OW21844   2.460   1.253   2.707  0.3843 -0.0927 -0.0129
 3403SOL    HW121845   2.384   1.303   2.735 -0.2155 -1.7928  1.4311
 3403SOL    HW221846   2.423   1.184   2.651 -0.2802  1.5037 -1.5231
 3404SOL     OW21847   1.094   0.254  15.019  0.8003  0.0602  0.0148
 3404SOL    HW121848   1.162   0.279  15.081  0.0215 -0.3057  1.0047
 3404SOL    HW221849   1.089   0.159  15.009 -1.3912  0.0898  0.7437
 3405SOL     OW21850   3.444   3.314  14.704 -0.1718 -0.0998 -0.0911
 3405SOL    HW121851   3.379   3.275  14.763  0.2122 -1.7283 -0.7489
 3405SOL    HW221852   3.440   3.249  14.634  1.4756  2.4264 -2.5268
 3406SOL     OW21853   4.142   1.834   2.306 -0.0768 -0.5043 -0.3098
 3406SOL    HW121854   4.219   1.798   2.263  0.2468 -1.4540  1.0774
 3406SOL    HW221855   4.160   1.928   2.307 -2.3286 -0.1132  2.7912
 3407SOL     OW21856   2.476   4.220   8.314 -0.7186 -0.3457 -0.0890
 3407SOL    HW121857   2.494   4.260   8.399  0.7350 -0.9816 -0.1089
 3407SOL    HW221858   2.449   4.297   8.263  3.2068  0.0040 -1.6642
 3408SOL     OW21859   1.629   2.367   2.033 -0.1029  0.2272 -0.0116
 3408SOL    HW121860   1.698   2.302   2.023 -0.6477 -0.4603  0.7708
 3408SOL    HW221861   1.655   2.427   1.962 -1.7943  0.8517 -0.1264
 3409SOL     OW21862   1.306   4.102  13.654 -0.4437 -0.2119  0.1770
 3409SOL    HW121863   1.285   4.035  13.589  2.7544  0.8483 -1.9598
 3409SOL    HW221864   1.332   4.054  13.733  2.9558  1.8236  0.3059
 3410SOL     OW21865   1.457   0.850  16.803  0.1055  0.0840 -0.0915
 3410SOL    HW121866   1.516   0.775  16.791  0.8167  0.7672 -0.8409
 3410SOL    HW221867   1.505   0.914  16.752 -0.4668 -0.1707 -0.9601
 3411SOL     OW21868   4.277   2.664   1.195  0.1054 -0.0823  0.3499
 3411SOL    HW121869   4.356   2.713   1.171  0.1590 -0.8715 -1.0862
 3411SOL    HW221870   4.284   2.582   1.148  0.0905  0.8085 -1.2082
 3412SOL     OW21871   2.717   2.698   1.743 -0.2723  0.4569  0.4700
 3412SOL    HW121872   2.640   2.744   1.709 -1.0595  1.3985  3.5260
 3412SOL    HW221873   2.668   2.623   1.778 -0.2467  1.3723  2.4879
 3413SOL     OW21874   0.403   1.814   2.311  0.6209 -0.0052 -0.2874
 3413SOL    HW121875   0.310   1.809   2.290  0.6784 -1.5159 -0.1685
 3413SOL    HW221876   0.417   1.733   2.360 -1.4096 -1.7179 -2.5526
 3414SOL     OW21877   4.680   2.887   1.950  0.1443  0.3007  0.1815
 3414SOL    HW121878   4.642   2.866   2.035 -0.4395  2.1158  0.3841
 3414SOL    HW221879   0.035   2.857   1.962  0.1667 -0.0988 -1.0414
 3415SOL     OW21880   2.861   4.669   8.401  0.2661  0.0034  0.2317
 3415SOL    HW121881   2.893   0.023   8.418 -1.7824  1.0055 -1.2553
 3415SOL    HW221882   2.934   4.647   8.342  0.8986  1.4743  0.4668
 3416SOL     OW21883   3.389   3.309  13.170  0.0787 -0.3439 -0.1739
 3416SOL    HW121884   3.323   3.289  13.104 -1.8308 -0.4549  1.7811
 3416SOL    HW221885   3.347   3.300  13.255 -0.9249  2.0393 -0.4177
 3417SOL     OW21886   2.635   2.593   2.073  0.5833 -0.2217  0.6567
 3417SOL    HW121887   2.595   2.508   2.093  0.9685 -0.3948  0.7122
 3417SOL    HW221888   2.564   2.649   2.043 -1.6866 -3.1600  0.5178
 3418SOL     OW21889   4.274   0.427   3.467 -0.2168  0.1720 -0.1078
 3418SOL    HW121890   4.199   0.460   3.517  0.9021  0.9432  1.0860
 3418SOL    HW221891   4.234   0.403   3.384  0.1429 -0.5608 -0.0668
 3419SOL     OW21892   2.989   0.858   6.730 -0.3253  0.1485 -0.0450
 3419SOL    HW121893   2.902   0.819   6.741 -0.3638  0.0726 -0.6372
 3419SOL    HW221894   3.053   0.791   6.754 -0.4822 -0.4173 -1.2414
 3420SOL     OW21895   2.643   2.458   1.452 -0.2946 -0.2788  0.5134
 3420SOL    HW121896   2.602   2.457   1.539 -1.0769 -2.3934  0.1001
 3420SOL    HW221897   2.633   2.548   1.421  0.0901  0.4698  2.5332
 3421SOL     OW21898   0.348   2.754   4.105 -0.0898  0.1238  0.7592
 3421SOL    HW121899   0.257   2.772   4.129 -1.5221 -3.4799 -1.9700
 3421SOL    HW221900   0.346   2.761   4.009  0.3267 -1.5443  0.6379
 3422SOL     OW21901   1.776   4.612   9.696  0.4019  0.2387  0.1861
 3422SOL    HW121902   1.830   4.542   9.659  1.6089 -0.2023  2.8458
 3422SOL    HW221903   1.691   4.569   9.689  0.1203  0.6077  1.5299
 3423SOL     OW21904   4.664   1.999   5.897 -0.3945 -0.5217  0.2848
 3423SOL    HW121905   4.708   1.988   5.813  1.1169  0.2187  0.9659
 3423SOL    HW221906   4.597   1.932   5.894  0.6091 -1.4519 -1.1491
 3424SOL     OW21907   4.295   3.717   8.260  0.1734  0.2231  0.3316
 3424SOL    HW121908   4.275   3.798   8.308  0.0531 -0.0400  0.7248
 3424SOL    HW221909   4.367   3.748   8.205  0.2596 -0.9337 -0.1979
 3425SOL     OW21910   2.014   4.518   4.386  0.5375 -0.7324  0.4651
 3425SOL    HW121911   1.922   4.491   4.392 -0.5550  3.0133  0.8039
 3425SOL    HW221912   2.045   4.481   4.468  1.2617 -2.2873 -0.5056
 3426SOL     OW21913   2.125   3.629   2.609  0.3198 -0.4040 -0.6988
 3426SOL    HW121914   2.064   3.617   2.537 -0.9203 -0.7457  0.3973
 3426SOL    HW221915   2.082   3.705   2.648  0.2511 -0.9269  0.2423
 3427SOL     OW21916   3.273   3.948   0.006  0.0917  0.1826 -0.0469
 3427SOL    HW121917   3.248   3.863  17.704 -2.1361  1.7019 -1.9737
 3427SOL    HW221918   3.305   4.002  17.670 -2.0774 -0.1871 -1.2985
 3428SOL     OW21919   1.492   0.571   3.349 -0.0965 -0.4980  0.3945
 3428SOL    HW121920   1.469   0.478   3.337  1.1899 -0.5365 -1.8064
 3428SOL    HW221921   1.457   0.604   3.266  1.0750  2.2897  1.0020
 3429SOL     OW21922   1.022   4.659   2.719 -0.0478 -0.0921  0.3802
 3429SOL    HW121923   0.931   4.631   2.724  0.4661 -1.7697  0.4611
 3429SOL    HW221924   1.062   4.575   2.744 -0.8373 -0.9054 -1.0551
 3430SOL     OW21925   0.965   2.618   9.759 -0.5459 -0.1981 -0.1738
 3430SOL    HW121926   1.058   2.633   9.777 -0.8220  0.7530  0.4817
 3430SOL    HW221927   0.966   2.525   9.781  0.7710 -0.5458 -1.6800
 3431SOL     OW21928   2.181   3.535   4.926  0.4524 -0.1971  0.2884
 3431SOL    HW121929   2.233   3.575   4.856  0.9289  0.6604  1.1284
 3431SOL    HW221930   2.152   3.454   4.884 -0.7823  1.3982 -1.9477
 3432SOL     OW21931   3.229   1.905  11.329  0.2213  0.1674  0.2721
 3432SOL    HW121932   3.266   1.941  11.248  0.3339  0.4071  0.4304
 3432SOL    HW221933   3.294   1.837  11.348 -0.7027 -0.2634  1.9103
 3433SOL     OW21934   3.011   1.194   3.594 -0.0151  0.3683  0.0424
 3433SOL    HW121935   3.022   1.288   3.582  0.4875  0.3529  0.3943
 3433SOL    HW221936   3.103   1.172   3.579 -0.4493 -1.5382  0.1321
 3434SOL     OW21937   0.123   2.870   6.124  0.1733 -0.2482  0.0735
 3434SOL    HW121938   0.066   2.825   6.186 -2.2140  1.1489 -1.0938
 3434SOL    HW221939   0.097   2.961   6.134  0.2035 -0.2242 -0.0671
 3435SOL     OW21940   0.779   0.441   5.863 -0.0822  0.1170 -0.4484
 3435SOL    HW121941   0.805   0.356   5.898 -0.0344  0.0739 -0.5860
 3435SOL    HW221942   0.725   0.476   5.933  2.3792  1.3540  0.8236
 3436SOL     OW21943   0.834   1.015   2.048 -0.0331  0.2584  0.2280
 3436SOL    HW121944   0.889   1.093   2.040 -1.7282  1.4586  0.1422
 3436SOL    HW221945   0.750   1.045   2.012  0.3975  0.8758 -0.2620
 3437SOL     OW21946   3.748   0.681   8.538  0.3893 -0.0660  0.1994
 3437SOL    HW121947   3.813   0.738   8.578  0.1142 -0.4548  1.1891
 3437SOL    HW221948   3.665   0.726   8.551  0.2449  0.1694 -1.4289
 3438SOL     OW21949   3.549   4.214   7.422 -0.2077  0.0984  0.0652
 3438SOL    HW121950   3.554   4.119   7.424  2.2698  0.2711  2.1813
 3438SOL    HW221951   3.511   4.227   7.335 -1.0755  0.3739  0.4835
 3439SOL     OW21952   4.469   1.526   2.634 -0.1847  0.3225 -0.2667
 3439SOL    HW121953   4.533   1.586   2.597  1.4122 -0.6782  0.8588
 3439SOL    HW221954   4.392   1.558   2.588 -0.4957 -1.2900 -0.8763
 3440SOL     OW21955   4.387   4.538   3.130 -0.4005  0.0740 -0.6690
 3440SOL    HW121956   4.302   4.500   3.107 -1.5224  0.8063  2.2146
 3440SOL    HW221957   4.440   4.517   3.053  3.8492 -0.1092  2.2979
 3441SOL     OW21958   2.688   0.268   7.068 -0.0827 -0.3248 -0.0074
 3441SOL    HW121959   2.656   0.350   7.105  1.4119  0.2752 -0.0836
 3441SOL    HW221960   2.681   0.211   7.145 -1.8962  1.6091  1.2571
 3442SOL     OW21961   2.082   3.675   8.619  0.6575  0.1906 -0.4886
 3442SOL    HW121962   2.174   3.701   8.622  0.6372  0.3222 -1.0282
 3442SOL    HW221963   2.042   3.742   8.675  2.1155 -0.0837  0.8557
 3443SOL     OW21964   1.123   4.023  17.088 -0.1479  0.4851 -0.2705
 3443SOL    HW121965   1.170   3.943  17.112  0.4513  0.9931  0.2543
 3443SOL    HW221966   1.103   4.058  17.175  1.1965 -2.8112  1.4000
 3444SOL     OW21967   0.574   0.325   2.666  0.0974 -0.2058  0.2224
 3444SOL    HW121968   0.509   0.321   2.596  0.0154  2.1309  0.1719
 3444SOL    HW221969   0.609   0.236   2.659  1.4351  0.4585 -1.6415
 3445SOL     OW21970   3.774   4.027  13.283 -0.1582 -0.4646 -0.0243
 3445SOL    HW121971   3.715   4.063  13.217 -2.2247 -0.5921  1.7576
 3445SOL    HW221972   3.790   4.107  13.334  1.4712 -0.4690 -0.5270
 3446SOL     OW21973   2.215   2.954   1.178  0.4609 -0.3805  0.5294
 3446SOL    HW121974   2.277   3.009   1.227 -0.2510  0.7078  0.2256
 3446SOL    HW221975   2.142   2.943   1.239  0.7818 -1.6018  0.6955
 3447SOL     OW21976   1.421   0.429   5.772  0.1610 -0.0059  0.2613
 3447SOL    HW121977   1.408   0.408   5.679  1.0009  1.1889 -0.1131
 3447SOL    HW221978   1.465   0.347   5.795  2.7815  1.5848  0.7950
 3448SOL     OW21979   4.166   0.458   6.988 -0.0521 -0.4657  0.1699
 3448SOL    HW121980   4.183   0.375   7.033  1.7890 -1.1304 -1.7154
 3448SOL    HW221981   4.170   0.430   6.896  0.3329  0.3903 -0.0721
 3449SOL     OW21982   0.331   2.465  12.816  0.7520 -0.0923  0.2833
 3449SOL    HW121983   0.338   2.542  12.759  1.9462 -0.7242 -0.4247
 3449SOL    HW221984   0.245   2.437  12.784 -0.1920  0.9706  1.8938
 3450SOL     OW21985   0.814   0.958   4.469  0.4616  0.4197  0.1408
 3450SOL    HW121986   0.821   1.046   4.431  1.1505  0.3630  0.1425
 3450SOL    HW221987   0.749   0.982   4.535  0.3888 -1.0080  0.5909
 3451SOL     OW21988   4.383   3.632   5.003 -0.2389 -0.5600  0.5661
 3451SOL    HW121989   4.463   3.618   5.054  0.7065  0.4347 -0.6376
 3451SOL    HW221990   4.340   3.546   5.006 -0.7133 -0.3502 -0.2451
 3452SOL     OW21991   1.361   2.366   2.069 -0.3042  0.0892 -0.3516
 3452SOL    HW121992   1.300   2.373   1.996 -0.4123 -1.7441 -0.4466
 3452SOL    HW221993   1.449   2.349   2.036  1.2067  3.4714  1.9098
 3453SOL     OW21994   4.103   2.232  10.603  0.3809  0.6192 -0.1507
 3453SOL    HW121995   4.030   2.179  10.570  0.7449  0.3826 -0.5725
 3453SOL    HW221996   4.101   2.211  10.697 -0.1025  1.2461 -0.0201
 3454SOL     OW21997   4.684   4.531   8.481  0.0300 -0.1117  0.2922
 3454SOL    HW121998   4.618   4.573   8.425 -0.3421 -2.5253 -1.0499
 3454SOL    HW221999   4.702   4.602   8.543 -1.9283 -1.9629  2.9501
 3455SOL     OW22000   2.585   1.921  10.241  0.2928 -0.4745  0.2432
 3455SOL    HW122001   2.524   1.928  10.168  1.8750 -0.9023 -1.1326
 3455SOL    HW222002   2.660   1.909  10.182  1.1225 -0.7903  1.3638
 3456SOL     OW22003   0.671   1.940  16.916  0.0040  0.0683 -0.0176
 3456SOL    HW122004   0.741   1.895  16.965 -0.0656  0.3932  0.3767
 3456SOL    HW222005   0.725   1.999  16.863  0.1547  1.0251  1.2004
 3457SOL     OW22006   4.175   3.324   2.005 -0.5587 -0.5127  0.1249
 3457SOL    HW122007   4.134   3.290   2.085 -0.5022  1.6534  1.0627
 3457SOL    HW222008   4.097   3.334   1.950 -0.7903 -2.9528 -0.0309
 3458SOL     OW22009   0.638   1.018   2.671 -0.1208 -0.0415 -0.0278
 3458SOL    HW122010   0.622   0.924   2.678 -0.2403 -0.1189 -1.2057
 3458SOL    HW222011   0.575   1.039   2.602  0.8344  0.9872 -0.5709
 3459SOL     OW22012   1.960   3.810   7.604 -0.5287 -0.3664  0.1536
 3459SOL    HW122013   1.881   3.809   7.551 -0.3405  0.3303 -0.1313
 3459SOL    HW222014   1.938   3.753   7.678 -1.6073  0.2462  0.2883
 3460SOL     OW22015   4.265   0.834   5.297 -0.4571  0.3829  0.0208
 3460SOL    HW122016   4.278   0.772   5.225 -0.6256  1.0815 -0.6147
 3460SOL    HW222017   4.347   0.812   5.341  1.2514  1.4992 -2.6258
 3461SOL     OW22018   2.369   3.108   5.715 -0.4904 -0.0719  0.2829
 3461SOL    HW122019   2.282   3.068   5.722 -0.3982 -0.2373  0.4894
 3461SOL    HW222020   2.418   3.037   5.756 -0.8367 -1.6430 -2.0518
 3462SOL     OW22021   2.355   4.129   7.925  0.7060  0.5040 -0.5444
 3462SOL    HW122022   2.389   4.048   7.963 -1.3380  1.1845  2.8250
 3462SOL    HW222023   2.261   4.113   7.924  0.7773  0.0514 -0.0791
 3463SOL     OW22024   3.662   0.680  14.467 -0.5801 -0.0923 -0.4772
 3463SOL    HW122025   3.636   0.762  14.427 -0.1569  0.8947  1.2773
 3463SOL    HW222026   3.580   0.632  14.456 -1.5198  1.5785 -0.7577
 3464SOL     OW22027   3.212   1.847   3.256 -0.0288 -0.3214  0.1005
 3464SOL    HW122028   3.140   1.784   3.268  0.2560 -0.4383  1.1792
 3464SOL    HW222029   3.278   1.803   3.203 -0.6970 -0.8681 -0.2789
 3465SOL     OW22030   1.984   2.370  11.979  0.2136  0.1177 -0.7630
 3465SOL    HW122031   2.063   2.326  12.009 -0.3932 -0.4768 -0.0466
 3465SOL    HW222032   1.924   2.296  11.975  1.1742 -0.6736 -0.3301
 3466SOL     OW22033   3.509   0.397   3.529  0.3010 -0.3712  0.1104
 3466SOL    HW122034   3.428   0.447   3.517  1.2452  1.1404  0.0249
 3466SOL    HW222035   3.570   0.438   3.467  0.0576  1.4768  1.0901
 3467SOL     OW22036   3.414   0.121   6.318  0.0662  0.3790 -0.2376
 3467SOL    HW122037   3.394   0.155   6.231  2.3377 -1.9371 -1.6620
 3467SOL    HW222038   3.351   0.173   6.368  0.8319  2.6853 -1.6894
 3468SOL     OW22039   2.930   0.599   6.921 -0.3834 -0.0472  0.5488
 3468SOL    HW122040   2.870   0.673   6.922  2.3709  2.1586 -0.9380
 3468SOL    HW222041   2.879   0.535   6.871 -1.0960  0.1529  1.0164
 3469SOL     OW22042   2.296   4.518   2.675  0.0850  0.0729 -0.9347
 3469SOL    HW122043   2.241   4.583   2.719  1.1032  1.1159 -1.1789
 3469SOL    HW222044   2.354   4.481   2.742 -1.0761 -1.3193 -0.7057
 3470SOL     OW22045   3.727   3.540   3.547  0.2288 -0.1474  0.7856
 3470SOL    HW122046   3.725   3.556   3.641  2.7863  2.3617  0.4282
 3470SOL    HW222047   3.634   3.548   3.525  1.1068  0.9269 -2.5346
 3471SOL     OW22048   2.927   0.296   9.209  0.4381 -0.1656 -0.3681
 3471SOL    HW122049   2.937   0.201   9.215 -1.1948 -0.3195 -0.1821
 3471SOL    HW222050   2.853   0.317   9.266 -1.1576  1.0505 -2.8847
 3472SOL     OW22051   1.265   1.432   3.025  0.4029  0.0423 -0.0754
 3472SOL    HW122052   1.199   1.419   2.957 -0.1068 -2.3810  0.8604
 3472SOL    HW222053   1.211   1.424   3.104  0.0403 -1.3708 -0.4528
 3473SOL     OW22054   1.473   2.857   4.871 -0.3344 -0.6542 -0.0639
 3473SOL    HW122055   1.449   2.797   4.942  0.8027 -0.6904  0.2897
 3473SOL    HW222056   1.486   2.806   4.791  1.0107 -1.5610  0.7391
 3474SOL     OW22057   3.950   4.391  13.797  0.7477  0.0067 -0.1351
 3474SOL    HW122058   4.028   4.439  13.822  0.8109 -1.2372  2.0530
 3474SOL    HW222059   3.951   4.388  13.701  0.5603 -1.2233 -0.0997
 3475SOL     OW22060   3.367   1.873   7.473  0.3201  0.3351 -0.6574
 3475SOL    HW122061   3.373   1.964   7.502 -0.8852  0.1103  0.2930
 3475SOL    HW222062   3.449   1.868   7.423  1.8055  0.3768  1.8061
 3476SOL     OW22063   1.521   3.735   4.197 -0.6575 -0.2703 -0.0766
 3476SOL    HW122064   1.528   3.659   4.138 -0.0213  0.6984 -1.2554
 3476SOL    HW222065   1.426   3.726   4.207 -0.3955 -0.9580  1.7944
 3477SOL     OW22066   2.494   1.396   8.589  0.5846 -0.0245  0.8593
 3477SOL    HW122067   2.569   1.452   8.605  2.1342 -1.6398 -0.7803
 3477SOL    HW222068   2.436   1.464   8.555 -1.2954 -1.4993  1.1216
 3478SOL     OW22069   0.580   2.460  13.000  0.1037 -0.6438 -0.0071
 3478SOL    HW122070   0.571   2.390  12.936 -0.5048 -0.2480 -0.3487
 3478SOL    HW222071   0.531   2.531  12.958  1.4742  0.0456 -0.4381
 3479SOL     OW22072   0.106   1.346   8.001 -0.3041  0.0500 -0.3834
 3479SOL    HW122073   0.103   1.357   7.905 -1.2021  1.8374 -0.1585
 3479SOL    HW222074   0.027   1.291   8.006  0.0765 -0.4787 -0.2737
 3480SOL     OW22075   2.348   4.233   4.511  0.6515 -0.1825  0.6633
 3480SOL    HW122076   2.263   4.275   4.503  0.8594  0.2842  0.9402
 3480SOL    HW222077   2.364   4.232   4.605 -0.9309 -0.3275  0.9255
 3481SOL     OW22078   2.251   0.110   5.385 -0.2274 -0.6296 -0.3099
 3481SOL    HW122079   2.160   0.117   5.415  0.3010  1.2301  0.8522
 3481SOL    HW222080   2.253   0.015   5.369  0.3464 -0.4982 -0.9923
 3482SOL     OW22081   1.643   4.206   4.584  0.2854 -0.7548 -0.3949
 3482SOL    HW122082   1.566   4.199   4.528 -1.0265 -0.2405  1.3307
 3482SOL    HW222083   1.619   4.135   4.644 -0.1058  1.2439  1.8386
 3483SOL     OW22084   4.003   2.847   8.442  0.2898 -0.0072 -0.5696
 3483SOL    HW122085   4.081   2.849   8.498 -1.3948 -0.2800  1.7885
 3483SOL    HW222086   3.959   2.773   8.485  0.4607 -0.5416 -1.3151
 3484SOL     OW22087   3.011   0.188  15.329  0.0756 -0.3233  0.3316
 3484SOL    HW122088   2.963   0.105  15.322 -0.0207 -0.2302 -0.1128
 3484SOL    HW222089   2.930   0.240  15.334  0.0466 -0.2513 -0.8716
 3485SOL     OW22090   2.815   2.810   1.990  0.3488 -0.0756  0.1409
 3485SOL    HW122091   2.776   2.807   1.902 -1.7027  0.0651  1.0587
 3485SOL    HW222092   2.772   2.739   2.037  2.1756 -1.3679 -0.1187
 3486SOL     OW22093   4.502   1.866   7.627  0.6469  0.8162  0.3152
 3486SOL    HW122094   4.426   1.923   7.643  0.1697  0.9146 -2.3908
 3486SOL    HW222095   4.472   1.814   7.553  0.4401  0.2549  0.7844
 3487SOL     OW22096   1.315   1.750  11.223  0.4405 -0.2156 -0.2837
 3487SOL    HW122097   1.237   1.702  11.250 -0.0880 -0.3553 -2.0662
 3487SOL    HW222098   1.285   1.787  11.140  2.5157 -0.0784 -0.9907
 3488SOL     OW22099   4.725   2.959  15.811 -0.3078 -0.2779  0.0523
 3488SOL    HW122100   0.042   2.913  15.744 -0.3372 -1.1872  0.6508
 3488SOL    HW222101   0.015   3.051  15.798 -2.3514  0.1053 -1.0263
 3489SOL     OW22102   0.562   0.258   0.351 -0.0525  0.3792 -0.4009
 3489SOL    HW122103   0.511   0.192   0.399 -2.8569  2.4530 -0.5382
 3489SOL    HW222104   0.595   0.202   0.281  0.4862  2.6072 -1.9003
 3490SOL     OW22105   3.801   3.642   1.450  0.0183 -0.4677  0.8214
 3490SOL    HW122106   3.794   3.575   1.518  0.8873 -0.1297  1.2510
 3490SOL    HW222107   3.731   3.617   1.391  0.8942  1.4561 -1.0372
 3491SOL     OW22108   3.113   2.554  10.778 -0.0559  0.5669 -0.5156
 3491SOL    HW122109   3.101   2.621  10.711 -3.2258 -0.0096 -0.5542
 3491SOL    HW222110   3.208   2.553  10.765  0.3754 -1.3486  2.7671
 3492SOL     OW22111   2.753   1.118   8.515 -0.4550 -0.0502 -0.1738
 3492SOL    HW122112   2.822   1.083   8.459 -0.8539 -0.7422 -0.2293
 3492SOL    HW222113   2.800   1.179   8.572 -2.2446  0.7080  0.4972
 3493SOL     OW22114   1.324   4.671   7.382 -0.1310 -0.4085 -0.4724
 3493SOL    HW122115   1.314   4.581   7.414  3.6872  0.1230  2.3592
 3493SOL    HW222116   1.289   4.658   7.294  0.6210  1.4179 -1.0557
 3494SOL     OW22117   3.150   2.681   8.350  0.5219  0.3763 -0.4987
 3494SOL    HW122118   3.124   2.678   8.442  1.1772  2.0311 -0.2552
 3494SOL    HW222119   3.084   2.618   8.322 -1.3134  2.6300 -1.2670
 3495SOL     OW22120   1.650   3.278   9.519  0.8012  0.0772  0.4747
 3495SOL    HW122121   1.689   3.280   9.431 -0.5423  0.6944 -0.1017
 3495SOL    HW222122   1.660   3.183   9.529  1.3772  0.0828 -0.0378
 3496SOL     OW22123   3.299   0.507   0.225  0.1234 -0.1625 -0.1918
 3496SOL    HW122124   3.246   0.569   0.276 -1.8164 -2.4701  0.5863
 3496SOL    HW222125   3.302   0.540   0.135  0.0758  0.3340 -0.0161
 3497SOL     OW22126   0.393   3.696   4.479  0.5919  0.2310  0.1104
 3497SOL    HW122127   0.465   3.744   4.519  0.4469  1.2521 -0.8686
 3497SOL    HW222128   0.334   3.681   4.553  0.3554  1.1747  0.1125
 3498SOL     OW22129   4.422   3.443   8.756 -0.1033 -0.6382 -0.1388
 3498SOL    HW122130   4.506   3.479   8.783 -1.5483  2.6113 -0.0512
 3498SOL    HW222131   4.362   3.511   8.787 -1.8207 -1.8768 -0.6722
 3499SOL     OW22132   0.225   0.631   6.648  0.0222 -0.3078  1.0275
 3499SOL    HW122133   0.151   0.655   6.592  0.2440 -0.3452  0.7179
 3499SOL    HW222134   0.274   0.714   6.644 -0.8253  0.2121  1.3431
 3500SOL     OW22135   3.356   0.716   6.559  0.1795 -1.0328 -0.1658
 3500SOL    HW122136   3.337   0.647   6.495  1.9295 -2.6131  0.9907
 3500SOL    HW222137   3.336   0.670   6.641  1.5847 -0.0325  0.7247
 3501SOL     OW22138   1.205   3.817   2.848 -0.1920  0.2014  0.2821
 3501SOL    HW122139   1.248   3.738   2.880  1.0168  0.9967  0.6095
 3501SOL    HW222140   1.179   3.788   2.760 -1.2323 -0.2792  0.7493
 3502SOL     OW22141   1.337   1.724  12.336  0.2604  0.4086  1.1019
 3502SOL    HW122142   1.412   1.776  12.309 -1.5494  1.1952 -2.4507
 3502SOL    HW222143   1.371   1.641  12.369  0.5841 -0.3483 -1.1305
 3503SOL     OW22144   1.088   1.197   1.983  0.6846 -0.5176  0.2956
 3503SOL    HW122145   1.047   1.284   1.987 -1.1872 -1.4459  1.3448
 3503SOL    HW222146   1.180   1.219   1.969  1.2405 -3.4755 -0.6832
 3504SOL     OW22147   3.047   4.123   7.150 -0.1915 -0.1161  0.2577
 3504SOL    HW122148   2.981   4.100   7.084 -1.3631  1.7557  0.7645
 3504SOL    HW222149   3.003   4.202   7.183 -0.5246 -0.1026 -0.2055
 3505SOL     OW22150   3.009   3.369  10.903  0.0170  0.2950 -0.0692
 3505SOL    HW122151   2.954   3.329  10.835  1.7936 -1.2304 -0.6122
 3505SOL    HW222152   3.092   3.330  10.874  0.9858  2.7139 -0.5403
 3506SOL     OW22153   2.034   1.685   5.883  0.3964  0.6049 -0.2745
 3506SOL    HW122154   1.992   1.769   5.904 -1.6873 -0.1731 -1.2776
 3506SOL    HW222155   2.070   1.657   5.966  1.1602  0.9484 -0.4903
 3507SOL     OW22156   0.477   1.329   3.623 -0.8161 -0.7537  0.6499
 3507SOL    HW122157   0.384   1.350   3.614 -0.1292  1.8561 -0.5303
 3507SOL    HW222158   0.483   1.266   3.550  0.9264 -0.1246  0.2461
 3508SOL     OW22159   1.808   1.234   0.540 -0.4214 -1.0783 -0.1038
 3508SOL    HW122160   1.823   1.139   0.531  0.0449 -1.0647  0.4881
 3508SOL    HW222161   1.893   1.261   0.577 -1.1874 -0.9344  1.5417
 3509SOL     OW22162   2.675   2.149   1.755  0.9115 -0.9421  0.1176
 3509SOL    HW122163   2.608   2.162   1.688  0.7449 -1.5658  0.1641
 3509SOL    HW222164   2.662   2.059   1.784 -0.1241 -1.4651 -2.0332
 3510SOL     OW22165   2.062   1.841  15.980  0.0090  0.3431 -0.3299
 3510SOL    HW122166   1.969   1.856  15.997 -0.4217 -0.8404 -1.5597
 3510SOL    HW222167   2.101   1.927  15.968 -0.3888  0.6521  0.5671
 3511SOL     OW22168   2.783   3.108   5.364  0.0572  0.0144  0.4969
 3511SOL    HW122169   2.747   3.134   5.449 -1.7106 -1.3898  0.1671
 3511SOL    HW222170   2.705   3.093   5.311  0.8259 -1.6497 -0.1668
 3512SOL     OW22171   1.835   0.416   3.292  0.0055  0.1534  0.1770
 3512SOL    HW122172   1.931   0.423   3.293  0.0251  0.1144 -1.0289
 3512SOL    HW222173   1.830   0.323   3.315 -3.0625  0.4795  0.7582
 3513SOL     OW22174   3.256   4.017   4.270 -0.1154  0.0638 -0.1995
 3513SOL    HW122175   3.333   4.030   4.216 -1.2982  1.0895 -1.6336
 3513SOL    HW222176   3.261   4.075   4.346 -0.8360 -0.9610  0.6259
 3514SOL     OW22177   2.409   2.820  11.472 -0.5328 -0.4705 -0.6285
 3514SOL    HW122178   2.450   2.816  11.559 -1.7136  1.8044  0.0499
 3514SOL    HW222179   2.318   2.816  11.501  0.1660 -1.9778  1.3782
 3515SOL     OW22180   1.101   0.969  11.911 -0.0817  0.1369 -0.4331
 3515SOL    HW122181   1.067   1.043  11.860 -1.2473  1.7610  2.6757
 3515SOL    HW222182   1.107   1.012  11.997  2.8069  1.8870 -1.5054
 3516SOL     OW22183   3.585   1.112   6.063 -0.7545 -0.1002  0.3855
 3516SOL    HW122184   3.633   1.067   5.993  0.7085 -1.2499  2.1178
 3516SOL    HW222185   3.647   1.181   6.087  0.0109 -0.5562 -0.2632
 3517SOL     OW22186   3.290   2.839   8.570  0.0639 -0.1090  0.2265
 3517SOL    HW122187   3.265   2.836   8.477  0.9499  0.8875 -0.0400
 3517SOL    HW222188   3.358   2.773   8.586 -0.0469 -0.3282 -0.1995
 3518SOL     OW22189   4.361   0.737   4.594 -0.0604 -0.4350  0.5255
 3518SOL    HW122190   4.293   0.675   4.622 -0.3253 -0.2419  0.3065
 3518SOL    HW222191   4.302   0.812   4.588  2.2459  1.0099 -4.0587
 3519SOL     OW22192   0.667   4.211  13.848  0.2480 -0.4105 -0.3117
 3519SOL    HW122193   0.667   4.270  13.923 -0.4742 -0.1586 -0.5170
 3519SOL    HW222194   0.666   4.269  13.772 -0.4630  0.9656  0.7517
 3520SOL     OW22195   2.685   4.361   0.317  0.4821  0.1641  0.0824
 3520SOL    HW122196   2.633   4.309   0.377 -0.4624  1.1604  0.1310
 3520SOL    HW222197   2.617   4.409   0.269  0.0059  0.7207  1.3236
 3521SOL     OW22198   0.923   1.915   1.784 -0.1911 -0.1005 -0.0509
 3521SOL    HW122199   0.859   1.983   1.761  2.1122  1.6744 -1.1158
 3521SOL    HW222200   0.906   1.905   1.878  1.9440 -0.4116  0.3006
 3522SOL     OW22201   2.988   0.252   6.681 -0.0405 -0.3224  0.2954
 3522SOL    HW122202   2.939   0.325   6.643 -2.2809 -1.5920  0.7638
 3522SOL    HW222203   2.926   0.209   6.740  2.3407 -1.4686  1.9581
 3523SOL     OW22204   2.317   1.668   6.950 -0.1376  0.2305 -0.2189
 3523SOL    HW122205   2.384   1.625   6.897 -0.1955  0.8716 -0.8138
 3523SOL    HW222206   2.297   1.744   6.896 -0.6782  0.6376  0.5566
 3524SOL     OW22207   3.522   3.955   2.077 -0.2136  1.0979 -0.1806
 3524SOL    HW122208   3.433   3.991   2.076 -0.5092  0.4113  0.6889
 3524SOL    HW222209   3.514   3.877   2.022  2.7606  1.6645 -1.3737
 3525SOL     OW22210   0.978   4.235   3.474  0.2772 -0.0501  0.5284
 3525SOL    HW122211   0.891   4.261   3.504 -0.7929 -1.7760 -1.1359
 3525SOL    HW222212   1.018   4.221   3.560  1.8132  0.6369 -0.0703
 3526SOL     OW22213   1.029   1.137  12.119 -0.2024  0.4393  0.2018
 3526SOL    HW122214   0.998   1.132  12.210  0.3465  1.7081  0.4644
 3526SOL    HW222215   0.960   1.195  12.090 -0.4038  2.3897  4.5373
 3527SOL     OW22216   4.138   1.332  17.325 -0.1637 -0.2450  0.0769
 3527SOL    HW122217   4.110   1.362  17.411  2.6556 -2.0017  1.6334
 3527SOL    HW222218   4.092   1.248  17.317 -0.5505 -0.0336  0.1204
 3528SOL     OW22219   2.930   0.790   4.867 -0.2144  0.2802  0.1733
 3528SOL    HW122220   3.005   0.780   4.808 -0.6026 -1.7697  0.0087
 3528SOL    HW222221   2.853   0.749   4.826  0.7258 -0.7331 -0.5649
 3529SOL     OW22222   1.152   4.110   2.546  0.2837 -0.5360  0.8018
 3529SOL    HW122223   1.127   4.199   2.572  2.3799  0.1375  0.4675
 3529SOL    HW222224   1.246   4.128   2.547  0.2329 -0.2752  1.1361
 3530SOL     OW22225   0.720   4.463   8.756  0.5823 -0.0977  0.6945
 3530SOL    HW122226   0.726   4.397   8.687 -0.2805 -0.6323  1.1271
 3530SOL    HW222227   0.798   4.441   8.807 -0.0271  0.5340  1.8947
 3531SOL     OW22228   3.608   3.551   5.010 -0.4819 -0.2021  0.4115
 3531SOL    HW122229   3.562   3.469   4.992 -2.3177  1.4204 -2.1976
 3531SOL    HW222230   3.672   3.550   4.939 -0.7467 -0.1607  0.1723
 3532SOL     OW22231   4.286   3.212  11.357 -0.0825  0.4661  0.0342
 3532SOL    HW122232   4.278   3.300  11.321  1.0582  1.0837  1.2922
 3532SOL    HW222233   4.243   3.157  11.292 -0.6122 -0.6027  1.2891
 3533SOL     OW22234   3.997   2.096   8.622  0.3320 -0.7270  0.7700
 3533SOL    HW122235   3.999   2.031   8.552  0.5824  0.6021 -0.4732
 3533SOL    HW222236   4.007   2.039   8.698  2.1833 -0.5718  0.6547
 3534SOL     OW22237   1.809   4.625   9.999  0.8066 -0.2596 -0.3217
 3534SOL    HW122238   1.827   4.546  10.049 -2.0612  0.6321  2.0816
 3534SOL    HW222239   1.876   4.618   9.931  0.6446 -0.7405 -0.4317
 3535SOL     OW22240   4.642   2.529   6.033 -0.7167 -0.2404 -0.2515
 3535SOL    HW122241   4.633   2.436   6.055  0.2925 -0.3191 -0.1776
 3535SOL    HW222242   0.003   2.532   6.038 -0.7854  1.6542 -0.2238
 3536SOL     OW22243   0.015   1.435   6.977 -0.0143  0.4373  0.6924
 3536SOL    HW122244   4.661   1.471   6.967 -0.1296 -0.3568 -0.9405
 3536SOL    HW222245   0.001   1.375   7.050  1.0509  0.0534  0.5828
 3537SOL     OW22246   2.942   1.595   0.760  0.0726  0.5897 -0.4405
 3537SOL    HW122247   2.994   1.673   0.743 -0.5571  1.3586  1.1860
 3537SOL    HW222248   2.959   1.587   0.854 -3.4329  0.2625  0.1560
 3538SOL     OW22249   2.620   4.184   3.675  0.5854 -0.1016 -0.0882
 3538SOL    HW122250   2.641   4.114   3.613  0.0955  0.4059 -0.8297
 3538SOL    HW222251   2.548   4.153   3.729  0.1723 -2.2555 -1.8920
 3539SOL     OW22252   3.013   2.615   6.127 -0.1539 -0.5201  0.1726
 3539SOL    HW122253   2.918   2.609   6.113  0.2912  0.2580 -3.1668
 3539SOL    HW222254   3.023   2.572   6.212 -1.1555 -0.4864  0.3077
 3540SOL     OW22255   1.929   3.058   4.857 -0.0523 -0.2093  0.4425
 3540SOL    HW122256   1.836   3.061   4.835  0.4930  0.0710 -1.7764
 3540SOL    HW222257   1.943   3.151   4.875  1.3408 -0.8283  2.5386
 3541SOL     OW22258   1.419   0.561   7.668  0.3703 -0.0794 -0.1471
 3541SOL    HW122259   1.479   0.632   7.645  1.3814 -1.5633 -2.1943
 3541SOL    HW222260   1.353   0.572   7.599 -0.5801 -0.0990  0.7562
 3542SOL     OW22261   1.845   3.626   5.033  0.5085  0.0072  0.2515
 3542SOL    HW122262   1.761   3.588   5.009  0.5870 -0.5079  0.7809
 3542SOL    HW222263   1.871   3.561   5.099  1.3178 -0.8082 -0.8705
 3543SOL     OW22264   2.739   1.901  16.818  0.8312  0.3325 -0.4058
 3543SOL    HW122265   2.657   1.889  16.770 -0.1144 -0.1717  1.3002
 3543SOL    HW222266   2.791   1.834  16.774  4.8425  2.8993  0.4183
 3544SOL     OW22267   1.137   3.863   9.491  0.4177 -0.3353 -0.4175
 3544SOL    HW122268   1.168   3.806   9.420 -1.2028  1.0056 -2.1878
 3544SOL    HW222269   1.172   3.826   9.572  1.0584  2.5262  0.5960
 3545SOL     OW22270   1.831   4.122   1.503  0.6209 -0.2701  0.0013
 3545SOL    HW122271   1.849   4.178   1.428 -0.1675 -0.2399 -0.1642
 3545SOL    HW222272   1.902   4.150   1.561  1.6750 -1.8077 -0.5526
 3546SOL     OW22273   2.529   3.641   2.066  0.1719 -0.3767  0.3862
 3546SOL    HW122274   2.586   3.624   2.141 -0.2456 -0.6900  0.6344
 3546SOL    HW222275   2.458   3.577   2.060  0.4412 -0.6313 -0.0694
 3547SOL     OW22276   0.558   1.058   5.929  0.5056 -0.3069  0.0263
 3547SOL    HW122277   0.603   1.040   6.012  1.1194 -0.6036 -0.3803
 3547SOL    HW222278   0.600   0.998   5.868 -1.6639 -2.5710  0.8064
 3548SOL     OW22279   4.734   0.886  15.717 -0.0760  0.0118 -0.4278
 3548SOL    HW122280   4.712   0.840  15.636 -0.5551 -3.1143  1.4782
 3548SOL    HW222281   0.010   0.976  15.686 -1.1664  0.5684  0.7942
 3549SOL     OW22282   4.350   4.104   2.827  0.1869 -0.0143  0.4309
 3549SOL    HW122283   4.375   4.183   2.779  2.8786 -0.3408  1.2591
 3549SOL    HW222284   4.255   4.107   2.829  0.1361  0.2013 -1.4281
 3550SOL     OW22285   3.916   3.426  13.643  0.4842 -0.4528 -0.3004
 3550SOL    HW122286   3.981   3.478  13.690 -0.3254  2.0593 -1.9430
 3550SOL    HW222287   3.936   3.336  13.665  1.9242  0.4825  2.1572
 3551SOL     OW22288   3.697   1.598   6.895  0.3073  0.2461 -0.1558
 3551SOL    HW122289   3.617   1.575   6.847 -0.9392  0.8754  1.6083
 3551SOL    HW222290   3.759   1.629   6.829 -3.0681  3.4888 -1.7922
 3552SOL     OW22291   3.990   3.517   7.336  0.1987  0.3452  0.4879
 3552SOL    HW122292   4.003   3.423   7.326 -1.5710  0.0081  1.4465
 3552SOL    HW222293   4.014   3.528   7.428  0.2624  3.8237  0.0559
 3553SOL     OW22294   4.281   3.893   5.089  0.4845  0.9716  0.4318
 3553SOL    HW122295   4.309   3.802   5.085 -1.4531  0.3133  2.1386
 3553SOL    HW222296   4.292   3.916   4.997  0.1383 -0.3659  0.0585
 3554SOL     OW22297   4.326   2.865   5.174 -0.3445  0.1896 -0.1565
 3554SOL    HW122298   4.364   2.807   5.108  1.4432  1.9740 -0.7247
 3554SOL    HW222299   4.251   2.807   5.189  0.6665 -0.8669  0.8398
 3555SOL     OW22300   1.612   2.752   5.476 -0.4549 -0.4870  0.1276
 3555SOL    HW122301   1.522   2.729   5.450 -0.3597 -0.6771 -0.0318
 3555SOL    HW222302   1.641   2.783   5.391  1.2161 -0.2424  0.7848
 3556SOL     OW22303   0.313   0.079   7.598 -0.0428 -0.3242 -0.4130
 3556SOL    HW122304   0.272   4.730   7.575 -1.0596  0.6454 -2.0883
 3556SOL    HW222305   0.334   0.112   7.511 -1.1472  0.9191 -0.2174
 3557SOL     OW22306   1.342   0.778  16.075 -0.4093 -0.2767 -0.3975
 3557SOL    HW122307   1.350   0.844  16.007  0.1943 -1.6334 -1.6205
 3557SOL    HW222308   1.317   0.825  16.155  0.6849  1.8573 -1.3300
 3558SOL     OW22309   1.410   0.585   8.641  0.1066  0.0285  0.0663
 3558SOL    HW122310   1.335   0.527   8.656 -0.9449  0.9278 -1.7948
 3558SOL    HW222311   1.453   0.570   8.725  0.6387 -1.7390 -0.5115
 3559SOL     OW22312   2.717   2.038   8.866  0.6231 -0.0668  0.4991
 3559SOL    HW122313   2.740   2.110   8.924 -0.3409 -1.1115  2.1695
 3559SOL    HW222314   2.628   2.011   8.888  0.9149 -1.1534  0.3737
 3560SOL     OW22315   2.027   1.380  13.191 -0.2317  0.0154 -0.5701
 3560SOL    HW122316   1.971   1.349  13.263  1.4673  1.0509  1.2152
 3560SOL    HW222317   2.043   1.302  13.137 -0.5284 -0.3758 -0.0952
 3561SOL     OW22318   0.498   3.955  12.085 -0.2539 -0.0585 -0.0433
 3561SOL    HW122319   0.412   3.912  12.091 -0.4150  0.6242  2.5954
 3561SOL    HW222320   0.489   4.050  12.083  2.2846  0.2116  0.6839
 3562SOL     OW22321   0.954   0.772   0.983  0.6058  0.6215  0.3130
 3562SOL    HW122322   0.882   0.711   0.998  1.7017 -0.7837 -0.1339
 3562SOL    HW222323   1.019   0.716   0.939 -0.4500 -0.2417 -0.1432
 3563SOL     OW22324   0.391   2.044   1.190  0.4664  0.2995  0.0232
 3563SOL    HW122325   0.350   2.124   1.158 -1.6899 -0.6390  0.4460
 3563SOL    HW222326   0.422   2.081   1.273 -1.4925 -0.5891  1.1523
 3564SOL     OW22327   1.625   4.538  14.051  0.1891  0.5387  0.1659
 3564SOL    HW122328   1.680   4.493  14.115  0.4398  0.7587  0.1043
 3564SOL    HW222329   1.682   4.604  14.010  0.3144 -0.6801 -1.6213
 3565SOL     OW22330   3.877   4.706   8.328 -0.7292 -0.5963  0.2747
 3565SOL    HW122331   3.941   0.020   8.276 -1.6547  1.5652  1.1352
 3565SOL    HW222332   3.922   4.668   8.404  0.9535  1.6289  0.3600
 3566SOL     OW22333   4.657   1.146   8.875  0.2857  0.0677 -0.3815
 3566SOL    HW122334   4.625   1.214   8.816 -0.6099 -0.6587 -0.7284
 3566SOL    HW222335   4.613   1.168   8.957 -1.4792  1.0921 -1.6060
 3567SOL     OW22336   3.656   4.353   5.958  0.6946 -0.2942  0.3463
 3567SOL    HW122337   3.702   4.392   6.033  1.3115 -1.0385  0.3512
 3567SOL    HW222338   3.717   4.394   5.896  1.0209 -0.1200  0.7766
 3568SOL     OW22339   2.184   0.367   3.173  0.2651  0.0885  0.2369
 3568SOL    HW122340   2.125   0.351   3.100 -2.1846  1.3185  1.9409
 3568SOL    HW222341   2.135   0.327   3.245  0.9119 -0.2904  0.4726
 3569SOL     OW22342   3.166   3.063   6.957 -0.0175 -0.4958  0.2778
 3569SOL    HW122343   3.201   3.058   6.869  0.1162  2.0604  0.1877
 3569SOL    HW222344   3.094   3.000   6.949 -0.5892  0.2319 -0.2879
 3570SOL     OW22345   4.193   0.713  17.530  0.2348  0.0634 -0.3931
 3570SOL    HW122346   4.116   0.681  17.485 -0.0066  0.8226 -0.5282
 3570SOL    HW222347   4.234   0.638  17.572  0.8763  0.1157 -0.9319
 3571SOL     OW22348   4.258   4.168   5.876  0.2755  0.1730 -0.2309
 3571SOL    HW122349   4.187   4.200   5.932  1.0636 -1.0247  1.4531
 3571SOL    HW222350   4.273   4.082   5.915  1.4234 -0.6021 -2.3863
 3572SOL     OW22351   0.502   0.654   3.751  0.5116 -0.5999  0.4379
 3572SOL    HW122352   0.551   0.612   3.681 -1.0408 -1.0835 -0.3617
 3572SOL    HW222353   0.418   0.610   3.736  0.6673 -0.3506 -1.1197
 3573SOL     OW22354   4.000   0.584   7.329 -0.2165  0.2975 -0.9588
 3573SOL    HW122355   3.929   0.631   7.373 -0.4807 -0.1925 -0.8641
 3573SOL    HW222356   4.027   0.529   7.403  0.8120 -1.4865 -2.6721
 3574SOL     OW22357   2.791   1.643   5.968  0.3614  0.3075 -0.8065
 3574SOL    HW122358   2.721   1.652   6.033  1.9361  1.5874  0.7341
 3574SOL    HW222359   2.863   1.633   6.030 -1.0453  0.4412  0.8533
 3575SOL     OW22360   2.576   4.648   8.316 -0.1773 -0.3722 -0.7407
 3575SOL    HW122361   2.542   4.721   8.368  0.6597 -0.8185  0.4240
 3575SOL    HW222362   2.668   4.670   8.326 -0.6297  0.4454  1.6237
 3576SOL     OW22363   3.646   2.241   7.469 -0.5304  0.0455 -0.0871
 3576SOL    HW122364   3.737   2.219   7.488 -0.5229 -1.2445 -1.6731
 3576SOL    HW222365   3.636   2.331   7.499  0.3453  0.2660 -0.4761
 3577SOL     OW22366   1.699   4.073   5.829  0.0204 -0.5108  0.0859
 3577SOL    HW122367   1.791   4.068   5.803 -0.3496  0.4930 -1.4322
 3577SOL    HW222368   1.687   3.995   5.883  3.2032 -0.0468  1.4464
 3578SOL     OW22369   4.252   3.442   5.843  0.4804  0.3663 -0.1581
 3578SOL    HW122370   4.280   3.527   5.809 -0.2128  0.9749  0.7855
 3578SOL    HW222371   4.163   3.464   5.871 -0.2089 -1.2729 -1.0592
 3579SOL     OW22372   1.147   0.607  10.063  0.2664  0.2132 -0.0951
 3579SOL    HW122373   1.058   0.572  10.073  0.1068  0.8462  0.6815
 3579SOL    HW222374   1.172   0.580   9.974  2.4268  1.9098  0.0149
 3580SOL     OW22375   0.643   3.499   8.728 -0.4190 -0.7994 -0.1266
 3580SOL    HW122376   0.636   3.594   8.712  0.0855 -0.8640 -0.7391
 3580SOL    HW222377   0.738   3.493   8.716 -0.4435 -0.1463 -0.6415
 3581SOL     OW22378   1.590   3.835   2.511 -0.3564  0.2709  0.1714
 3581SOL    HW122379   1.641   3.774   2.564 -0.5823  0.3532  0.4836
 3581SOL    HW222380   1.603   3.916   2.561  3.1479  0.0842 -0.4115
 3582SOL     OW22381   0.058   2.013   9.869 -0.4255  0.0889 -0.4722
 3582SOL    HW122382   4.720   2.076   9.871 -2.2446 -1.9933 -0.9145
 3582SOL    HW222383   0.094   2.038   9.784  0.5628 -0.4897 -0.2188
 3583SOL     OW22384   2.846   3.400   2.616  0.1629 -0.2161 -0.1138
 3583SOL    HW122385   2.850   3.305   2.604  0.9553 -0.1132 -0.6708
 3583SOL    HW222386   2.772   3.412   2.675  0.1670  4.0157 -1.0092
 3584SOL     OW22387   2.801   4.714  15.876  0.2358 -0.0700 -0.2721
 3584SOL    HW122388   2.844   4.680  15.797  3.6415  0.7820  1.2448
 3584SOL    HW222389   2.711   4.719  15.843  0.7376  1.8840 -1.4029
 3585SOL     OW22390   0.397   4.637  13.938 -0.2329 -0.2241  0.2300
 3585SOL    HW122391   0.392   4.731  13.924  2.3399 -0.2939 -1.1217
 3585SOL    HW222392   0.327   4.626  14.004 -0.2127  5.5273  1.1865
 3586SOL     OW22393   4.347   0.076   7.675  0.0279 -0.3619 -0.0488
 3586SOL    HW122394   4.389   0.035   7.751  1.4170  1.6121  0.2721
 3586SOL    HW222395   4.271   0.124   7.708  0.2602 -0.0135 -0.0145
 3587SOL     OW22396   4.306   1.522   6.018  0.6120 -0.6988 -0.2669
 3587SOL    HW122397   4.391   1.496   6.054 -0.1239 -1.6295  0.8048
 3587SOL    HW222398   4.321   1.610   5.984 -1.8579 -0.4167 -0.6411
 3588SOL     OW22399   4.238   1.373   4.565 -0.1931 -0.7366 -0.6067
 3588SOL    HW122400   4.176   1.314   4.610 -0.2752 -1.2085 -1.3424
 3588SOL    HW222401   4.262   1.326   4.485 -1.5621  0.1516 -1.5403
 3589SOL     OW22402   4.207   1.892  12.668 -0.4357  1.1948 -0.3849
 3589SOL    HW122403   4.162   1.932  12.594 -0.2379  3.3510  0.6706
 3589SOL    HW222404   4.166   1.934  12.743 -1.6997 -2.4623  0.9794
 3590SOL     OW22405   3.179   0.429  15.263 -0.2968 -0.4319 -0.4949
 3590SOL    HW122406   3.104   0.369  15.270 -0.1964 -0.6289 -1.0256
 3590SOL    HW222407   3.145   0.517  15.249 -2.0789 -1.2643 -1.3576
 3591SOL     OW22408   0.926   3.251  16.230 -0.9937  0.1684  0.0179
 3591SOL    HW122409   0.918   3.200  16.149 -1.2844 -0.5086  0.4695
 3591SOL    HW222410   1.018   3.274  16.217 -1.3996  2.4098  1.1360
 3592SOL     OW22411   3.236   4.631   6.335  0.5570  0.0635  1.1563
 3592SOL    HW122412   3.218   4.681   6.415 -1.3627  1.2204 -0.0185
 3592SOL    HW222413   3.307   4.685   6.299 -1.6155  2.7226  0.8566
 3593SOL     OW22414   4.131   0.677   3.097  0.5184  0.0227 -0.0520
 3593SOL    HW122415   4.053   0.648   3.049  1.3927 -0.1435 -1.3551
 3593SOL    HW222416   4.093   0.738   3.160  0.1281 -1.1630  0.8738
 3594SOL     OW22417   1.287   4.035   4.934 -0.3057  0.1902  0.3221
 3594SOL    HW122418   1.367   4.068   4.892 -1.5903  1.8632 -0.8061
 3594SOL    HW222419   1.315   4.025   5.025  1.2342  0.5469 -0.1031
 3595SOL     OW22420   3.677   1.189   6.476 -0.3211 -0.0434  0.6294
 3595SOL    HW122421   3.698   1.188   6.570  0.2119  0.9715  0.5250
 3595SOL    HW222422   3.623   1.110   6.478 -0.7638  0.2263 -0.5317
 3596SOL     OW22423   3.654   2.490  15.049 -0.1010 -0.0981 -0.4507
 3596SOL    HW122424   3.589   2.559  15.060 -0.7602 -1.0062  1.3742
 3596SOL    HW222425   3.609   2.434  14.985  0.6686 -0.9710 -0.2361
 3597SOL     OW22426   4.730   4.293   5.339  0.4754 -0.0470 -0.2818
 3597SOL    HW122427   0.006   4.372   5.392 -0.6346 -0.0686 -0.0286
 3597SOL    HW222428   0.059   4.324   5.275 -0.4729  1.9608 -0.2572
 3598SOL     OW22429   1.320   0.377   1.043 -0.3499 -0.0195 -0.0414
 3598SOL    HW122430   1.226   0.362   1.030 -0.2228  0.2773 -1.2843
 3598SOL    HW222431   1.341   0.307   1.104 -1.1638  1.2701  1.7357
 3599SOL     OW22432   2.967   2.579   8.542 -0.2833  0.1369  0.0145
 3599SOL    HW122433   2.912   2.584   8.619  0.6801 -1.2331  0.7812
 3599SOL    HW222434   2.899   2.589   8.475 -1.0562  2.7587  1.2071
 3600SOL     OW22435   2.282   1.364  11.165 -0.0331 -0.1865 -0.3139
 3600SOL    HW122436   2.190   1.376  11.144 -0.0082 -0.5571 -0.6415
 3600SOL    HW222437   2.318   1.389  11.080  0.0481  0.2048 -0.1632
 3601SOL     OW22438   1.877   2.924   8.294  0.0863 -0.2848  0.0926
 3601SOL    HW122439   1.872   2.919   8.389  2.9096 -0.4690  0.2407
 3601SOL    HW222440   1.833   2.841   8.278 -0.9887  0.0532  1.2853
 3602SOL     OW22441   0.457   1.658  13.191  0.4223  0.2404 -0.3824
 3602SOL    HW122442   0.474   1.689  13.102 -0.8270 -1.4622 -1.2068
 3602SOL    HW222443   0.362   1.650  13.182  0.2103 -0.4842  2.3579
 3603SOL     OW22444   2.786   2.280   7.631 -0.2466  0.1362 -0.1122
 3603SOL    HW122445   2.741   2.214   7.577 -0.8527 -0.0035  0.5608
 3603SOL    HW222446   2.754   2.361   7.590 -0.3072  0.2565  0.1684
 3604SOL     OW22447   0.838   1.485   6.664 -0.0042 -0.2286  0.7161
 3604SOL    HW122448   0.878   1.572   6.668 -0.6362  0.0925  0.1225
 3604SOL    HW222449   0.754   1.513   6.700 -0.9966 -1.2714 -0.7862
 3605SOL     OW22450   0.678   2.967   5.529  0.0272  0.0928  0.0064
 3605SOL    HW122451   0.649   2.883   5.493 -3.1037 -0.6377  4.2579
 3605SOL    HW222452   0.600   3.021   5.517  0.6734  1.4247  1.8671
 3606SOL     OW22453   0.048   1.875   7.508  0.4373 -0.2782 -0.0480
 3606SOL    HW122454   4.689   1.893   7.521  0.0318  0.2586 -3.6799
 3606SOL    HW222455   0.089   1.956   7.538 -0.0180 -1.4769  3.8238
 3607SOL     OW22456   1.403   2.972   2.241 -0.2526  0.1505 -0.0995
 3607SOL    HW122457   1.444   2.992   2.325  0.5868 -0.0466 -0.4671
 3607SOL    HW222458   1.452   2.891   2.231 -3.2100 -1.5962 -0.2168
 3608SOL     OW22459   0.540   1.045   8.453  0.2892  0.2370  0.1481
 3608SOL    HW122460   0.620   1.057   8.504 -0.4896 -0.0124  1.4066
 3608SOL    HW222461   0.553   0.967   8.399  4.2972  0.7864  0.2802
 3609SOL     OW22462   1.690   2.833   3.584 -0.3363  0.0150  0.2012
 3609SOL    HW122463   1.692   2.860   3.492 -1.8061 -2.1398 -0.4520
 3609SOL    HW222464   1.689   2.921   3.622  0.6696  0.5335 -0.9656
 3610SOL     OW22465   0.967   0.215  15.305  0.0247 -0.0444 -0.4258
 3610SOL    HW122466   0.921   0.183  15.227  2.5634  1.6781 -2.6294
 3610SOL    HW222467   0.924   0.300  15.297 -0.1446 -0.0902  0.0093
 3611SOL     OW22468   4.630   3.212  13.133 -0.3651  0.5603  0.1189
 3611SOL    HW122469   4.672   3.271  13.195 -1.5658  2.5314 -0.9404
 3611SOL    HW222470   4.553   3.268  13.123 -1.8145 -1.5160 -0.3402
 3612SOL     OW22471   0.072   1.476   5.579 -0.5543 -0.0644  0.4081
 3612SOL    HW122472   4.729   1.455   5.527  1.8044 -1.5718 -2.5092
 3612SOL    HW222473   0.145   1.474   5.517 -0.9790 -3.6229 -0.0123
 3613SOL     OW22474   0.098   1.031   2.630 -0.1336 -1.1588  0.0504
 3613SOL    HW122475   0.126   1.089   2.700 -0.0569 -3.2734  1.7642
 3613SOL    HW222476   0.014   1.071   2.604 -0.4156 -1.5363  0.3839
 3614SOL     OW22477   2.507   0.027  15.469  0.1392  0.5276 -0.3310
 3614SOL    HW122478   2.432   4.704  15.456 -0.4636  0.6327  2.4938
 3614SOL    HW222479   2.475   0.116  15.456  0.5681  0.4718 -1.7063
 3615SOL     OW22480   4.389   2.666   3.511 -0.0872 -0.0987 -0.0690
 3615SOL    HW122481   4.316   2.604   3.511  1.0821 -1.4896 -0.1644
 3615SOL    HW222482   4.365   2.725   3.582 -1.5457  0.9209 -1.4165
 3616SOL     OW22483   2.734   0.245  15.374 -0.0989 -0.3397  0.2423
 3616SOL    HW122484   2.687   0.237  15.290 -0.5926 -0.6884  0.5480
 3616SOL    HW222485   2.657   0.228  15.429 -2.5352 -0.1027 -3.0677
 3617SOL     OW22486   2.408   1.491   7.621 -0.4426 -0.3332  0.6199
 3617SOL    HW122487   2.488   1.441   7.604  0.1166  0.0066  2.2466
 3617SOL    HW222488   2.364   1.416   7.661  1.6027 -1.4024  0.8815
 3618SOL     OW22489   0.313   0.951   2.880  0.0915  0.1475 -0.0524
 3618SOL    HW122490   0.326   0.887   2.810 -0.1693 -1.1904  1.1198
 3618SOL    HW222491   0.218   0.958   2.893 -0.0688 -1.7558 -0.2222
 3619SOL     OW22492   2.976   4.203  13.748  0.5066  0.5565  0.6468
 3619SOL    HW122493   2.951   4.115  13.719 -0.5022  0.5377  1.5894
 3619SOL    HW222494   3.064   4.201  13.709  0.4270  2.8653  0.3908
 3620SOL     OW22495   0.609   1.653   4.993 -0.3429 -0.4655 -0.3203
 3620SOL    HW122496   0.675   1.714   4.959  0.1430 -1.9160 -1.9620
 3620SOL    HW222497   0.568   1.628   4.911  0.0680 -0.1707 -0.6148
 3621SOL     OW22498   0.378   3.223   4.323 -0.0719  0.0368  0.0776
 3621SOL    HW122499   0.457   3.178   4.292 -0.5600 -0.5265 -0.3448
 3621SOL    HW222500   0.300   3.172   4.302 -0.3373  0.5931 -0.2988
 3622SOL     OW22501   3.716   1.219  16.678  0.0385 -0.2819 -0.0921
 3622SOL    HW122502   3.687   1.301  16.717  1.2724 -0.1299  0.5099
 3622SOL    HW222503   3.811   1.225  16.690 -0.1891 -0.9718  2.1112
 3623SOL     OW22504   2.647   2.360   2.764 -0.0446 -0.3635  0.0505
 3623SOL    HW122505   2.657   2.451   2.794  0.3554 -1.1492  2.3098
 3623SOL    HW222506   2.655   2.370   2.669 -1.0406  0.7161  0.0747
 3624SOL     OW22507   4.411   2.857   6.102 -0.1043  0.1581 -0.1783
 3624SOL    HW122508   4.320   2.887   6.091 -0.0972  0.1649 -0.2192
 3624SOL    HW222509   4.463   2.935   6.124 -1.7569  1.0557  0.5745
 3625SOL     OW22510   4.509   1.975   9.689 -0.4385  0.2392 -0.8694
 3625SOL    HW122511   4.466   1.944   9.769  3.7538  0.2569  1.3892
 3625SOL    HW222512   4.459   1.949   9.612 -1.2394  2.2168 -1.0110
 3626SOL     OW22513   2.876   1.920  10.647  0.2062  0.0185 -0.0351
 3626SOL    HW122514   2.789   1.937  10.609  1.5056 -0.8637 -3.3893
 3626SOL    HW222515   2.925   1.994  10.611  1.0115  0.3055  1.6633
 3627SOL     OW22516   0.090   2.168  15.087  0.4902  0.2511 -0.5831
 3627SOL    HW122517   0.176   2.192  15.053  1.2062 -0.0828  0.9944
 3627SOL    HW222518   0.073   2.227  15.161 -1.3818 -1.0827  0.0387
 3628SOL     OW22519   4.659   3.071   4.947  0.1167  0.2409  0.9158
 3628SOL    HW122520   4.579   3.096   4.993 -1.4315 -3.5229  0.2682
 3628SOL    HW222521   4.690   3.159   4.923 -0.6306  0.2808  0.0837
 3629SOL     OW22522   2.122   0.710   1.212  0.7767  0.0716  0.4587
 3629SOL    HW122523   2.061   0.702   1.138  0.4491  1.7067  0.5473
 3629SOL    HW222524   2.168   0.791   1.191 -0.2506  0.9692  1.7196
 3630SOL     OW22525   2.547   3.496   4.817  0.0143  0.5930  0.0649
 3630SOL    HW122526   2.515   3.476   4.905  1.2133  0.2765  0.4306
 3630SOL    HW222527   2.580   3.411   4.789 -1.3476 -0.4137  1.4966
 3631SOL     OW22528   2.165   4.542   3.481  0.1844 -0.2373 -0.8801
 3631SOL    HW122529   2.086   4.553   3.534  1.5559  0.4328  1.0053
 3631SOL    HW222530   2.202   4.627   3.460  0.3072  0.3357  1.6998
 3632SOL     OW22531   3.224   1.057   8.306  0.5180 -0.0447 -0.6985
 3632SOL    HW122532   3.297   1.045   8.247  0.3795 -0.3435 -0.8069
 3632SOL    HW222533   3.265   1.072   8.391 -1.1554 -1.2333  0.3331
 3633SOL     OW22534   0.874   2.472   4.145  0.5076 -0.2586  0.5704
 3633SOL    HW122535   0.789   2.457   4.186  0.1748  0.8532  0.2920
 3633SOL    HW222536   0.940   2.488   4.213 -0.1963  1.6399  0.8081
 3634SOL     OW22537   2.766   2.201   9.127  0.0164  0.1192  0.2471
 3634SOL    HW122538   2.842   2.194   9.184  0.0293 -2.3420 -0.0940
 3634SOL    HW222539   2.696   2.193   9.191  1.1122  1.2688  1.5855
 3635SOL     OW22540   4.559   0.798  13.378  0.4375  0.1586  0.0426
 3635SOL    HW122541   4.512   0.716  13.392 -1.0602  1.0389  0.1640
 3635SOL    HW222542   4.642   0.766  13.341  0.6534 -0.8124  1.3567
 3636SOL     OW22543   0.707   1.681   5.495  0.3666 -0.0428 -0.1881
 3636SOL    HW122544   0.719   1.734   5.416 -0.5851 -0.5890 -0.6913
 3636SOL    HW222545   0.762   1.608   5.468  0.6938 -0.1423  0.7567
 3637SOL     OW22546   0.865   2.710   7.666 -0.3136  0.0202 -0.3682
 3637SOL    HW122547   0.879   2.616   7.675  0.6705  0.1783 -0.2180
 3637SOL    HW222548   0.916   2.725   7.586 -0.7652  1.2256 -0.4330
 3638SOL     OW22549   2.544   0.422   0.259  0.4043 -0.5435 -0.3179
 3638SOL    HW122550   2.587   0.381   0.184  1.0455  1.4106 -1.0204
 3638SOL    HW222551   2.611   0.482   0.291 -0.3496  0.2771 -0.2781
 3639SOL     OW22552   0.104   4.628   1.391  0.1549  0.6097  0.1922
 3639SOL    HW122553   0.176   4.608   1.331 -0.9080  1.6143 -1.4129
 3639SOL    HW222554   0.091   4.539   1.423  2.9398 -0.0154 -0.4220
 3640SOL     OW22555   0.039   0.320  10.541  0.1422  0.2121 -0.2441
 3640SOL    HW122556   0.037   0.408  10.579 -3.4417 -0.8303  2.0425
 3640SOL    HW222557   0.119   0.329  10.490 -0.5428 -2.6145 -1.8104
 3641SOL     OW22558   2.940   0.432   2.955  0.2850 -0.1784  0.1351
 3641SOL    HW122559   2.902   0.520   2.951 -0.9095 -0.6945  0.4090
 3641SOL    HW222560   2.969   0.406   2.868 -2.6513 -0.8204 -0.6495
 3642SOL     OW22561   3.162   3.069  13.358 -0.1712  0.5327  0.2397
 3642SOL    HW122562   3.069   3.073  13.382 -0.0591 -0.7154  0.9058
 3642SOL    HW222563   3.161   3.161  13.330  0.1914  0.3284 -0.4518
 3643SOL     OW22564   3.708   3.401   1.528 -0.0240 -0.1164  0.1967
 3643SOL    HW122565   3.659   3.380   1.607 -1.1692 -0.0055 -0.4927
 3643SOL    HW222566   3.634   3.394   1.469  1.3263  0.9857 -1.6128
 3644SOL     OW22567   0.750   0.811   5.450 -0.2056 -0.1725  0.3158
 3644SOL    HW122568   0.720   0.796   5.360  1.4489  0.1342 -0.2757
 3644SOL    HW222569   0.731   0.721   5.475 -0.4269 -0.1110  0.3766
 3645SOL     OW22570   2.499   3.947   1.857  0.4428  0.3430  0.8091
 3645SOL    HW122571   2.461   3.888   1.923  0.0544  1.9157  1.9963
 3645SOL    HW222572   2.450   4.028   1.869 -2.9785 -1.9918  2.7505
 3646SOL     OW22573   0.571   1.106   1.965 -0.1702 -0.3304  0.0464
 3646SOL    HW122574   0.497   1.052   1.938  1.8703 -3.2330  0.1917
 3646SOL    HW222575   0.553   1.136   2.054 -0.5097 -0.0410 -0.1226
 3647SOL     OW22576   1.682   0.330   6.409 -0.0054 -0.1510 -0.1854
 3647SOL    HW122577   1.604   0.371   6.444  1.2068  2.7154 -0.8801
 3647SOL    HW222578   1.747   0.395   6.435  0.7097 -1.5036  1.4180
 3648SOL     OW22579   3.920   3.637   3.809  0.3554  0.2923 -0.2420
 3648SOL    HW122580   3.943   3.704   3.873  0.4704 -0.8952  0.9638
 3648SOL    HW222581   3.828   3.629   3.832  0.7486  2.1687  2.0367
 3649SOL     OW22582   0.306   1.895   9.609  0.9853  0.0071 -0.7004
 3649SOL    HW122583   0.293   1.986   9.580  1.1999 -0.1132 -1.1720
 3649SOL    HW222584   0.344   1.855   9.531  0.6792  0.8256 -1.2666
 3650SOL     OW22585   3.344   0.655   7.533 -0.1941 -0.7008 -0.1204
 3650SOL    HW122586   3.370   0.609   7.613  0.9420  0.4571  0.1724
 3650SOL    HW222587   3.249   0.649   7.543 -0.1445 -1.6888 -0.2083
 3651SOL     OW22588   0.226   4.268   6.439 -0.9762 -0.3405 -0.3822
 3651SOL    HW122589   0.285   4.234   6.506  0.8750  0.4155 -1.6327
 3651SOL    HW222590   0.285   4.264   6.364  0.6741 -2.6739  1.0530
 3652SOL     OW22591   3.855   1.767  15.425  0.0484  0.0999 -0.4409
 3652SOL    HW122592   3.853   1.803  15.514  0.2459  1.6669 -1.0828
 3652SOL    HW222593   3.764   1.789  15.406 -0.1342  1.1735  1.6855
 3653SOL     OW22594   4.656   1.722   7.955 -0.0915 -0.2113 -0.1401
 3653SOL    HW122595   4.584   1.661   7.971 -0.7904  0.3410 -1.1447
 3653SOL    HW222596   4.697   1.698   7.871 -0.6009  0.1548 -0.4934
 3654SOL     OW22597   0.392   2.360   1.982 -0.1235  0.2795  0.6840
 3654SOL    HW122598   0.332   2.351   1.907  0.3379 -2.4928  0.6409
 3654SOL    HW222599   0.368   2.285   2.038  2.2887  0.0285  1.3532
 3655SOL     OW22600   1.069   4.102  16.174 -0.2546  0.0051  0.2064
 3655SOL    HW122601   1.115   4.030  16.132 -0.3454  0.8883 -1.3929
 3655SOL    HW222602   1.029   4.149  16.102 -0.5631 -0.5712  0.0031
 3656SOL     OW22603   2.189   3.458   3.019  0.6678 -0.3238 -0.3086
 3656SOL    HW122604   2.151   3.372   3.003  1.2944 -0.3049 -1.9187
 3656SOL    HW222605   2.248   3.462   2.943 -0.0932  0.7056 -0.8521
 3657SOL     OW22606   3.544   3.763   6.256  0.5722 -0.3250 -0.0538
 3657SOL    HW122607   3.462   3.714   6.259 -0.1827  0.9254 -0.6912
 3657SOL    HW222608   3.614   3.711   6.298  0.4116  1.8840  2.9805
 3658SOL     OW22609   1.120   0.175  13.684 -0.1229  0.2239  0.4849
 3658SOL    HW122610   1.194   0.232  13.706  0.8139 -0.6126 -0.4933
 3658SOL    HW222611   1.157   0.092  13.713  1.4365  0.2373 -1.4523
 3659SOL     OW22612   2.806   4.084  16.938 -0.0106 -0.2619  0.8828
 3659SOL    HW122613   2.788   4.023  17.010 -1.6309  0.2260  0.8927
 3659SOL    HW222614   2.751   4.040  16.873  0.1167 -1.2371  1.4264
 3660SOL     OW22615   0.215   1.375   2.345 -0.1218 -0.2557 -0.0417
 3660SOL    HW122616   0.231   1.298   2.399  0.7924 -0.1052 -0.1050
 3660SOL    HW222617   0.296   1.369   2.295  0.1615  1.4140  0.2157
 3661SOL     OW22618   4.107   0.030   3.242  0.0195 -0.2742  0.0617
 3661SOL    HW122619   4.022   0.072   3.251 -0.1331 -1.0523  2.2160
 3661SOL    HW222620   4.117   4.710   3.321 -0.5497 -1.1214 -0.4466
 3662SOL     OW22621   2.418   0.666   7.012 -0.6438 -0.0039  0.1419
 3662SOL    HW122622   2.449   0.709   6.932  0.5958 -2.1479 -0.5553
 3662SOL    HW222623   2.347   0.724   7.039  1.2416  1.3408  2.2426
 3663SOL     OW22624   2.976   3.646   2.658 -0.2748 -0.0836 -0.3014
 3663SOL    HW122625   3.004   3.652   2.566  1.8348  2.2608  0.4759
 3663SOL    HW222626   2.941   3.557   2.652  1.1541 -0.5935 -1.0201
 3664SOL     OW22627   4.427   1.411   1.838 -0.0503 -0.2450  0.1707
 3664SOL    HW122628   4.371   1.488   1.834 -1.3531 -1.0840  1.9491
 3664SOL    HW222629   4.385   1.365   1.911  0.7859  2.3759  2.3170
 3665SOL     OW22630   2.090   1.235   8.608 -0.3188  0.0929  0.0831
 3665SOL    HW122631   2.022   1.194   8.554 -2.0443  0.8256  1.6940
 3665SOL    HW222632   2.143   1.158   8.629 -0.2481  0.7606  2.3640
 3666SOL     OW22633   2.283   2.371   4.938 -0.1545 -0.3894 -0.4182
 3666SOL    HW122634   2.205   2.384   4.884  1.5469  2.5626 -2.1515
 3666SOL    HW222635   2.352   2.413   4.886 -0.1442 -0.4768 -0.4755
 3667SOL     OW22636   4.487   1.614   5.557 -0.3433 -0.0617 -0.7782
 3667SOL    HW122637   4.460   1.660   5.478 -2.4469  2.3596  1.3470
 3667SOL    HW222638   4.521   1.530   5.526  1.7324 -0.0134  1.3250
 3668SOL     OW22639   3.737   0.748  12.251  1.0130 -0.3723 -0.2487
 3668SOL    HW122640   3.808   0.730  12.313  0.2122  1.6868  1.2563
 3668SOL    HW222641   3.668   0.690  12.284  2.1410 -1.0902  0.8760
 3669SOL     OW22642   4.268   1.562   0.000  0.1955  0.1934  0.5528
 3669SOL    HW122643   4.203   1.538  17.670  0.3127  0.5140  0.3250
 3669SOL    HW222644   4.216   1.573   0.080 -0.9656  0.3334 -0.2270
 3670SOL     OW22645   1.393   2.858  16.185 -0.0714  0.2383  0.1834
 3670SOL    HW122646   1.447   2.937  16.183 -0.9157  0.8482  1.5063
 3670SOL    HW222647   1.302   2.877  16.210 -0.3622 -0.9284  0.0138
 3671SOL     OW22648   2.588   1.538   7.267 -0.0495  0.1788  0.3775
 3671SOL    HW122649   2.497   1.510   7.266  0.2939 -0.7389 -2.5018
 3671SOL    HW222650   2.596   1.594   7.190 -0.2940  1.0742  0.9962
 3672SOL     OW22651   2.744   1.295   4.442  0.2522  0.4628 -0.2134
 3672SOL    HW122652   2.784   1.367   4.393  1.4007 -1.3874 -1.9880
 3672SOL    HW222653   2.671   1.276   4.382 -1.2688  2.0161  1.1449
 3673SOL     OW22654   3.083   3.103   4.179 -0.2131  0.2376  0.3655
 3673SOL    HW122655   3.135   3.040   4.229  2.1728 -0.4348 -2.9889
 3673SOL    HW222656   3.142   3.177   4.189 -0.8494  0.7484  0.3710
 3674SOL     OW22657   4.493   3.443   2.295 -0.6233 -0.7120 -0.7112
 3674SOL    HW122658   4.551   3.378   2.335 -1.1306  0.6296  2.1656
 3674SOL    HW222659   4.548   3.518   2.276 -2.3162  1.4217  2.8358
 3675SOL     OW22660   1.568   2.109   7.676 -0.2720 -0.3950  0.3525
 3675SOL    HW122661   1.521   2.073   7.751  1.0601 -0.9794  0.9060
 3675SOL    HW222662   1.600   2.194   7.706 -0.4640  0.4472 -1.8464
 3676SOL     OW22663   0.712   2.795  14.300 -0.6002  0.2717 -0.4298
 3676SOL    HW122664   0.780   2.728  14.298 -1.8026 -0.8671 -2.0544
 3676SOL    HW222665   0.694   2.811  14.393 -2.3000 -1.5589 -0.4618
 3677SOL     OW22666   4.194   0.097   2.594  0.3196 -0.0238  0.7810
 3677SOL    HW122667   4.236   0.178   2.623 -1.6097  1.4465 -0.5294
 3677SOL    HW222668   4.265   0.036   2.579  0.6329  0.4646  0.3058
 3678SOL     OW22669   1.087   4.642   0.146 -0.8968  0.2169 -0.0154
 3678SOL    HW122670   1.173   4.626   0.184 -0.2168  2.5057 -0.5857
 3678SOL    HW222671   1.061   4.711   0.207 -0.5236 -1.0841  1.5990
 3679SOL     OW22672   4.564   1.208   3.083 -0.1700 -0.1630 -0.3709
 3679SOL    HW122673   4.649   1.202   3.127 -0.2739  0.7052 -0.0617
 3679SOL    HW222674   4.542   1.294   3.117  1.7569  0.1738  0.0083
 3680SOL     OW22675   3.145   1.153  12.181  0.0455 -0.5599  0.4687
 3680SOL    HW122676   3.052   1.147  12.163 -0.4856  0.6304  2.7983
 3680SOL    HW222677   3.193   1.130  12.101  0.0425  2.1744 -0.3163
 3681SOL     OW22678   2.848   4.199   1.526  0.5007  0.1956  0.2336
 3681SOL    HW122679   2.823   4.170   1.614 -0.7260  0.3338 -0.0605
 3681SOL    HW222680   2.759   4.206   1.490  1.1654  2.2074 -0.9467
 3682SOL     OW22681   4.287   3.073   5.873 -0.1944 -0.5788  0.4609
 3682SOL    HW122682   4.338   3.145   5.908  1.2955 -2.3515  1.9080
 3682SOL    HW222683   4.320   3.084   5.784  2.3272  1.3507  1.6407
 3683SOL     OW22684   2.658   3.161  12.854 -0.2288 -0.0826 -0.2631
 3683SOL    HW122685   2.685   3.071  12.871 -1.9279 -0.2685  1.4621
 3683SOL    HW222686   2.594   3.165  12.925  2.4096 -1.4591  2.1996
 3684SOL     OW22687   3.775   3.599  15.405  0.0483  0.1016  0.7136
 3684SOL    HW122688   3.815   3.640  15.482  1.0790 -0.0577  0.2669
 3684SOL    HW222689   3.855   3.573  15.360  0.2547 -0.8767  1.6553
 3685SOL     OW22690   3.596   2.238   8.310  0.1225 -0.6987  0.3859
 3685SOL    HW122691   3.512   2.264   8.347 -0.1518  2.7757 -2.6061
 3685SOL    HW222692   3.643   2.211   8.389 -0.3947 -0.6681  0.7048
 3686SOL     OW22693   4.266   1.648   7.776  0.5372 -0.7338  0.2110
 3686SOL    HW122694   4.228   1.620   7.692  1.3252  0.0929 -0.4252
 3686SOL    HW222695   4.253   1.574   7.835  0.4205 -0.5025  0.4766
 3687SOL     OW22696   1.369   0.743   3.609 -0.4275  0.7724  0.3882
 3687SOL    HW122697   1.324   0.742   3.694 -2.0220 -1.1316 -0.4855
 3687SOL    HW222698   1.346   0.652   3.589  0.1891  0.4567  1.1093
 3688SOL     OW22699   0.558   0.917   9.554 -0.2742 -0.1115 -0.5179
 3688SOL    HW122700   0.471   0.882   9.573 -0.1481 -0.8544 -1.3039
 3688SOL    HW222701   0.617   0.867   9.610 -0.0317 -1.3709 -1.8759
 3689SOL     OW22702   1.087   4.707   9.502  0.1593  0.4885  0.4859
 3689SOL    HW122703   1.176   4.733   9.479 -0.7054  0.8165 -2.4904
 3689SOL    HW222704   1.087   4.612   9.491 -2.7091  0.6913 -1.3762
 3690SOL     OW22705   3.494   3.593   2.710 -0.2153  0.7152  0.1021
 3690SOL    HW122706   3.409   3.630   2.735  0.5427  2.1026  0.6114
 3690SOL    HW222707   3.491   3.511   2.760 -1.5047 -0.7508 -2.3733
 3691SOL     OW22708   0.595   3.441   1.001  0.1546  0.2059 -0.2890
 3691SOL    HW122709   0.644   3.359   0.991 -1.1617 -0.3169 -2.3675
 3691SOL    HW222710   0.507   3.407   0.988  0.4846 -0.6976 -0.1251
 3692SOL     OW22711   4.071   1.858   9.582  0.1729 -0.4065  0.6344
 3692SOL    HW122712   4.013   1.911   9.528  5.2446  2.4981 -2.0230
 3692SOL    HW222713   4.149   1.846   9.527  0.7642 -1.1364  1.6337
 3693SOL     OW22714   2.778   3.469   6.460  0.0429 -0.0931 -0.0561
 3693SOL    HW122715   2.737   3.452   6.544 -0.0480  2.1614  0.3582
 3693SOL    HW222716   2.870   3.444   6.469  0.2803  1.2335  1.2768
 3694SOL     OW22717   3.087   1.919   7.227 -0.1162  0.2062 -0.3171
 3694SOL    HW122718   3.053   1.954   7.145 -0.5752 -0.8785 -0.5979
 3694SOL    HW222719   3.168   1.883   7.192 -1.1356 -0.8450 -1.5975
 3695SOL     OW22720   4.515   3.771   9.852  0.9295  0.0573 -1.0007
 3695SOL    HW122721   4.595   3.778   9.800  2.9971  1.9962  2.4592
 3695SOL    HW222722   4.465   3.851   9.832  0.8510  0.5971  1.4327
 3696SOL     OW22723   3.570   3.596   1.311 -0.5443 -0.1681 -0.5927
 3696SOL    HW122724   3.508   3.667   1.326  0.6087  1.1222 -1.9509
 3696SOL    HW222725   3.524   3.525   1.355 -0.9559 -0.9731 -2.2923
 3697SOL     OW22726   3.589   0.278  16.095 -0.0075  0.1459  0.7763
 3697SOL    HW122727   3.579   0.281  16.000 -1.2051 -1.2586  0.8648
 3697SOL    HW222728   3.684   0.292  16.106  0.2656 -2.2119  1.3063
 3698SOL     OW22729   0.711   2.606   5.530 -0.0058  0.4114  0.1251
 3698SOL    HW122730   0.782   2.623   5.591 -0.3296 -0.7167  0.8236
 3698SOL    HW222731   0.643   2.652   5.578 -0.9422 -0.4672 -0.3548
 3699SOL     OW22732   2.944   4.450   4.586 -0.0901 -0.5198  0.0538
 3699SOL    HW122733   3.019   4.478   4.640  0.6355 -2.8966  0.2457
 3699SOL    HW222734   2.873   4.493   4.635 -1.2559  1.1420 -3.0872
 3700SOL     OW22735   3.595   1.615   5.164  0.4051 -0.2387 -0.0882
 3700SOL    HW122736   3.527   1.597   5.229  0.5430 -1.9844 -0.4136
 3700SOL    HW222737   3.531   1.632   5.094  2.4636 -3.2383 -2.7338
 3701SOL     OW22738   1.726   2.150   6.677  0.2878 -0.1789  0.4660
 3701SOL    HW122739   1.632   2.170   6.682 -0.3315 -3.0383  0.1951
 3701SOL    HW222740   1.750   2.116   6.763 -0.9146 -1.0073  0.4693
 3702SOL     OW22741   4.718   1.525   3.873  0.4455 -0.3566  1.0982
 3702SOL    HW122742   0.020   1.488   3.792  1.5621  3.1676 -0.0255
 3702SOL    HW222743   0.070   1.536   3.915  1.3512  0.7088 -1.0500
 3703SOL     OW22744   2.888   3.409  11.361 -0.3487 -0.5017 -0.4438
 3703SOL    HW122745   2.809   3.449  11.398  2.2078  0.4490  4.0118
 3703SOL    HW222746   2.889   3.318  11.389 -0.1814 -0.9994 -2.0866
 3704SOL     OW22747   4.209   0.848   0.192  0.1809  0.0921 -0.4224
 3704SOL    HW122748   4.251   0.856   0.106  1.6631  1.1865  0.4218
 3704SOL    HW222749   4.275   0.886   0.249 -0.0653 -0.8565  0.5034
 3705SOL     OW22750   0.945   3.602   2.695 -0.1003 -0.1349 -0.0337
 3705SOL    HW122751   1.005   3.658   2.645 -1.2280 -0.8129 -2.1518
 3705SOL    HW222752   0.869   3.659   2.677 -1.2797 -1.9456 -0.7365
 3706SOL     OW22753   0.721   0.539   9.305  0.7568 -0.3106  0.1974
 3706SOL    HW122754   0.771   0.537   9.386  2.0926  1.3110 -0.5973
 3706SOL    HW222755   0.636   0.559   9.345 -0.1905  1.7397 -2.7836
 3707SOL     OW22756   1.684   0.397   5.467  0.2862 -0.0383  0.3432
 3707SOL    HW122757   1.676   0.317   5.416  1.1318  0.6403 -0.8664
 3707SOL    HW222758   1.608   0.445   5.432  0.6605 -0.3341 -0.8655
 3708SOL     OW22759   2.651   4.539   3.077  0.1034  0.1083  0.0299
 3708SOL    HW122760   2.704   4.537   3.156  0.9042  1.6314 -0.4769
 3708SOL    HW222761   2.584   4.608   3.078 -1.4747 -1.4084 -0.0277
 3709SOL     OW22762   1.871   0.518   1.701  0.0454 -0.1271  0.1645
 3709SOL    HW122763   1.779   0.517   1.726 -0.0047  2.3838  0.0952
 3709SOL    HW222764   1.877   0.571   1.621 -0.7515 -0.5393 -0.1651
 3710SOL     OW22765   1.843   1.717   3.963  0.4808 -0.7014  0.0028
 3710SOL    HW122766   1.752   1.698   3.940  0.7138 -1.5104 -0.2553
 3710SOL    HW222767   1.894   1.705   3.884 -0.8141 -0.9431 -0.7994
 3711SOL     OW22768   0.889   3.159   2.973  0.2856 -0.0976 -0.1336
 3711SOL    HW122769   0.915   3.226   2.911 -2.9831  0.5271 -0.8682
 3711SOL    HW222770   0.809   3.201   3.007 -1.2841 -1.3983 -2.2097
 3712SOL     OW22771   1.713   0.081   4.966  0.6620  0.7469 -0.0874
 3712SOL    HW122772   1.682   0.011   5.023 -1.1557  1.0749 -0.6820
 3712SOL    HW222773   1.661   0.064   4.888  1.0969  1.2972 -0.4986
 3713SOL     OW22774   3.258   4.247   2.109  0.3424 -1.0605 -0.0035
 3713SOL    HW122775   3.321   4.233   2.038  0.2185 -1.9091  0.0514
 3713SOL    HW222776   3.177   4.224   2.064  0.3792  0.9246 -1.0976
 3714SOL     OW22777   1.777   1.982   3.258  0.1385  0.2820  0.2973
 3714SOL    HW122778   1.747   1.970   3.168 -2.5780 -0.4319  1.2789
 3714SOL    HW222779   1.854   2.036   3.244  0.5414 -0.7614 -1.4453
 3715SOL     OW22780   1.239   1.277  13.015  0.5308  0.2747  0.6059
 3715SOL    HW122781   1.285   1.350  12.974 -0.3460 -0.4588 -1.7187
 3715SOL    HW222782   1.313   1.218  13.002  1.2015  0.8114  2.0205
 3716SOL     OW22783   3.466   1.478  10.360 -0.4874 -0.2176  1.0728
 3716SOL    HW122784   3.394   1.446  10.414 -0.3206 -2.3461  0.0703
 3716SOL    HW222785   3.445   1.425  10.283  1.1138  0.8066 -0.0753
 3717SOL     OW22786   1.083   0.672   3.888  0.2183 -0.6661 -0.0268
 3717SOL    HW122787   1.106   0.762   3.866 -2.7608  0.4968  1.6177
 3717SOL    HW222788   1.002   0.683   3.938  0.5940 -1.6755  0.7993
 3718SOL     OW22789   2.311   4.249  14.882 -0.4510  0.1882  0.0647
 3718SOL    HW122790   2.246   4.184  14.910 -1.1256  0.7870 -0.0901
 3718SOL    HW222791   2.338   4.204  14.801  1.3870  2.9383 -0.8419
 3719SOL     OW22792   0.103   0.852   5.035 -0.3756 -0.6987  0.0344
 3719SOL    HW122793   0.139   0.893   5.113 -1.0535 -0.1940  0.0884
 3719SOL    HW222794   0.059   0.924   4.989  0.1307  1.1165  2.4216
 3720SOL     OW22795   2.583   1.891   5.067 -0.3253  0.1349  0.4833
 3720SOL    HW122796   2.568   1.818   5.006  1.4952 -0.4515  0.7292
 3720SOL    HW222797   2.490   1.904   5.086  0.3225  3.8359  1.0171
 3721SOL     OW22798   2.636   0.014   1.646 -0.0249  0.5174  0.8830
 3721SOL    HW122799   2.698   4.692   1.600 -1.0891 -0.4218  0.6044
 3721SOL    HW222800   2.566   4.687   1.666  0.0364 -0.1303 -0.8889
 3722SOL     OW22801   1.012   1.975   0.686 -0.2155 -0.5669  0.1259
 3722SOL    HW122802   0.918   1.978   0.704 -0.2595  0.4880 -0.3076
 3722SOL    HW222803   1.035   1.882   0.685 -1.5774 -0.8956 -1.0905
 3723SOL     OW22804   2.728   2.139   3.769  0.3863 -0.5983 -0.2316
 3723SOL    HW122805   2.714   2.215   3.826  0.1639 -0.6352 -0.2357
 3723SOL    HW222806   2.641   2.114   3.737 -0.6523  1.2321  1.1819
 3724SOL     OW22807   1.423   3.223   9.862 -0.5003  0.6607  0.1329
 3724SOL    HW122808   1.507   3.260   9.831  0.7764 -0.4646  2.2651
 3724SOL    HW222809   1.449   3.158   9.927  1.7364 -0.1450 -1.5370
 3725SOL     OW22810   1.859   4.108  10.957  0.6378  0.4468 -0.2473
 3725SOL    HW122811   1.788   4.156  10.914  0.0037 -0.4595 -0.1946
 3725SOL    HW222812   1.866   4.162  11.035  1.1811  2.2603 -1.5306
 3726SOL     OW22813   0.962   3.714   8.732 -0.0635 -0.4137  0.4302
 3726SOL    HW122814   1.001   3.776   8.670  0.7197 -0.4384  0.8997
 3726SOL    HW222815   0.959   3.782   8.799  0.8753 -0.2052  0.2716
 3727SOL     OW22816   3.432   1.207   4.414 -0.4792  0.1971 -0.6564
 3727SOL    HW122817   3.341   1.203   4.387 -0.1574  0.5884 -1.7928
 3727SOL    HW222818   3.429   1.151   4.492 -0.8221 -0.9659 -1.4967
 3728SOL     OW22819   0.137   0.436  16.228 -0.0418 -0.4631 -0.0209
 3728SOL    HW122820   0.103   0.347  16.229  0.3071 -0.5994 -0.5808
 3728SOL    HW222821   0.072   0.480  16.283  1.4710  0.7722  0.8044
 3729SOL     OW22822   3.148   3.801   3.359  0.2470 -0.2175  0.4467
 3729SOL    HW122823   3.105   3.880   3.391  0.6833  0.8374 -1.5256
 3729SOL    HW222824   3.092   3.735   3.399  1.0039 -0.5110  1.0335
 3730SOL     OW22825   2.783   3.427   3.559  0.1534 -0.0279  0.1312
 3730SOL    HW122826   2.757   3.335   3.549 -2.4090  0.5633  1.4098
 3730SOL    HW222827   2.792   3.440   3.654 -0.0761 -2.4737  0.4968
 3731SOL     OW22828   3.695   1.487   4.914  0.6233 -0.2741 -0.1633
 3731SOL    HW122829   3.740   1.495   4.998  1.2717 -1.5129 -0.3942
 3731SOL    HW222830   3.636   1.416   4.938 -1.3058  1.4273  0.0398
 3732SOL     OW22831   1.129   3.768   2.289  0.2524 -0.4845 -0.0630
 3732SOL    HW122832   1.140   3.674   2.303 -1.0592 -0.3686  1.6798
 3732SOL    HW222833   1.219   3.789   2.267  0.7094 -0.3326  1.9972
 3733SOL     OW22834   2.410   3.399  11.760 -0.5944 -0.2738 -0.2013
 3733SOL    HW122835   2.374   3.347  11.688 -0.2481  0.9713 -1.2797
 3733SOL    HW222836   2.338   3.373  11.818  0.6308 -0.9853  0.9947
 3734SOL     OW22837   4.126   3.589   7.095  0.1729 -0.3834 -0.1019
 3734SOL    HW122838   4.072   3.559   7.168  0.9122 -1.9460 -0.1919
 3734SOL    HW222839   4.126   3.511   7.039 -0.8999 -0.0486 -0.5683
 3735SOL     OW22840   3.034   2.615   5.230  0.4002 -0.2279 -0.3490
 3735SOL    HW122841   3.119   2.610   5.274 -0.9059 -0.5583  2.1677
 3735SOL    HW222842   3.039   2.704   5.195  2.9034 -0.7944 -1.4190
 3736SOL     OW22843   0.382   2.874  13.903 -0.2671  0.0436  0.2196
 3736SOL    HW122844   0.324   2.814  13.858  0.7922 -0.7886 -0.0364
 3736SOL    HW222845   0.310   2.933  13.923  1.0189  0.6213  3.1438
 3737SOL     OW22846   4.650   1.255   7.273 -0.0517 -0.3520  0.0212
 3737SOL    HW122847   0.003   1.223   7.295 -0.2086 -1.9598 -1.8213
 3737SOL    HW222848   4.600   1.174   7.266  1.6940 -1.5724  1.6574
 3738SOL     OW22849   1.849   1.090  10.135  0.3914 -0.4296 -0.2123
 3738SOL    HW122850   1.889   1.175  10.116  0.5122 -0.7780 -1.5001
 3738SOL    HW222851   1.894   1.055  10.212  1.1166 -0.7767 -0.7941
 3739SOL     OW22852   4.362   4.480   9.176  0.2146  0.3129 -0.8290
 3739SOL    HW122853   4.328   4.493   9.088 -1.2134 -1.3676 -0.5253
 3739SOL    HW222854   4.425   4.412   9.154  0.1412  0.0700 -0.2865
 3740SOL     OW22855   0.537   3.152   1.180  0.0364 -0.5446  0.0197
 3740SOL    HW122856   0.514   3.218   1.246 -0.5446  1.9198 -2.6158
 3740SOL    HW222857   0.451   3.134   1.143  0.9666 -3.6047 -0.5996
 3741SOL     OW22858   1.602   1.970   3.800  0.2039 -0.1122  0.4359
 3741SOL    HW122859   1.683   2.015   3.822  0.0942  1.2616 -1.9642
 3741SOL    HW222860   1.616   1.885   3.843  0.3298 -0.7425 -0.8313
 3742SOL     OW22861   1.464   0.873   2.254  0.5313  0.2987  0.3045
 3742SOL    HW122862   1.481   0.905   2.342 -0.2594 -2.6060  1.5118
 3742SOL    HW222863   1.517   0.794   2.258 -0.1045 -0.1535 -0.1480
 3743SOL     OW22864   0.039   0.175  16.277 -0.2916 -0.0478  0.4187
 3743SOL    HW122865   4.732   0.090  16.263  0.9531 -0.4831 -0.6643
 3743SOL    HW222866   4.724   0.194  16.357  1.7829  0.3062  1.6001
 3744SOL     OW22867   0.942   3.993  17.445  0.0424 -0.8764 -0.4041
 3744SOL    HW122868   0.862   4.023  17.490 -0.4084 -2.3504 -0.2063
 3744SOL    HW222869   0.954   4.060  17.379  0.1865 -2.0011 -1.5109
 3745SOL     OW22870   0.232   2.117   4.129 -0.2186  0.3716  0.2566
 3745SOL    HW122871   0.207   2.025   4.140  0.6909  0.0920  0.0235
 3745SOL    HW222872   0.157   2.155   4.174  2.1063  3.2327  1.7323
 3746SOL     OW22873   3.118   3.546  14.253 -0.0636  0.1303  0.2768
 3746SOL    HW122874   3.170   3.497  14.189 -1.8924  0.4786 -1.4718
 3746SOL    HW222875   3.033   3.503  14.244  1.0495 -1.7816 -1.0151
 3747SOL     OW22876   2.878   1.076   4.574  0.6131  0.1126 -0.4106
 3747SOL    HW122877   2.853   1.158   4.533  0.1916 -0.5866 -1.5719
 3747SOL    HW222878   2.828   1.011   4.524  0.2412  0.7182 -0.8272
 3748SOL     OW22879   3.872   4.146   7.020 -0.0148 -0.6824  0.0314
 3748SOL    HW122880   3.836   4.066   7.057  0.7599 -1.5516 -1.0928
 3748SOL    HW222881   3.802   4.211   7.016 -1.2180 -2.0825 -1.9044
 3749SOL     OW22882   2.420   3.519   3.575  0.4627  0.0218  0.1593
 3749SOL    HW122883   2.339   3.567   3.591  0.4029 -0.1098  0.2528
 3749SOL    HW222884   2.421   3.498   3.482  0.1402  1.2682 -0.1241
 3750SOL     OW22885   2.009   3.744  14.889  0.2090  0.2465  0.1530
 3750SOL    HW122886   1.972   3.825  14.923  2.1881  1.5686 -0.8658
 3750SOL    HW222887   2.081   3.735  14.951 -0.6260 -2.8338  0.6756
 3751SOL     OW22888   2.085   2.521  11.533  0.6059 -0.0550 -0.3140
 3751SOL    HW122889   2.179   2.507  11.536  0.5347 -1.1178 -2.6804
 3751SOL    HW222890   2.078   2.520  11.628 -0.2748 -1.3063 -0.3957
 3752SOL     OW22891   4.659   2.182   6.902 -0.1740 -0.0054  0.4835
 3752SOL    HW122892   4.713   2.110   6.936 -0.2471  0.3779  1.3965
 3752SOL    HW222893   4.718   2.255   6.920 -0.5448  0.3940  0.0677
 3753SOL     OW22894   2.657   4.482  15.476 -0.1122 -0.2428  0.0668
 3753SOL    HW122895   2.614   4.567  15.490  0.7405  0.3535 -0.9726
 3753SOL    HW222896   2.644   4.455  15.386  3.9644 -1.4770 -0.1233
 3754SOL     OW22897   2.969   1.211  12.584 -0.4290 -0.1457 -0.2867
 3754SOL    HW122898   3.055   1.189  12.546 -0.2974 -0.2818  0.0830
 3754SOL    HW222899   2.915   1.170  12.516 -0.8140 -0.5769  0.2732
 3755SOL     OW22900   2.929   1.005   7.647 -0.1329 -0.7618  0.1468
 3755SOL    HW122901   2.990   1.016   7.720 -0.2175 -2.2178  0.4274
 3755SOL    HW222902   2.876   0.937   7.688 -0.2866 -0.8785 -0.2507
 3756SOL     OW22903   2.847   0.470   3.394 -0.3597 -0.5199  0.3721
 3756SOL    HW122904   2.876   0.411   3.325 -0.4768  1.4255 -1.3489
 3756SOL    HW222905   2.933   0.481   3.435  0.5271  0.0260 -1.6726
 3757SOL     OW22906   1.693   3.311   4.378 -0.4476 -0.5204  0.1761
 3757SOL    HW122907   1.671   3.352   4.461 -0.8724 -1.1899  0.3980
 3757SOL    HW222908   1.750   3.374   4.334 -1.4823 -0.0535 -0.4911
 3758SOL     OW22909   4.316   3.242  16.959  0.0646  0.2130  0.6383
 3758SOL    HW122910   4.292   3.331  16.935 -0.8088  0.2031  1.4702
 3758SOL    HW222911   4.411   3.234  16.962  0.1800  0.2564 -2.7955
 3759SOL     OW22912   2.677   3.891   9.159  0.1990  0.1217  0.1249
 3759SOL    HW122913   2.740   3.821   9.143 -1.6120 -1.5680  0.5406
 3759SOL    HW222914   2.649   3.901   9.069  0.2028 -2.0988 -0.1120
 3760SOL     OW22915   4.527   1.938   6.885  0.1579 -0.0953 -0.4431
 3760SOL    HW122916   4.545   2.032   6.885 -0.3764  0.0051  0.5586
 3760SOL    HW222917   4.597   1.904   6.942 -1.6840  1.2468  2.6135
 3761SOL     OW22918   4.719   3.962   8.280 -0.4380  0.1141  0.7590
 3761SOL    HW122919   4.704   3.973   8.374  1.7750 -1.6873  1.3374
 3761SOL    HW222920   0.011   4.051   8.255 -0.7540  0.4376  1.5866
 3762SOL     OW22921   4.035   0.544   8.351 -0.1840 -0.1635 -0.2221
 3762SOL    HW122922   4.025   0.613   8.417  0.4474  0.7047 -1.0457
 3762SOL    HW222923   4.104   0.574   8.292 -1.1584 -1.4153 -1.9994
 3763SOL     OW22924   0.354   2.547   5.245 -0.1096 -0.2846 -0.5739
 3763SOL    HW122925   0.355   2.565   5.339  1.6648  0.4503 -0.7305
 3763SOL    HW222926   0.416   2.604   5.199  1.7862  0.3697  2.8218
 3764SOL     OW22927   1.040   1.461   7.060 -0.3910 -0.0238 -0.5465
 3764SOL    HW122928   1.050   1.391   6.995 -0.3805 -0.8430  0.3177
 3764SOL    HW222929   0.945   1.467   7.076 -0.3682  2.2361 -1.3589
 3765SOL     OW22930   0.870   1.449   0.514  0.3092 -0.6034  0.1794
 3765SOL    HW122931   0.961   1.462   0.539 -0.4435  0.0359  2.5922
 3765SOL    HW222932   0.868   1.489   0.427  3.4487 -2.2153 -0.6189
 3766SOL     OW22933   2.044   0.562   9.032 -0.1950  0.1634 -0.2222
 3766SOL    HW122934   2.072   0.640   9.081  0.3993  0.2434 -0.6875
 3766SOL    HW222935   2.126   0.515   9.020  0.4049  1.0924  0.2099
 3767SOL     OW22936   3.213   2.487   4.023  0.2745 -0.5106 -0.0467
 3767SOL    HW122937   3.279   2.467   3.957  0.8900  1.2257  0.0486
 3767SOL    HW222938   3.139   2.444   3.980  0.2190 -1.3886  0.8970
 3768SOL     OW22939   2.316   4.225   5.251 -0.0833  0.5302 -0.4452
 3768SOL    HW122940   2.233   4.253   5.213 -1.2197 -3.2720 -0.7886
 3768SOL    HW222941   2.355   4.163   5.190  0.3545  0.0288  0.3327
 3769SOL     OW22942   4.721   3.735   6.182  0.0700  0.1137 -0.7108
 3769SOL    HW122943   4.643   3.685   6.206 -1.3209  2.3877 -0.5354
 3769SOL    HW222944   0.049   3.718   6.253 -0.6278 -3.3922 -0.9140
 3770SOL     OW22945   0.409   4.586  11.071 -0.0518 -0.0764 -0.2294
 3770SOL    HW122946   0.352   4.626  11.005 -0.0699  1.4784  0.7354
 3770SOL    HW222947   0.490   4.634  11.053 -1.8004  2.4868 -1.3349
 3771SOL     OW22948   1.934   1.304   2.791 -0.2602  1.0763 -0.3191
 3771SOL    HW122949   1.845   1.339   2.781 -0.9319 -0.9677 -1.4675
 3771SOL    HW222950   1.974   1.366   2.730  1.7385  0.0921  0.0147
 3772SOL     OW22951   2.706   2.568  16.677 -0.2831  0.0526 -0.0073
 3772SOL    HW122952   2.659   2.605  16.602 -0.7569 -0.4581  0.0424
 3772SOL    HW222953   2.782   2.541  16.626  0.4778  0.5157  0.8796
 3773SOL     OW22954   0.817   4.330   6.251 -0.2561  0.1339 -0.7971
 3773SOL    HW122955   0.738   4.334   6.197 -1.6520 -0.9735  1.1590
 3773SOL    HW222956   0.800   4.250   6.300  0.5213 -0.6099 -1.7366
 3774SOL     OW22957   2.295   3.115  11.967 -0.2401  0.2682  0.2613
 3774SOL    HW122958   2.248   3.193  11.936  0.8710  1.2760  1.0848
 3774SOL    HW222959   2.301   3.131  12.061  0.2554 -1.0858  0.4514
 3775SOL     OW22960   2.254   4.260   7.400 -0.2671  0.2088  0.2051
 3775SOL    HW122961   2.226   4.305   7.320 -0.4255 -0.8600 -0.3361
 3775SOL    HW222962   2.236   4.169   7.379 -1.2705  0.9922 -2.3673
 3776SOL     OW22963   1.926   2.945   5.519  0.0102  0.2506 -0.3652
 3776SOL    HW122964   1.968   2.863   5.492 -0.1741  0.1283 -0.2769
 3776SOL    HW222965   1.897   2.982   5.435  0.8059  2.7356  0.4603
 3777SOL     OW22966   0.104   0.436   8.040  0.0993  0.2659 -0.3749
 3777SOL    HW122967   0.197   0.425   8.062  0.3452  0.1745 -1.4965
 3777SOL    HW222968   0.056   0.393   8.111 -0.7259 -0.0609 -1.1366
 3778SOL     OW22969   2.126   4.132   8.197 -0.2139  0.0417 -0.0358
 3778SOL    HW122970   2.191   4.195   8.229 -0.2933  0.5693 -0.9140
 3778SOL    HW222971   2.076   4.177   8.129 -0.2645 -0.0062 -0.0299
 3779SOL     OW22972   4.426   1.522   4.717 -0.0821  0.1321  0.5848
 3779SOL    HW122973   4.371   1.464   4.665 -0.1014 -0.6391  1.4803
 3779SOL    HW222974   4.431   1.592   4.652  3.1845  0.2718  0.9709
 3780SOL     OW22975   1.364   2.359   3.965 -0.1253  0.1233 -0.0168
 3780SOL    HW122976   1.332   2.302   4.035 -1.2826 -0.7087 -1.2246
 3780SOL    HW222977   1.391   2.302   3.892 -1.6995 -1.0535  0.3047
 3781SOL     OW22978   3.448   2.474   6.450 -0.1230 -0.0622 -0.1735
 3781SOL    HW122979   3.531   2.427   6.447 -1.0697 -1.7441  0.1448
 3781SOL    HW222980   3.411   2.455   6.364  0.2821 -0.9580 -0.1534
 3782SOL     OW22981   1.160   3.685   3.302 -0.0685 -0.1624 -0.2668
 3782SOL    HW122982   1.099   3.738   3.353 -0.5773 -0.7561 -0.2660
 3782SOL    HW222983   1.118   3.599   3.297 -0.7984  0.1931 -0.2185
 3783SOL     OW22984   4.513   4.055   6.937 -0.4499 -0.2753  0.4695
 3783SOL    HW122985   4.606   4.078   6.931 -0.8129  1.1542  0.3257
 3783SOL    HW222986   4.499   4.116   7.009 -1.5463  0.5421 -0.4570
 3784SOL     OW22987   1.238   4.727   1.237 -0.2624  0.0005 -0.3582
 3784SOL    HW122988   1.191   0.069   1.271  0.1095 -0.2798  0.7696
 3784SOL    HW222989   1.176   4.657   1.222 -1.0274  0.5756  0.1118
 3785SOL     OW22990   1.173   0.618   8.439 -0.8576 -0.8548  0.3011
 3785SOL    HW122991   1.251   0.620   8.383 -0.4237  0.0478  0.9371
 3785SOL    HW222992   1.203   0.619   8.530 -2.1817 -0.4090  0.7215
 3786SOL     OW22993   1.522   2.723   6.006  0.1909  0.2498  0.2055
 3786SOL    HW122994   1.535   2.817   5.999  1.9685  0.0463  0.6402
 3786SOL    HW222995   1.487   2.696   5.921  1.5541 -2.2027  0.4270
 3787SOL     OW22996   1.539   0.487  14.235 -0.1018  0.4986 -0.3643
 3787SOL    HW122997   1.551   0.449  14.322  0.3089  0.5234 -0.4087
 3787SOL    HW222998   1.540   0.579  14.262  0.1949  0.0683  1.0933
 3788SOL     OW22999   2.100   0.208  11.534 -0.3068 -0.6123 -0.1359
 3788SOL    HW123000   2.090   0.250  11.448  1.3693 -0.4810 -0.2591
 3788SOL    HW223001   2.090   0.117  11.506  0.9586 -1.1245  1.0953
 3789SOL     OW23002   2.840   2.356  11.290  0.2627  0.4682  0.0037
 3789SOL    HW123003   2.784   2.385  11.219  0.6692 -2.4968 -1.5292
 3789SOL    HW223004   2.830   2.434  11.344 -0.4279  0.9050 -0.7522
 3790SOL     OW23005   2.472   1.308   9.388  0.4274  0.1823  0.1552
 3790SOL    HW123006   2.472   1.272   9.300  0.4131 -1.3294  0.7697
 3790SOL    HW223007   2.465   1.400   9.364 -1.2573  0.0423  0.0776
 3791SOL     OW23008   0.276   1.803   8.972 -0.1197 -0.5401  0.3427
 3791SOL    HW123009   0.248   1.892   8.992  3.5353  0.8628 -0.6346
 3791SOL    HW223010   0.371   1.808   8.957 -0.1784 -1.2724 -0.2784
 3792SOL     OW23011   2.301   1.721   0.970 -0.1480  0.1992  0.7834
 3792SOL    HW123012   2.236   1.791   0.972  1.0460  1.3732 -0.8471
 3792SOL    HW223013   2.338   1.741   1.056  0.6743 -1.0588  0.7332
 3793SOL     OW23014   1.436   4.293   9.167 -0.6864  0.1236 -0.1784
 3793SOL    HW123015   1.422   4.367   9.108  2.1393 -0.2661 -1.3811
 3793SOL    HW223016   1.443   4.337   9.251 -1.7151  0.7881 -0.4439
 3794SOL     OW23017   3.921   1.285   2.028 -0.3302  0.6281  0.3627
 3794SOL    HW123018   3.947   1.287   1.936  2.6004  3.4798  1.2774
 3794SOL    HW223019   3.840   1.337   2.017 -0.4524  0.9477  2.8529
 3795SOL     OW23020   4.140   0.151  15.228  0.2375 -0.3482 -0.4262
 3795SOL    HW123021   4.066   0.193  15.183  0.2479  0.0562 -0.0702
 3795SOL    HW223022   4.123   0.160  15.322  3.6409 -0.4687  0.2197
 3796SOL     OW23023   3.515   3.872   5.309  0.1801  0.0819 -0.2744
 3796SOL    HW123024   3.507   3.946   5.248 -2.5008  1.5801  1.9211
 3796SOL    HW223025   3.424   3.851   5.327  0.4378 -0.6975  0.0909
 3797SOL     OW23026   3.002   1.961   9.186  0.5059 -0.2749 -0.4914
 3797SOL    HW123027   2.980   1.979   9.095  0.9650  3.2989  0.1101
 3797SOL    HW223028   3.073   1.897   9.185  0.8558  0.1264 -0.9779
 3798SOL     OW23029   0.751   3.127   2.587 -0.1548 -0.0019 -0.0868
 3798SOL    HW123030   0.733   3.214   2.623 -0.9688 -0.9061  1.6986
 3798SOL    HW223031   0.665   3.085   2.599 -0.6741  0.4328 -2.1740
 3799SOL     OW23032   3.583   0.929  14.357 -0.2750  0.3729 -0.1591
 3799SOL    HW123033   3.550   1.011  14.321 -2.8838 -0.8456 -0.5406
 3799SOL    HW223034   3.571   0.940  14.451  2.3597  2.1319 -0.0284
 3800SOL     OW23035   2.502   0.670   6.512  0.0277 -0.0928 -0.2795
 3800SOL    HW123036   2.422   0.638   6.470  0.2549 -3.3361  1.7602
 3800SOL    HW223037   2.543   0.735   6.455  0.0404  1.2322  1.2721
 3801SOL     OW23038   4.366   0.944   7.536 -0.0628  0.1084 -0.2909
 3801SOL    HW123039   4.408   0.886   7.472 -0.5689  0.5932 -1.0750
 3801SOL    HW223040   4.276   0.937   7.504  0.0060  2.2600 -0.9802
 3802SOL     OW23041   2.754   1.887   9.280 -0.1469 -0.0666  0.1279
 3802SOL    HW123042   2.784   1.821   9.343 -1.4449 -0.6214  0.1755
 3802SOL    HW223043   2.838   1.914   9.245  1.1422 -0.2316  3.0861
 3803SOL     OW23044   4.682   3.805  14.444  0.5651 -0.4488 -0.5399
 3803SOL    HW123045   4.668   3.802  14.349 -2.1602  0.5694 -0.1686
 3803SOL    HW223046   0.031   3.758  14.446  0.1062 -1.2682 -0.4647
 3804SOL     OW23047   3.940   0.577   6.743 -0.5521 -0.3003 -0.3626
 3804SOL    HW123048   3.857   0.600   6.702 -2.1037 -4.5181  0.4373
 3804SOL    HW223049   3.908   0.533   6.822 -2.3356  0.4259 -0.6953
 3805SOL     OW23050   3.169   1.570   0.196 -0.0633  0.8485 -0.0325
 3805SOL    HW123051   3.144   1.555   0.287  2.9077  1.3660  0.8803
 3805SOL    HW223052   3.220   1.649   0.213  0.5526  0.4809 -0.1342
 3806SOL     OW23053   4.210   0.691   8.069 -0.1052  0.4846  0.3059
 3806SOL    HW123054   4.154   0.768   8.074 -1.3370 -0.4891  1.6302
 3806SOL    HW223055   4.187   0.655   7.984  0.9067 -1.9314  1.0453
 3807SOL     OW23056   2.650   3.923   7.746 -0.8305  0.6142 -0.8493
 3807SOL    HW123057   2.639   3.838   7.705 -1.0511 -0.2832  1.0582
 3807SOL    HW223058   2.601   3.914   7.828  1.5157 -1.5718  0.3170
 3808SOL     OW23059   0.658   0.506  10.061 -0.7294 -0.4302  0.1530
 3808SOL    HW123060   0.598   0.442  10.097 -0.3677 -0.1830  1.1946
 3808SOL    HW223061   0.698   0.546  10.138 -1.4906  1.8450 -0.6317
 3809SOL     OW23062   3.735   3.119   6.709 -0.1318 -0.2785 -0.3483
 3809SOL    HW123063   3.739   3.099   6.615  0.7511 -0.2518 -0.3169
 3809SOL    HW223064   3.776   3.204   6.722 -1.4343 -0.0148  2.0224
 3810SOL     OW23065   4.272   1.315   2.043 -0.2356 -0.0210 -0.1184
 3810SOL    HW123066   4.216   1.392   2.046  0.6617  0.5808  1.6973
 3810SOL    HW223067   4.210   1.243   2.034  0.2724 -0.1765 -2.3019
 3811SOL     OW23068   2.741   4.619   5.789  0.2440 -0.3730 -0.8085
 3811SOL    HW123069   2.806   4.683   5.761  2.7229 -1.3090  2.8215
 3811SOL    HW223070   2.738   4.642   5.882 -0.5715 -0.6682 -0.7565
 3812SOL     OW23071   3.672   0.062  10.062  0.5652 -0.0349 -0.1129
 3812SOL    HW123072   3.585   0.060  10.024  0.1860 -1.7247  0.8724
 3812SOL    HW223073   3.700   0.150  10.036  0.6037  0.4818  1.6825
 3813SOL     OW23074   0.211   1.510   3.111 -0.5596 -0.0941  0.1935
 3813SOL    HW123075   0.159   1.429   3.113 -0.4087 -0.1367  1.8117
 3813SOL    HW223076   0.292   1.477   3.072 -1.0231  0.1421 -0.9900
 3814SOL     OW23077   0.473   4.203  17.365  0.4518  0.1718 -1.0219
 3814SOL    HW123078   0.413   4.131  17.385 -0.2401  1.2015  0.5809
 3814SOL    HW223079   0.475   4.240  17.453  0.4423  1.6064 -1.6264
 3815SOL     OW23080   3.174   4.708   3.528 -0.4343  0.1424  0.0183
 3815SOL    HW123081   3.244   0.035   3.507 -0.1613 -0.1176  0.1674
 3815SOL    HW223082   3.194   4.629   3.478 -1.4566 -0.9285  1.2877
 3816SOL     OW23083   3.564   1.493   7.423 -0.1435  0.6115  0.3482
 3816SOL    HW123084   3.531   1.511   7.511  1.9733 -1.0233  1.4813
 3816SOL    HW223085   3.592   1.401   7.425  0.1039  0.6384 -1.8236
 3817SOL     OW23086   1.934   4.563  16.026 -0.0348  0.6424  0.3380
 3817SOL    HW123087   1.838   4.561  16.032  0.0011  1.4769  1.1943
 3817SOL    HW223088   1.957   4.493  15.965 -0.7454 -0.5551  1.4473
 3818SOL     OW23089   2.770   3.502  12.535 -0.1047 -0.1990  0.1490
 3818SOL    HW123090   2.825   3.553  12.595 -2.2294 -0.1416  2.0656
 3818SOL    HW223091   2.739   3.573  12.479  0.9946  0.8094  0.8297
 3819SOL     OW23092   3.794   1.116  12.299  0.0727 -0.3045  0.1397
 3819SOL    HW123093   3.792   1.062  12.378 -1.1006 -1.4807 -0.6763
 3819SOL    HW223094   3.777   1.200  12.340 -1.9773 -0.3374 -0.6395
 3820SOL     OW23095   0.057   2.066   4.838 -0.1564 -0.0870  0.4681
 3820SOL    HW123096   0.023   2.142   4.886  1.6667  0.2368  1.2314
 3820SOL    HW223097   4.718   2.005   4.853  1.4154 -2.1660 -0.3400
 3821SOL     OW23098   0.887   0.110   7.684  0.5131  0.3819 -0.1544
 3821SOL    HW123099   0.859   0.186   7.632  2.1259  0.7305 -0.5456
 3821SOL    HW223100   0.951   0.079   7.619  1.3481 -3.2536  2.3962
 3822SOL     OW23101   4.660   0.511   2.155  0.3942  0.3126  0.5587
 3822SOL    HW123102   4.595   0.560   2.206 -0.7054 -3.2533  2.5295
 3822SOL    HW223103   4.611   0.508   2.072  0.4090  1.7948  0.4984
 3823SOL     OW23104   2.038   3.618   9.670 -0.1768  0.4586  0.2284
 3823SOL    HW123105   1.972   3.648   9.607  2.1139 -0.2837 -2.5153
 3823SOL    HW223106   2.114   3.604   9.614 -0.5013  0.9911 -0.3491
 3824SOL     OW23107   0.284   1.324  10.166  0.1293 -0.3928  0.0693
 3824SOL    HW123108   0.379   1.319  10.154 -0.1513 -3.2967 -1.1342
 3824SOL    HW223109   0.255   1.300  10.078 -0.0166  1.5491 -0.4027
 3825SOL     OW23110   0.865   4.660   9.865  0.1007 -0.4076 -0.1772
 3825SOL    HW123111   0.901   4.590   9.919  2.4777 -2.2340 -4.1420
 3825SOL    HW223112   0.851   4.726   9.933  1.2535 -1.4575  1.0746
 3826SOL     OW23113   2.833   2.645   8.311  0.0930  0.0863 -0.4225
 3826SOL    HW123114   2.768   2.654   8.242  2.1829 -3.1814 -2.7811
 3826SOL    HW223115   2.835   2.732   8.353 -1.3276  0.6976 -1.6404
 3827SOL     OW23116   4.160   3.932   5.329 -0.0002  0.0415  0.1298
 3827SOL    HW123117   4.090   3.869   5.308 -2.2104  2.4452  0.3168
 3827SOL    HW223118   4.211   3.911   5.251 -0.8262 -1.9445  0.1077
 3828SOL     OW23119   4.056   3.381  13.935 -0.0587 -0.2608 -0.5588
 3828SOL    HW123120   4.085   3.458  13.886  0.0422 -1.3550 -2.2223
 3828SOL    HW223121   4.025   3.415  14.019  0.7656  0.6280 -0.6139
 3829SOL     OW23122   1.669   3.925  13.467 -0.1922  0.2569  0.0407
 3829SOL    HW123123   1.760   3.952  13.481 -0.4712 -0.0711  2.5221
 3829SOL    HW223124   1.666   3.970  13.383 -1.3302  2.4631  1.2542
 3830SOL     OW23125   0.879   2.897   2.935  0.5494 -0.1029  0.6761
 3830SOL    HW123126   0.900   2.988   2.956 -1.1353  0.5026 -0.3255
 3830SOL    HW223127   0.785   2.898   2.947  0.6401 -1.3133  1.4368
 3831SOL     OW23128   0.869   3.140   9.942  0.2319 -0.4459 -0.0981
 3831SOL    HW123129   0.773   3.133   9.948  0.0306  2.1442 -0.4538
 3831SOL    HW223130   0.890   3.056   9.983 -0.2716 -1.2572 -1.5270
 3832SOL     OW23131   1.549   2.466   9.844  0.3889 -0.1299 -0.0425
 3832SOL    HW123132   1.565   2.504   9.757  3.4286 -1.3575 -0.0107
 3832SOL    HW223133   1.610   2.393   9.836  0.9021  0.1985  0.9654
 3833SOL     OW23134   2.605   2.247  13.932  0.7127 -0.4202  0.1152
 3833SOL    HW123135   2.573   2.330  13.896 -0.7072 -0.7264  0.6526
 3833SOL    HW223136   2.555   2.192  13.871  0.3209  0.1498 -0.0813
 3834SOL     OW23137   4.577   4.091  15.704  0.1649 -0.2605  0.2473
 3834SOL    HW123138   4.537   4.005  15.713  0.2096 -0.1943  1.0626
 3834SOL    HW223139   4.520   4.131  15.637  1.3120 -0.2290 -0.7023
 3835SOL     OW23140   1.653   3.394   4.644 -0.6438  0.1185  0.4650
 3835SOL    HW123141   1.611   3.324   4.693  0.7038 -0.0633  1.3316
 3835SOL    HW223142   1.581   3.420   4.585  0.5930  3.4296  0.4229
 3836SOL     OW23143   0.075   0.313   2.675 -0.7050 -0.4035  0.2316
 3836SOL    HW123144   0.072   0.362   2.593  0.1422  0.6578  0.8361
 3836SOL    HW223145   0.016   0.241   2.653  0.5044 -1.2033 -0.4108
 3837SOL     OW23146   3.218   3.465   9.749  0.0022  0.6929 -0.2613
 3837SOL    HW123147   3.190   3.417   9.827 -1.5467  0.6345 -0.8578
 3837SOL    HW223148   3.153   3.443   9.682  1.1571 -1.5530 -0.6579
 3838SOL     OW23149   3.324   0.630   9.539  0.0625 -0.4858 -0.7208
 3838SOL    HW123150   3.301   0.548   9.495 -1.3745  0.6275 -2.0324
 3838SOL    HW223151   3.238   0.672   9.549  1.9020  2.9575  0.6901
 3839SOL     OW23152   1.543   3.835   6.040 -0.7242 -0.6170  0.1841
 3839SOL    HW123153   1.490   3.806   5.966 -0.3225  0.8946 -0.6958
 3839SOL    HW223154   1.508   3.922   6.059  1.1132  0.4969 -1.5754
 3840SOL     OW23155   2.051   0.948  13.374 -0.5928  0.2998  0.4403
 3840SOL    HW123156   2.056   0.853  13.383  0.6214  0.5737  2.5347
 3840SOL    HW223157   2.087   0.958  13.462  0.1241 -0.0334  0.1870
 3841SOL     OW23158   3.554   4.572   1.224 -0.0095  0.2969  0.8010
 3841SOL    HW123159   3.558   4.480   1.196  2.2924  1.0952 -1.5299
 3841SOL    HW223160   3.472   4.587   1.179 -0.9237 -0.9869  2.0342
 3842SOL     OW23161   0.587   4.550   1.622  0.2825  0.3233  0.5702
 3842SOL    HW123162   0.543   4.600   1.691  0.0238 -1.0587  1.3887
 3842SOL    HW223163   0.634   4.487   1.677  1.0636  1.0235  0.7113
 3843SOL     OW23164   2.621   2.261  13.461  0.5519 -0.2391  0.8228
 3843SOL    HW123165   2.703   2.289  13.421  0.7258 -1.4227  0.3444
 3843SOL    HW223166   2.650   2.253  13.552  4.0939 -2.1734 -0.4748
 3844SOL     OW23167   1.171   3.594  14.522 -0.8114  0.4040  0.1592
 3844SOL    HW123168   1.255   3.554  14.499 -1.4434 -0.9892  0.2896
 3844SOL    HW223169   1.193   3.682  14.493  1.7937  0.6026  2.6144
 3845SOL     OW23170   4.541   2.258   4.802  0.4808 -0.0544  0.0088
 3845SOL    HW123171   4.544   2.166   4.826 -1.0944  0.1722  1.0400
 3845SOL    HW223172   4.525   2.296   4.888  2.6090  1.4530 -0.2415
 3846SOL     OW23173   1.448   1.512   9.990 -0.5101  0.2107 -0.7814
 3846SOL    HW123174   1.461   1.599   9.952 -1.0083  0.1028 -1.1927
 3846SOL    HW223175   1.445   1.452   9.916 -0.8453  0.4495 -0.9590
 3847SOL     OW23176   2.285   1.002   6.891  0.0559 -0.1849  0.0847
 3847SOL    HW123177   2.324   1.086   6.867  0.1921 -0.5685 -1.0369
 3847SOL    HW223178   2.242   1.026   6.973  1.5062  1.1833  0.4412
 3848SOL     OW23179   1.765   1.220   3.303  0.1254 -0.4600  0.0773
 3848SOL    HW123180   1.674   1.206   3.328  0.2992  0.5289  1.2269
 3848SOL    HW223181   1.790   1.294   3.357 -1.6221 -0.6092  1.0938
 3849SOL     OW23182   0.047   4.056  16.702  0.3955  0.1860 -0.4611
 3849SOL    HW123183   0.047   3.963  16.683  3.4395  0.0921 -0.0749
 3849SOL    HW223184   0.114   4.070  16.770 -0.3754  0.1562  0.3094
 3850SOL     OW23185   2.842   0.312   7.897 -0.2351  0.2542 -0.1663
 3850SOL    HW123186   2.825   0.246   7.831  0.0699 -1.0531  1.0698
 3850SOL    HW223187   2.881   0.265   7.970 -0.8106 -2.0253 -1.3511
 3851SOL     OW23188   4.193   3.863   9.189 -0.5410  0.9820  0.1975
 3851SOL    HW123189   4.163   3.946   9.151  0.1112  1.3417  0.4754
 3851SOL    HW223190   4.115   3.807   9.183  0.6861 -0.7917  1.0927
 3852SOL     OW23191   2.598   2.232  14.999 -0.0857  0.2707  0.1331
 3852SOL    HW123192   2.527   2.296  14.994 -0.1322  0.2488  0.5208
 3852SOL    HW223193   2.623   2.247  14.908  0.2307  2.2743  0.5521
 3853SOL     OW23194   2.935   0.840  15.752  0.7578  0.2535 -0.0851
 3853SOL    HW123195   3.008   0.902  15.757  0.8051  0.1134  0.9805
 3853SOL    HW223196   2.915   0.813  15.841 -0.7515 -0.9214 -0.7818
 3854SOL     OW23197   3.866   1.593   9.015  0.0373  0.4854 -0.2212
 3854SOL    HW123198   3.873   1.659   9.084  1.0855  0.2806 -0.1388
 3854SOL    HW223199   3.953   1.613   8.981  0.9186 -0.8148  1.2603
 3855SOL     OW23200   3.165   3.431   7.258  0.0593  0.1161 -0.1547
 3855SOL    HW123201   3.094   3.493   7.240  0.6644  1.5350  2.3025
 3855SOL    HW223202   3.170   3.397   7.168 -0.3147 -0.5545  0.0767
 3856SOL     OW23203   1.393   0.649   3.090 -0.5320  0.3389 -0.0984
 3856SOL    HW123204   1.411   0.571   3.037  0.0027  1.9368 -2.2896
 3856SOL    HW223205   1.323   0.695   3.043 -0.7652  1.4403  1.3311
 3857SOL     OW23206   3.157   1.217   4.380 -0.0526  0.3884 -0.5821
 3857SOL    HW123207   3.161   1.312   4.390 -1.2262  0.3743  0.0910
 3857SOL    HW223208   3.094   1.209   4.309 -1.0070  3.0629 -0.0558
 3858SOL     OW23209   3.169   1.678   7.430  0.6419 -0.3450  0.4764
 3858SOL    HW123210   3.163   1.735   7.353  1.5969 -1.0729 -0.1301
 3858SOL    HW223211   3.222   1.735   7.486 -1.3802 -0.3036  2.3568
 3859SOL     OW23212   1.890   1.816   9.286 -0.0256  0.1124 -0.1453
 3859SOL    HW123213   1.849   1.787   9.368  1.3522 -0.1392  0.4475
 3859SOL    HW223214   1.842   1.766   9.220  0.2783 -0.4535  0.0638
 3860SOL     OW23215   3.334   0.691  16.128  0.6530 -0.5705  0.0571
 3860SOL    HW123216   3.365   0.777  16.101 -1.8213  1.1501  2.6543
 3860SOL    HW223217   3.423   0.654  16.129  0.0891 -1.8971  1.3443
 3861SOL     OW23218   1.260   0.913   0.850  0.6731  0.3106  0.1336
 3861SOL    HW123219   1.172   0.930   0.883  0.2390 -1.2098 -0.2713
 3861SOL    HW223220   1.288   0.847   0.913  2.5216  0.5468 -0.4416
 3862SOL     OW23221   2.910   3.850   3.707  0.3076  0.1820  0.0706
 3862SOL    HW123222   2.866   3.825   3.789 -0.3220 -0.7725 -0.5538
 3862SOL    HW223223   2.924   3.943   3.691 -0.9210  0.1054 -1.4568
 3863SOL     OW23224   0.684   3.708   8.346  0.0884 -0.1815 -0.1401
 3863SOL    HW123225   0.601   3.737   8.310 -0.2688  0.9837  1.6320
 3863SOL    HW223226   0.724   3.788   8.380 -0.1831 -0.0065 -0.2360
 3864SOL     OW23227   3.106   0.138   4.997  0.5720 -0.3979 -0.2384
 3864SOL    HW123228   3.182   0.137   4.939 -1.4545 -3.1001 -2.8297
 3864SOL    HW223229   3.067   0.052   4.978  0.5682 -0.6968  1.1425
 3865SOL     OW23230   1.867   0.826   0.452 -0.6251 -0.1371  0.1460
 3865SOL    HW123231   1.790   0.881   0.468 -1.5721 -1.2720 -0.5230
 3865SOL    HW223232   1.867   0.804   0.359 -1.9583  0.4154  0.0178
 3866SOL     OW23233   3.028   4.185   1.958 -0.0324  0.1679 -0.0527
 3866SOL    HW123234   2.994   4.103   1.922 -0.9903 -0.2298  1.8249
 3866SOL    HW223235   2.955   4.238   1.928  0.1715  0.4156 -0.1173
 3867SOL     OW23236   4.473   0.920   4.852  0.5923 -0.5389 -0.9803
 3867SOL    HW123237   4.387   0.961   4.838  0.3255 -0.6871  0.2377
 3867SOL    HW223238   4.449   0.870   4.930 -0.7023 -0.4067 -1.2919
 3868SOL     OW23239   4.482   4.648   7.073  0.3088  0.3498  0.2180
 3868SOL    HW123240   4.542   4.574   7.078  1.8143  1.5448  0.2676
 3868SOL    HW223241   4.404   4.605   7.107  0.5632 -1.0052 -0.9014
 3869SOL     OW23242   0.438   2.017   0.826 -0.2418 -0.4591  0.3682
 3869SOL    HW123243   0.461   2.110   0.831  0.4767 -0.7741  2.8590
 3869SOL    HW223244   0.346   2.036   0.845 -0.2903  0.6277 -0.9018
 3870SOL     OW23245   0.511   2.243  15.718  0.0931 -0.2633 -0.2142
 3870SOL    HW123246   0.536   2.167  15.665 -0.7170 -1.5779  1.3156
 3870SOL    HW223247   0.592   2.294  15.717  0.8261 -1.4102  0.1312
 3871SOL     OW23248   2.231   4.293  14.429 -0.0988  0.5473  0.0196
 3871SOL    HW123249   2.323   4.282  14.450 -0.4807 -2.0507  0.2480
 3871SOL    HW223250   2.215   4.202  14.405 -2.3288  1.0262 -0.3327
 3872SOL     OW23251   3.197   0.484  11.105  0.1106 -0.4382  0.2037
 3872SOL    HW123252   3.205   0.429  11.027 -1.4929 -0.8091  0.2962
 3872SOL    HW223253   3.183   0.421  11.176 -1.6374  0.5812  0.7660
 3873SOL     OW23254   2.713   1.318  16.004 -0.1169 -0.2219 -0.4930
 3873SOL    HW123255   2.700   1.411  15.985 -0.3282  0.0955  1.2051
 3873SOL    HW223256   2.665   1.307  16.086 -0.2963  1.0860 -0.4235
 3874SOL     OW23257   4.453   0.160   7.156 -0.2152  0.2553  0.4477
 3874SOL    HW123258   4.476   0.068   7.150 -0.3808  0.2678 -0.3049
 3874SOL    HW223259   4.538   0.204   7.150  0.4027 -0.9626  0.2755
 3875SOL     OW23260   4.613   4.401   3.358 -0.5626 -0.2089  0.1702
 3875SOL    HW123261   4.567   4.485   3.357 -2.4229 -1.2139  2.5445
 3875SOL    HW223262   4.672   4.422   3.430 -0.9512 -1.5435  0.8716
 3876SOL     OW23263   4.450   4.640   3.355 -0.3396  0.3149 -0.0396
 3876SOL    HW123264   4.455   4.726   3.315 -1.8144  0.5537  0.2999
 3876SOL    HW223265   4.432   4.586   3.278 -0.5195  0.3150  0.0034
 3877SOL     OW23266   2.311   3.433   2.120 -0.6552 -0.2016 -0.3988
 3877SOL    HW123267   2.380   3.373   2.147  0.1372  0.2674 -1.3524
 3877SOL    HW223268   2.244   3.367   2.103  0.1081 -1.1753  0.4381
 3878SOL     OW23269   4.261   2.758   9.351  0.5948 -0.1548  0.4631
 3878SOL    HW123270   4.233   2.745   9.442 -0.6745 -2.5981 -0.2800
 3878SOL    HW223271   4.211   2.836   9.329  0.8713 -0.0303  0.2781
 3879SOL     OW23272   4.001   3.905   4.637  0.0718 -0.0781 -0.3791
 3879SOL    HW123273   4.065   3.847   4.678  2.4288  2.1156 -0.9649
 3879SOL    HW223274   4.039   3.911   4.550  0.3308 -0.6543 -0.3033
 3880SOL     OW23275   1.686   3.592   1.948  0.4627  0.2282 -0.2585
 3880SOL    HW123276   1.626   3.646   1.999 -1.3302 -0.8243 -1.2438
 3880SOL    HW223277   1.769   3.634   1.968  0.3204  0.3099  0.1667
 3881SOL     OW23278   0.364   0.476  12.995 -0.8273 -0.2825  0.5881
 3881SOL    HW123279   0.403   0.449  13.079  3.0546  3.6492  0.0776
 3881SOL    HW223280   0.434   0.457  12.933 -1.7909  0.2301 -0.6498
 3882SOL     OW23281   0.787   3.218   8.799 -0.2242 -0.5026 -0.5521
 3882SOL    HW123282   0.760   3.190   8.887  3.2493  0.0788  0.6811
 3882SOL    HW223283   0.839   3.287   8.840 -0.6752 -1.0659  0.9973
 3883SOL     OW23284   1.437   0.780   6.672  0.2442 -0.6850  0.5055
 3883SOL    HW123285   1.501   0.750   6.607 -0.3752  1.6621 -1.1763
 3883SOL    HW223286   1.483   0.754   6.752 -0.8789 -0.6231  1.1695
 3884SOL     OW23287   0.949   4.296   3.741 -0.1013  0.2482 -0.3066
 3884SOL    HW123288   1.012   4.263   3.805 -0.3586 -0.0701 -0.2178
 3884SOL    HW223289   0.873   4.245   3.768  0.4681  0.5773  1.8765
 3885SOL     OW23290   3.471   1.668  10.122  0.3583 -0.8288 -0.1263
 3885SOL    HW123291   3.459   1.612  10.198  1.3602 -0.0396  0.6194
 3885SOL    HW223292   3.398   1.665  10.060  2.0193 -1.2692 -2.0364
 3886SOL     OW23293   4.404   1.059   5.232 -0.2393 -0.2548  0.1455
 3886SOL    HW123294   4.491   1.048   5.270 -0.9025 -2.1374  1.1185
 3886SOL    HW223295   4.363   0.975   5.254  0.2632 -0.5020  0.1288
 3887SOL     OW23296   3.849   2.899   2.263 -0.0659 -0.4094  0.0055
 3887SOL    HW123297   3.930   2.883   2.214 -0.4082 -2.1052 -0.0162
 3887SOL    HW223298   3.778   2.857   2.215  0.1877  1.7540 -2.2547
 3888SOL     OW23299   1.306   3.902  12.935  0.5687  0.2338 -0.1071
 3888SOL    HW123300   1.329   3.809  12.939 -0.2804  0.0417  0.3698
 3888SOL    HW223301   1.255   3.908  12.854  1.0932  0.5250 -0.4155
 3889SOL     OW23302   1.480   3.617   7.433 -0.4228  0.4109  0.1827
 3889SOL    HW123303   1.501   3.534   7.476 -1.0298 -0.3217 -0.9247
 3889SOL    HW223304   1.450   3.586   7.347 -0.4054  1.2752 -0.1330
 3890SOL     OW23305   0.630   4.006   9.390  0.0828  0.4801 -0.6578
 3890SOL    HW123306   0.564   3.966   9.447  1.3508 -0.1522  0.3458
 3890SOL    HW223307   0.699   4.030   9.451 -1.9150  1.1699  1.3463
 3891SOL     OW23308   0.001   1.055  13.783 -0.0497  0.2051  0.0457
 3891SOL    HW123309   4.719   0.968  13.747 -0.8769  0.8354 -1.0869
 3891SOL    HW223310   4.647   1.087  13.798 -0.6148 -1.0890 -0.4710
 3892SOL     OW23311   1.647   3.065  12.900  1.0209 -0.9320  0.3379
 3892SOL    HW123312   1.647   2.984  12.952  0.2675 -1.3889 -0.3747
 3892SOL    HW223313   1.694   3.121  12.962 -2.7399  2.0897  0.4319
 3893SOL     OW23314   1.911   3.282  14.750  0.3522  0.0980 -0.0214
 3893SOL    HW123315   1.882   3.352  14.808 -2.5080 -0.0723 -1.2669
 3893SOL    HW223316   1.992   3.316  14.711  0.1625  1.0520  0.4279
 3894SOL     OW23317   3.514   4.664   4.021 -0.0453  0.4199 -0.1514
 3894SOL    HW123318   3.542   4.603   3.952 -2.9602  1.0608 -1.9269
 3894SOL    HW223319   3.505   0.013   3.973  4.9728  1.4047  0.7062
 3895SOL     OW23320   0.622   4.260   9.574 -0.0569 -0.4010  0.7798
 3895SOL    HW123321   0.689   4.270   9.505  0.8444 -0.1904  1.6922
 3895SOL    HW223322   0.666   4.296   9.651  2.8889 -0.8867 -0.6499
 3896SOL     OW23323   2.295   4.521   8.501  0.0984 -0.2379 -0.1392
 3896SOL    HW123324   2.283   4.554   8.589 -1.2536 -0.5018 -0.2235
 3896SOL    HW223325   2.204   4.527   8.472  0.1718 -2.0933 -0.7985
 3897SOL     OW23326   0.804   0.503  14.973  0.3111  0.0458  0.3323
 3897SOL    HW123327   0.783   0.454  14.894  0.0157 -2.2539  1.8354
 3897SOL    HW223328   0.717   0.501  15.012 -0.4434  0.2557 -1.3759
 3898SOL     OW23329   4.107   2.806   1.389 -0.2319 -0.6206  0.2816
 3898SOL    HW123330   4.147   2.891   1.372 -0.3431 -0.8571 -1.1881
 3898SOL    HW223331   4.158   2.752   1.329 -2.0222 -2.3945  0.3545
 3899SOL     OW23332   0.357   3.388  12.492 -0.2752  0.1045  0.5008
 3899SOL    HW123333   0.271   3.429  12.490 -0.7844 -0.9067  1.7918
 3899SOL    HW223334   0.392   3.426  12.412  0.8790  0.8704  1.3550
 3900SOL     OW23335   1.271   3.774   9.261  0.3422  0.1442 -0.5705
 3900SOL    HW123336   1.363   3.748   9.254  0.3997  0.7245 -1.8781
 3900SOL    HW223337   1.272   3.867   9.240  0.5942  0.3363  0.2891
 3901SOL     OW23338   1.177   4.477  12.064 -0.0018 -0.8213  0.1373
 3901SOL    HW123339   1.226   4.517  12.136 -0.4209 -0.9590  0.4961
 3901SOL    HW223340   1.092   4.456  12.103 -0.5186  0.8264 -0.1066
 3902SOL     OW23341   0.429   1.245   4.280 -0.2027 -0.3185  0.1548
 3902SOL    HW123342   0.510   1.201   4.252  0.7148  2.5047 -1.6135
 3902SOL    HW223343   0.399   1.167   4.327 -1.9742  0.2319 -0.0587
 3903SOL     OW23344   0.333   0.167   4.585  0.1729  0.3245 -0.9064
 3903SOL    HW123345   0.331   0.253   4.627 -3.5050 -0.1772 -0.0413
 3903SOL    HW223346   0.242   0.139   4.585  0.8449 -1.8292  0.3392
 3904SOL     OW23347   2.436   2.891   8.323 -0.3504  0.5698  0.4006
 3904SOL    HW123348   2.459   2.904   8.415 -0.5627 -2.2964  0.8609
 3904SOL    HW223349   2.406   2.978   8.296  0.2498  0.6696  0.0633
 3905SOL     OW23350   0.317   1.365   3.900  0.6790  0.0705 -0.3890
 3905SOL    HW123351   0.304   1.446   3.852 -1.1523  0.0566  0.0908
 3905SOL    HW223352   0.409   1.377   3.925  0.9475 -0.5886 -1.0589
 3906SOL     OW23353   0.922   4.408   6.626  0.1864  0.0839  0.3736
 3906SOL    HW123354   0.852   4.417   6.561 -0.9695  0.7172  1.7035
 3906SOL    HW223355   0.886   4.442   6.708 -1.4167 -0.7971  0.0342
 3907SOL     OW23356   2.868   4.096   6.881 -0.9269  0.2628 -0.1188
 3907SOL    HW123357   2.776   4.085   6.904 -0.4709 -1.1916  0.9797
 3907SOL    HW223358   2.892   4.004   6.877 -1.6815  0.1335 -1.8210
 3908SOL     OW23359   2.034   0.675  13.366  0.1435  0.0903  0.4890
 3908SOL    HW123360   1.938   0.682  13.370  0.3450  0.5402  3.8395
 3908SOL    HW223361   2.042   0.582  13.385 -0.9049 -0.6332 -2.5225
 3909SOL     OW23362   4.532   4.048  15.316 -0.2396 -0.4748 -0.6805
 3909SOL    HW123363   4.516   4.115  15.249  0.9949  0.8753  0.3659
 3909SOL    HW223364   4.492   4.096  15.388 -2.0952  0.0679 -2.0711
 3910SOL     OW23365   0.393   0.063   8.122  0.1630 -0.1431 -0.4935
 3910SOL    HW123366   0.334   4.724   8.108 -0.1638 -0.0458  0.4305
 3910SOL    HW223367   0.427   0.075   8.033  1.1847  1.2343  0.0714
 3911SOL     OW23368   0.416   3.721   8.542  0.1028  0.2267 -0.0089
 3911SOL    HW123369   0.393   3.814   8.541 -1.3829 -0.1561 -1.2948
 3911SOL    HW223370   0.502   3.727   8.584 -0.4692  1.3897  1.0047
 3912SOL     OW23371   4.665   4.609   3.984 -0.0585  0.0992 -0.1427
 3912SOL    HW123372   4.711   4.649   4.058 -0.3131 -0.9159  0.5710
 3912SOL    HW223373   4.608   4.546   4.030 -1.1266  1.3805  0.3103
 3913SOL     OW23374   3.596   0.380   7.536  0.3704 -0.1938  0.1141
 3913SOL    HW123375   3.630   0.445   7.475 -3.1941  1.1389 -0.4238
 3913SOL    HW223376   3.545   0.434   7.597 -0.6029 -0.5272 -0.3985
 3914SOL     OW23377   3.918   4.527   3.917  0.3496  0.1045  0.5025
 3914SOL    HW123378   3.859   4.460   3.954 -1.6754  1.2625 -0.6151
 3914SOL    HW223379   3.977   4.474   3.863  0.1116  2.2630 -1.8253
 3915SOL     OW23380   1.349   2.241   8.842 -0.2780  0.4406  0.0543
 3915SOL    HW123381   1.310   2.267   8.759  0.0379  0.3643 -0.1159
 3915SOL    HW223382   1.286   2.272   8.908 -0.2482 -0.4578  0.4958
 3916SOL     OW23383   1.213   0.027   2.060 -0.2487  0.2400 -0.3886
 3916SOL    HW123384   1.127   4.727   2.037 -0.2306  0.0042 -0.1008
 3916SOL    HW223385   1.263   4.682   2.037 -1.1055 -0.5987  0.6802
 3917SOL     OW23386   2.790   0.825   7.791  0.0103 -0.0875 -0.3927
 3917SOL    HW123387   2.786   0.744   7.842  1.8492 -0.3010 -0.5863
 3917SOL    HW223388   2.793   0.888   7.863 -0.1867  0.8500 -1.1993
 3918SOL     OW23389   2.339   2.199   4.684  0.4621 -0.1664  0.0406
 3918SOL    HW123390   2.255   2.186   4.727  0.2902 -1.1313 -0.5841
 3918SOL    HW223391   2.338   2.295   4.681 -1.0038 -0.2673 -3.0417
 3919SOL     OW23392   0.331   4.173   2.330  0.6225 -0.1034  0.1214
 3919SOL    HW123393   0.272   4.152   2.257  2.3890 -1.3738 -0.9447
 3919SOL    HW223394   0.407   4.118   2.311  0.1637 -0.1480 -1.5686
 3920SOL     OW23395   0.862   0.161   5.999  0.2295 -0.4691  0.2435
 3920SOL    HW123396   0.869   0.066   6.004 -0.7977 -0.4842  1.3254
 3920SOL    HW223397   0.802   0.182   6.070  0.2509  1.4768 -0.3109
 3921SOL     OW23398   0.628   2.194  15.230  0.2107  0.2099  0.1437
 3921SOL    HW123399   0.546   2.146  15.217  0.5530  0.3593 -2.6694
 3921SOL    HW223400   0.672   2.186  15.145 -1.1044 -0.4275 -0.4761
 3922SOL     OW23401   3.972   2.231   9.033 -0.7467  0.2371 -0.1088
 3922SOL    HW123402   3.969   2.321   9.000 -0.6324  0.5725  0.8135
 3922SOL    HW223403   3.901   2.221   9.097  0.4035  0.3663  1.1663
 3923SOL     OW23404   4.670   2.486   4.358  0.0428 -0.3277 -0.1064
 3923SOL    HW123405   4.656   2.519   4.446 -0.6809 -3.1948  0.8437
 3923SOL    HW223406   0.025   2.517   4.341  0.4863 -1.4651  0.0951
 3924SOL     OW23407   4.244   4.508   5.042 -0.2970  0.2194  0.3136
 3924SOL    HW123408   4.204   4.512   4.955 -0.4329 -2.5326  0.2508
 3924SOL    HW223409   4.250   4.413   5.051 -1.3325 -0.1403 -2.5899
 3925SOL     OW23410   3.258   1.415   4.146 -0.3682 -0.0114  0.1015
 3925SOL    HW123411   3.261   1.487   4.208  2.1934  1.2565 -1.5271
 3925SOL    HW223412   3.336   1.432   4.095  0.2557  1.8050  1.6810
 3926SOL     OW23413   0.801   3.878   0.607  0.6021  0.2808  0.0941
 3926SOL    HW123414   0.744   3.893   0.682 -0.9727  2.1149 -1.4931
 3926SOL    HW223415   0.881   3.923   0.634 -0.2283 -0.7985  4.4070
 3927SOL     OW23416   4.400   1.595   3.775 -0.5799 -0.0053 -0.4386
 3927SOL    HW123417   4.328   1.658   3.781 -1.8769 -1.3232 -2.0866
 3927SOL    HW223418   4.460   1.639   3.714 -0.6469 -0.6830 -0.9952
 3928SOL     OW23419   0.334   2.692   1.510  0.0099  0.0354  0.2761
 3928SOL    HW123420   0.317   2.773   1.560 -2.1504 -0.3466  0.1374
 3928SOL    HW223421   0.401   2.662   1.572 -1.0127 -0.8442  0.9457
 3929SOL     OW23422   2.733   3.420   6.723 -0.2654 -0.4837 -0.5772
 3929SOL    HW123423   2.662   3.460   6.773  0.2937  1.8444 -1.6420
 3929SOL    HW223424   2.806   3.433   6.784  1.0451  1.7009 -2.6359
 3930SOL     OW23425   0.790   2.815   4.277 -0.5196 -0.2223 -0.3196
 3930SOL    HW123426   0.717   2.830   4.218  1.0693 -0.0644 -2.2234
 3930SOL    HW223427   0.743   2.763   4.343 -1.9290 -0.8104 -1.7943
 3931SOL     OW23428   4.073   0.407   3.774 -0.4575  0.0342 -0.1466
 3931SOL    HW123429   4.005   0.455   3.822 -0.2967 -0.3933  0.5171
 3931SOL    HW223430   4.156   0.439   3.809 -0.5965 -0.8856  1.0402
 3932SOL     OW23431   2.937   1.495   7.614  0.2611 -0.3223 -0.0398
 3932SOL    HW123432   2.937   1.503   7.709  0.9163  0.1344 -0.0806
 3932SOL    HW223433   2.867   1.556   7.590 -0.4737 -0.2343  2.3145
 3933SOL     OW23434   0.660   3.642  10.489 -0.1387 -0.3919  0.1973
 3933SOL    HW123435   0.742   3.681  10.458 -1.1484  2.0104  0.5707
 3933SOL    HW223436   0.650   3.699  10.565 -1.5977  1.0325 -1.0845
 3934SOL     OW23437   3.422   0.326   3.783  0.4322 -0.4788 -0.2683
 3934SOL    HW123438   3.423   0.237   3.749 -0.8439 -0.8473  0.6768
 3934SOL    HW223439   3.490   0.359   3.724  0.0720 -0.4105 -0.6414
 3935SOL     OW23440   4.144   4.600   3.487  0.2352  0.6061 -0.3009
 3935SOL    HW123441   4.152   4.678   3.541  0.9073  1.7320 -2.0542
 3935SOL    HW223442   4.218   4.552   3.523 -1.1147 -1.9300 -0.8800
 3936SOL     OW23443   2.864   0.465   0.501  0.2566 -0.4708  0.4122
 3936SOL    HW123444   2.948   0.490   0.461  1.1105 -0.7888  2.0222
 3936SOL    HW223445   2.888   0.452   0.593 -0.3463  0.6051  0.7116
 3937SOL     OW23446   0.744   1.113   1.066 -0.6672 -0.3390 -0.2328
 3937SOL    HW123447   0.687   1.133   1.141 -0.2382  0.0664 -0.0089
 3937SOL    HW223448   0.790   1.043   1.113  0.3342  1.8851  2.1489
 3938SOL     OW23449   0.047   1.054   6.981 -0.1997 -0.2740 -0.4681
 3938SOL    HW123450   0.095   1.119   6.930 -2.9952  1.8187 -0.4231
 3938SOL    HW223451   4.732   1.005   6.915 -2.1437  0.9912  0.0337
 3939SOL     OW23452   2.719   0.462   1.576  0.0858  0.1389  0.5838
 3939SOL    HW123453   2.672   0.385   1.544 -2.4459  2.0175 -0.1736
 3939SOL    HW223454   2.645   0.521   1.592 -0.4855 -0.9095  1.8023
 3940SOL     OW23455   0.502   4.552   7.920  0.1389 -1.0020 -0.2119
 3940SOL    HW123456   0.458   4.636   7.912 -0.3539 -1.4456 -2.0338
 3940SOL    HW223457   0.573   4.559   7.856  1.2846  3.2838  1.5317
 3941SOL     OW23458   1.909   1.431  10.433 -0.1006  0.1259  0.2477
 3941SOL    HW123459   1.853   1.477  10.496 -1.8403 -0.3731 -0.9218
 3941SOL    HW223460   1.983   1.393  10.479  0.8250  1.5781 -0.0474
 3942SOL     OW23461   3.475   2.733   5.937  0.7838  0.3019 -0.2404
 3942SOL    HW123462   3.555   2.681   5.934  0.0760 -0.7254 -1.8803
 3942SOL    HW223463   3.415   2.674   5.891  1.4357 -0.3318 -0.2677
 3943SOL     OW23464   3.979   0.912   4.475 -0.3608 -0.4879 -0.1062
 3943SOL    HW123465   3.931   0.830   4.481 -0.0332 -0.6494  0.2816
 3943SOL    HW223466   3.965   0.963   4.555 -0.7240 -0.0235 -0.4634
 3944SOL     OW23467   2.827   0.623   9.314 -0.0696  0.1119  0.0693
 3944SOL    HW123468   2.874   0.698   9.276  0.6716 -0.5691 -0.3485
 3944SOL    HW223469   2.750   0.609   9.259 -0.6487  0.6539  0.7280
 3945SOL     OW23470   2.559   1.175   8.121 -0.1017  0.6592 -0.0518
 3945SOL    HW123471   2.563   1.200   8.214 -0.6677 -2.0052  0.6968
 3945SOL    HW223472   2.465   1.170   8.103 -0.2459 -2.4503  1.5233
 3946SOL     OW23473   1.383   0.881   4.452  0.5170  0.5255 -0.1121
 3946SOL    HW123474   1.454   0.864   4.514  0.7304  4.2556  0.6217
 3946SOL    HW223475   1.425   0.887   4.366  1.5387 -1.6681  0.2184
 3947SOL     OW23476   3.139   4.671  13.505  0.2884  0.1352 -0.0987
 3947SOL    HW123477   3.128   0.032  13.498 -0.9713  0.0666  0.7987
 3947SOL    HW223478   3.138   4.660  13.600 -0.4005 -1.3222 -0.2712
 3948SOL     OW23479   1.986   1.081   2.616 -0.0621  0.0451 -0.2319
 3948SOL    HW123480   1.988   1.171   2.646  1.4952  0.3024 -1.0955
 3948SOL    HW223481   2.051   1.088   2.546  0.9685  2.0869  0.9337
 3949SOL     OW23482   2.845   3.126  11.486 -0.1598 -0.2717 -0.7006
 3949SOL    HW123483   2.831   3.092  11.398  2.0618 -4.1853  0.4325
 3949SOL    HW223484   2.758   3.131  11.525  0.2126  0.6535  0.0110
 3950SOL     OW23485   2.186   1.387   8.833  0.7390  0.5204  0.2249
 3950SOL    HW123486   2.212   1.469   8.791  0.5259  0.5144  0.0783
 3950SOL    HW223487   2.156   1.332   8.760 -1.8080  0.6103  1.2334
 3951SOL     OW23488   1.715   2.459   5.903 -0.3287 -0.4706  0.1881
 3951SOL    HW123489   1.684   2.390   5.845  0.0020 -0.0090 -0.5382
 3951SOL    HW223490   1.743   2.528   5.843  0.6105  0.1421  1.3341
 3952SOL     OW23491   3.163   3.052   2.835 -0.3180  0.2309 -0.4652
 3952SOL    HW123492   3.220   3.121   2.800 -0.1800  0.2752 -0.1531
 3952SOL    HW223493   3.075   3.078   2.811 -0.0181  1.9243  0.2516
 3953SOL     OW23494   4.547   3.139   3.250  0.1541 -0.2030  0.0080
 3953SOL    HW123495   4.518   3.053   3.220  1.3508 -1.0796  1.3221
 3953SOL    HW223496   4.538   3.139   3.346  1.9508  1.0597  0.1930
 3954SOL     OW23497   0.022   3.344  11.311 -0.6033  0.0655 -0.0315
 3954SOL    HW123498   4.696   3.275  11.340  0.0016 -1.1711 -1.7683
 3954SOL    HW223499   4.707   3.422  11.338 -0.5947  0.4713 -1.2135
 3955SOL     OW23500   0.661   0.073   6.170  0.0922  0.6416 -0.1986
 3955SOL    HW123501   0.585   0.130   6.182  0.4947  1.7943 -3.1817
 3955SOL    HW223502   0.626   0.006   6.112 -0.1061 -1.0997  1.9269
 3956SOL     OW23503   3.537   1.019   9.701 -0.3083  0.5347 -0.3790
 3956SOL    HW123504   3.517   0.984   9.788 -1.3735  1.8443 -0.0885
 3956SOL    HW223505   3.548   1.111   9.727  1.2142  0.4754 -0.8414
 3957SOL     OW23506   1.371   3.871   4.597  0.1482  0.2537  0.0136
 3957SOL    HW123507   1.311   3.865   4.523 -0.2544  0.9037  0.2860
 3957SOL    HW223508   1.337   3.792   4.638  3.7345 -2.1736 -1.7045
 3958SOL     OW23509   1.406   2.710  10.437 -0.0665 -0.0753 -0.0026
 3958SOL    HW123510   1.407   2.792  10.388 -0.0628  0.0544  0.2111
 3958SOL    HW223511   1.387   2.736  10.527 -0.3820 -0.2492 -0.0183
 3959SOL     OW23512   1.587   1.907   2.072  0.4961  0.7431  0.0927
 3959SOL    HW123513   1.682   1.915   2.084  0.6681 -0.7791 -0.3096
 3959SOL    HW223514   1.543   1.886   2.154 -0.5902  1.4511 -0.3109
 3960SOL     OW23515   2.818   0.141   6.860 -0.1385 -0.2257  0.4351
 3960SOL    HW123516   2.859   0.088   6.928 -0.0189  1.2444  1.5074
 3960SOL    HW223517   2.774   0.197   6.924 -1.7774 -1.1140  0.0849
 3961SOL     OW23518   3.355   2.033   8.876 -0.0326 -0.1233 -0.2412
 3961SOL    HW123519   3.295   2.033   8.802 -1.2370 -0.6027  0.7319
 3961SOL    HW223520   3.384   2.124   8.865  1.3112 -0.5038  0.1426
 3962SOL     OW23521   2.173   1.012   3.909  0.1161  0.2157 -0.5865
 3962SOL    HW123522   2.169   0.933   3.855  1.8431  2.3015 -3.8043
 3962SOL    HW223523   2.143   1.076   3.843 -1.9697  1.5120  1.6046
 3963SOL     OW23524   1.462   1.810  13.372  0.2083  0.2026 -0.2724
 3963SOL    HW123525   1.488   1.744  13.308 -0.2398 -0.6752  0.4456
 3963SOL    HW223526   1.371   1.806  13.340 -0.4696 -1.0944  1.8316
 3964SOL     OW23527   3.016   2.393   3.348  0.2501 -0.3264  0.5662
 3964SOL    HW123528   2.982   2.445   3.422 -0.7071  1.0734 -0.8365
 3964SOL    HW223529   2.946   2.333   3.322  1.6404 -0.9134 -1.8096
 3965SOL     OW23530   3.937   1.975   4.474  0.2106 -0.4477 -0.1808
 3965SOL    HW123531   3.961   1.996   4.564  1.3555 -0.5831 -0.4549
 3965SOL    HW223532   3.841   1.978   4.478  0.2162  0.3810 -0.6514
 3966SOL     OW23533   2.306   3.118   1.676 -0.0535  0.3537 -0.2255
 3966SOL    HW123534   2.284   3.037   1.722  1.5289  0.7499  1.2380
 3966SOL    HW223535   2.270   3.185   1.735 -0.9764  0.0272 -0.4098
 3967SOL     OW23536   0.215   0.125   6.780 -1.0151  0.2435  0.0147
 3967SOL    HW123537   0.251   0.209   6.751  0.3757 -0.2388  0.3384
 3967SOL    HW223538   0.225   0.069   6.704 -0.6121  1.1588 -0.6023
 3968SOL     OW23539   1.074   1.468   2.046 -0.5356 -0.0304 -0.2186
 3968SOL    HW123540   1.152   1.480   1.993  1.6522 -1.3008  2.6899
 3968SOL    HW223541   1.111   1.440   2.130  2.3891 -1.2615 -1.9407
 3969SOL     OW23542   4.513   4.091  16.351 -0.1642  0.0072 -0.0933
 3969SOL    HW123543   4.575   4.145  16.401 -1.0296 -0.1043  1.1150
 3969SOL    HW223544   4.463   4.075  16.431 -1.3780  2.6580 -0.3188
 3970SOL     OW23545   1.208   1.576   4.967 -0.2017  0.4390  0.1682
 3970SOL    HW123546   1.219   1.640   4.896  1.1444  0.9018  0.7908
 3970SOL    HW223547   1.284   1.594   5.022 -0.3062 -1.6777  0.9942
 3971SOL     OW23548   0.363   1.622   9.692  0.1584 -0.0962  0.1412
 3971SOL    HW123549   0.392   1.634   9.602 -0.8106  2.1402  0.1464
 3971SOL    HW223550   0.319   1.706   9.705  0.2926  0.5086 -3.3391
 3972SOL     OW23551   0.289   4.097   5.677  0.2754 -0.0236  0.1028
 3972SOL    HW123552   0.352   4.046   5.625 -2.0599 -0.8549 -1.8863
 3972SOL    HW223553   0.226   4.028   5.699  1.6198 -1.1184  0.5600
 3973SOL     OW23554   3.016   2.089   3.288  0.4637 -0.1009  0.3791
 3973SOL    HW123555   3.060   2.010   3.319 -0.1846 -0.8658 -0.6198
 3973SOL    HW223556   2.967   2.121   3.363  1.1812 -0.6705  1.0811
 3974SOL     OW23557   3.294   1.272   3.767 -0.1247 -0.2718  0.2927
 3974SOL    HW123558   3.374   1.265   3.715 -1.6990  0.6639 -2.2398
 3974SOL    HW223559   3.261   1.358   3.744 -0.1688  0.0143  1.4317
 3975SOL     OW23560   3.529   4.255   3.715 -0.0144 -0.2646 -0.7840
 3975SOL    HW123561   3.515   4.216   3.629  0.2030 -1.1079 -0.4398
 3975SOL    HW223562   3.576   4.185   3.760  1.8586  1.5793  0.1311
 3976SOL     OW23563   4.513   2.752   8.028  0.1121 -0.4775  0.1248
 3976SOL    HW123564   4.576   2.813   7.990  0.2388  0.5290  1.9467
 3976SOL    HW223565   4.553   2.730   8.112 -0.7141 -0.7690  0.4408
 3977SOL     OW23566   3.641   3.442   7.362 -0.1185  0.1277  0.2522
 3977SOL    HW123567   3.655   3.535   7.343 -2.5288  0.3844 -0.2346
 3977SOL    HW223568   3.697   3.403   7.295 -0.7338 -1.2701  0.5448
 3978SOL     OW23569   0.353   4.373   3.778 -0.2287 -0.3576 -0.3793
 3978SOL    HW123570   0.274   4.370   3.832 -0.1670  1.7257 -0.1765
 3978SOL    HW223571   0.369   4.466   3.767  3.9425 -0.9096  1.0829
 3979SOL     OW23572   0.259   2.227  17.014 -0.2466 -1.3160 -0.4512
 3979SOL    HW123573   0.336   2.184  17.052  1.1016  0.0987 -1.5996
 3979SOL    HW223574   0.257   2.192  16.925  1.1077  0.4051 -1.1427
 3980SOL     OW23575   2.597   0.268   6.417 -0.4008 -0.4665  0.7070
 3980SOL    HW123576   2.666   0.309   6.364  0.1497  0.6622  2.2922
 3980SOL    HW223577   2.543   0.239   6.343 -1.0509  3.6838 -0.4427
 3981SOL     OW23578   0.790   3.257   1.149 -0.4189  0.2070 -0.0696
 3981SOL    HW123579   0.850   3.199   1.196 -1.2225 -0.5156  0.0556
 3981SOL    HW223580   0.715   3.199   1.137 -0.5374 -0.1281  2.4041
 3982SOL     OW23581   3.236   1.822   4.107 -0.0154 -0.2196 -0.3410
 3982SOL    HW123582   3.174   1.793   4.040 -1.1880  0.7569  0.3084
 3982SOL    HW223583   3.247   1.741   4.156  0.9333  0.7490  1.0453
 3983SOL     OW23584   4.204   2.179   8.910 -0.1894  0.1308  0.4574
 3983SOL    HW123585   4.144   2.200   8.982 -1.8232  1.0801 -1.1844
 3983SOL    HW223586   4.248   2.262   8.889  0.6951 -0.6089 -0.5985
 3984SOL     OW23587   4.506   0.953  15.959  0.2412  0.0582 -0.9438
 3984SOL    HW123588   4.561   0.889  16.003  0.4664  0.7825 -0.1842
 3984SOL    HW223589   4.564   1.029  15.955 -0.8491  0.8405 -2.0616
 3985SOL     OW23590   4.627   3.099   8.720 -0.2840  0.3136 -0.0474
 3985SOL    HW123591   4.534   3.080   8.728 -0.6128  1.5841 -0.8077
 3985SOL    HW223592   4.653   3.051   8.641  2.7613  0.1067  1.0693
 3986SOL     OW23593   1.764   1.015   3.665  0.1594 -0.0722  0.3646
 3986SOL    HW123594   1.800   0.927   3.655 -1.8006 -0.6459 -1.5808
 3986SOL    HW223595   1.749   1.020   3.759  1.0968  0.2902  0.5019
 3987SOL     OW23596   4.505   4.642   5.461  0.4160  0.0904  0.2367
 3987SOL    HW123597   4.566   4.583   5.507  0.1798 -0.0524  0.3643
 3987SOL    HW223598   4.457   4.588   5.400  1.1028 -0.1930 -0.0561
 3988SOL     OW23599   3.767   1.727   8.212  0.0775  0.3226  0.4160
 3988SOL    HW123600   3.692   1.762   8.260  0.5969  2.1264 -0.0936
 3988SOL    HW223601   3.738   1.694   8.127 -1.3290  1.1135  0.5938
 3989SOL     OW23602   4.332   4.257   4.787 -0.4049  0.1186  0.2166
 3989SOL    HW123603   4.325   4.206   4.868 -0.7658 -1.5175 -0.8482
 3989SOL    HW223604   4.309   4.193   4.719  2.0302 -0.8188  0.2735
 3990SOL     OW23605   1.303   3.738   6.513 -0.6137 -0.4097 -0.0600
 3990SOL    HW123606   1.314   3.749   6.418 -2.3365  0.1685 -0.2098
 3990SOL    HW223607   1.351   3.659   6.536  0.1739  0.0339 -0.1917
 3991SOL     OW23608   1.708   2.523   3.425  0.0668  0.0652  0.3292
 3991SOL    HW123609   1.766   2.582   3.377  0.3457 -0.6050 -0.1543
 3991SOL    HW223610   1.776   2.462   3.453  0.5065  0.4354  0.0606
 3992SOL     OW23611   3.329   4.367   3.884 -0.5062  0.0602 -0.2133
 3992SOL    HW123612   3.260   4.383   3.821 -0.5521  1.5231  0.2005
 3992SOL    HW223613   3.400   4.327   3.833  1.8834  3.4217  0.5062
 3993SOL     OW23614   0.974   3.821   3.475 -0.5236  0.2563 -0.3269
 3993SOL    HW123615   1.001   3.856   3.560  1.5254  0.8040 -1.2128
 3993SOL    HW223616   0.887   3.790   3.501  0.6344 -0.4924  2.7086
 3994SOL     OW23617   0.116   0.764   1.643 -0.7139 -0.8263  0.3425
 3994SOL    HW123618   0.210   0.763   1.626 -0.7379 -1.7837  0.2510
 3994SOL    HW223619   0.114   0.669   1.629  0.4613 -1.0187  1.4505
 3995SOL     OW23620   4.346   0.109   8.480  0.3983  0.5603 -0.2072
 3995SOL    HW123621   4.281   0.165   8.521  0.9308  0.8856  0.1796
 3995SOL    HW223622   4.350   0.153   8.395 -2.7933  0.6481 -0.3083
 3996SOL     OW23623   1.249   3.354   2.784 -0.3448 -0.0323 -0.2404
 3996SOL    HW123624   1.306   3.300   2.839 -0.2996  1.7361  1.4720
 3996SOL    HW223625   1.278   3.331   2.696 -1.5576  0.9363 -0.8757
 3997SOL     OW23626   0.094   2.364  12.727  0.3299  0.2779  0.2811
 3997SOL    HW123627   0.007   2.364  12.767  0.7533 -0.0719  1.1963
 3997SOL    HW223628   0.088   2.298  12.658 -1.1835  0.1341  0.5492
 3998SOL     OW23629   1.421   4.414   5.612 -0.2811  0.0819  0.0606
 3998SOL    HW123630   1.450   4.427   5.702  1.2884 -1.9006 -0.1785
 3998SOL    HW223631   1.480   4.345   5.585  1.4068  1.7566 -0.4995
 3999SOL     OW23632   3.649   0.098  17.687  0.2772 -0.4351  0.6929
 3999SOL    HW123633   3.574   0.129   0.002  0.9760  1.0409  0.8217
 3999SOL    HW223634   3.627   0.005  17.683 -1.8295  0.0529  0.6190
 4000SOL     OW23635   3.643   3.511  10.461  0.3324  0.2330  0.3198
 4000SOL    HW123636   3.631   3.602  10.431  1.2805  0.8717  1.9138
 4000SOL    HW223637   3.561   3.491  10.506  1.2205 -1.2197  1.2684
 4001SOL     OW23638   3.303   2.572   4.265  0.0637 -0.4121  0.1712
 4001SOL    HW123639   3.255   2.542   4.188  0.9249  1.2378 -1.0100
 4001SOL    HW223640   3.240   2.560   4.336 -1.2706 -1.6906 -1.2562
 4002SOL     OW23641   1.367   3.222   3.657  0.2025 -0.2850 -0.5591
 4002SOL    HW123642   1.275   3.222   3.682  0.6106  0.5408  0.9464
 4002SOL    HW223643   1.356   3.135   3.618 -0.4975 -1.1862  1.6497
 4003SOL     OW23644   3.894   4.368   3.188  0.1223  0.1613  0.0298
 4003SOL    HW123645   3.839   4.290   3.190 -1.5598  1.3274 -0.5718
 4003SOL    HW223646   3.972   4.342   3.238 -0.3542  0.5686  0.9893
 4004SOL     OW23647   2.117   1.424   7.902 -0.2262  0.0073 -0.2887
 4004SOL    HW123648   2.102   1.480   7.978  0.9597 -2.0394  1.4679
 4004SOL    HW223649   2.030   1.385   7.906  0.1247 -0.8718 -1.0988
 4005SOL     OW23650   4.095   1.111   5.197  0.1758 -0.4583  0.0367
 4005SOL    HW123651   4.189   1.101   5.207  0.4224  2.7607  1.0084
 4005SOL    HW223652   4.079   1.148   5.283 -1.2273  0.0127 -0.4202
 4006SOL     OW23653   3.293   3.527  16.942 -0.6000 -0.0222 -0.5729
 4006SOL    HW123654   3.318   3.566  17.026  2.6453  0.4484 -1.7549
 4006SOL    HW223655   3.227   3.589  16.912 -0.7787 -0.4702 -1.1152
 4007SOL     OW23656   1.509   0.114   7.778 -0.4062  0.1469  0.5124
 4007SOL    HW123657   1.540   0.061   7.851  0.1992  0.3315  0.3900
 4007SOL    HW223658   1.592   0.140   7.737  1.6604 -1.5136  3.7354
 4008SOL     OW23659   2.888   3.601  17.039 -0.4764  0.8236 -0.2142
 4008SOL    HW123660   2.943   3.664  16.992  0.2743  1.2401  1.2164
 4008SOL    HW223661   2.947   3.532  17.069 -0.3279  0.4357 -1.3926
 4009SOL     OW23662   4.338   1.748   4.934  0.1661 -0.2309 -0.7371
 4009SOL    HW123663   4.432   1.733   4.945  0.5120  2.9776  0.6743
 4009SOL    HW223664   4.316   1.693   5.010  0.8432  0.3512 -0.1112
 4010SOL     OW23665   4.480   1.495   3.171 -0.6586 -0.1045 -0.7779
 4010SOL    HW123666   4.520   1.581   3.187 -0.4305 -0.1462 -1.1199
 4010SOL    HW223667   4.455   1.510   3.079  0.8333  1.0123 -1.0065
 4011SOL     OW23668   2.360   0.686  16.143  0.5726  0.6721  0.2530
 4011SOL    HW123669   2.376   0.699  16.237  1.9832 -0.7838  0.2123
 4011SOL    HW223670   2.439   0.729  16.112 -1.3782  3.3383 -1.0546
 4012SOL     OW23671   4.243   1.082  10.538  0.0346  0.0874  0.2671
 4012SOL    HW123672   4.288   1.156  10.497 -0.3734 -0.5498 -1.3401
 4012SOL    HW223673   4.190   1.130  10.601 -1.7698  0.9749 -1.9102
 4013SOL     OW23674   1.759   0.508  16.612  0.2685  0.3045  0.8266
 4013SOL    HW123675   1.757   0.415  16.635  3.9014  0.2257  0.8134
 4013SOL    HW223676   1.746   0.498  16.518  1.0091 -1.1531  0.8854
 4014SOL     OW23677   0.274   3.546  17.507  1.1066  0.1910  0.3083
 4014SOL    HW123678   0.228   3.561  17.424  1.3869 -1.1372 -0.0903
 4014SOL    HW223679   0.361   3.517  17.481  0.7429 -0.8408  0.2519
 4015SOL     OW23680   1.289   4.064   2.893 -0.0008  0.4086 -0.1107
 4015SOL    HW123681   1.254   3.980   2.862  2.4711 -0.4344 -0.6551
 4015SOL    HW223682   1.381   4.045   2.911 -0.3365 -0.7646  0.4170
 4016SOL     OW23683   1.776   4.497   3.271 -0.1912  0.3172  0.3808
 4016SOL    HW123684   1.708   4.484   3.205 -1.2296 -0.9741  1.6860
 4016SOL    HW223685   1.834   4.422   3.258 -0.5981  0.1184 -0.2576
 4017SOL     OW23686   1.167   3.399  10.968  1.1810 -0.2381 -0.2415
 4017SOL    HW123687   1.148   3.470  10.906  1.2084 -0.3708 -0.4012
 4017SOL    HW223688   1.199   3.338  10.902  0.2898 -1.3782  0.3841
 4018SOL     OW23689   3.900   0.709   2.949  0.0285  0.2336 -0.1165
 4018SOL    HW123690   3.849   0.789   2.940 -1.1746 -0.7526 -2.4195
 4018SOL    HW223691   3.913   0.691   2.855  0.4684  2.0696 -0.4005
 4019SOL     OW23692   2.447   4.558   1.309 -0.2366 -0.1157 -0.7885
 4019SOL    HW123693   2.377   4.540   1.246  0.9252 -0.1935 -2.0506
 4019SOL    HW223694   2.472   4.648   1.287  1.1529  0.3706  2.9245
 4020SOL     OW23695   3.710   1.005   1.875 -0.2035  0.2905  0.1570
 4020SOL    HW123696   3.700   1.079   1.815 -4.6372 -0.1236  0.3526
 4020SOL    HW223697   3.685   1.042   1.959 -1.6967 -1.3664  0.4455
 4021SOL     OW23698   2.225   3.966  17.200 -0.0186  0.3376 -0.5642
 4021SOL    HW123699   2.274   3.935  17.277 -2.5449 -0.0760  0.8899
 4021SOL    HW223700   2.294   4.005  17.146  0.4392  1.2437  0.6666
 4022SOL     OW23701   4.008   2.704   2.105 -0.0698  0.2672  0.0163
 4022SOL    HW123702   3.963   2.628   2.068  0.2537  0.5315 -0.9134
 4022SOL    HW223703   4.089   2.678   2.148 -0.5042 -1.2102 -0.0709
 4023SOL     OW23704   4.124   4.193   7.142  0.6392 -0.3656  0.1493
 4023SOL    HW123705   4.057   4.163   7.081  0.7207  0.7006 -0.4717
 4023SOL    HW223706   4.072   4.190   7.222  0.0333 -0.5377 -0.2504
 4024SOL     OW23707   4.130   3.368   2.507 -0.9267 -1.0480  0.1238
 4024SOL    HW123708   4.083   3.435   2.456  0.0750 -2.0347 -2.0821
 4024SOL    HW223709   4.092   3.376   2.595  0.9234  1.3961  0.6940
 4025SOL     OW23710   1.768   2.658   8.273  0.5572 -0.2028 -0.0986
 4025SOL    HW123711   1.755   2.569   8.240  0.2838  0.2497 -1.2087
 4025SOL    HW223712   1.737   2.645   8.363  3.3431 -0.0742  0.8663
 4026SOL     OW23713   1.189   4.255  11.905  0.3609 -0.5620 -0.1630
 4026SOL    HW123714   1.183   4.306  11.986  0.0825 -0.0141 -0.5355
 4026SOL    HW223715   1.178   4.166  11.939  1.5567 -1.0656 -1.0609
 4027SOL     OW23716   0.698   1.794   5.737 -0.2295  0.0142  0.1287
 4027SOL    HW123717   0.725   1.730   5.671  0.6064  1.5151 -0.9919
 4027SOL    HW223718   0.719   1.875   5.690 -2.3577  1.1691  1.1844
 4028SOL     OW23719   2.492   1.951   9.259  0.3061 -0.1626 -0.0229
 4028SOL    HW123720   2.449   1.901   9.328  0.3964  1.1145  0.9536
 4028SOL    HW223721   2.585   1.935   9.279  0.9495  0.2601 -2.6660
 4029SOL     OW23722   0.787   1.859   9.750  0.4165 -0.0777 -0.3484
 4029SOL    HW123723   0.770   1.769   9.722  2.6907 -0.0203 -1.8765
 4029SOL    HW223724   0.759   1.909   9.673 -4.5381 -0.6096  1.1007
 4030SOL     OW23725   4.206   1.945   4.011  0.1401 -0.4317 -0.0345
 4030SOL    HW123726   4.173   1.855   4.013 -1.4377  0.1267 -0.3029
 4030SOL    HW223727   4.173   1.978   4.094 -3.0885  0.5621 -1.6900
 4031SOL     OW23728   3.822   2.624   8.592 -0.5110 -0.6629  0.1442
 4031SOL    HW123729   3.821   2.536   8.553 -0.2323 -0.8298  0.5141
 4031SOL    HW223730   3.742   2.623   8.645 -1.1568 -1.9694 -0.8472
 4032SOL     OW23731   0.640   4.344  11.567  0.0687  0.0325 -0.7721
 4032SOL    HW123732   0.578   4.416  11.560 -1.9033 -1.4048  2.1402
 4032SOL    HW223733   0.674   4.356  11.478  0.1595 -0.2599 -0.7776
 4033SOL     OW23734   0.842   0.464   4.503 -0.3672  0.3349  0.5756
 4033SOL    HW123735   0.932   0.494   4.507 -0.8393  1.7745  0.5103
 4033SOL    HW223736   0.839   0.478   4.408 -2.7351  1.1975  0.7520
 4034SOL     OW23737   4.011   0.915   2.763 -0.3211  0.0111 -0.2712
 4034SOL    HW123738   3.947   0.955   2.704 -2.1562 -3.3816 -0.5861
 4034SOL    HW223739   4.029   0.979   2.833  0.5808  0.2909 -0.7601
 4035SOL     OW23740   2.025   1.170   3.672  0.2818  0.2504 -0.3077
 4035SOL    HW123741   2.062   1.117   3.602 -3.2466  0.7097 -2.5346
 4035SOL    HW223742   1.942   1.122   3.683 -0.1030  1.3085  1.4940
 4036SOL     OW23743   0.373   3.391  15.134  0.6252 -0.3955  0.5051
 4036SOL    HW123744   0.288   3.435  15.132  2.0443  2.3439  0.3720
 4036SOL    HW223745   0.432   3.467  15.126 -1.0667  1.1297  2.3298
 4037SOL     OW23746   1.788   3.830   9.650  0.4310 -0.0953 -0.0103
 4037SOL    HW123747   1.701   3.800   9.623 -0.4400  3.0023 -0.6152
 4037SOL    HW223748   1.813   3.881   9.573 -2.1247  1.3508  0.1195
 4038SOL     OW23749   0.908   0.964   1.748  0.6444  0.7179  0.0921
 4038SOL    HW123750   0.989   0.947   1.797  0.0928 -0.1204  0.7146
 4038SOL    HW223751   0.862   0.883   1.769 -0.1647  2.0073  3.3244
 4039SOL     OW23752   2.628   1.130   5.763  0.1628 -0.5640  0.3053
 4039SOL    HW123753   2.581   1.108   5.682  1.5627 -0.3351 -0.5703
 4039SOL    HW223754   2.659   1.220   5.753  1.5325 -1.1341 -0.6006
 4040SOL     OW23755   0.039   1.042   3.418  0.7149 -0.5645  0.1020
 4040SOL    HW123756   4.682   1.068   3.407  0.9016  0.6338  1.4268
 4040SOL    HW223757   0.053   1.020   3.510  0.6984 -0.1075  0.2103
 4041SOL     OW23758   0.438   3.179   1.786 -0.6271  0.3696 -0.5742
 4041SOL    HW123759   0.431   3.130   1.704 -0.2547 -1.2728  0.3672
 4041SOL    HW223760   0.526   3.212   1.771  0.2521  0.0973  4.1283
 4042SOL     OW23761   0.496   3.952   3.494  0.4077  0.0432 -0.1192
 4042SOL    HW123762   0.499   3.988   3.406 -1.7331 -0.8414 -0.5617
 4042SOL    HW223763   0.483   4.034   3.543  1.4348  0.0589  0.1114
 4043SOL     OW23764   1.430   2.417  15.424  0.9761 -0.0698  0.2970
 4043SOL    HW123765   1.519   2.407  15.390 -0.1955 -1.0239 -2.5333
 4043SOL    HW223766   1.391   2.344  15.374  0.0262  1.6551 -1.4907
 4044SOL     OW23767   3.524   3.409   6.064  0.0720  0.5158  0.2687
 4044SOL    HW123768   3.491   3.400   6.153 -0.0145  2.0545  0.4014
 4044SOL    HW223769   3.616   3.383   6.070 -0.5905 -1.3186  2.3431
 4045SOL     OW23770   1.389   4.590  16.013  0.5606 -0.4046 -0.3277
 4045SOL    HW123771   1.345   4.626  16.089  1.7247  1.2225 -0.4194
 4045SOL    HW223772   1.445   4.664  15.988  0.5063 -0.6300 -1.1308
 4046SOL     OW23773   4.145   1.819   4.753 -0.3647 -0.2519 -0.2357
 4046SOL    HW123774   4.154   1.755   4.683 -1.5327 -0.7543  0.0752
 4046SOL    HW223775   4.212   1.786   4.814 -1.1058  0.8897  1.2190
 4047SOL     OW23776   1.179   4.214   0.518 -0.5057  0.6451  0.3556
 4047SOL    HW123777   1.172   4.149   0.588 -0.0420  0.7580  0.5053
 4047SOL    HW223778   1.099   4.191   0.470  1.5767 -1.8414 -1.9856
 4048SOL     OW23779   3.081   2.609   4.698  0.1949  0.3646 -0.1497
 4048SOL    HW123780   3.052   2.627   4.788 -0.2357 -1.1925  0.0332
 4048SOL    HW223781   3.005   2.622   4.642  1.2472  0.4708 -1.5682
 4049SOL     OW23782   2.503   0.759   8.523  0.0948 -0.1466  0.6158
 4049SOL    HW123783   2.566   0.814   8.479 -1.9107  1.2066 -0.5716
 4049SOL    HW223784   2.529   0.775   8.613  0.7665 -3.6189  1.0489
 4050SOL     OW23785   4.581   3.579   4.720 -0.9380 -0.1805  0.3365
 4050SOL    HW123786   4.657   3.597   4.775 -1.1283 -0.4131  0.6775
 4050SOL    HW223787   4.540   3.666   4.716  0.1786  0.3024 -0.5997
 4051SOL     OW23788   1.325   2.229   8.543 -0.6122 -0.2651  0.5299
 4051SOL    HW123789   1.376   2.310   8.540 -1.6054  0.3536  0.3394
 4051SOL    HW223790   1.241   2.260   8.508 -0.9285 -3.2520 -1.3106
 4052SOL     OW23791   3.610   4.017  13.628 -0.0542 -0.5642  0.2385
 4052SOL    HW123792   3.529   3.993  13.584  0.8616 -2.4493 -0.4168
 4052SOL    HW223793   3.628   4.100  13.585 -0.6104 -0.9434 -0.7180
 4053SOL     OW23794   1.743   2.271   2.566  0.2046 -0.0167 -0.3509
 4053SOL    HW123795   1.664   2.315   2.599  0.0062  0.5842 -1.6378
 4053SOL    HW223796   1.744   2.200   2.630 -2.5969  1.2507  1.1355
 4054SOL     OW23797   0.264   2.609   7.997  0.4207  0.0281  0.1890
 4054SOL    HW123798   0.231   2.520   8.010  0.7351 -0.2814 -1.2113
 4054SOL    HW223799   0.239   2.627   7.907  0.3906  0.3788  0.2707
 4055SOL     OW23800   2.426   3.406   6.056  0.2349 -0.4297  0.8611
 4055SOL    HW123801   2.452   3.385   5.966  1.4783 -0.0099  1.1189
 4055SOL    HW223802   2.479   3.482   6.081 -1.3186  1.7288 -2.2509
 4056SOL     OW23803   3.756   0.819   7.843 -0.2922  0.0185  0.4993
 4056SOL    HW123804   3.776   0.738   7.891 -0.1416  0.6986  1.5687
 4056SOL    HW223805   3.729   0.783   7.758  1.2464 -1.6772  0.7212
 4057SOL     OW23806   4.239   2.638   5.829  0.0385 -0.3232  0.3226
 4057SOL    HW123807   4.325   2.637   5.872  1.0804  3.0634 -1.6632
 4057SOL    HW223808   4.264   2.700   5.761 -0.7898  0.0741  0.3752
 4058SOL     OW23809   0.130   3.746  10.940 -0.4117 -0.0489  0.2105
 4058SOL    HW123810   0.211   3.764  10.989 -0.4392  0.6014  0.0116
 4058SOL    HW223811   0.148   3.779  10.852  0.8370  1.8287  1.1600
 4059SOL     OW23812   0.700   3.105   4.632  0.4619  0.0234 -0.6768
 4059SOL    HW123813   0.756   3.129   4.558  0.4252 -2.1202 -1.4084
 4059SOL    HW223814   0.733   3.156   4.706  0.2027  0.5877 -0.9557
 4060SOL     OW23815   0.413   2.914   7.864  0.5938 -0.0198 -0.2066
 4060SOL    HW123816   0.475   2.842   7.853 -0.1237 -0.8248  1.0867
 4060SOL    HW223817   0.441   2.948   7.949 -1.4130 -0.5762  0.6843
 4061SOL     OW23818   1.932   3.363   9.761 -0.2685  0.1074 -0.5320
 4061SOL    HW123819   1.959   3.441   9.712  0.4572  1.4150  1.9332
 4061SOL    HW223820   2.008   3.350   9.817 -0.9336 -0.8880  0.1306
 4062SOL     OW23821   1.753   0.219   8.466 -0.4048  1.1196  0.4379
 4062SOL    HW123822   1.672   0.188   8.426 -0.6264 -0.7648  2.3101
 4062SOL    HW223823   1.726   0.253   8.552 -0.5731 -0.0088  0.8424
 4063SOL     OW23824   4.408   0.401   6.765 -0.4932 -0.2935  0.3455
 4063SOL    HW123825   4.314   0.394   6.750 -0.5972  0.0439  0.8345
 4063SOL    HW223826   4.441   0.377   6.679  0.6742  1.2963  0.3422
 4064SOL     OW23827   0.415   0.116   3.486  0.6582 -0.1795  0.3028
 4064SOL    HW123828   0.461   0.137   3.405 -1.7393 -1.1223 -1.2987
 4064SOL    HW223829   0.345   0.181   3.487  1.8441  1.0430  2.3884
 4065SOL     OW23830   0.503   2.315   0.873 -0.2463  0.1794  0.7262
 4065SOL    HW123831   0.504   2.366   0.792  0.2419  0.6065  0.9996
 4065SOL    HW223832   0.462   2.383   0.927  0.5488 -1.1994  3.0682
 4066SOL     OW23833   4.409   1.877  11.233  0.4553  0.1848 -0.3886
 4066SOL    HW123834   4.389   1.839  11.147  1.9457  0.4284 -0.8497
 4066SOL    HW223835   4.355   1.833  11.298  0.0864  2.0536  0.5951
 4067SOL     OW23836   3.710   0.304  12.455 -0.3405  0.3845 -0.0653
 4067SOL    HW123837   3.649   0.339  12.520 -0.5379 -1.1394  0.5651
 4067SOL    HW223838   3.698   0.210  12.465  2.6946 -0.0116  0.0116
 4068SOL     OW23839   3.997   0.848   8.135 -0.0949  0.7744 -0.1149
 4068SOL    HW123840   3.925   0.901   8.102 -0.8386 -0.6808 -0.8415
 4068SOL    HW223841   3.981   0.844   8.230 -1.5020 -0.8046 -0.4157
 4069SOL     OW23842   3.383   3.228   3.189 -0.2040 -0.5073  0.2994
 4069SOL    HW123843   3.387   3.137   3.159 -0.4414 -0.8211  1.2352
 4069SOL    HW223844   3.425   3.211   3.273  1.0412 -0.0667 -0.2294
 4070SOL     OW23845   3.783   3.641   7.208 -0.2893  0.1783  0.1005
 4070SOL    HW123846   3.857   3.600   7.251 -2.9189 -3.0557  1.5238
 4070SOL    HW223847   3.838   3.693   7.149 -1.3657 -3.1748 -3.9250
 4071SOL     OW23848   2.970   1.554   1.459 -0.0636 -0.1953  0.0953
 4071SOL    HW123849   2.893   1.503   1.482 -0.9777  1.1782  0.0362
 4071SOL    HW223850   2.956   1.560   1.365  0.9673 -2.7785 -0.2224
 4072SOL     OW23851   0.050   0.642   9.138 -0.1885 -0.3861  0.5418
 4072SOL    HW123852   4.703   0.676   9.175 -0.8835  0.8836 -2.1467
 4072SOL    HW223853   0.024   0.570   9.081 -1.7922  0.8054 -0.2398
 4073SOL     OW23854   3.200   0.198   8.294 -0.0674  0.5693 -0.1754
 4073SOL    HW123855   3.242   0.273   8.334 -2.4108  1.4201  0.7190
 4073SOL    HW223856   3.274   0.138   8.283 -1.7666 -0.5433 -5.3395
 4074SOL     OW23857   2.955   0.306   3.204 -0.4366  0.6739  0.0378
 4074SOL    HW123858   3.016   0.253   3.153 -0.5921 -1.4845  2.0669
 4074SOL    HW223859   2.928   0.373   3.142 -1.6356 -0.7152 -0.9320
 4075SOL     OW23860   2.567   3.901  13.268  0.2010  0.1335 -0.2641
 4075SOL    HW123861   2.492   3.872  13.216 -0.3214 -0.7555  1.0030
 4075SOL    HW223862   2.531   3.978  13.312  1.6099  0.9308 -0.4967
 4076SOL     OW23863   2.796   2.894  12.942  0.0322  0.0840  0.7937
 4076SOL    HW123864   2.861   2.881  13.011  0.6455  0.2850  0.2554
 4076SOL    HW223865   2.757   2.807  12.945 -3.2775  1.5010 -0.8980
 4077SOL     OW23866   4.329   4.083   9.371 -0.2107  0.1345  0.0608
 4077SOL    HW123867   4.268   4.077   9.297  0.6674 -2.3984 -0.4731
 4077SOL    HW223868   4.340   3.992   9.398 -0.8783 -0.0922 -0.4393
 4078SOL     OW23869   0.478   3.831  12.641  0.6039  0.2402  0.3594
 4078SOL    HW123870   0.517   3.849  12.555 -0.5585  0.1483 -0.1940
 4078SOL    HW223871   0.395   3.802  12.603  1.3228 -1.5230  0.1412
 4079SOL     OW23872   4.509   2.655   8.629  0.0405  0.7401 -0.0532
 4079SOL    HW123873   4.586   2.704   8.599  0.8184 -0.4766 -0.0466
 4079SOL    HW223874   4.550   2.569   8.633 -0.9433  0.2584 -0.2910
 4080SOL     OW23875   3.668   2.207  14.544 -0.1698  0.3236 -0.0098
 4080SOL    HW123876   3.622   2.217  14.460  0.1972 -1.1891 -0.3835
 4080SOL    HW223877   3.676   2.114  14.560 -0.0716  0.1374 -1.1413
 4081SOL     OW23878   0.151   2.088   7.940 -0.0397 -0.5360  0.0229
 4081SOL    HW123879   0.177   2.010   7.989  1.8925 -0.1734 -0.4126
 4081SOL    HW223880   0.074   2.051   7.895  0.2070 -0.0342 -0.8150
 4082SOL     OW23881   4.024   0.276   8.343 -0.0067  0.4544 -0.1660
 4082SOL    HW123882   4.081   0.233   8.278  1.0438  0.6414  0.6305
 4082SOL    HW223883   4.010   0.364   8.310 -1.2829 -0.1006 -1.1177
 4083SOL     OW23884   2.559   2.327   2.126 -0.0046 -0.0658  0.6226
 4083SOL    HW123885   2.634   2.284   2.085  0.0132  1.7003 -1.1635
 4083SOL    HW223886   2.515   2.250   2.162 -1.1552  1.6236  2.8191
 4084SOL     OW23887   0.982   1.189  11.112 -0.2186  0.2614  0.1077
 4084SOL    HW123888   0.929   1.191  11.192 -0.2594 -1.4541  0.1317
 4084SOL    HW223889   1.033   1.111  11.136  0.5773  0.3290 -1.3543
 4085SOL     OW23890   2.015   3.209  12.305 -0.5544 -0.0349  0.1964
 4085SOL    HW123891   1.980   3.121  12.289  0.4441 -0.1049 -1.6321
 4085SOL    HW223892   1.958   3.238  12.376  0.3479  0.6457  0.6394
 4086SOL     OW23893   1.339   1.570   2.683 -0.2013 -0.5930 -0.5223
 4086SOL    HW123894   1.309   1.622   2.608  1.4052  1.5673  0.3290
 4086SOL    HW223895   1.301   1.489   2.648  0.2685 -1.4160  0.9061
 4087SOL     OW23896   2.228   0.608  11.867 -0.5447  0.5009 -0.2771
 4087SOL    HW123897   2.296   0.665  11.832 -0.6479  0.2150 -0.9304
 4087SOL    HW223898   2.223   0.535  11.805 -0.1791  1.0578 -0.9582
 4088SOL     OW23899   2.555   2.777  11.739 -0.0283  0.2565  0.3265
 4088SOL    HW123900   2.546   2.706  11.803 -0.8506 -0.2242 -0.3121
 4088SOL    HW223901   2.650   2.772  11.727 -0.1532  0.8515 -0.9274
 4089SOL     OW23902   1.562   1.890   6.653  0.2053 -0.4103  0.6571
 4089SOL    HW123903   1.643   1.909   6.701 -0.3284  0.8185  1.0764
 4089SOL    HW223904   1.537   1.973   6.613  1.9711 -1.1259 -1.8970
 4090SOL     OW23905   1.449   2.220   3.248 -0.5491  0.0988  0.4795
 4090SOL    HW123906   1.420   2.133   3.219 -2.9243  1.1045 -0.1582
 4090SOL    HW223907   1.479   2.210   3.338  1.6447  0.5201 -0.2126
 4091SOL     OW23908   0.834   3.956   1.347 -0.1864  0.4084  0.4475
 4091SOL    HW123909   0.864   4.036   1.306  2.2590 -0.7116  0.0674
 4091SOL    HW223910   0.893   3.888   1.315  0.1192 -0.0542  1.9855
 4092SOL     OW23911   1.160   3.584  15.918  0.2404  0.6605  0.2815
 4092SOL    HW123912   1.191   3.495  15.937 -0.7365  0.2858  0.1140
 4092SOL    HW223913   1.067   3.563  15.917  0.3263  0.3405 -2.1747
 4093SOL     OW23914   4.357   2.692   7.520 -0.1965  0.8020 -0.0936
 4093SOL    HW123915   4.267   2.663   7.506 -0.2284 -0.0544  1.8936
 4093SOL    HW223916   4.391   2.697   7.430  1.0526  0.0061  0.3275
 4094SOL     OW23917   1.585   4.529   2.410  0.5896 -0.6433 -0.7469
 4094SOL    HW123918   1.575   4.622   2.391  2.2431 -0.4252 -0.5130
 4094SOL    HW223919   1.525   4.489   2.347  1.3836 -2.2353 -0.4946
 4095SOL     OW23920   1.474   4.388   5.921  0.3908  0.3046 -0.2648
 4095SOL    HW123921   1.556   4.352   5.955 -0.6101 -1.2811  0.4966
 4095SOL    HW223922   1.442   4.436   5.998 -0.2148 -0.7499  0.1475
 4096SOL     OW23923   3.790   0.679   2.228 -0.1529 -0.6930  0.6974
 4096SOL    HW123924   3.868   0.733   2.214  0.1211 -1.1870  0.2968
 4096SOL    HW223925   3.804   0.624   2.150  1.5341 -2.7078  2.4197
 4097SOL     OW23926   1.795   3.480  10.719 -0.7608  0.5141  0.3125
 4097SOL    HW123927   1.733   3.462  10.648 -1.1203  2.0016  0.2634
 4097SOL    HW223928   1.745   3.452  10.796  0.6397  2.8628  2.0426
 4098SOL     OW23929   1.126   3.704  16.966 -0.5917  0.4183 -0.4944
 4098SOL    HW123930   1.037   3.690  16.935 -0.3724 -0.1718 -0.8515
 4098SOL    HW223931   1.171   3.708  16.882 -0.4111 -0.1689 -0.4266
 4099SOL     OW23932   1.113   0.588   0.854  0.1436  0.4009 -0.0415
 4099SOL    HW123933   1.137   0.499   0.826 -0.9371 -0.0096  0.3476
 4099SOL    HW223934   1.191   0.613   0.904 -0.3332 -0.6911  1.2765
 4100SOL     OW23935   0.798   3.688   0.918  0.2538  0.4357 -0.4969
 4100SOL    HW123936   0.725   3.626   0.928  0.1688  0.3289 -1.7747
 4100SOL    HW223937   0.755   3.766   0.884 -2.1349 -1.6439 -2.2780
 4101SOL     OW23938   4.570   1.600  14.072 -0.3055  0.2424  0.0856
 4101SOL    HW123939   4.574   1.505  14.076  1.9565  0.2238 -2.4009
 4101SOL    HW223940   4.478   1.616  14.092  0.1191 -0.6126  2.6913
 4102SOL     OW23941   0.380   3.675  12.203 -0.6073  0.5377  0.2180
 4102SOL    HW123942   0.298   3.720  12.181 -1.7069 -1.4966  0.1596
 4102SOL    HW223943   0.358   3.583  12.194  1.5801 -0.0839  1.2897
 4103SOL     OW23944   4.434   1.178   5.994  0.1825  0.3100 -0.0366
 4103SOL    HW123945   4.428   1.146   5.904  1.9243  1.5259 -0.5799
 4103SOL    HW223946   4.464   1.268   5.982 -1.9368  0.9865 -0.4255
 4104SOL     OW23947   2.264   2.549   3.966  0.0136 -0.4180 -0.1880
 4104SOL    HW123948   2.307   2.590   4.041 -0.9091  0.8361 -0.3447
 4104SOL    HW223949   2.338   2.527   3.910  0.9414  1.0611  0.4692
 4105SOL     OW23950   0.349   0.537   5.976  0.3284  0.0346 -0.1396
 4105SOL    HW123951   0.270   0.522   6.027  0.1666  0.3517 -0.3006
 4105SOL    HW223952   0.312   0.583   5.901 -2.8808  0.8060  1.9300
 4106SOL     OW23953   2.738   0.145   2.183  0.7021  0.6176  0.1057
 4106SOL    HW123954   2.680   0.072   2.160  2.4632 -0.6942 -0.1998
 4106SOL    HW223955   2.701   0.210   2.124 -1.5970 -1.0993 -0.3189
 4107SOL     OW23956   0.402   2.244   7.579 -0.0690  0.3798 -0.1172
 4107SOL    HW123957   0.496   2.229   7.587 -0.4051 -0.8809  1.5484
 4107SOL    HW223958   0.389   2.258   7.673  1.0281  0.8978 -0.0433
 4108SOL     OW23959   4.398   1.026   0.841  0.4031 -0.2327  0.0724
 4108SOL    HW123960   4.397   0.949   0.785  0.7174 -0.2801  0.1282
 4108SOL    HW223961   4.468   1.078   0.799  0.8820  0.4563  1.7135
 4109SOL     OW23962   2.777   4.545   4.785  0.0107  0.4986  0.8340
 4109SOL    HW123963   2.688   4.549   4.819 -0.4422  1.3833 -0.4962
 4109SOL    HW223964   2.813   4.477   4.842 -0.3423  0.1467  0.6359
 4110SOL     OW23965   2.127   1.617   6.154  0.6847 -0.1836 -0.2255
 4110SOL    HW123966   2.138   1.522   6.160  0.8888 -0.0597  1.1527
 4110SOL    HW223967   2.111   1.639   6.245  0.5718 -1.4106  0.0570
 4111SOL     OW23968   0.633   3.970   5.200 -0.2997 -0.5746 -0.7106
 4111SOL    HW123969   0.721   3.949   5.231 -2.1231 -2.0124  3.4832
 4111SOL    HW223970   0.631   4.066   5.191  0.0531 -0.5574 -0.5905
 4112SOL     OW23971   0.216   2.532   6.409 -0.2013 -0.1930  0.3965
 4112SOL    HW123972   0.286   2.477   6.376  1.8363  1.9807  1.0823
 4112SOL    HW223973   0.143   2.505   6.354 -1.7175  3.1884  0.7392
 4113SOL     OW23974   3.854   2.311   2.415  0.0065  0.0783 -0.0900
 4113SOL    HW123975   3.817   2.399   2.411  0.2613  0.2555  1.2372
 4113SOL    HW223976   3.769   2.270   2.400  0.4561 -0.2756 -1.5673
 4114SOL     OW23977   2.775   0.473  13.138 -0.0214 -0.0220  0.6996
 4114SOL    HW123978   2.721   0.552  13.140  0.0602  0.0688 -0.5746
 4114SOL    HW223979   2.799   0.462  13.230 -2.5180 -0.5102  1.2768
 4115SOL     OW23980   1.036   0.726   5.241 -0.0101 -0.8613  0.0302
 4115SOL    HW123981   1.123   0.764   5.249  0.1149 -0.7861 -1.6227
 4115SOL    HW223982   1.029   0.667   5.316  1.4465  1.1997  1.7989
 4116SOL     OW23983   0.513   0.303  17.362  0.1637  0.3176 -0.7496
 4116SOL    HW123984   0.523   0.217  17.321  1.3548  1.3819 -2.7183
 4116SOL    HW223985   0.606   0.320  17.379  0.3135  0.5075 -1.7344
 4117SOL     OW23986   3.750   3.766  13.353  0.2332  0.4742  0.2523
 4117SOL    HW123987   3.717   3.746  13.266  0.1522 -4.3486  1.3415
 4117SOL    HW223988   3.764   3.859  13.340  2.5563 -0.0329 -0.8385
 4118SOL     OW23989   1.084   2.446  13.609 -0.7684 -0.1096 -0.1974
 4118SOL    HW123990   1.097   2.526  13.557 -4.3709  0.9858  0.6052
 4118SOL    HW223991   1.104   2.379  13.544 -0.3878 -0.4860  0.3036
 4119SOL     OW23992   2.207   1.727  10.095  0.2458 -0.3871 -0.0028
 4119SOL    HW123993   2.286   1.717  10.042 -0.0349 -2.7811  0.0300
 4119SOL    HW223994   2.237   1.730  10.186  4.1536 -0.1978 -1.3253
 4120SOL     OW23995   1.435   2.166   6.685  0.6462 -0.6203 -0.1187
 4120SOL    HW123996   1.397   2.152   6.772 -0.2836  1.4681 -0.1845
 4120SOL    HW223997   1.355   2.156   6.634 -0.4297  0.3174  1.3819
 4121SOL     OW23998   1.607   4.581   4.660  0.3967 -0.4413 -0.0781
 4121SOL    HW123999   1.526   4.567   4.611  0.7697 -3.6288  0.1947
 4121SOL    HW224000   1.603   4.508   4.723  0.8664  0.1939  0.6857
 4122SOL     OW24001   4.714   1.572   2.492 -0.3194 -0.2999  0.4333
 4122SOL    HW124002   0.064   1.529   2.482 -0.9074 -1.2169 -0.4824
 4122SOL    HW224003   4.664   1.535   2.419 -0.7260  3.5491 -1.2531
 4123SOL     OW24004   3.330   0.718  11.170  0.2428 -0.4350 -0.0456
 4123SOL    HW124005   3.306   0.632  11.137  0.8217 -0.5050 -0.2832
 4123SOL    HW224006   3.245   0.759  11.187 -0.3454 -1.6843  0.0182
 4124SOL     OW24007   3.369   3.940   3.512 -0.1718  0.1524 -0.0542
 4124SOL    HW124008   3.349   4.030   3.488 -0.9340 -0.5242 -1.9056
 4124SOL    HW224009   3.310   3.894   3.452 -0.9577  2.7196 -1.2279
 4125SOL     OW24010   3.750   0.450   8.937 -0.4284  0.3179  0.0851
 4125SOL    HW124011   3.717   0.438   8.848  0.5338  0.2467 -0.2622
 4125SOL    HW224012   3.763   0.544   8.931  1.2886  0.0647 -0.1267
 4126SOL     OW24013   1.803   1.950   8.922 -0.4074 -0.8682  0.6693
 4126SOL    HW124014   1.708   1.954   8.914 -0.3446  0.4866  0.4544
 4126SOL    HW224015   1.816   2.008   8.997 -1.8794  1.7533 -1.0697
 4127SOL     OW24016   1.161   1.200   2.617  0.1068  0.0569  0.5672
 4127SOL    HW124017   1.243   1.151   2.627  1.3869  2.1324  0.2244
 4127SOL    HW224018   1.105   1.124   2.634 -2.4819  1.3883 -2.0247
 4128SOL     OW24019   0.521   3.452   7.221  0.0042 -0.1209  0.0224
 4128SOL    HW124020   0.597   3.461   7.164 -1.0591  3.0250 -0.8744
 4128SOL    HW224021   0.579   3.422   7.291  0.3540  2.3184  0.7576
 4129SOL     OW24022   3.485   2.242   5.245 -0.3496  0.2374  0.1204
 4129SOL    HW124023   3.497   2.252   5.151 -1.8368 -0.2814 -0.1286
 4129SOL    HW224024   3.390   2.241   5.254 -0.4863 -0.6134 -1.3818
 4130SOL     OW24025   2.827   2.885   4.638  0.0261 -0.1966 -0.3983
 4130SOL    HW124026   2.864   2.851   4.720  1.5079 -1.0988 -1.4254
 4130SOL    HW224027   2.820   2.808   4.581  1.4283  0.2069 -1.1151
 4131SOL     OW24028   4.384   1.430   4.268  0.0691  0.0758  0.3988
 4131SOL    HW124029   4.288   1.430   4.273  0.0375  0.6096 -0.2261
 4131SOL    HW224030   4.396   1.437   4.173 -0.6101 -1.3505  0.2147
 4132SOL     OW24031   1.378   0.172  11.921 -0.3597  0.3592 -0.5920
 4132SOL    HW124032   1.337   0.195  11.837 -0.5826  0.4367 -0.4609
 4132SOL    HW224033   1.451   0.121  11.887 -2.0191 -0.9584 -2.1848
 4133SOL     OW24034   1.735   1.340   6.085 -0.2285 -0.1972  0.3639
 4133SOL    HW124035   1.684   1.275   6.037  0.9176  0.3254 -1.5940
 4133SOL    HW224036   1.676   1.358   6.158 -0.0343  2.4926 -0.1477
 4134SOL     OW24037   2.155   0.853   8.422  0.6457  0.4222 -0.5314
 4134SOL    HW124038   2.074   0.858   8.371 -0.1813 -1.3464  0.6115
 4134SOL    HW224039   2.222   0.912   8.386  1.3041 -1.3552 -2.2490
 4135SOL     OW24040   4.245   4.485   1.870 -0.2721 -0.2805  0.0953
 4135SOL    HW124041   4.264   4.522   1.784 -0.0908 -1.6865 -0.4783
 4135SOL    HW224042   4.328   4.441   1.888  1.1408  2.6309  0.6134
 4136SOL     OW24043   0.372   1.061   1.687  0.7680  0.4698 -0.0187
 4136SOL    HW124044   0.323   1.036   1.765 -0.4466 -0.8934 -1.2181
 4136SOL    HW224045   0.309   1.126   1.656  2.9489  2.7204  0.2969
 4137SOL     OW24046   3.519   1.566   8.890 -0.6767  0.1849  0.2480
 4137SOL    HW124047   3.546   1.656   8.869  1.2677 -0.8230 -1.4894
 4137SOL    HW224048   3.425   1.567   8.873 -0.1668  0.7916 -2.5076
 4138SOL     OW24049   4.448   0.906   6.435 -0.2290  0.1037 -0.3517
 4138SOL    HW124050   4.385   0.973   6.461 -0.0721 -0.0090  0.3297
 4138SOL    HW224051   4.514   0.955   6.384  1.0478 -1.1142  0.1199
 4139SOL     OW24052   0.478   2.974  10.263  0.3805  0.6540  0.1469
 4139SOL    HW124053   0.447   2.921  10.336 -0.3057 -2.6371 -2.5125
 4139SOL    HW224054   0.549   3.024  10.302  1.3609 -1.3192  0.8729
 4140SOL     OW24055   1.095   4.417   3.260 -0.3873 -0.3779  0.1202
 4140SOL    HW124056   1.044   4.358   3.316  0.0514  0.3235  1.2769
 4140SOL    HW224057   1.124   4.361   3.188  1.6732 -0.3298  0.9281
 4141SOL     OW24058   2.129   0.786   1.540  0.5202  0.4103 -0.1253
 4141SOL    HW124059   2.204   0.730   1.560  0.4233 -0.4969 -2.3135
 4141SOL    HW224060   2.074   0.741   1.475 -3.6011  2.3581  1.9744
 4142SOL     OW24061   4.551   2.250   5.766 -0.3110 -0.3806 -0.2215
 4142SOL    HW124062   4.581   2.296   5.845 -1.4682 -1.9316  1.1326
 4142SOL    HW224063   4.461   2.224   5.784 -0.4274 -0.5718 -1.1131
 4143SOL     OW24064   1.854   1.433   8.184 -0.1934  0.1874  0.1397
 4143SOL    HW124065   1.850   1.485   8.104  0.9583  0.2227  0.1115
 4143SOL    HW224066   1.847   1.493   8.258 -1.3992  0.2328  0.0019
 4144SOL     OW24067   1.028   1.589   5.530 -0.6483 -0.2125  0.1369
 4144SOL    HW124068   1.105   1.641   5.552  1.2312 -1.6161 -3.3261
 4144SOL    HW224069   1.060   1.540   5.455 -1.8023  0.2862 -0.6786
 4145SOL     OW24070   0.860   0.178   4.905  0.2295 -0.2587 -0.4690
 4145SOL    HW124071   0.876   0.262   4.949  1.4517 -0.7881  0.0952
 4145SOL    HW224072   0.928   0.177   4.838  1.1816 -0.7726  0.5047
 4146SOL     OW24073   0.267   2.261   1.098 -0.3698  0.4174 -0.8303
 4146SOL    HW124074   0.346   2.300   1.060  1.7575 -2.0416  1.0122
 4146SOL    HW224075   0.207   2.332   1.079 -0.1225  0.5708 -1.0461
 4147SOL     OW24076   4.368   1.285   6.943  0.0173  0.5696  0.0497
 4147SOL    HW124077   4.278   1.316   6.934 -0.3195 -0.1139  1.1487
 4147SOL    HW224078   4.346   1.193   6.934  1.2713  0.1982  0.8088
 4148SOL     OW24079   3.928   4.372   2.345 -0.0835  0.1816  0.0070
 4148SOL    HW124080   3.918   4.467   2.341  0.8660  0.2810 -0.0191
 4148SOL    HW224081   3.860   4.341   2.284 -0.4271  0.8494  0.0529
 4149SOL     OW24082   0.240   1.074   9.292  0.6308 -0.3558 -0.0200
 4149SOL    HW124083   0.330   1.079   9.324  0.8685 -0.1859 -0.7180
 4149SOL    HW224084   0.229   1.161   9.254  1.3878 -0.4883 -0.5338
 4150SOL     OW24085   0.483   1.019  11.784  0.2101 -0.2909  0.3295
 4150SOL    HW124086   0.411   0.956  11.781 -0.7100  0.8040 -0.4624
 4150SOL    HW224087   0.542   0.992  11.713 -1.2914 -2.3587 -0.1371
 4151SOL     OW24088   1.318   2.738   7.673  0.4158 -0.1501  0.6408
 4151SOL    HW124089   1.273   2.672   7.621 -0.3840  1.8424 -1.2493
 4151SOL    HW224090   1.410   2.724   7.651  0.3916  0.0296  0.4231
 4152SOL     OW24091   2.234   3.505   4.361  1.0513  0.3786  0.2075
 4152SOL    HW124092   2.214   3.412   4.347 -2.2827  1.3617 -1.8449
 4152SOL    HW224093   2.210   3.513   4.453 -2.0830 -3.0261 -0.2623
 4153SOL     OW24094   0.773   2.418   4.641 -0.3183 -0.2438 -0.4609
 4153SOL    HW124095   0.802   2.421   4.550 -0.9288  1.9496 -0.5591
 4153SOL    HW224096   0.682   2.437   4.621 -0.0161  0.7501 -0.8424
 4154SOL     OW24097   0.845   1.269   3.532 -0.1721  0.3710  0.0058
 4154SOL    HW124098   0.904   1.196   3.553 -0.2454 -0.1002 -1.4207
 4154SOL    HW224099   0.812   1.239   3.447  3.0596 -1.2933 -0.6436
 4155SOL     OW24100   3.015   4.385   3.160 -0.2792 -0.1065  0.0024
 4155SOL    HW124101   2.978   4.431   3.235 -0.4746  1.7677 -1.2529
 4155SOL    HW224102   3.062   4.457   3.118  1.2657 -0.6561  0.8103
 4156SOL     OW24103   0.102   3.417   9.496 -0.2061  0.2488 -0.9018
 4156SOL    HW124104   0.015   3.436   9.460  0.4490 -0.1881 -2.7386
 4156SOL    HW224105   0.088   3.448   9.585 -0.5111 -1.1075 -0.4741
 4157SOL     OW24106   1.377   4.367   4.578  0.2082 -0.4236  0.7445
 4157SOL    HW124107   1.288   4.382   4.609 -0.1472 -1.5821  0.2515
 4157SOL    HW224108   1.369   4.358   4.483 -2.3772  1.6887  0.7610
 4158SOL     OW24109   2.883   2.581   8.834 -0.2844  0.9475 -0.5613
 4158SOL    HW124110   2.902   2.670   8.863  1.8934  0.3508 -0.1635
 4158SOL    HW224111   2.927   2.536   8.905 -0.2521  2.0232  0.1016
 4159SOL     OW24112   2.848   4.089  13.481 -0.1751 -0.1089 -0.2602
 4159SOL    HW124113   2.861   4.027  13.552  0.5211 -0.1444 -0.4151
 4159SOL    HW224114   2.806   4.161  13.528  0.4630  0.7205 -0.9381
 4160SOL     OW24115   2.506   3.635   2.418 -0.2592 -0.0397  0.0953
 4160SOL    HW124116   2.541   3.664   2.503  2.0173  1.5221 -1.3872
 4160SOL    HW224117   2.509   3.540   2.412  0.4813 -0.0618  0.7567
 4161SOL     OW24118   2.558   0.240   3.343 -0.2033  1.0221  0.2231
 4161SOL    HW124119   2.586   0.271   3.257  1.4732 -0.1566  0.3431
 4161SOL    HW224120   2.496   0.310   3.366 -0.5948 -0.0419  2.4034
 4162SOL     OW24121   4.411   4.639   8.638  0.0787 -0.7767 -0.4308
 4162SOL    HW124122   4.362   4.698   8.581 -0.7650 -0.7987  0.2773
 4162SOL    HW224123   4.424   4.564   8.581  1.1976  0.1239 -1.3552
 4163SOL     OW24124   3.606   4.533  15.057 -0.1471  0.3443  0.1939
 4163SOL    HW124125   3.609   4.568  14.968  0.2624 -0.3634 -0.0803
 4163SOL    HW224126   3.581   4.441  15.046 -1.1580  0.5780  0.5736
 4164SOL     OW24127   0.324   3.038   3.406  0.2488 -0.1347  0.5051
 4164SOL    HW124128   0.232   3.056   3.389  0.4727  0.3085 -0.2718
 4164SOL    HW224129   0.324   3.040   3.501 -2.9345 -3.1806  0.5586
 4165SOL     OW24130   1.845   1.070  12.700  0.0527  0.3067  0.7467
 4165SOL    HW124131   1.798   1.005  12.647  0.9384  1.1779 -1.0984
 4165SOL    HW224132   1.922   1.081  12.644 -1.3431 -1.6646 -1.5830
 4166SOL     OW24133   3.809   3.601   2.742  0.5550 -0.6496 -0.1310
 4166SOL    HW124134   3.741   3.651   2.696  0.3407 -1.1789 -0.3925
 4166SOL    HW224135   3.850   3.562   2.665 -0.1281 -0.6023 -0.5216
 4167SOL     OW24136   4.063   2.484   8.106  0.5244 -0.1552 -0.0031
 4167SOL    HW124137   4.143   2.522   8.142  1.2987 -1.5824 -0.2017
 4167SOL    HW224138   4.100   2.460   8.021 -0.3184  0.3138 -0.5075
 4168SOL     OW24139   1.653   1.823   9.451 -0.7858  0.3277  0.0280
 4168SOL    HW124140   1.690   1.883   9.386 -2.5592  1.3715 -0.0166
 4168SOL    HW224141   1.561   1.814   9.424  0.1741 -1.1309 -2.7890
 4169SOL     OW24142   1.762   4.545   6.077  0.0533  0.3415 -0.2577
 4169SOL    HW124143   1.840   4.520   6.127 -0.3823  0.1669  0.3334
 4169SOL    HW224144   1.745   4.465   6.028 -1.9031  1.7094 -1.7802
 4170SOL     OW24145   0.706   0.543   0.799 -0.1846  0.5890 -0.1882
 4170SOL    HW124146   0.774   0.478   0.783 -1.8196 -0.7909 -1.5829
 4170SOL    HW224147   0.629   0.491   0.821 -0.4507  0.0342 -2.4297
 4171SOL     OW24148   0.240   0.732  14.666 -0.2146 -0.0757  0.3779
 4171SOL    HW124149   0.184   0.657  14.686  0.2814 -1.0782 -2.0061
 4171SOL    HW224150   0.197   0.750  14.583  0.1113  1.1525  0.4777
 4172SOL     OW24151   1.158   0.415   3.269 -0.1801 -0.0623 -0.1041
 4172SOL    HW124152   1.144   0.350   3.339  0.7114 -0.9344 -0.7295
 4172SOL    HW224153   1.250   0.397   3.247  0.3223  1.0896  1.0782
 4173SOL     OW24154   1.511   1.895   2.330  0.2278  0.7035  0.4679
 4173SOL    HW124155   1.559   1.974   2.355 -1.3748  1.1610  2.0258
 4173SOL    HW224156   1.421   1.917   2.352 -0.8096 -0.8791 -2.1365
 4174SOL     OW24157   0.232   0.347   1.827 -0.5703 -0.4873  0.2085
 4174SOL    HW124158   0.221   0.362   1.733 -2.6090  1.6134  0.7894
 4174SOL    HW224159   0.153   0.299   1.852 -0.3325 -0.7812  0.4045
 4175SOL     OW24160   4.725   1.586   5.892 -0.6320  0.4326 -0.7304
 4175SOL    HW124161   0.080   1.603   5.921 -0.0665  0.3190 -2.3685
 4175SOL    HW224162   0.010   1.581   5.798 -0.9771 -2.0815 -0.6805
 4176SOL     OW24163   2.571   0.895  10.239  0.2260 -0.1288  0.3765
 4176SOL    HW124164   2.651   0.857  10.202  0.0759  0.3982 -0.4895
 4176SOL    HW224165   2.526   0.912  10.156  1.1793 -0.4433 -0.1980
 4177SOL     OW24166   0.828   4.358   2.420 -0.6411  0.3311  0.2262
 4177SOL    HW124167   0.790   4.282   2.463  2.8383 -0.7187  1.4466
 4177SOL    HW224168   0.821   4.425   2.487  1.0840  0.1068  0.6315
 4178SOL     OW24169   1.864   1.143   8.990 -0.2538  0.5043  0.5066
 4178SOL    HW124170   1.836   1.143   8.899 -1.9957  0.2094  1.0227
 4178SOL    HW224171   1.924   1.069   8.980  1.4154  1.7104  1.6817
 4179SOL     OW24172   1.329   0.986   6.472  0.0937  0.3368  0.0381
 4179SOL    HW124173   1.386   1.059   6.495 -0.4491  0.7524  0.0764
 4179SOL    HW224174   1.385   0.913   6.445  0.0118  0.3909 -0.2836
 4180SOL     OW24175   0.616   0.585  11.493  0.2656 -0.7780 -0.0256
 4180SOL    HW124176   0.529   0.590  11.532  1.1110 -0.8474  1.8919
 4180SOL    HW224177   0.645   0.672  11.521  0.9209 -0.1693 -2.6104
 4181SOL     OW24178   3.846   0.084  11.457 -0.1095  0.5621 -0.4826
 4181SOL    HW124179   3.831   0.086  11.551  2.4732  2.5506 -0.0917
 4181SOL    HW224180   3.839   0.177  11.434  1.3948  1.0358  1.0078
 4182SOL     OW24181   0.765   2.178   2.105 -0.0058  0.1754 -0.2378
 4182SOL    HW124182   0.748   2.202   2.196  0.0903  0.0220 -0.1796
 4182SOL    HW224183   0.803   2.262   2.078 -2.6443  1.1887 -0.7297
 4183SOL     OW24184   1.906   2.342   1.230  0.0936  0.1314  0.0135
 4183SOL    HW124185   1.903   2.261   1.179 -0.2632  0.0895  0.0968
 4183SOL    HW224186   1.836   2.396   1.194 -2.4103 -2.0059  1.6102
 4184SOL     OW24187   2.734   0.030   0.657  0.1879  0.4740 -0.0250
 4184SOL    HW124188   2.791   4.718   0.595  0.3125 -0.6357  0.9023
 4184SOL    HW224189   2.699   0.100   0.603 -0.3341 -0.3308 -0.7187
 4185SOL     OW24190   3.301   0.982   3.752  0.0481  0.0916  0.1030
 4185SOL    HW124191   3.289   1.075   3.733  0.8104  0.2419  0.3657
 4185SOL    HW224192   3.312   0.954   3.661 -0.7097  1.1320 -0.3031
 4186SOL     OW24193   0.796   4.238   8.918 -0.1282  0.2500 -0.5144
 4186SOL    HW124194   0.881   4.257   8.957  0.4358 -1.5009 -0.8913
 4186SOL    HW224195   0.747   4.199   8.990 -0.9675 -0.4085 -1.4322
 4187SOL     OW24196   1.247   3.060   3.369 -0.1010 -0.1642 -0.2588
 4187SOL    HW124197   1.163   3.021   3.344  0.1528  0.1389 -1.5549
 4187SOL    HW224198   1.313   3.017   3.315  1.3620  1.2913  0.3778
 4188SOL     OW24199   1.638   3.887   7.167  0.6565  0.1370  0.2258
 4188SOL    HW124200   1.622   3.948   7.095 -0.2726  0.6874  0.9060
 4188SOL    HW224201   1.582   3.928   7.232  1.2980 -0.2969  1.0505
 4189SOL     OW24202   0.788   3.948   8.453 -0.7857  0.1656 -0.0111
 4189SOL    HW124203   0.864   3.986   8.497 -0.6175 -1.1585  0.8499
 4189SOL    HW224204   0.766   4.008   8.381  1.3281  2.1542  1.0111
 4190SOL     OW24205   1.789   0.795   6.449 -0.3263  0.0024 -0.2112
 4190SOL    HW124206   1.770   0.711   6.491  1.9877 -0.5824 -0.3187
 4190SOL    HW224207   1.706   0.823   6.413 -0.5541 -1.6054 -0.9312
 4191SOL     OW24208   3.709   2.567   4.013  0.0515  0.6053  0.0849
 4191SOL    HW124209   3.785   2.512   4.033  0.3391  0.8930 -0.2215
 4191SOL    HW224210   3.653   2.539   4.086  1.0870  3.5389  2.0253
 4192SOL     OW24211   3.034   3.899   4.162  0.2086  0.0047  0.1681
 4192SOL    HW124212   3.068   3.915   4.074  0.7265  1.9209  0.7077
 4192SOL    HW224213   3.106   3.941   4.210 -1.5713  1.0784  1.8990
 4193SOL     OW24214   1.558   0.161  14.196  0.0913  0.3651 -0.0079
 4193SOL    HW124215   1.618   0.206  14.256 -0.6857  0.2065  0.8894
 4193SOL    HW224216   1.503   0.112  14.257 -1.0884  0.6554 -0.8527
 4194SOL     OW24217   3.803   1.773   5.491 -0.1721  0.1256 -0.3474
 4194SOL    HW124218   3.789   1.832   5.417 -0.4449  1.9774  1.2144
 4194SOL    HW224219   3.887   1.734   5.465 -0.5543 -0.7812 -0.2299
 4195SOL     OW24220   3.510   3.189   6.888 -0.0149 -0.2058 -0.5849
 4195SOL    HW124221   3.470   3.102   6.896 -0.6598 -0.0551 -1.9924
 4195SOL    HW224222   3.561   3.178   6.808  3.3082  0.2275  1.5162
 4196SOL     OW24223   4.687   1.121   5.365 -0.2893  0.4573 -0.6167
 4196SOL    HW124224   4.706   1.211   5.339 -2.8590  0.1872 -3.3097
 4196SOL    HW224225   0.024   1.082   5.315  1.5732  1.7193  0.9989
 4197SOL     OW24226   0.248   1.015   8.319 -0.0532  0.0090 -0.2153
 4197SOL    HW124227   0.246   0.964   8.238 -0.3235 -2.2364  1.2142
 4197SOL    HW224228   0.305   1.087   8.293 -0.4000  0.6135  0.7114
 4198SOL     OW24229   2.612   4.301   4.018  0.0002  0.3788 -0.3747
 4198SOL    HW124230   2.632   4.219   4.063 -2.9781 -0.4238 -0.4989
 4198SOL    HW224231   2.590   4.272   3.930  2.6212  0.1869 -0.9605
 4199SOL     OW24232   0.815   0.920  14.262  0.0399  0.0144 -0.2589
 4199SOL    HW124233   0.741   0.860  14.260 -0.4439  0.6091 -0.1872
 4199SOL    HW224234   0.802   0.955  14.350  1.3458  0.2454 -0.1508
 4200SOL     OW24235   0.323   2.912   7.239 -0.2509 -0.0409  0.6829
 4200SOL    HW124236   0.369   2.844   7.189 -0.9453 -0.4415  0.6027
 4200SOL    HW224237   0.391   2.980   7.237 -0.7843  0.4215 -1.2749
 4201SOL     OW24238   3.737   4.041   6.715  0.3817  0.0386  0.1357
 4201SOL    HW124239   3.712   3.984   6.642 -1.3524  3.1547 -1.7131
 4201SOL    HW224240   3.814   3.996   6.750  0.1407 -1.5836 -1.3693
 4202SOL     OW24241   1.931   1.112  13.820  0.3226 -0.3176 -0.2154
 4202SOL    HW124242   1.965   1.039  13.768 -1.6530 -0.2175 -1.6497
 4202SOL    HW224243   1.878   1.152  13.752  0.4547 -3.3223 -2.0890
 4203SOL     OW24244   0.617   3.249   4.883  0.2736 -0.1249 -0.7275
 4203SOL    HW124245   0.601   3.316   4.816  3.9401  0.6133 -0.8670
 4203SOL    HW224246   0.544   3.188   4.868 -1.1429  1.7596 -1.5506
 4204SOL     OW24247   0.607   2.697   7.413 -0.3393 -0.3399 -0.2435
 4204SOL    HW124248   0.586   2.687   7.320 -2.0890  3.1424 -0.2216
 4204SOL    HW224249   0.653   2.780   7.418 -2.4868  0.7224  1.4826
 4205SOL     OW24250   4.561   0.958   6.077  0.0462  0.3052 -0.1928
 4205SOL    HW124251   4.581   0.997   6.162 -0.2503  0.2958 -0.1186
 4205SOL    HW224252   4.504   1.025   6.040 -1.6589 -0.5998  0.7778
 4206SOL     OW24253   4.358   4.335   3.550 -0.1893  0.6621  0.1252
 4206SOL    HW124254   4.346   4.250   3.509 -0.8145  0.2195  1.2271
 4206SOL    HW224255   4.446   4.355   3.518 -0.4666  0.1527 -0.9368
 4207SOL     OW24256   0.187   2.574   2.814 -0.1679  0.0369 -0.6378
 4207SOL    HW124257   0.093   2.586   2.823 -0.4465 -1.5430 -1.5056
 4207SOL    HW224258   0.178   2.528   2.731 -1.0754 -0.2460 -0.3837
 4208SOL     OW24259   2.402   1.125   7.527 -0.4512 -0.8478 -0.3272
 4208SOL    HW124260   2.467   1.189   7.498 -1.6843 -0.1185 -1.4777
 4208SOL    HW224261   2.325   1.180   7.543  1.4441  1.9304 -0.6466
 4209SOL     OW24262   0.963   4.054   7.290  0.0989  0.3718  0.0773
 4209SOL    HW124263   0.874   4.075   7.320  0.9425  2.3874  1.1322
 4209SOL    HW224264   0.954   3.972   7.242 -0.2097  0.0068  0.7605
 4210SOL     OW24265   1.491   3.563   5.244 -0.2822 -0.4918  0.0405
 4210SOL    HW124266   1.485   3.508   5.322 -3.0359 -0.2214  0.0033
 4210SOL    HW224267   1.490   3.656   5.268 -1.0278 -0.6365  0.5505
 4211SOL     OW24268   4.230   4.665   7.285 -0.4414 -0.0646 -0.9513
 4211SOL    HW124269   4.149   4.683   7.334 -0.6352 -0.4269 -1.1396
 4211SOL    HW224270   4.210   4.588   7.232 -1.4996 -2.0112  2.2891
 4212SOL     OW24271   0.597   2.052  15.547  0.1482  0.3596 -0.0186
 4212SOL    HW124272   0.543   1.979  15.517  1.1940  0.0278 -1.0943
 4212SOL    HW224273   0.670   2.049  15.485 -0.1446 -0.8121 -0.3183
 4213SOL     OW24274   3.615   2.160   2.401 -0.3058  0.0982  0.6289
 4213SOL    HW124275   3.636   2.110   2.481  2.6403 -1.0970 -0.8714
 4213SOL    HW224276   3.543   2.112   2.361 -1.1755 -0.5255  2.9066
 4214SOL     OW24277   3.823   2.491   6.358 -0.6930 -0.1411  0.0139
 4214SOL    HW124278   3.908   2.462   6.391 -1.0871 -2.2475 -0.7911
 4214SOL    HW224279   3.768   2.427   6.403 -1.0422  0.7709  0.8891
 4215SOL     OW24280   4.712   2.969  13.367 -0.1279  0.3467  0.5407
 4215SOL    HW124281   4.649   3.030  13.328 -0.9794 -1.6139 -1.1829
 4215SOL    HW224282   0.063   3.001  13.339 -0.1783 -0.8021 -0.9308
 4216SOL     OW24283   0.134   2.768   6.990  0.2306  0.3228 -0.3905
 4216SOL    HW124284   0.064   2.717   7.031 -1.4750  2.1258 -1.0844
 4216SOL    HW224285   0.200   2.782   7.058 -0.6410  2.2870  0.0551
 4217SOL     OW24286   3.920   1.815   5.760  0.2203  0.0613 -0.5745
 4217SOL    HW124287   3.931   1.720   5.763 -1.9769 -0.1840 -0.1763
 4217SOL    HW224288   3.867   1.830   5.682 -0.6189 -0.2395 -0.0719
 4218SOL     OW24289   1.585   2.090   2.717  0.4443  0.8519  0.1327
 4218SOL    HW124290   1.536   2.065   2.795  0.7941  1.4622  0.5481
 4218SOL    HW224291   1.547   2.173   2.686 -1.3331  0.1120  0.3109
 4219SOL     OW24292   0.223   4.338   5.571  0.6480  0.2475 -0.2467
 4219SOL    HW124293   0.248   4.306   5.485 -1.0828 -0.2372 -0.5555
 4219SOL    HW224294   0.220   4.250   5.608  0.5386 -0.2126 -1.3467
 4220SOL     OW24295   0.822   0.490   4.792 -0.2195  0.7723 -0.3324
 4220SOL    HW124296   0.851   0.579   4.770 -2.0336  1.3992 -0.1764
 4220SOL    HW224297   0.811   0.459   4.702 -0.7120 -2.5419  0.8775
 4221SOL     OW24298   1.284   1.414  16.667 -0.3660 -0.2313 -0.5179
 4221SOL    HW124299   1.372   1.401  16.634 -0.4101 -1.1117 -0.2967
 4221SOL    HW224300   1.247   1.487  16.618 -1.1077 -1.3306 -1.6030
 4222SOL     OW24301   1.973   1.726   8.965  0.0716 -0.0248  0.2623
 4222SOL    HW124302   1.933   1.676   8.893 -0.0698  0.4078  0.0431
 4222SOL    HW224303   1.897   1.759   9.012 -0.7904 -1.3551 -0.1973
 4223SOL     OW24304   3.819   0.717   8.897 -0.3441 -0.7079 -0.5892
 4223SOL    HW124305   3.897   0.673   8.863 -0.0424 -0.2422 -0.5051
 4223SOL    HW224306   3.841   0.810   8.884  2.1709 -1.3866 -1.1634
 4224SOL     OW24307   2.151   2.742   1.547 -0.1450  0.3346  0.4202
 4224SOL    HW124308   2.145   2.787   1.463  0.0120 -0.9859 -0.3005
 4224SOL    HW224309   2.151   2.651   1.519 -0.5922  1.0390 -1.9081
 4225SOL     OW24310   0.157   4.363  13.911  0.2881 -0.4274 -0.8513
 4225SOL    HW124311   0.213   4.393  13.839  0.9425 -1.3275 -0.7137
 4225SOL    HW224312   0.112   4.447  13.922 -0.6687 -1.3271  2.0740
 4226SOL     OW24313   0.548   0.805   2.216  0.0431 -0.0270  0.2321
 4226SOL    HW124314   0.454   0.801   2.236 -0.0240  2.3811  0.4026
 4226SOL    HW224315   0.584   0.735   2.271  0.3242  0.4887  0.7106
 4227SOL     OW24316   2.833   4.702  15.353  0.2205  0.3261  0.8687
 4227SOL    HW124317   2.812   4.728  15.263 -4.8162 -2.0407  1.3787
 4227SOL    HW224318   2.749   4.717  15.396 -1.6959 -1.6081 -2.1600
 4228SOL     OW24319   4.162   0.246   5.725  0.0217  0.4047 -0.0066
 4228SOL    HW124320   4.212   0.180   5.773 -0.7262  1.3449  2.0648
 4228SOL    HW224321   4.223   0.317   5.743  1.7319 -0.7898 -1.0963
 4229SOL     OW24322   1.844   0.995   0.760  0.7983 -0.0146 -0.0750
 4229SOL    HW124323   1.800   0.965   0.839  1.6735  0.6954  0.6821
 4229SOL    HW224324   1.915   1.054   0.783 -0.4632  0.1347  3.4192
 4230SOL     OW24325   2.551   0.244  15.169 -0.2443 -0.6945  0.0113
 4230SOL    HW124326   2.511   0.178  15.113 -0.7282 -0.1724 -0.2618
 4230SOL    HW224327   2.504   0.327  15.155  0.9424 -0.0265 -0.0463
 4231SOL     OW24328   4.081   3.335   6.987  0.2156 -0.1643  0.2133
 4231SOL    HW124329   3.987   3.315   6.996 -0.0498  0.3318 -1.5155
 4231SOL    HW224330   4.120   3.248   6.978 -0.3900 -0.2289 -1.7608
 4232SOL     OW24331   4.401   3.311   7.843 -0.1699 -0.3032 -0.5681
 4232SOL    HW124332   4.423   3.283   7.932  2.7776  0.8496 -0.9548
 4232SOL    HW224333   4.480   3.283   7.796  0.8659  1.2122  0.2838
 4233SOL     OW24334   0.249   1.481   3.592 -0.3784  0.5741  0.2269
 4233SOL    HW124335   0.213   1.542   3.527 -0.3054 -0.9655 -1.2579
 4233SOL    HW224336   0.257   1.536   3.670 -0.5836 -1.1002  1.4505
 4234SOL     OW24337   2.241   2.006   5.936  0.2366 -0.1976  0.3484
 4234SOL    HW124338   2.222   2.084   5.988  1.2032  2.6323 -3.6240
 4234SOL    HW224339   2.159   1.958   5.935  0.9048 -1.3750  0.9626
 4235SOL     OW24340   3.579   3.714  11.141 -0.0722 -0.1279  0.3094
 4235SOL    HW124341   3.662   3.708  11.095 -0.7264  0.5308 -0.9634
 4235SOL    HW224342   3.576   3.626  11.180  0.0935  0.7545  2.3310
 4236SOL     OW24343   0.013   1.038  14.096  0.2695  0.5511 -0.2081
 4236SOL    HW124344   0.031   1.075  14.009  1.8593 -0.7691 -0.4623
 4236SOL    HW224345   4.652   1.032  14.090  0.3357 -0.5714 -0.0482
 4237SOL     OW24346   4.357   3.015  13.704 -0.1154  0.2192  0.3531
 4237SOL    HW124347   4.280   3.048  13.750  0.3396  1.3931  0.2624
 4237SOL    HW224348   4.318   2.935  13.668 -2.0952  1.1496  0.4436
 4238SOL     OW24349   1.574   1.715   5.802 -0.0887 -0.2990 -0.1568
 4238SOL    HW124350   1.622   1.634   5.784  1.7457  0.6742  0.3815
 4238SOL    HW224351   1.632   1.783   5.767  0.8023 -1.7128 -1.4200
 4239SOL     OW24352   2.330   4.196   8.969  0.1219  0.2237  0.0036
 4239SOL    HW124353   2.293   4.120   9.014  1.9421 -0.8098 -0.2269
 4239SOL    HW224354   2.290   4.197   8.882  1.0476 -0.7938 -0.4383
 4240SOL     OW24355   4.421   0.610   2.572  0.1069 -0.3802  0.4035
 4240SOL    HW124356   4.420   0.647   2.484  0.5155  0.5299  0.7758
 4240SOL    HW224357   4.368   0.675   2.620  0.9366  0.1651  0.5974
 4241SOL     OW24358   4.578   0.234  14.679  0.2812 -0.0372  0.1200
 4241SOL    HW124359   4.529   0.161  14.718  2.5931 -1.8787 -0.3884
 4241SOL    HW224360   4.510   0.260  14.617 -0.2994 -0.0413  0.7511
 4242SOL     OW24361   1.837   0.774   2.081 -0.0937  0.4113  0.3211
 4242SOL    HW124362   1.916   0.734   2.116  0.3644 -0.6229 -1.9491
 4242SOL    HW224363   1.770   0.718   2.120 -0.1185  0.5831  0.5298
 4243SOL     OW24364   3.812   0.351  11.401 -0.0679  0.0582  0.4053
 4243SOL    HW124365   3.727   0.383  11.371 -0.2675 -0.3575  0.5324
 4243SOL    HW224366   3.823   0.426  11.459 -1.2194 -0.6205  1.4945
 4244SOL     OW24367   1.800   0.464  17.595 -0.5876  0.6812  0.2652
 4244SOL    HW124368   1.835   0.430  17.678  0.9475  1.2621 -0.1544
 4244SOL    HW224369   1.762   0.547  17.623 -1.2443 -0.0769  1.6285
 4245SOL     OW24370   2.402   3.607   4.621  0.3121  0.7636 -0.5637
 4245SOL    HW124371   2.474   3.598   4.558  1.7711  0.3270  1.1751
 4245SOL    HW224372   2.427   3.549   4.693  1.4932  1.7814 -0.1609
 4246SOL     OW24373   4.168   4.380   2.518 -0.4398 -0.3202 -0.1160
 4246SOL    HW124374   4.209   4.444   2.460 -0.2892 -2.2402 -2.1039
 4246SOL    HW224375   4.087   4.356   2.472  0.2291 -0.5696 -1.1445
 4247SOL     OW24376   1.095   3.769   0.988  0.7171 -0.6478  0.0720
 4247SOL    HW124377   1.000   3.771   0.975  0.3679 -0.9871  2.6120
 4247SOL    HW224378   1.112   3.851   1.033  0.7674 -0.1358 -0.8793
 4248SOL     OW24379   1.086   1.951  12.257 -0.0923 -0.2559 -0.2538
 4248SOL    HW124380   1.163   1.962  12.313 -0.8357 -3.3620  1.3555
 4248SOL    HW224381   1.075   2.036  12.214  0.3638 -0.5711 -0.9991
 4249SOL     OW24382   0.283   1.402   9.847 -0.3731 -0.1717  0.0039
 4249SOL    HW124383   0.228   1.449   9.909 -0.4920 -1.4670  0.8952
 4249SOL    HW224384   0.330   1.474   9.806 -1.6294  0.8555  0.3786
 4250SOL     OW24385   3.983   2.874   4.584 -0.1033  0.2001 -0.1030
 4250SOL    HW124386   3.949   2.810   4.646  1.6266  0.3036  0.9728
 4250SOL    HW224387   4.035   2.919   4.651  0.6878  0.8934 -1.1726
 4251SOL     OW24388   0.046   1.594   1.881  0.0212  0.1173  0.2526
 4251SOL    HW124389   0.016   1.570   1.968  2.0623 -0.5161  0.7852
 4251SOL    HW224390   0.126   1.542   1.883 -1.0720 -1.7073 -3.0572
 4252SOL     OW24391   2.240   2.744   8.202 -0.0087  0.0675 -0.2558
 4252SOL    HW124392   2.317   2.771   8.252 -1.4262  0.2464  1.7928
 4252SOL    HW224393   2.197   2.826   8.180 -0.2911 -0.1381 -0.4719
 4253SOL     OW24394   3.658   0.866  12.917  0.0519  0.3048  0.1671
 4253SOL    HW124395   3.637   0.773  12.932 -1.2083  0.8628  1.8432
 4253SOL    HW224396   3.730   0.860  12.854 -0.6868 -1.1938 -0.5592
 4254SOL     OW24397   3.994   3.448   8.872  0.5350  0.0698 -0.5418
 4254SOL    HW124398   3.998   3.353   8.858 -2.5102  0.0218 -1.0839
 4254SOL    HW224399   4.045   3.462   8.952  0.8225 -0.8457 -0.5610
 4255SOL     OW24400   2.115   0.728   3.173 -0.3141  0.0116 -0.7318
 4255SOL    HW124401   2.144   0.671   3.102  0.6487  0.2165 -0.4998
 4255SOL    HW224402   2.021   0.730   3.154 -0.7436  1.1304  1.4612
 4256SOL     OW24403   1.889   3.034   3.947  0.6475  0.2671 -0.8909
 4256SOL    HW124404   1.798   3.058   3.930  0.1471 -0.1444  1.1896
 4256SOL    HW224405   1.881   2.964   4.012  0.6944  1.3175  0.2395
 4257SOL     OW24406   4.186   0.808  11.782 -0.6231 -0.5807  0.3062
 4257SOL    HW124407   4.101   0.852  11.795 -1.7959 -2.9352  0.5886
 4257SOL    HW224408   4.222   0.846  11.863  0.6786  1.0505 -1.0445
 4258SOL     OW24409   2.040   1.348   1.845  0.3457 -0.0556 -0.1277
 4258SOL    HW124410   2.072   1.434   1.875 -0.0040  0.3621 -0.9545
 4258SOL    HW224411   2.038   1.364   1.751  0.4460  1.8651  0.1926
 4259SOL     OW24412   4.675   4.597  12.310 -0.1771  0.2552 -0.1123
 4259SOL    HW124413   4.661   4.582  12.217 -0.3239 -1.8066  0.2391
 4259SOL    HW224414   4.653   4.508  12.336 -1.0881  0.5616  0.1517
 4260SOL     OW24415   3.323   0.867   7.345 -0.1248 -0.3299 -0.4081
 4260SOL    HW124416   3.251   0.925   7.371  1.7704  1.4773  0.8967
 4260SOL    HW224417   3.336   0.812   7.422  0.8381  1.7179  0.9004
 4261SOL     OW24418   2.978   2.237   8.852  0.0438 -0.1953  0.0885
 4261SOL    HW124419   2.885   2.257   8.838 -0.0281 -0.5913 -0.0297
 4261SOL    HW224420   3.004   2.282   8.931 -0.9368 -1.0066  0.8771
 4262SOL     OW24421   0.636   2.950  14.889 -0.6530  0.7292 -0.2707
 4262SOL    HW124422   0.613   3.027  14.942  0.2312  2.4524 -2.3999
 4262SOL    HW224423   0.662   2.887  14.956  0.8496  2.3422  0.6883
 4263SOL     OW24424   0.496   2.272   5.047  0.8631 -0.3261 -0.1304
 4263SOL    HW124425   0.517   2.203   4.984  1.6246 -0.4789  0.2884
 4263SOL    HW224426   0.491   2.231   5.133  1.4091  0.1859  0.1491
 4264SOL     OW24427   4.316   2.971  16.873  0.1874 -0.3879 -0.1023
 4264SOL    HW124428   4.235   2.936  16.912 -1.8865  3.7897 -0.6092
 4264SOL    HW224429   4.330   3.057  16.913 -1.5528 -0.7704  1.3556
 4265SOL     OW24430   0.993   0.236  14.753 -0.1113  0.0061 -0.3316
 4265SOL    HW124431   1.033   0.154  14.725  1.3703  0.5028  0.3435
 4265SOL    HW224432   1.033   0.250  14.839 -2.5327 -0.7492  0.9276
 4266SOL     OW24433   0.337   2.723   4.899 -0.1189  0.1326 -0.4142
 4266SOL    HW124434   0.314   2.730   4.992 -2.8668 -0.4514 -1.0525
 4266SOL    HW224435   0.359   2.630   4.894 -1.5275 -0.2946  1.6068
 4267SOL     OW24436   3.766   3.373   2.225  0.3735 -0.5338  0.4526
 4267SOL    HW124437   3.838   3.424   2.264 -1.2334  1.8818  0.2741
 4267SOL    HW224438   3.725   3.429   2.159 -1.4765 -2.0935  0.2931
 4268SOL     OW24439   1.203   2.813   6.291  0.7426 -0.1452 -0.6411
 4268SOL    HW124440   1.172   2.900   6.264 -1.7141 -0.4918  1.0592
 4268SOL    HW224441   1.210   2.772   6.205 -1.7353 -1.5356 -0.1475
 4269SOL     OW24442   2.028   3.536   7.445 -0.2559  0.1170 -0.2649
 4269SOL    HW124443   2.092   3.606   7.432 -1.0046  0.9597  0.5772
 4269SOL    HW224444   2.021   3.496   7.359 -0.7866 -0.2220 -0.0616
 4270SOL     OW24445   1.690   0.307   8.714  0.1921  0.0509 -0.3829
 4270SOL    HW124446   1.642   0.389   8.714 -1.7432 -1.0989 -1.9039
 4270SOL    HW224447   1.702   0.291   8.808  1.2735 -1.4045 -0.7585
 4271SOL     OW24448   1.353   1.743   2.902  0.3130  0.2402  0.2606
 4271SOL    HW124449   1.298   1.737   2.823 -0.6540 -1.2909  1.0541
 4271SOL    HW224450   1.408   1.665   2.896 -0.8089 -0.6947  1.9946
 4272SOL     OW24451   4.156   0.073   3.687 -0.0551  0.3990 -0.3092
 4272SOL    HW124452   4.114   0.137   3.745  0.3200  1.1441 -0.8537
 4272SOL    HW224453   4.233   0.124   3.661  0.4432  1.2310  2.7583
 4273SOL     OW24454   4.367   1.135  16.961  0.6694  0.3336 -0.1253
 4273SOL    HW124455   4.359   1.208  17.022  0.4757  0.9646 -0.9096
 4273SOL    HW224456   4.374   1.184  16.880  0.8115 -1.9176 -1.4834
 4274SOL     OW24457   2.689   4.588   7.725 -0.5752  0.1937  0.4590
 4274SOL    HW124458   2.692   4.571   7.630  1.2960 -1.2694  0.7816
 4274SOL    HW224459   2.596   4.569   7.738 -0.8946  2.5761  1.6847
 4275SOL     OW24460   4.285   2.273   4.683 -0.6124  0.1989  0.5624
 4275SOL    HW124461   4.378   2.295   4.685 -0.9918  1.9236 -0.2666
 4275SOL    HW224462   4.246   2.300   4.766  1.2091  1.7832  0.8901
 4276SOL     OW24463   1.134   0.675  14.744  0.1711 -0.0761  0.2382
 4276SOL    HW124464   1.116   0.620  14.821 -0.2979  0.5010  0.5324
 4276SOL    HW224465   1.045   0.696  14.718 -1.0350  0.8890  5.2028
 4277SOL     OW24466   4.417   4.722  12.323 -0.2751 -0.3934 -0.1799
 4277SOL    HW124467   4.510   4.701  12.310 -0.2688 -1.1749  1.1251
 4277SOL    HW224468   4.369   4.648  12.287 -2.1685 -0.3412  2.2496
 4278SOL     OW24469   0.748   4.202   4.603 -0.3076  0.1560 -0.3426
 4278SOL    HW124470   0.790   4.278   4.562  1.1182  0.2602  1.3320
 4278SOL    HW224471   0.821   4.149   4.634 -0.9328  0.7794  2.1715
 4279SOL     OW24472   0.269   3.655  13.192 -0.3772 -0.1570  0.6365
 4279SOL    HW124473   0.249   3.709  13.115 -0.6023 -1.6597 -0.3527
 4279SOL    HW224474   0.313   3.589  13.139  0.6436  0.9351  0.1199
 4280SOL     OW24475   1.109   3.190  13.874  0.4855  0.5927  0.1814
 4280SOL    HW124476   1.113   3.223  13.785 -1.6587  2.7002  0.8816
 4280SOL    HW224477   1.021   3.154  13.886  1.2941 -0.9798  1.3753
 4281SOL     OW24478   0.194   0.560  16.693 -0.0810  0.2098  0.2031
 4281SOL    HW124479   0.274   0.558  16.642 -0.8999 -0.5702 -1.0343
 4281SOL    HW224480   0.166   0.648  16.669 -0.2716 -0.2879 -1.3636
 4282SOL     OW24481   3.473   0.482   4.482  1.0167  0.0705  0.2581
 4282SOL    HW124482   3.405   0.548   4.498  0.9965  0.6052 -2.0833
 4282SOL    HW224483   3.543   0.537   4.447  1.2235  0.0007  0.5561
 4283SOL     OW24484   2.676   2.364   3.903 -0.3199 -0.0060  0.1914
 4283SOL    HW124485   2.645   2.448   3.868  1.0547 -0.3539 -1.7947
 4283SOL    HW224486   2.589   2.342   3.938 -1.0500  2.4175 -0.0503
 4284SOL     OW24487   0.628   1.660   1.747  0.3746 -0.6855  0.1118
 4284SOL    HW124488   0.614   1.611   1.666  0.4374 -1.4302  0.5420
 4284SOL    HW224489   0.693   1.724   1.721  1.4310 -0.2450  3.9011
 4285SOL     OW24490   4.115   0.970  17.489 -0.2812 -0.2604  1.1783
 4285SOL    HW124491   4.182   0.993  17.424 -1.6167  0.4488  0.0445
 4285SOL    HW224492   4.155   0.888  17.518  1.4508  0.2863  0.3834
 4286SOL     OW24493   0.975   3.483   1.928 -0.4808  0.6117  0.1094
 4286SOL    HW124494   0.922   3.404   1.937 -0.8402  0.5384 -2.7091
 4286SOL    HW224495   0.972   3.513   2.019 -0.5649 -0.2898  0.4005
 4287SOL     OW24496   1.627   2.145   2.347  0.0520  0.4842 -0.1333
 4287SOL    HW124497   1.664   2.211   2.405  0.7250  1.2474 -1.4317
 4287SOL    HW224498   1.557   2.200   2.309 -0.5444 -0.5231 -0.4963
 4288SOL     OW24499   3.655   3.574   3.846  0.1759 -0.6772  0.5924
 4288SOL    HW124500   3.667   3.571   3.941 -2.0150 -0.3572  0.8755
 4288SOL    HW224501   3.576   3.626   3.829  0.4306 -0.0105  1.4406
 4289SOL     OW24502   3.478   0.313  12.199  0.4242 -0.2180 -0.3625
 4289SOL    HW124503   3.511   0.226  12.221  0.0394  0.0549  1.2652
 4289SOL    HW224504   3.386   0.313  12.225  1.4160 -0.3610  3.1496
 4290SOL     OW24505   2.457   2.521   8.955 -0.4670 -0.0322  0.6513
 4290SOL    HW124506   2.401   2.489   9.026  0.2932  1.2221  1.7955
 4290SOL    HW224507   2.461   2.609   8.991 -0.0825  0.6041 -0.9410
 4291SOL     OW24508   1.324   2.224  15.287 -0.7155 -0.0386 -0.4441
 4291SOL    HW124509   1.366   2.264  15.211  0.1812  0.4165  0.2963
 4291SOL    HW224510   1.316   2.135  15.253  1.0985 -0.3056 -0.1349
 4292SOL     OW24511   0.388   4.416   9.143  0.0139  0.4608  0.2830
 4292SOL    HW124512   0.479   4.396   9.122 -0.0291 -0.0073  0.5478
 4292SOL    HW224513   0.345   4.337   9.111 -0.8978  0.6706  0.9956
 4293SOL     OW24514   2.305   2.461   7.596 -0.0381 -0.1276  0.0306
 4293SOL    HW124515   2.261   2.501   7.670  1.5357 -4.3059  3.2160
 4293SOL    HW224516   2.397   2.456   7.624  0.3682 -1.4754 -1.4674
 4294SOL     OW24517   2.326   2.316   9.147 -0.3489 -0.4150 -0.1908
 4294SOL    HW124518   2.279   2.303   9.064 -1.8977 -1.1229  0.7979
 4294SOL    HW224519   2.254   2.322   9.210  0.1349  0.0746  0.3102
 4295SOL     OW24520   4.402   0.712   5.069  0.0588 -0.0819  0.1155
 4295SOL    HW124521   4.347   0.637   5.048  0.8739  0.0003 -2.2922
 4295SOL    HW224522   4.490   0.673   5.070  0.3947  0.6731  0.0790
 4296SOL     OW24523   2.479   3.603  16.540 -0.4006  0.1834 -0.9952
 4296SOL    HW124524   2.500   3.558  16.622  0.6444 -2.2298 -2.5904
 4296SOL    HW224525   2.560   3.589  16.492  0.6211  2.1514  0.1457
 4297SOL     OW24526   2.023   4.068   7.665  0.0747  0.0428  0.0296
 4297SOL    HW124527   1.937   4.101   7.693 -0.2694 -1.2530  0.4660
 4297SOL    HW224528   2.003   3.978   7.643 -0.2021 -0.0625  0.7119
 4298SOL     OW24529   0.070   0.332   6.532 -0.0057 -0.0737 -0.0490
 4298SOL    HW124530   0.138   0.339   6.599  0.5170 -0.0011 -0.5753
 4298SOL    HW224531   0.060   0.237   6.534  0.3839 -0.1168 -0.1003
 4299SOL     OW24532   0.427   0.085   5.709 -0.2301  0.4503 -0.1244
 4299SOL    HW124533   0.424   0.180   5.703  3.4348  0.4560 -1.3831
 4299SOL    HW224534   0.333   0.073   5.727 -0.2233 -1.2568 -1.1643
 4300SOL     OW24535   2.882   1.804  11.726  0.1034 -0.0675 -0.4586
 4300SOL    HW124536   2.927   1.816  11.642 -0.9695 -0.1522 -1.0379
 4300SOL    HW224537   2.882   1.709  11.740 -0.6258  0.0598  0.4169
 4301SOL     OW24538   4.383   0.919  15.117 -0.7096  0.1165 -0.0164
 4301SOL    HW124539   4.444   0.909  15.043 -1.5794  0.9848 -0.8572
 4301SOL    HW224540   4.360   1.011  15.125 -1.1979  0.1523 -1.9196
 4302SOL     OW24541   0.660   0.229   8.836 -0.1631  0.0537  0.3853
 4302SOL    HW124542   0.695   0.292   8.773 -1.7088  0.2017 -0.3285
 4302SOL    HW224543   0.706   0.249   8.917  0.6794 -2.5265  0.5365
 4303SOL     OW24544   2.157   4.006   9.548 -0.4571  0.1856  0.1438
 4303SOL    HW124545   2.139   4.041   9.635 -0.0143  1.7791 -0.4138
 4303SOL    HW224546   2.252   3.991   9.552 -0.3324  1.3547  1.3539
 4304SOL     OW24547   3.916   4.236   6.503  0.0590  0.0570 -0.0679
 4304SOL    HW124548   3.991   4.283   6.541  1.3444  1.0285 -3.8269
 4304SOL    HW224549   3.849   4.268   6.564  1.2005  0.8532  0.7846
 4305SOL     OW24550   3.777   0.233   8.473  0.0243  0.0979 -0.3461
 4305SOL    HW124551   3.774   0.137   8.470  1.4858  0.0659 -1.1625
 4305SOL    HW224552   3.851   0.254   8.416  2.0715  0.8389  2.5955
 4306SOL     OW24553   0.669   4.428   2.176  0.3807 -0.2866 -0.1193
 4306SOL    HW124554   0.706   4.413   2.264 -1.9306 -1.1611  0.7163
 4306SOL    HW224555   0.683   4.347   2.127 -0.4632 -0.8812  0.6115
 4307SOL     OW24556   0.365   2.128  12.784  0.6288 -0.0322  0.5139
 4307SOL    HW124557   0.416   2.208  12.796 -1.1009  1.1046  0.3123
 4307SOL    HW224558   0.313   2.147  12.706 -1.0312 -1.3528  1.3043
 4308SOL     OW24559   3.004   4.100  10.031 -1.0999 -0.4460 -0.0427
 4308SOL    HW124560   2.947   4.044  10.084 -0.2637 -3.7952 -2.7192
 4308SOL    HW224561   2.942   4.162   9.993  1.8768  1.9798 -0.8911
 4309SOL     OW24562   3.592   2.058  10.741 -0.6072  0.3391 -0.1919
 4309SOL    HW124563   3.607   1.972  10.781 -0.5093  0.4468  0.0043
 4309SOL    HW224564   3.563   2.118  10.810  0.2077  0.7984 -0.2529
 4310SOL     OW24565   0.563   2.781   0.953 -0.4266 -0.2124  0.0769
 4310SOL    HW124566   0.581   2.700   0.905  2.5872  0.4394  0.1174
 4310SOL    HW224567   0.631   2.837   0.917  2.2386 -2.6529  1.2403
 4311SOL     OW24568   1.544   4.539   7.561  0.2216 -0.6277  0.2770
 4311SOL    HW124569   1.449   4.545   7.578  0.8573  0.6448  3.3842
 4311SOL    HW224570   1.576   4.565   7.648  0.5384  1.8899 -0.5989
 4312SOL     OW24571   4.076   4.734   4.861  0.0599 -0.4936  0.1171
 4312SOL    HW124572   4.073   0.055   4.783 -3.2293 -0.1137  0.5224
 4312SOL    HW224573   4.082   4.646   4.824  1.0699 -0.2696 -0.2424
 4313SOL     OW24574   2.936   4.620   7.483  0.8459  0.4723 -0.1234
 4313SOL    HW124575   2.889   4.550   7.529  1.6110  0.9489  1.4073
 4313SOL    HW224576   2.862   4.644   7.427 -0.7846 -1.5903  1.1469
 4314SOL     OW24577   3.238   0.874  10.098  0.0537  0.9491 -0.1365
 4314SOL    HW124578   3.189   0.868  10.016 -0.8035  0.2611  0.4305
 4314SOL    HW224579   3.327   0.888  10.065 -0.0044  0.6232 -0.4234
 4315SOL     OW24580   0.802   1.021  11.008  0.6427 -0.4962  0.0545
 4315SOL    HW124581   0.853   1.086  11.056 -1.0866 -0.0970  1.3928
 4315SOL    HW224582   0.803   1.067  10.924  0.4000 -1.0244 -0.2398
 4316SOL     OW24583   1.768   3.812   2.296  0.3376  0.3543 -0.3727
 4316SOL    HW124584   1.683   3.824   2.337 -0.3511  2.5414 -2.4379
 4316SOL    HW224585   1.767   3.878   2.226  1.0712  1.9947  1.1636
 4317SOL     OW24586   2.546   4.596   6.448  0.1535  0.1924 -0.0046
 4317SOL    HW124587   2.580   4.530   6.388 -1.8487  0.2316 -1.1773
 4317SOL    HW224588   2.626   4.621   6.494 -0.0029  1.1778 -0.2547
 4318SOL     OW24589   4.392   1.431   8.925  0.3035  0.2256 -0.0149
 4318SOL    HW124590   4.437   1.369   8.868  1.8024  1.2500  0.0596
 4318SOL    HW224591   4.308   1.415   8.883  0.8110  0.8737 -1.2698
 4319SOL     OW24592   3.515   3.565  15.503 -0.4152  0.0488 -0.1890
 4319SOL    HW124593   3.528   3.496  15.568  2.3010  1.7382  1.0438
 4319SOL    HW224594   3.601   3.583  15.466 -0.0991 -1.2429 -0.0812
 4320SOL     OW24595   0.629   4.133   2.024 -0.1358  0.0560 -0.5097
 4320SOL    HW124596   0.541   4.144   1.987 -0.1717 -0.1121 -0.4748
 4320SOL    HW224597   0.674   4.100   1.946  0.3858  2.2707 -1.1372
 4321SOL     OW24598   0.008   4.609  14.979 -0.1798  0.3417  0.0263
 4321SOL    HW124599   4.673   4.575  14.923  0.2651 -0.7344  0.1342
 4321SOL    HW224600   0.061   4.651  14.910 -0.4659  2.9220  1.3643
 4322SOL     OW24601   1.932   4.077   4.738  0.3613 -0.0626  0.3504
 4322SOL    HW124602   1.958   3.993   4.776 -1.9434 -0.7162  0.5015
 4322SOL    HW224603   1.859   4.045   4.685  0.7129 -0.3022  0.0104
 4323SOL     OW24604   2.887   4.078   8.122  0.1783 -0.4027 -0.0254
 4323SOL    HW124605   2.880   4.030   8.039 -0.9541  1.8013 -1.2090
 4323SOL    HW224606   2.958   4.139   8.104  0.3171  0.0129  1.9311
 4324SOL     OW24607   0.433   1.278  17.435 -0.6909 -0.2928  0.6905
 4324SOL    HW124608   0.522   1.285  17.400 -1.4749  0.5871 -1.1251
 4324SOL    HW224609   0.433   1.355  17.492 -0.8372  0.9495 -0.9970
 4325SOL     OW24610   1.598   0.596  16.815 -0.5509 -0.3328 -0.3064
 4325SOL    HW124611   1.665   0.588  16.883 -0.1136 -1.0022 -0.8175
 4325SOL    HW224612   1.646   0.564  16.739  0.3746  1.6772 -0.5509
 4326SOL     OW24613   4.137   3.543   9.073 -0.0593 -0.9727  0.5091
 4326SOL    HW124614   4.078   3.615   9.094 -0.5074 -1.0524 -0.5051
 4326SOL    HW224615   4.219   3.587   9.049 -1.3513  0.6996 -0.8862
 4327SOL     OW24616   4.276   1.143   1.761  0.0763 -0.1336 -0.5006
 4327SOL    HW124617   4.279   1.227   1.714 -0.9422  1.0455  1.5369
 4327SOL    HW224618   4.332   1.098   1.697  1.8672  0.4584  0.6386
 4328SOL     OW24619   1.325   0.390  13.752 -0.6910  0.4236 -0.0035
 4328SOL    HW124620   1.297   0.460  13.811 -1.2392  1.1318 -1.1010
 4328SOL    HW224621   1.292   0.431  13.672 -2.6749  0.6668  0.9244
 4329SOL     OW24622   4.242   2.602  16.078 -0.2406  0.5173 -0.0819
 4329SOL    HW124623   4.296   2.675  16.048  0.6223  0.0222  0.2699
 4329SOL    HW224624   4.247   2.620  16.172 -1.5480 -1.5375  0.3644
 4330SOL     OW24625   3.159   3.155  15.833 -0.1714  0.3099 -0.2315
 4330SOL    HW124626   3.224   3.100  15.789  0.6318  1.6281 -0.7118
 4330SOL    HW224627   3.106   3.089  15.877  1.1103  0.6888  1.8769
 4331SOL     OW24628   3.043   1.400   5.137  0.2780  0.0673 -0.0193
 4331SOL    HW124629   3.016   1.459   5.208  0.2437  1.5753 -1.2823
 4331SOL    HW224630   2.960   1.357   5.117 -0.5809  1.1908  1.1436
 4332SOL     OW24631   2.840   1.385   2.413 -0.4291 -0.0155 -0.0926
 4332SOL    HW124632   2.807   1.307   2.369 -0.2222 -1.0802  1.6071
 4332SOL    HW224633   2.806   1.375   2.502 -1.2950 -1.1213 -0.5459
 4333SOL     OW24634   3.026   3.079   4.918  0.0963  0.0711 -0.4154
 4333SOL    HW124635   3.068   3.117   4.995  0.9603 -0.9389 -0.3972
 4333SOL    HW224636   2.964   3.146   4.888 -0.6454 -0.3902  0.0975
 4334SOL     OW24637   2.696   0.291   9.670 -0.0805  0.1290 -0.2847
 4334SOL    HW124638   2.668   0.225   9.733  0.8593  0.6055  0.6221
 4334SOL    HW224639   2.690   0.253   9.582 -1.4168  2.4033 -1.1898
 4335SOL     OW24640   2.288   4.538  11.877  0.7816 -0.2229 -0.2719
 4335SOL    HW124641   2.240   4.455  11.881  1.2418 -0.4217  1.0595
 4335SOL    HW224642   2.242   4.588  11.809  0.0037 -0.1241  0.3271
 4336SOL     OW24643   3.777   0.779   7.175  0.4718  0.0582 -0.0873
 4336SOL    HW124644   3.847   0.823   7.125 -0.2822 -0.9984 -2.0958
 4336SOL    HW224645   3.769   0.703   7.116  1.2931 -0.1512  0.0690
 4337SOL     OW24646   2.039   4.645   6.721  0.2859 -0.1044  0.0670
 4337SOL    HW124647   2.027   4.551   6.712 -2.1305  0.2334 -0.3791
 4337SOL    HW224648   2.087   4.651   6.804  0.7621 -1.6484 -0.1099
 4338SOL     OW24649   2.346   0.639  14.225 -0.6930 -0.0561  0.1060
 4338SOL    HW124650   2.393   0.713  14.188  1.3254 -0.0912  2.6312
 4338SOL    HW224651   2.362   0.572  14.158 -1.9604 -0.8431  0.5863
 4339SOL     OW24652   4.007   2.570   3.929  0.6136  0.3040 -0.1736
 4339SOL    HW124653   3.942   2.575   4.000  0.4783 -1.7982 -0.1538
 4339SOL    HW224654   4.057   2.490   3.944  2.1638  1.3346  0.2413
 4340SOL     OW24655   3.945   4.606   7.196  0.4258 -0.1835 -0.2479
 4340SOL    HW124656   3.990   4.541   7.141 -1.0909 -2.1473  0.8021
 4340SOL    HW224657   3.926   4.565   7.281  0.7558 -0.4343 -0.2929
 4341SOL     OW24658   2.136   2.034   4.097 -0.1119  0.4668  0.0489
 4341SOL    HW124659   2.050   2.013   4.062 -0.7378  0.4867  1.5649
 4341SOL    HW224660   2.189   1.967   4.054  0.5089  1.8510 -1.3683
 4342SOL     OW24661   3.151   0.933   3.185 -0.2069  0.0282 -0.1120
 4342SOL    HW124662   3.084   0.997   3.208  2.3410  2.8611 -0.6733
 4342SOL    HW224663   3.102   0.866   3.135  0.9109 -1.3561  0.6577
 4343SOL     OW24664   4.027   3.775  15.265  0.1850 -0.4042 -0.2422
 4343SOL    HW124665   4.051   3.683  15.270  2.8394  0.2444 -1.5055
 4343SOL    HW224666   3.940   3.770  15.224 -0.7858  1.8474  1.5015
 4344SOL     OW24667   3.526   1.670   6.457  0.3289  0.2185  0.2944
 4344SOL    HW124668   3.595   1.716   6.408  0.5878 -1.6066 -1.0589
 4344SOL    HW224669   3.491   1.616   6.386  0.4333  0.2824  0.1934
 4345SOL     OW24670   1.190   0.539   6.492 -0.2716  0.2507 -0.5908
 4345SOL    HW124671   1.119   0.492   6.535 -2.0999  0.9023 -2.8860
 4345SOL    HW224672   1.189   0.614   6.550 -0.3037 -0.5863  0.4976
 4346SOL     OW24673   4.604   2.599   6.899  0.2903  0.3252 -0.2645
 4346SOL    HW124674   4.621   2.533   6.967 -3.6616 -0.4499 -0.0053
 4346SOL    HW224675   4.651   2.558   6.827 -0.8337 -0.3755 -0.6107
 4347SOL     OW24676   1.706   3.334   2.677  0.0303  0.9083  0.4129
 4347SOL    HW124677   1.642   3.306   2.611  1.1951  0.3258 -0.4582
 4347SOL    HW224678   1.662   3.298   2.754 -2.4102  2.0471 -0.4237
 4348SOL     OW24679   0.652   0.049   6.833 -0.1519 -0.4571 -0.4684
 4348SOL    HW124680   0.739   0.008   6.839  0.3077  0.9202  2.2792
 4348SOL    HW224681   0.663   0.102   6.753  0.5203 -1.2884 -0.9320
 4349SOL     OW24682   3.647   3.110   2.740 -0.6811  0.3756 -0.5152
 4349SOL    HW124683   3.610   3.039   2.792 -0.9774  0.4566 -0.6178
 4349SOL    HW224684   3.588   3.100   2.665 -1.2759 -3.0163  0.4147
 4350SOL     OW24685   3.603   0.025   2.602  0.1228  0.4704  0.0389
 4350SOL    HW124686   3.546   0.060   2.534  0.1058  1.6874  0.6667
 4350SOL    HW224687   3.597   4.671   2.567  0.2018 -0.1029  1.4636
 4351SOL     OW24688   0.050   3.464   1.478  0.2191 -0.4192  0.5162
 4351SOL    HW124689   0.109   3.459   1.554  1.5121 -0.5583 -0.4953
 4351SOL    HW224690   0.118   3.473   1.411  0.3828 -0.2759  0.7003
 4352SOL     OW24691   1.381   1.041   2.718 -0.4392 -0.4717 -0.2781
 4352SOL    HW124692   1.344   1.020   2.804  0.5550 -1.2093 -0.0374
 4352SOL    HW224693   1.456   1.090   2.749 -2.4669  1.9665  0.7160
 4353SOL     OW24694   3.222   4.121  10.699 -0.0295 -0.5253 -0.2294
 4353SOL    HW124695   3.188   4.031  10.692 -1.9193  0.1954 -0.4318
 4353SOL    HW224696   3.219   4.156  10.610  0.4859 -0.4970 -0.2319
 4354SOL     OW24697   1.119   2.050  10.580  0.4947 -0.4878  0.4861
 4354SOL    HW124698   1.173   1.978  10.548  0.6785 -0.1011 -0.0902
 4354SOL    HW224699   1.147   2.043  10.671 -0.0851  0.8009  0.7679
 4355SOL     OW24700   2.276   2.856   8.783  0.3448 -0.7176  0.0401
 4355SOL    HW124701   2.350   2.877   8.726 -0.8330 -0.0790 -1.2673
 4355SOL    HW224702   2.243   2.771   8.753  1.0772 -1.5355  1.5807
 4356SOL     OW24703   1.751   2.396   3.842 -0.0924 -0.6111 -0.3625
 4356SOL    HW124704   1.685   2.422   3.778  0.6566 -1.3042 -1.4390
 4356SOL    HW224705   1.795   2.479   3.859  0.0065 -0.0684 -3.2065
 4357SOL     OW24706   2.513   2.947   6.914  0.9692  0.2822  0.2625
 4357SOL    HW124707   2.485   2.976   7.001 -1.6483 -0.8865 -0.1961
 4357SOL    HW224708   2.481   3.013   6.853  0.1049  0.6860  1.1567
 4358SOL     OW24709   3.825   2.130   3.393 -0.3802 -0.2120  0.7695
 4358SOL    HW124710   3.866   2.060   3.443  0.6311 -0.1479  0.0242
 4358SOL    HW224711   3.733   2.139   3.420 -0.4442  1.0132  0.1443
 4359SOL     OW24712   0.269   2.613   3.506  0.6227  0.1627  0.0772
 4359SOL    HW124713   0.208   2.541   3.521 -1.0065  1.5262 -0.0157
 4359SOL    HW224714   0.261   2.614   3.411 -0.4751  1.3294  0.1766
 4360SOL     OW24715   1.194   4.045  13.130  0.6319 -0.3796 -0.4655
 4360SOL    HW124716   1.247   3.994  13.069  1.5109  0.7348 -0.6445
 4360SOL    HW224717   1.135   3.977  13.160  2.3080 -1.5275  0.1854
 4361SOL     OW24718   2.101   0.820   4.516 -0.0640  0.3347  0.6414
 4361SOL    HW124719   2.146   0.876   4.580 -0.0191  2.3504 -1.1438
 4361SOL    HW224720   2.171   0.781   4.463  1.3503  2.6045  0.8351
 4362SOL     OW24721   1.135   2.435   6.662 -0.1440  0.2133  0.0807
 4362SOL    HW124722   1.221   2.475   6.663 -0.8862  1.9018 -2.2453
 4362SOL    HW224723   1.079   2.512   6.648 -0.4748  0.0335  0.4162
 4363SOL     OW24724   0.483   1.902   3.981  0.1039 -0.1615  0.3664
 4363SOL    HW124725   0.529   1.830   3.937  1.5639 -0.0173  1.6483
 4363SOL    HW224726   0.539   1.978   3.965  0.1247  0.1122  1.8193
 4364SOL     OW24727   3.675   4.192   5.421 -0.2695 -0.6492  0.0867
 4364SOL    HW124728   3.722   4.122   5.466  1.1722  0.0345 -0.3822
 4364SOL    HW224729   3.593   4.190   5.471 -0.2039 -1.0412  0.1807
 4365SOL     OW24730   4.242   4.202  15.337 -0.5207 -0.3173  1.1278
 4365SOL    HW124731   4.164   4.151  15.315 -1.1276  2.3221 -2.8511
 4365SOL    HW224732   4.264   4.237  15.251 -1.9714 -1.1369  0.4215
 4366SOL     OW24733   2.085   2.468   5.223 -0.2802 -0.5994  0.0016
 4366SOL    HW124734   2.068   2.458   5.316  1.2401 -0.4082  0.3010
 4366SOL    HW224735   2.181   2.465   5.219 -0.2331 -0.5176  1.1665
 4367SOL     OW24736   4.183   2.594   9.036  0.2709 -0.1338 -0.5066
 4367SOL    HW124737   4.258   2.579   9.094  0.3246 -0.2460 -0.6046
 4367SOL    HW224738   4.227   2.638   8.963 -0.9153 -1.0163 -1.7433
 4368SOL     OW24739   0.033   3.656   3.486  0.3491  0.3980  0.4383
 4368SOL    HW124740   0.079   3.719   3.430 -1.8917 -0.0723 -1.9517
 4368SOL    HW224741   0.065   3.582   3.434 -0.8927 -0.3455  0.7480
 4369SOL     OW24742   0.177   4.418   4.052 -0.8607  0.3459 -0.2947
 4369SOL    HW124743   0.094   4.423   4.100  0.7093  4.0115  2.0267
 4369SOL    HW224744   0.197   4.509   4.031  0.9957 -0.0407 -0.1693
 4370SOL     OW24745   3.341   0.631   3.552  0.4799  0.1445  0.1383
 4370SOL    HW124746   3.322   0.611   3.644  0.1412  0.1746  0.0730
 4370SOL    HW224747   3.283   0.707   3.554 -0.7061 -0.6726 -2.4204
 4371SOL     OW24748   2.989   3.073   9.556  0.3328  0.0382  0.0284
 4371SOL    HW124749   3.032   3.110   9.633  1.6767  1.6614 -1.4993
 4371SOL    HW224750   2.916   3.019   9.585  0.2614 -0.7157 -1.5401
 4372SOL     OW24751   1.824   3.501   8.094  0.2974 -0.2257 -0.7751
 4372SOL    HW124752   1.797   3.502   8.002  0.3806 -2.4152 -0.8274
 4372SOL    HW224753   1.898   3.440   8.090 -0.6371 -1.3811 -0.3099
 4373SOL     OW24754   1.779   4.234   7.708  0.1468  0.7770 -0.0989
 4373SOL    HW124755   1.835   4.306   7.679 -0.5634  0.3087 -2.6254
 4373SOL    HW224756   1.719   4.226   7.634 -1.6684  1.1453  1.3226
 4374SOL     OW24757   1.551   0.484   2.098  0.1417  0.1648 -0.0748
 4374SOL    HW124758   1.594   0.408   2.059 -0.9215 -3.5835  5.9079
 4374SOL    HW224759   1.619   0.537   2.139  0.3197 -1.8516  2.3029
 4375SOL     OW24760   1.312   2.742   1.923 -0.0457 -0.9410 -0.0252
 4375SOL    HW124761   1.366   2.807   1.878  0.0062 -3.3141 -3.3453
 4375SOL    HW224762   1.305   2.683   1.848 -3.4567  0.7837 -1.1093
 4376SOL     OW24763   2.566   0.243   1.559 -0.3708  0.1188  0.1675
 4376SOL    HW124764   2.550   0.211   1.470 -2.0325 -2.1186  1.2770
 4376SOL    HW224765   2.602   0.160   1.592  2.2696  1.4631  0.6997
 4377SOL     OW24766   0.549   4.700   8.716  0.1105 -0.0178 -0.6034
 4377SOL    HW124767   0.568   4.609   8.695  0.4522  0.0477 -0.5876
 4377SOL    HW224768   0.589   4.705   8.803  0.2990 -1.3505 -0.6187
 4378SOL     OW24769   1.377   4.035   8.224  0.0126 -0.0727  0.0068
 4378SOL    HW124770   1.393   3.950   8.183  0.3689 -0.6637  1.4102
 4378SOL    HW224771   1.461   4.076   8.201  0.2087 -0.0963  0.7113
 4379SOL     OW24772   2.230   1.901  15.160  0.0782 -0.2689  0.2271
 4379SOL    HW124773   2.255   1.919  15.069  0.3281  1.8314  0.7080
 4379SOL    HW224774   2.137   1.920  15.164  0.1360  0.0636  0.0735
 4380SOL     OW24775   2.129   1.943   9.203 -0.2406 -0.2471 -0.0430
 4380SOL    HW124776   2.121   2.019   9.261 -1.4185 -0.0860 -0.4096
 4380SOL    HW224777   2.057   1.893   9.239  1.1359 -1.9872  0.2819
 4381SOL     OW24778   1.779   4.719  13.907  0.2361  0.3086  0.5036
 4381SOL    HW124779   1.834   4.723  13.828  0.5409  1.4181  0.7744
 4381SOL    HW224780   1.840   0.027  13.968 -0.2959  0.7480  0.7307
 4382SOL     OW24781   3.776   0.858  14.697  0.1270  0.1088 -0.4324
 4382SOL    HW124782   3.728   0.785  14.658 -0.0214 -0.0398  0.0245
 4382SOL    HW224783   3.855   0.867  14.643 -0.0148  0.0091 -0.6556
 4383SOL     OW24784   3.390   2.901  12.485 -1.0797  0.8347 -0.1838
 4383SOL    HW124785   3.311   2.854  12.510  0.3618 -2.3129 -1.5497
 4383SOL    HW224786   3.447   2.893  12.561 -0.1982  0.2300 -0.9068
 4384SOL     OW24787   1.464   4.120  14.828  0.5277  0.6961 -0.1983
 4384SOL    HW124788   1.495   4.186  14.890  1.6577  0.6501 -0.7074
 4384SOL    HW224789   1.374   4.107  14.855  0.1311  1.9481 -0.9324
 4385SOL     OW24790   1.517   1.532   2.987 -0.0806  0.8057  0.0863
 4385SOL    HW124791   1.528   1.575   3.072  2.0070 -1.1368  0.7896
 4385SOL    HW224792   1.435   1.490   3.012  1.0186 -1.0026  0.6280
 4386SOL     OW24793   3.606   1.917  10.055  0.1844  0.1865  0.2060
 4386SOL    HW124794   3.547   1.851  10.090 -0.5296  0.9882  0.5140
 4386SOL    HW224795   3.663   1.865   9.999 -1.6097 -1.2350 -0.2610
 4387SOL     OW24796   0.819   0.357   7.587 -0.6965  0.2774  0.0235
 4387SOL    HW124797   0.792   0.441   7.624 -3.3509 -0.0321 -1.2451
 4387SOL    HW224798   0.773   0.363   7.503  2.7908  1.3707 -1.7922
 4388SOL     OW24799   2.726   2.026   4.739  0.2625  0.4234 -0.6455
 4388SOL    HW124800   2.710   2.094   4.803 -1.4851 -1.2502  0.6935
 4388SOL    HW224801   2.637   2.005   4.712 -0.4702  2.4963  0.2044
 4389SOL     OW24802   1.937   4.398   9.608 -0.2519 -0.4615 -0.4055
 4389SOL    HW124803   1.938   4.320   9.664 -0.4374 -1.3106 -1.5671
 4389SOL    HW224804   2.029   4.420   9.600 -0.5386  1.3485  1.4438
 4390SOL     OW24805   2.042   3.189  10.010 -0.2825  0.0112 -0.2645
 4390SOL    HW124806   1.996   3.268  10.041  0.1013 -0.0106  0.3527
 4390SOL    HW224807   2.041   3.148  10.096  0.5402  1.3879  0.3947
 4391SOL     OW24808   4.020   1.546   6.018 -0.0801 -0.6444  0.0387
 4391SOL    HW124809   3.997   1.459   5.986  3.5126 -1.1962 -1.0988
 4391SOL    HW224810   4.116   1.537   6.016 -0.0460 -0.7575  2.1119
 4392SOL     OW24811   3.284   3.609   6.233 -0.1825 -0.3151  0.1285
 4392SOL    HW124812   3.267   3.575   6.145  1.1456  1.4027 -0.7840
 4392SOL    HW224813   3.310   3.528   6.278 -1.6071 -0.9377 -0.1616
 4393SOL     OW24814   0.123   4.083  10.980 -0.7207 -0.0913  0.2651
 4393SOL    HW124815   0.197   4.111  10.926 -2.1502  0.7536 -1.2366
 4393SOL    HW224816   0.174   4.024  11.035 -3.3200 -0.8291  1.8872
 4394SOL     OW24817   0.158   3.590   3.043 -0.3090  0.3900  0.2351
 4394SOL    HW124818   0.095   3.655   3.073  0.0691  1.9059 -2.1991
 4394SOL    HW224819   0.237   3.645   3.048  0.7900 -1.1595  0.0813
 4395SOL     OW24820   1.318   1.283   0.663 -0.0479  0.0804  0.1650
 4395SOL    HW124821   1.236   1.280   0.713 -0.9467  1.0217 -1.2508
 4395SOL    HW224822   1.382   1.322   0.722  0.3875  0.3273 -0.4689
 4396SOL     OW24823   2.041   1.704   4.511  0.2246 -0.5772 -0.0672
 4396SOL    HW124824   1.998   1.699   4.597 -1.8004  0.5750 -1.0347
 4396SOL    HW224825   1.976   1.715   4.442 -0.5489 -0.4518  0.6885
 4397SOL     OW24826   2.009   2.089   1.521 -0.1652  0.3570  0.1351
 4397SOL    HW124827   2.098   2.123   1.523 -0.0940  0.1755 -0.0327
 4397SOL    HW224828   1.997   2.049   1.436 -0.2995 -0.1347  0.3866
 4398SOL     OW24829   3.467   3.870   7.658  0.5197 -0.6682 -0.1847
 4398SOL    HW124830   3.373   3.870   7.678 -0.0468  2.6148 -2.8004
 4398SOL    HW224831   3.473   3.784   7.617  0.3234 -1.1650  0.8293
 4399SOL     OW24832   0.047   3.732   6.443 -0.1086 -0.0255  0.3008
 4399SOL    HW124833   0.117   3.797   6.435 -0.3683  0.1704 -0.3665
 4399SOL    HW224834   0.080   3.676   6.514 -2.0811 -0.3397  0.9591
 4400SOL     OW24835   3.491   3.490  16.748 -0.3044  0.1757 -0.2338
 4400SOL    HW124836   3.540   3.409  16.757 -2.2831 -0.8813  0.9542
 4400SOL    HW224837   3.416   3.488  16.807  0.6091 -2.5049  0.8066
 4401SOL     OW24838   3.456   2.876   3.501  0.7429 -0.5445 -0.0964
 4401SOL    HW124839   3.517   2.837   3.438 -0.8356 -0.6803 -1.5522
 4401SOL    HW224840   3.368   2.863   3.464  1.6225  0.8554 -2.7439
 4402SOL     OW24841   1.040   3.140  16.694  0.3117 -0.1978 -0.3907
 4402SOL    HW124842   1.119   3.098  16.727  0.6658 -0.4787 -1.5909
 4402SOL    HW224843   0.989   3.064  16.664 -0.4492 -0.0440  0.4927
 4403SOL     OW24844   0.036   2.454   8.334 -0.3254 -0.1214  0.4835
 4403SOL    HW124845   0.057   2.389   8.267 -2.2938 -0.3729  0.1103
 4403SOL    HW224846   0.119   2.467   8.381  0.0263  0.6687 -0.3231
 4404SOL     OW24847   2.253   2.465  11.054 -0.4055  0.2066 -0.1680
 4404SOL    HW124848   2.176   2.490  11.003 -0.5654 -0.0709 -0.0604
 4404SOL    HW224849   2.307   2.425  10.985  1.6169  1.1590  0.8724
 4405SOL     OW24850   3.263   2.723   6.587 -0.2162 -0.1611 -0.0893
 4405SOL    HW124851   3.227   2.666   6.655  1.7909 -0.6049  0.5911
 4405SOL    HW224852   3.344   2.679   6.561 -0.7356 -0.8633 -0.5409
 4406SOL     OW24853   0.731   2.603   2.900 -0.1459 -0.2903  0.0618
 4406SOL    HW124854   0.723   2.661   2.824 -0.8306 -0.8101 -0.2576
 4406SOL    HW224855   0.782   2.656   2.962  2.1334  1.5054 -3.3415
 4407SOL     OW24856   4.680   1.498  10.305 -0.8419 -0.0444  0.4355
 4407SOL    HW124857   4.655   1.448  10.383 -0.6395 -0.6225  0.1335
 4407SOL    HW224858   0.028   1.533  10.338  0.3934  0.2690 -2.9173
 4408SOL     OW24859   3.161   0.641  11.909  0.2126  0.0048 -0.0946
 4408SOL    HW124860   3.178   0.694  11.831 -0.2366 -0.2931 -0.3971
 4408SOL    HW224861   3.174   0.705  11.979  0.8893  0.0963 -0.3074
 4409SOL     OW24862   3.938   2.963   5.386 -0.0660 -0.2089 -0.5200
 4409SOL    HW124863   3.986   2.900   5.332  1.5022 -0.4405  1.1731
 4409SOL    HW224864   3.964   2.954   5.477 -1.8385 -0.5208 -0.0346
 4410SOL     OW24865   2.617   3.039   3.193  0.1974  0.5490 -0.1203
 4410SOL    HW124866   2.534   3.082   3.216  0.2259  0.4122  0.2456
 4410SOL    HW224867   2.678   3.087   3.249 -0.0875 -0.2462  0.8651
 4411SOL     OW24868   0.263   2.788   9.262 -0.8661  0.7138  0.2142
 4411SOL    HW124869   0.268   2.881   9.286  1.8869  0.7650 -0.5759
 4411SOL    HW224870   0.174   2.767   9.291 -0.1835 -1.0373  1.0385
 4412SOL     OW24871   1.340   3.220   7.926 -0.8120  0.2566 -0.3802
 4412SOL    HW124872   1.326   3.214   7.832  0.3950  1.3523 -0.6230
 4412SOL    HW224873   1.349   3.125   7.935  2.9976  0.5305 -1.2651
 4413SOL     OW24874   3.352   0.025   0.512 -0.2807 -0.2878 -0.2452
 4413SOL    HW124875   3.262   0.003   0.487 -0.0086  1.3278 -2.6796
 4413SOL    HW224876   3.356   0.109   0.468  3.0824  0.9190  2.3164
 4414SOL     OW24877   0.485   3.353   5.548 -0.3907  1.0217 -0.1719
 4414SOL    HW124878   0.466   3.261   5.532 -1.5172  1.2668 -0.2301
 4414SOL    HW224879   0.406   3.390   5.508  0.3866  2.3571 -0.4774
 4415SOL     OW24880   3.304   0.555   5.157  1.0334 -0.3409  0.3239
 4415SOL    HW124881   3.244   0.480   5.151 -0.3912  1.0604 -2.9111
 4415SOL    HW224882   3.245   0.619   5.197  3.9457  3.2095 -1.1672
 4416SOL     OW24883   0.220   1.266   4.695  0.0261  0.2109  0.0787
 4416SOL    HW124884   0.203   1.342   4.638  1.9394  0.4747 -0.1517
 4416SOL    HW224885   0.181   1.207   4.631  1.5052 -2.0893  1.2953
 4417SOL     OW24886   1.139   2.542   3.567 -0.3187  0.1871  0.1617
 4417SOL    HW124887   1.143   2.501   3.480  2.2547 -0.6707  0.7021
 4417SOL    HW224888   1.097   2.475   3.620  1.1008 -0.5294  0.3700
 4418SOL     OW24889   4.674   3.401   8.504 -0.2336  0.3311  0.1753
 4418SOL    HW124890   0.009   3.467   8.499  0.1818  0.1357  2.9118
 4418SOL    HW224891   4.674   3.406   8.600 -1.7119 -0.5797  0.2195
 4419SOL     OW24892   3.187   0.658   0.003 -0.0308  0.0353 -0.0596
 4419SOL    HW124893   3.118   0.711   0.043  0.8309  0.1180  1.3370
 4419SOL    HW224894   3.255   0.726  17.733 -0.7578  0.7828  0.1861
 4420SOL     OW24895   4.549   2.651   0.582  0.4644  0.7186  0.2321
 4420SOL    HW124896   4.549   2.613   0.670  1.4575 -1.2727 -0.6228
 4420SOL    HW224897   4.602   2.580   0.545  0.4971  1.6315 -1.4314
 4421SOL     OW24898   0.208   4.058   2.091  0.4562 -0.2342 -0.2140
 4421SOL    HW124899   0.116   4.083   2.084  0.0406 -1.6776  0.3089
 4421SOL    HW224900   0.202   3.964   2.079 -0.7699 -0.1590 -0.1468
 4422SOL     OW24901   1.822   3.989   2.079  0.3857  0.0431  0.3488
 4422SOL    HW124902   1.912   4.013   2.058  0.1925  2.0500  1.8203
 4422SOL    HW224903   1.782   4.043   2.012  0.4890 -1.6198 -1.0551
 4423SOL     OW24904   3.197   3.405   3.462  0.2309 -0.7452 -0.1150
 4423SOL    HW124905   3.113   3.450   3.473 -0.1202 -1.1145 -1.3107
 4423SOL    HW224906   3.187   3.335   3.526  3.7000 -0.4291  0.7724
 4424SOL     OW24907   2.217   0.819  17.139  0.2149 -0.3230  0.0939
 4424SOL    HW124908   2.184   0.886  17.199 -1.8963  0.2239 -1.6790
 4424SOL    HW224909   2.143   0.813  17.080  0.4229  0.3275 -0.2296
 4425SOL     OW24910   1.569   3.236   6.193 -0.1971 -0.0810 -0.1197
 4425SOL    HW124911   1.537   3.196   6.112 -0.8219  1.3400 -0.5801
 4425SOL    HW224912   1.601   3.157   6.236  0.2535  0.4131  0.4578
 4426SOL     OW24913   0.182   1.658   7.471  0.5843  0.3600 -0.2591
 4426SOL    HW124914   0.133   1.739   7.485  0.1341 -0.4989  3.1847
 4426SOL    HW224915   0.264   1.704   7.452  0.9197  0.5702  1.6623
 4427SOL     OW24916   3.775   4.226   2.912 -0.3251  0.5595  0.3282
 4427SOL    HW124917   3.766   4.314   2.875 -1.2777 -0.0321 -0.8688
 4427SOL    HW224918   3.768   4.177   2.830 -0.2987  0.3606  0.4436
 4428SOL     OW24919   0.357   0.589   6.324 -0.1232  0.2391  0.1098
 4428SOL    HW124920   0.391   0.584   6.413  1.3325 -1.6912 -0.5471
 4428SOL    HW224921   0.426   0.536   6.284 -0.1010 -1.2738  2.1735
 4429SOL     OW24922   3.483   1.915   2.720  0.2515 -0.2199 -0.0318
 4429SOL    HW124923   3.431   1.989   2.689  0.8116  0.4744  0.7096
 4429SOL    HW224924   3.459   1.921   2.812  0.8962  0.3237  0.1021
 4430SOL     OW24925   0.117   1.066   4.844 -0.1924  0.6385 -0.4377
 4430SOL    HW124926   0.158   1.138   4.798  0.1334 -1.0753 -2.8281
 4430SOL    HW224927   0.176   0.992   4.826 -1.7033 -0.9153  0.8854
 4431SOL     OW24928   0.578   2.154   5.273 -1.0023 -0.1252  0.1556
 4431SOL    HW124929   0.584   2.249   5.288 -0.2002  0.1431 -1.8466
 4431SOL    HW224930   0.668   2.122   5.274 -1.3548 -1.0914  0.5438
 4432SOL     OW24931   0.246   3.892  12.408 -0.6683  0.3838 -0.2847
 4432SOL    HW124932   0.264   3.986  12.408 -2.1687  0.6600 -3.5672
 4432SOL    HW224933   0.203   3.880  12.323  1.8248 -1.4604 -1.2992
 4433SOL     OW24934   3.972   0.333   1.294  0.1394  0.0735 -0.1603
 4433SOL    HW124935   3.954   0.320   1.201 -3.4643 -0.6513  0.6377
 4433SOL    HW224936   4.031   0.408   1.298  0.9672 -0.5809 -0.1080
 4434SOL     OW24937   0.601   4.234   3.851  0.9073  0.2386 -0.0323
 4434SOL    HW124938   0.526   4.289   3.829  0.8790  0.3659  0.3871
 4434SOL    HW224939   0.650   4.289   3.911  1.3720  0.1691 -0.3474
 4435SOL     OW24940   2.466   0.085   8.513  0.2176 -0.1283 -0.4858
 4435SOL    HW124941   2.480   0.010   8.572  1.5970  1.6570  1.4735
 4435SOL    HW224942   2.498   0.155   8.570  0.5649 -0.2781 -0.4941
 4436SOL     OW24943   0.165   3.493   3.318  0.1886 -0.1154  0.1530
 4436SOL    HW124944   0.123   3.533   3.241 -1.9132  1.7021  2.2748
 4436SOL    HW224945   0.188   3.402   3.299  3.5552  0.7979 -0.1340
 4437SOL     OW24946   4.160   3.609   5.327 -0.0505 -0.1922  0.4367
 4437SOL    HW124947   4.114   3.612   5.243  2.1847 -0.1631 -0.7737
 4437SOL    HW224948   4.227   3.542   5.323 -2.1910 -2.3005 -0.1266
 4438SOL     OW24949   3.628   2.867   8.670  0.0786  0.4146 -0.2778
 4438SOL    HW124950   3.608   2.822   8.589  5.1802  0.3840 -1.5347
 4438SOL    HW224951   3.585   2.813   8.737 -1.3217  0.8122 -0.8800
 4439SOL     OW24952   1.683   1.936  17.570  0.2439  0.1946  0.5161
 4439SOL    HW124953   1.627   1.879  17.518  0.5610 -0.2272  0.6439
 4439SOL    HW224954   1.714   1.891  17.648  0.2470 -0.9256 -0.1305
 4440SOL     OW24955   1.300   0.327   7.769  0.6070 -0.4345  0.0929
 4440SOL    HW124956   1.354   0.398   7.737 -1.3405  0.8593 -0.3093
 4440SOL    HW224957   1.366   0.260   7.787 -0.1188 -1.3334 -0.5268
 4441SOL     OW24958   1.278   1.308   0.389 -1.1109 -0.0634 -0.1910
 4441SOL    HW124959   1.291   1.277   0.478  0.8827  0.8944 -0.1404
 4441SOL    HW224960   1.304   1.229   0.343 -1.6460  0.0850 -0.7471
 4442SOL     OW24961   0.713   0.580   7.701  0.0050  0.8638  0.2160
 4442SOL    HW124962   0.702   0.655   7.643  0.1125  0.8099  0.1263
 4442SOL    HW224963   0.729   0.626   7.784 -0.0963 -1.0243  1.2905
 4443SOL     OW24964   1.290   2.669   0.989 -0.1730 -0.1505  0.9694
 4443SOL    HW124965   1.249   2.608   0.928 -2.5459  1.0746  1.3316
 4443SOL    HW224966   1.245   2.751   0.968  1.0251  0.6314  1.3972
 4444SOL     OW24967   0.784   0.378  17.359 -0.3312 -0.0934 -0.0740
 4444SOL    HW124968   0.828   0.463  17.353 -0.0378 -0.2140  0.3558
 4444SOL    HW224969   0.790   0.359  17.265 -1.3960  1.4889 -0.4649
 4445SOL     OW24970   1.161   2.636   3.182 -0.3100  0.2711 -0.7888
 4445SOL    HW124971   1.201   2.560   3.139  0.4716 -0.4867  1.3132
 4445SOL    HW224972   1.152   2.596   3.268 -2.2871  1.6855 -0.3314
 4446SOL     OW24973   3.061   3.167  14.498 -0.1982 -0.1460 -0.5018
 4446SOL    HW124974   2.995   3.107  14.532 -0.5434  0.7964  0.4995
 4446SOL    HW224975   3.031   3.189  14.410  0.0878 -0.0334 -0.5708
 4447SOL     OW24976   3.051   0.002   8.888 -0.3620 -0.2214 -0.5275
 4447SOL    HW124977   3.039   4.652   8.844  0.5940  0.2771 -1.7128
 4447SOL    HW224978   3.015   4.720   8.976  1.3457  1.0736  0.3940
 4448SOL     OW24979   2.435   2.893   6.293 -0.6458  0.3790  0.7148
 4448SOL    HW124980   2.445   2.936   6.208  0.1032 -2.6382 -0.7085
 4448SOL    HW224981   2.506   2.935   6.340 -0.3473 -1.7284  2.1186
 4449SOL     OW24982   0.503   3.412   4.007 -0.5816 -0.1248  0.3084
 4449SOL    HW124983   0.469   3.492   4.048  2.3118  1.6619 -0.7895
 4449SOL    HW224984   0.459   3.416   3.922 -1.4310  1.5250  0.8301
 4450SOL     OW24985   3.455   2.096  13.190 -0.1631  0.1121 -0.2580
 4450SOL    HW124986   3.503   2.060  13.116  1.6089 -1.1998  1.5328
 4450SOL    HW224987   3.440   2.183  13.154  1.1950  0.5262  0.1756
 4451SOL     OW24988   1.511   4.447   5.051 -0.0780  0.4415  0.0408
 4451SOL    HW124989   1.438   4.498   5.017  2.0885  2.0455 -2.2490
 4451SOL    HW224990   1.460   4.378   5.094  1.2344 -0.8774 -0.5267
 4452SOL     OW24991   1.299   3.084   2.650  0.1494  0.1055 -0.4626
 4452SOL    HW124992   1.316   2.997   2.615 -3.3730  0.0619 -1.9786
 4452SOL    HW224993   1.205   3.100   2.647  0.1492  0.2385  0.3162
 4453SOL     OW24994   2.364   3.119   3.266  0.5292  0.1607 -0.3900
 4453SOL    HW124995   2.274   3.086   3.271 -0.7118  3.5980 -0.6100
 4453SOL    HW224996   2.355   3.192   3.328  0.3287  0.2740 -0.5549
 4454SOL     OW24997   1.617   3.056   8.513  0.1511  0.1722 -0.2717
 4454SOL    HW124998   1.620   2.963   8.493 -2.5339  0.5704 -2.4760
 4454SOL    HW224999   1.603   3.083   8.422  2.9597  0.3037 -0.6859
 4455SOL     OW25000   2.752   3.082  11.228 -0.1951  0.0877  0.5682
 4455SOL    HW125001   2.826   3.108  11.173 -0.2961 -0.5794  0.1123
 4455SOL    HW225002   2.731   2.994  11.196  1.0207 -0.4852  1.3521
 4456SOL     OW25003   2.442   0.752  15.738 -0.0575 -0.8613  0.5898
 4456SOL    HW125004   2.435   0.808  15.815 -1.5557  0.4937 -0.5130
 4456SOL    HW225005   2.350   0.756  15.711  0.2093  1.8731  0.0401
 4457SOL     OW25006   0.969   3.123   1.309 -0.0500  0.5515 -0.2822
 4457SOL    HW125007   0.987   3.046   1.256  0.8452 -0.3036  1.2632
 4457SOL    HW225008   1.015   3.097   1.389  2.0046 -0.6675 -1.8855
 4458SOL     OW25009   1.420   4.050  16.151  0.7674 -0.6843  0.0549
 4458SOL    HW125010   1.393   4.142  16.151  2.7715 -0.1055 -0.4479
 4458SOL    HW225011   1.352   4.012  16.095 -1.1918  1.2103  1.1175
 4459SOL     OW25012   3.468   3.168   5.593 -0.1063 -0.1822 -0.0412
 4459SOL    HW125013   3.481   3.128   5.678 -1.4278 -0.2824  0.1199
 4459SOL    HW225014   3.483   3.262   5.604  1.0417 -0.3005 -0.6761
 4460SOL     OW25015   0.222   1.622  16.205 -0.1954 -0.0882  0.0530
 4460SOL    HW125016   0.140   1.573  16.200  1.2432 -2.6704  2.0933
 4460SOL    HW225017   0.226   1.634  16.300  2.8489 -1.3465  0.0553
 4461SOL     OW25018   0.855   2.256   0.407 -0.0565 -0.4626 -0.0666
 4461SOL    HW125019   0.777   2.239   0.459 -2.6327  0.8874 -3.5196
 4461SOL    HW225020   0.921   2.259   0.476  0.6642  0.2306 -0.7783
 4462SOL     OW25021   1.351   4.326  16.038  0.3288 -0.2046 -0.2345
 4462SOL    HW125022   1.380   4.352  16.126 -3.0629  0.3466  0.7170
 4462SOL    HW225023   1.341   4.408  15.990  0.9334 -0.8545 -1.4651
 4463SOL     OW25024   1.946   3.305   6.285  0.0022  0.0149 -0.1450
 4463SOL    HW125025   1.941   3.229   6.343  2.6896  0.4007  0.5968
 4463SOL    HW225026   2.029   3.285   6.242 -0.2153  1.3421 -1.1788
 4464SOL     OW25027   3.674   2.678   0.171  0.0352  0.1995  0.2637
 4464SOL    HW125028   3.648   2.759   0.128 -0.0823 -0.8020 -1.5363
 4464SOL    HW225029   3.733   2.715   0.236 -0.1955  0.5124  0.2941
 4465SOL     OW25030   1.153   4.039   5.762 -0.1658  0.0938  0.4602
 4465SOL    HW125031   1.120   4.076   5.844 -1.8231 -0.4100  0.0205
 4465SOL    HW225032   1.136   4.114   5.704 -2.1915 -1.0464 -0.4113
 4466SOL     OW25033   3.081   3.084   3.395  0.2095  0.0095  0.2927
 4466SOL    HW125034   3.122   2.998   3.397 -1.9826 -0.9609  3.7590
 4466SOL    HW225035   3.099   3.120   3.482 -2.9026  2.7720 -0.1596
 4467SOL     OW25036   2.800   4.634   3.702 -0.3073  0.2479  0.7606
 4467SOL    HW125037   2.811   4.546   3.738 -2.7216 -0.0084  0.8380
 4467SOL    HW225038   2.876   4.682   3.736  1.3650 -2.6776  1.1949
 4468SOL     OW25039   2.294   4.149   6.959 -0.0751 -0.0987 -0.0007
 4468SOL    HW125040   2.206   4.127   6.928 -0.0446  0.9058 -0.7988
 4468SOL    HW225041   2.277   4.228   7.009  2.8826 -0.7789  2.0526
 4469SOL     OW25042   3.412   3.557   5.897  0.1372  0.4416 -0.4613
 4469SOL    HW125043   3.325   3.525   5.919  0.3028 -0.0264 -0.4887
 4469SOL    HW225044   3.460   3.502   5.960 -1.5696  0.7133  1.0609
 4470SOL     OW25045   2.995   0.291   7.352 -0.3140  0.2309 -0.3440
 4470SOL    HW125046   2.968   0.329   7.435  2.2005  0.8461  0.1964
 4470SOL    HW225047   2.973   0.363   7.294 -1.1836  0.9508  0.8721
 4471SOL     OW25048   4.239   4.521   5.999 -0.2547 -0.7642 -0.0033
 4471SOL    HW125049   4.240   4.511   5.903 -0.5482 -0.8090 -0.0009
 4471SOL    HW225050   4.172   4.454   6.011 -0.9947  0.1571  0.9811
 4472SOL     OW25051   0.766   0.135  10.051  0.3695 -0.3850 -0.4189
 4472SOL    HW125052   0.768   0.215  10.103  0.8277 -0.0783 -0.9051
 4472SOL    HW225053   0.775   0.066  10.117 -0.1343 -1.5575 -1.5582
 4473SOL     OW25054   1.595   2.209   1.787  0.0602 -0.1275 -0.0099
 4473SOL    HW125055   1.643   2.231   1.707 -2.3013  0.7458 -1.1960
 4473SOL    HW225056   1.664   2.213   1.853 -0.4402 -2.0369  0.6299
 4474SOL     OW25057   0.229   3.506  13.440 -0.0099  0.7047  0.4880
 4474SOL    HW125058   0.245   3.550  13.523  0.1536  0.2803  0.6818
 4474SOL    HW225059   0.272   3.558  13.372  0.3029  1.3154  1.1524
 4475SOL     OW25060   3.057   3.647   4.235  0.3954  0.0018 -0.0264
 4475SOL    HW125061   3.041   3.735   4.202  0.1228 -0.9043 -2.3042
 4475SOL    HW225062   3.108   3.669   4.314  0.9852 -0.6438 -0.2270
 4476SOL     OW25063   0.801   1.145   7.120  0.5811  0.2029 -0.3687
 4476SOL    HW125064   0.855   1.067   7.134  0.8800 -0.0435 -2.9594
 4476SOL    HW225065   0.856   1.202   7.066  2.4369 -0.6269  0.6505
 4477SOL     OW25066   2.313   4.199   6.529 -0.2973 -0.0140 -0.3686
 4477SOL    HW125067   2.233   4.164   6.567  1.8180 -3.1405  1.2339
 4477SOL    HW225068   2.305   4.293   6.543 -0.2216 -0.0660  0.0197
 4478SOL     OW25069   3.676   0.711   3.476 -0.1994  0.4043  0.3730
 4478SOL    HW125070   3.636   0.626   3.464 -1.4019  1.2023 -1.2583
 4478SOL    HW225071   3.661   0.727   3.570  2.4167  1.5635  0.6132
 4479SOL     OW25072   4.603   4.427   8.850  0.0762  0.2336  0.4987
 4479SOL    HW125073   4.698   4.434   8.845 -0.0646 -0.1555 -2.7200
 4479SOL    HW225074   4.594   4.380   8.933  0.6877  0.7630  0.8585
 4480SOL     OW25075   4.445   3.866   2.898  0.4932 -0.3268  0.5755
 4480SOL    HW125076   4.456   3.855   2.804 -2.6736  1.7698 -0.0160
 4480SOL    HW225077   4.397   3.948   2.891 -1.6114 -1.5904  0.0728
 4481SOL     OW25078   2.366   0.736   3.415  0.4976  0.1053  0.0840
 4481SOL    HW125079   2.378   0.822   3.375  2.9147 -0.4273 -0.3126
 4481SOL    HW225080   2.452   0.703   3.441 -0.2100 -1.8877 -0.0893
 4482SOL     OW25081   2.605   0.962   6.616 -0.3310 -0.0852 -0.1766
 4482SOL    HW125082   2.646   1.047   6.630  0.6132 -0.2795 -1.7628
 4482SOL    HW225083   2.673   0.894   6.624 -1.2272 -0.7396  1.8782
 4483SOL     OW25084   1.611   0.734   7.539  0.3182 -0.1921  0.3040
 4483SOL    HW125085   1.584   0.740   7.447 -0.1161 -1.4462  0.3411
 4483SOL    HW225086   1.690   0.681   7.527  0.0979 -0.4812  0.1340
 4484SOL     OW25087   2.908   2.055  12.249  0.2547 -0.1355 -0.0035
 4484SOL    HW125088   2.819   2.035  12.279  0.2494 -1.9585 -1.2429
 4484SOL    HW225089   2.906   2.043  12.154  2.0704  1.4128 -0.2429
 4485SOL     OW25090   3.241   1.382   8.519 -0.2999 -0.0678 -0.0247
 4485SOL    HW125091   3.176   1.450   8.538  0.9615  0.6455  1.6608
 4485SOL    HW225092   3.313   1.437   8.487 -0.9145  0.0190 -1.2649
 4486SOL     OW25093   2.929   3.926   4.523 -0.1874  0.7097 -0.3026
 4486SOL    HW125094   2.846   3.935   4.475 -0.2621  2.4960  0.1830
 4486SOL    HW225095   2.966   4.014   4.517 -1.0019  0.8807 -2.8686
 4487SOL     OW25096   2.565   0.525   7.198 -0.6004  0.0815  0.0410
 4487SOL    HW125097   2.476   0.518   7.230 -0.8626 -0.9290 -0.8756
 4487SOL    HW225098   2.553   0.583   7.123 -1.5723  0.3346  0.4022
 4488SOL     OW25099   1.538   1.843  11.343  0.7015 -0.3489  0.3512
 4488SOL    HW125100   1.606   1.803  11.289  2.2839 -0.1280  2.1589
 4488SOL    HW225101   1.456   1.817  11.303  0.6633 -1.3350  1.0590
 4489SOL     OW25102   1.439   0.505   2.397 -0.0132  0.2257 -0.1653
 4489SOL    HW125103   1.381   0.520   2.322  0.0087  0.4446 -0.1398
 4489SOL    HW225104   1.371   0.502   2.464 -0.8764 -0.6970 -1.0749
 4490SOL     OW25105   4.518   3.740   3.410 -0.4398  0.3090 -0.2013
 4490SOL    HW125106   4.609   3.727   3.440 -1.3415  1.0277  2.9049
 4490SOL    HW225107   4.523   3.818   3.356 -2.1868  1.5574  1.4308
 4491SOL     OW25108   1.841   1.964   1.706  0.3352 -0.0690  0.0207
 4491SOL    HW125109   1.839   2.021   1.783  0.9844  0.0765 -0.0659
 4491SOL    HW225110   1.888   2.007   1.634  0.5374  1.6851  1.2070
 4492SOL     OW25111   1.169   3.678   1.917  0.3167 -0.0716 -0.5074
 4492SOL    HW125112   1.131   3.765   1.910 -2.0269 -1.1264 -0.7645
 4492SOL    HW225113   1.092   3.622   1.918  0.1350  0.1736 -0.8846
 4493SOL     OW25114   0.811   0.300   8.393 -0.5455 -0.7262 -0.2825
 4493SOL    HW125115   0.900   0.272   8.374 -1.1341 -1.4754 -1.9849
 4493SOL    HW225116   0.769   0.281   8.309 -1.4228  2.4822 -0.5953
 4494SOL     OW25117   0.771   1.459   7.145 -0.6143  0.5205 -0.3978
 4494SOL    HW125118   0.735   1.448   7.233 -1.6324  0.4397 -0.8253
 4494SOL    HW225119   0.735   1.379   7.106  0.6809  1.0864 -2.7179
 4495SOL     OW25120   4.478   1.866   2.651  0.2012  0.0274 -0.1115
 4495SOL    HW125121   4.455   1.822   2.569 -1.5364 -0.3336  0.5784
 4495SOL    HW225122   4.458   1.959   2.635 -0.6780  0.1209  1.5553
 4496SOL     OW25123   4.246   2.481  10.604 -0.2061  0.2525 -0.3201
 4496SOL    HW125124   4.314   2.496  10.538 -0.7145  0.9979 -0.6688
 4496SOL    HW225125   4.221   2.389  10.593 -2.1740  0.6983  0.4486
 4497SOL     OW25126   4.346   3.178   8.657  0.4889  0.4792 -0.8203
 4497SOL    HW125127   4.331   3.190   8.563 -1.2868  1.7795 -0.3645
 4497SOL    HW225128   4.366   3.268   8.682  0.8758  0.5516 -1.3893
 4498SOL     OW25129   0.751   1.680   2.288 -0.3140 -0.2965  0.3831
 4498SOL    HW125130   0.798   1.609   2.246  0.8262  0.7916 -0.2049
 4498SOL    HW225131   0.685   1.704   2.223 -1.2888 -1.8657  0.8065
 4499SOL     OW25132   0.391   1.661  11.250  0.3587 -0.2828  0.0104
 4499SOL    HW125133   0.366   1.569  11.252  1.5827 -0.5795  1.4261
 4499SOL    HW225134   0.423   1.676  11.339 -0.5676 -1.0552  0.4707
 4500SOL     OW25135   3.670   1.651   7.966 -0.0385 -0.3637 -0.3789
 4500SOL    HW125136   3.755   1.652   7.922 -0.7639  2.9111 -1.7255
 4500SOL    HW225137   3.629   1.732   7.934  0.4558 -0.4272 -1.1879
 4501SOL     OW25138   1.775   1.764   2.915  0.3926  0.5262 -0.0083
 4501SOL    HW125139   1.715   1.737   2.845 -1.7836  2.5017  1.1187
 4501SOL    HW225140   1.857   1.733   2.875 -1.3929  0.4445 -3.5745
 4502SOL     OW25141   3.207   1.121  12.445 -0.4832  0.0450  0.4847
 4502SOL    HW125142   3.229   1.126  12.352 -1.9379 -1.6587  0.0518
 4502SOL    HW225143   3.244   1.034  12.459  2.1002  1.1892  0.6975
 4503SOL     OW25144   2.871   2.007  11.946 -0.3219 -0.0241 -0.1697
 4503SOL    HW125145   2.857   1.924  11.901 -0.4118 -0.5044  0.7612
 4503SOL    HW225146   2.911   2.053  11.872  0.1156 -0.9758 -0.5234
 4504SOL     OW25147   2.972   1.492   3.751  0.2836  0.1779  0.4049
 4504SOL    HW125148   2.979   1.427   3.821 -0.0656 -1.4981 -1.1030
 4504SOL    HW225149   3.061   1.508   3.721  0.4828 -0.4937  0.6431
 4505SOL     OW25150   3.105   1.852   6.034  0.0681 -0.9383 -0.3972
 4505SOL    HW125151   3.030   1.895   5.991  0.4386  1.9619  1.8302
 4505SOL    HW225152   3.077   1.767   6.068 -0.1269 -0.2395  1.2354
 4506SOL     OW25153   3.410   1.809   1.416 -0.5141 -0.9079 -0.0157
 4506SOL    HW125154   3.477   1.833   1.351 -0.3880 -3.2342 -0.7272
 4506SOL    HW225155   3.462   1.812   1.496  1.0725  0.2060 -1.0821
 4507SOL     OW25156   3.032   0.026   0.031  0.0077 -0.6390 -0.0863
 4507SOL    HW125157   2.972   0.082  17.718 -0.2898 -0.9852 -0.1101
 4507SOL    HW225158   2.973   4.708   0.085  0.3055 -0.5635  0.3127
 4508SOL     OW25159   3.451   2.358  13.152 -0.3634 -1.0218 -0.0172
 4508SOL    HW125160   3.451   2.438  13.204 -1.0804 -0.3898 -0.9858
 4508SOL    HW225161   3.382   2.379  13.089 -2.0743 -0.9515  1.8583
 4509SOL     OW25162   1.120   0.289   2.423  0.3206  0.2175 -0.3876
 4509SOL    HW125163   1.162   0.243   2.496  2.2574 -0.6805 -2.0859
 4509SOL    HW225164   1.098   0.376   2.457 -2.0218 -0.8791  0.9019
 4510SOL     OW25165   1.149   2.169   1.943 -0.0490  0.6888  0.2510
 4510SOL    HW125166   1.173   2.193   1.854  1.5392 -0.6143  0.3230
 4510SOL    HW225167   1.237   2.167   1.982 -0.2288 -1.6319  0.5642
 4511SOL     OW25168   1.553   4.278   6.706 -0.3860 -0.3862 -0.6666
 4511SOL    HW125169   1.638   4.280   6.663  0.4550 -0.4824  1.0163
 4511SOL    HW225170   1.540   4.372   6.721 -1.0668 -0.1009 -2.9894
 4512SOL     OW25171   4.162   2.399   5.710 -0.3032 -0.3841 -0.2664
 4512SOL    HW125172   4.207   2.483   5.712 -0.3000 -0.3249 -2.0902
 4512SOL    HW225173   4.074   2.437   5.710  0.7482  2.0151  1.2094
 4513SOL     OW25174   1.231   2.380   3.350 -0.2366  0.2570 -0.0273
 4513SOL    HW125175   1.206   2.313   3.414 -0.7824 -0.8232 -1.3566
 4513SOL    HW225176   1.292   2.334   3.292  0.6744 -0.5332  1.5619
 4514SOL     OW25177   1.989   1.632   2.800 -0.2686 -0.0073 -0.1229
 4514SOL    HW125178   2.075   1.667   2.825 -0.8695  0.6177  1.0527
 4514SOL    HW225179   2.004   1.620   2.706  0.3435  0.8877 -0.1385
 4515SOL     OW25180   1.898   4.292   3.098 -0.3991  0.5870 -0.2908
 4515SOL    HW125181   1.954   4.334   3.163 -1.2312 -0.4721  1.1294
 4515SOL    HW225182   1.965   4.233   3.063 -0.3576  0.3729  0.1442
 4516SOL     OW25183   0.797   0.456   2.599  0.2128 -0.6495 -0.4913
 4516SOL    HW125184   0.855   0.455   2.675 -0.2432  1.1558 -0.1102
 4516SOL    HW225185   0.716   0.412   2.625 -0.6780  0.7558 -0.8908
 4517SOL     OW25186   0.627   3.429   9.343 -0.2724 -0.4047 -0.3349
 4517SOL    HW125187   0.651   3.493   9.410  0.3284 -0.2114 -0.7271
 4517SOL    HW225188   0.692   3.452   9.277 -0.5184  1.8271  0.2041
 4518SOL     OW25189   4.290   0.375   2.597  0.6765  0.5790  0.7332
 4518SOL    HW125190   4.202   0.402   2.625  0.5338  0.3848  0.4647
 4518SOL    HW225191   4.341   0.456   2.606  2.6549 -0.9035  3.0271
 4519SOL     OW25192   3.537   0.265   4.668  0.7233  0.7260  0.5438
 4519SOL    HW125193   3.633   0.272   4.665  0.8654 -0.5002  2.3915
 4519SOL    HW225194   3.520   0.315   4.588 -1.7298 -1.2331 -0.1760
 4520SOL     OW25195   1.058   0.679   0.035  0.1974  0.1409  0.4945
 4520SOL    HW125196   1.039   0.586   0.027  1.9876 -0.3846  2.4255
 4520SOL    HW225197   1.079   0.702  17.681 -0.3576 -0.3045  0.2539
 4521SOL     OW25198   1.233   0.337   0.500 -0.0229  0.4195 -0.0444
 4521SOL    HW125199   1.205   0.371   0.585  1.5225 -0.1956  0.7082
 4521SOL    HW225200   1.246   0.244   0.520  1.3228  0.4034 -1.0059
 4522SOL     OW25201   1.746   3.083  14.765  0.1006  0.4314  0.2010
 4522SOL    HW125202   1.797   3.011  14.802 -0.5770  0.2878  0.8533
 4522SOL    HW225203   1.813   3.147  14.742  2.2810 -1.0181  2.5420
 4523SOL     OW25204   3.676   3.242  16.584  0.6705 -0.1893 -0.4326
 4523SOL    HW125205   3.606   3.177  16.582  0.0606  0.4283  0.6336
 4523SOL    HW225206   3.671   3.266  16.491 -1.5494 -1.3376 -0.6003
 4524SOL     OW25207   2.677   1.878   2.158 -0.8688 -0.0799 -0.1187
 4524SOL    HW125208   2.763   1.838   2.162 -0.6290  0.3857 -0.6279
 4524SOL    HW225209   2.636   1.848   2.239  2.5770  0.3314  1.7706
 4525SOL     OW25210   3.580   3.620   6.753  0.4865 -0.1910  0.4748
 4525SOL    HW125211   3.658   3.593   6.801 -1.3405 -1.3491  2.7646
 4525SOL    HW225212   3.515   3.564   6.794  2.0383 -2.1792  0.2724
 4526SOL     OW25213   3.602   2.843  17.632 -0.0439 -0.2671 -0.3175
 4526SOL    HW125214   3.632   2.934  17.637 -1.6016  0.2248  0.0426
 4526SOL    HW225215   3.510   2.847  17.657 -0.6351  0.1817 -2.6057
 4527SOL     OW25216   1.195   0.963   4.611  0.0023  0.3367  0.3917
 4527SOL    HW125217   1.244   0.945   4.692 -0.2932  0.2050  0.5428
 4527SOL    HW225218   1.256   0.935   4.544 -0.9358  0.4181 -0.4874
 4528SOL     OW25219   2.509   0.007   2.918  0.9739 -0.1047  0.1987
 4528SOL    HW125220   2.591   0.020   2.870  1.7778 -2.8573  0.8224
 4528SOL    HW225221   2.440   0.004   2.852  1.6066 -0.7449 -0.4345
 4529SOL     OW25222   1.630   1.497   4.417 -0.2863 -0.1153  0.2669
 4529SOL    HW125223   1.635   1.447   4.335 -1.2015 -0.4390  0.4090
 4529SOL    HW225224   1.711   1.478   4.464 -0.3314 -2.1815 -0.5183
 4530SOL     OW25225   3.665   4.621   6.970  0.2832 -0.4863 -0.2204
 4530SOL    HW125226   3.732   4.689   6.966  0.2637 -0.4789 -0.4233
 4530SOL    HW225227   3.601   4.659   6.910 -0.0091  0.1772  0.5042
 4531SOL     OW25228   3.995   0.098  15.468 -0.1309  0.1356  0.3370
 4531SOL    HW125229   3.912   0.051  15.465  0.6029 -0.9823 -2.6837
 4531SOL    HW225230   3.974   0.190  15.452  3.2567  0.5889 -1.5780
 4532SOL     OW25231   4.263   2.674  14.533 -0.2192  0.0443 -0.7652
 4532SOL    HW125232   4.237   2.641  14.619  2.6645 -0.0356  0.0993
 4532SOL    HW225233   4.342   2.726  14.550  0.2832 -1.1929  0.7197
 4533SOL     OW25234   1.791   0.103   6.315 -0.4599 -0.4488  0.3002
 4533SOL    HW125235   1.780   0.196   6.334 -1.7881 -0.2941 -1.2225
 4533SOL    HW225236   1.866   0.080   6.369  1.4906 -0.3175 -2.3716
 4534SOL     OW25237   1.244   0.368   7.132  0.3784  0.0376 -0.1579
 4534SOL    HW125238   1.236   0.432   7.203 -1.4580  0.7879 -1.0457
 4534SOL    HW225239   1.257   0.425   7.057 -1.2301 -0.1754 -0.6156
 4535SOL     OW25240   2.871   3.860   3.294 -0.6876  0.7159 -0.6854
 4535SOL    HW125241   2.923   3.859   3.213  0.1182 -0.1334 -0.1639
 4535SOL    HW225242   2.834   3.773   3.278  1.7179 -0.3049 -0.6966
 4536SOL     OW25243   1.150   4.696  15.155  0.5076 -0.1607 -0.0414
 4536SOL    HW125244   1.146   4.711  15.249  0.1763  0.7448 -0.2091
 4536SOL    HW225245   1.230   0.010  15.134 -0.0426  0.2034 -1.3127
 4537SOL     OW25246   0.286   3.609   1.800  0.1658 -0.5018  0.2287
 4537SOL    HW125247   0.363   3.559   1.827  1.8508  1.4404 -0.8741
 4537SOL    HW225248   0.240   3.539   1.754  3.1105 -2.5300  0.3475
 4538SOL     OW25249   2.014   2.482   5.486  0.3184  0.5965  0.2580
 4538SOL    HW125250   2.066   2.562   5.497 -0.5249  1.0446  0.9356
 4538SOL    HW225251   1.927   2.517   5.503 -0.0051 -0.0382 -0.0916
 4539SOL     OW25252   3.160   0.894   5.038 -0.0096 -0.1146  0.3098
 4539SOL    HW125253   3.111   0.823   5.081 -1.2658 -0.2115 -1.2637
 4539SOL    HW225254   3.165   0.857   4.950  0.8884  0.5842  0.0736
 4540SOL     OW25255   1.791   3.738  15.984 -0.0559  0.2245 -0.3948
 4540SOL    HW125256   1.700   3.745  16.010  0.4731 -2.1392  2.0872
 4540SOL    HW225257   1.797   3.754  15.890 -0.6794  3.0552  0.0445
 4541SOL     OW25258   1.029   2.814   2.476 -0.1396  0.4453 -0.1383
 4541SOL    HW125259   1.101   2.752   2.488 -0.3221  0.5007  1.2680
 4541SOL    HW225260   1.062   2.882   2.534 -0.7616  1.6660 -1.2250
 4542SOL     OW25261   2.888   3.810   1.519 -0.0504  0.0374  0.2881
 4542SOL    HW125262   2.834   3.861   1.580  0.0964  0.7516 -0.1792
 4542SOL    HW225263   2.880   3.722   1.556  2.2030  0.3107  1.4692
 4543SOL     OW25264   2.978   4.253   9.375 -0.4502  0.3604 -0.0895
 4543SOL    HW125265   3.025   4.255   9.291 -0.1811  0.8235  0.0686
 4543SOL    HW225266   2.912   4.186   9.358 -0.1085  0.8915 -3.5458
 4544SOL     OW25267   0.591   3.800   1.345  0.6988  0.3740  0.2845
 4544SOL    HW125268   0.605   3.711   1.379 -1.3284 -0.0343  0.0152
 4544SOL    HW225269   0.682   3.826   1.330  0.9669 -1.2112 -0.8722
 4545SOL     OW25270   0.945   0.346   2.215  0.2291  0.2229 -0.3621
 4545SOL    HW125271   0.927   0.420   2.272 -0.8741  0.5431 -1.1217
 4545SOL    HW225272   1.025   0.324   2.263  1.2161 -0.5747 -2.3355
 4546SOL     OW25273   3.343   2.393   9.695  0.3881 -0.3078 -0.1915
 4546SOL    HW125274   3.256   2.403   9.731  0.1044  0.9194 -1.2196
 4546SOL    HW225275   3.397   2.445   9.754  2.0776  0.2723 -2.2393
 4547SOL     OW25276   0.410   4.266   9.406  0.4517  0.7106 -0.0011
 4547SOL    HW125277   0.437   4.358   9.408 -0.3030  0.9446 -0.6419
 4547SOL    HW225278   0.496   4.231   9.430  1.1572  0.7246 -2.5815
 4548SOL     OW25279   1.227   2.520   4.578  0.6357  0.1320  0.1173
 4548SOL    HW125280   1.250   2.428   4.594 -0.9998 -0.4467 -0.8539
 4548SOL    HW225281   1.239   2.527   4.483  0.2236 -1.4329 -0.0488
 4549SOL     OW25282   0.571   3.074   6.845 -0.3074  0.3509 -0.2393
 4549SOL    HW125283   0.521   3.010   6.794  1.5370 -1.0178 -0.2993
 4549SOL    HW225284   0.536   3.157   6.813 -0.2824  0.0190 -1.1265
 4550SOL     OW25285   0.035   4.445   2.975 -0.3264 -0.0899 -0.5498
 4550SOL    HW125286   4.679   4.427   2.947 -1.0535  3.3315 -0.4316
 4550SOL    HW225287   0.082   4.433   2.893  0.6353  0.6900 -0.1180
 4551SOL     OW25288   3.804   2.441   2.713  0.0398  0.3102 -0.5241
 4551SOL    HW125289   3.787   2.454   2.620 -1.8858 -1.4399 -0.4204
 4551SOL    HW225290   3.714   2.449   2.746  1.1366  0.8568  2.3736
 4552SOL     OW25291   0.137   1.702   9.192  0.2168  0.4797  0.1948
 4552SOL    HW125292   0.069   1.638   9.172 -1.3791  2.5209 -0.9133
 4552SOL    HW225293   0.192   1.703   9.114 -0.7161 -0.3680 -0.4697
 4553SOL     OW25294   1.439   0.424   8.195  0.0205  0.3752 -0.2493
 4553SOL    HW125295   1.401   0.491   8.140  0.1860 -0.6224 -1.5742
 4553SOL    HW225296   1.534   0.428   8.186  0.1494  0.4654  1.0457
 4554SOL     OW25297   4.238   3.423  11.232  0.0174  0.3789 -0.3626
 4554SOL    HW125298   4.304   3.465  11.177  2.3079  0.4615  2.4641
 4554SOL    HW225299   4.161   3.459  11.189  0.2438 -1.7350 -2.5281
 4555SOL     OW25300   1.026   0.942   8.111  0.2408  0.4405 -0.2225
 4555SOL    HW125301   1.013   0.900   8.196  0.3960 -0.8670 -0.8279
 4555SOL    HW225302   1.102   0.998   8.124  1.0704 -0.8865  0.7402
 4556SOL     OW25303   4.564   0.485   3.130 -0.4074  0.4074 -0.1445
 4556SOL    HW125304   4.592   0.493   3.039 -0.2583 -1.2602 -0.2382
 4556SOL    HW225305   4.476   0.524   3.133 -0.5058  0.2103 -0.4704
 4557SOL     OW25306   3.320   1.287   9.534 -0.0095 -0.1040 -0.6033
 4557SOL    HW125307   3.334   1.247   9.621  0.3962  0.2828 -0.4915
 4557SOL    HW225308   3.282   1.215   9.484  0.9235  0.7368 -2.5004
 4558SOL     OW25309   4.525   3.834   4.387 -0.5937 -0.6892 -0.0620
 4558SOL    HW125310   4.484   3.799   4.308  1.3652 -0.4979 -1.1534
 4558SOL    HW225311   4.590   3.765   4.398  0.0267 -0.0146  0.5635
 4559SOL     OW25312   1.296   4.606  12.286 -0.4490  0.1243 -0.1054
 4559SOL    HW125313   1.244   4.608  12.366  0.8501 -0.6017  0.7563
 4559SOL    HW225314   1.353   4.682  12.297  0.5682 -0.6777  0.1655
 4560SOL     OW25315   2.990   0.942  16.129  0.2187  0.7900  0.2478
 4560SOL    HW125316   2.962   0.858  16.091  1.0458  0.2680  0.8013
 4560SOL    HW225317   3.018   0.902  16.211 -0.3884 -2.4214 -1.0903
 4561SOL     OW25318   0.004   4.040   6.588 -0.7534  0.1684  0.2960
 4561SOL    HW125319   4.731   3.965   6.646  1.4577  0.3813  0.8419
 4561SOL    HW225320   4.729   4.005   6.499  0.5088  1.6941 -0.4400
 4562SOL     OW25321   4.558   2.874   3.964 -0.1319  0.5193 -0.4028
 4562SOL    HW125322   4.478   2.924   3.982  0.1686  0.7631  0.2412
 4562SOL    HW225323   4.538   2.798   4.018  0.4793  1.8458  1.6697
 4563SOL     OW25324   3.153   0.020   6.577  0.6122 -0.0774 -0.3138
 4563SOL    HW125325   3.098   4.680   6.601  1.6419 -0.6046  0.4094
 4563SOL    HW225326   3.092   0.076   6.627  1.1810  0.1483  0.1315
 4564SOL     OW25327   0.873   0.041   1.837 -0.1230  0.0734  0.0176
 4564SOL    HW125328   0.916   0.030   1.752  0.7797  1.3612  0.3188
 4564SOL    HW225329   0.925   4.718   1.894 -1.5145 -1.1525  0.0628
 4565SOL     OW25330   0.157   2.167  13.734 -0.5225  0.1008 -0.7066
 4565SOL    HW125331   0.164   2.226  13.659 -2.8797 -0.5491 -1.4244
 4565SOL    HW225332   0.095   2.208  13.794 -0.1532 -0.5057  0.0867
 4566SOL     OW25333   0.559   0.872  10.104 -0.1153  0.9067 -0.0566
 4566SOL    HW125334   0.615   0.949  10.105 -1.2311  1.7071  0.9893
 4566SOL    HW225335   0.613   0.800  10.138  0.0018  1.3017  0.5854
 4567SOL     OW25336   3.162   0.439   1.831  0.1297 -0.4770 -0.0134
 4567SOL    HW125337   3.195   0.364   1.782  0.0111  0.4079 -1.4529
 4567SOL    HW225338   3.230   0.498   1.799  0.5012  0.1258  1.9165
 4568SOL     OW25339   2.484   2.690   7.246  0.0319 -0.5735  0.2984
 4568SOL    HW125340   2.533   2.687   7.164  3.3809  4.3260  2.1418
 4568SOL    HW225341   2.411   2.631   7.226 -0.4708  0.0999  0.1736
 4569SOL     OW25342   3.107   1.720   6.877 -0.4452 -0.2632  0.3148
 4569SOL    HW125343   3.177   1.760   6.928 -1.3396  0.4089  1.0142
 4569SOL    HW225344   3.142   1.631   6.877  1.2437  0.4040  1.1962
 4570SOL     OW25345   2.201   4.057  13.259  0.5750 -0.2769  0.2898
 4570SOL    HW125346   2.189   3.985  13.198 -1.0609 -0.3702  0.7201
 4570SOL    HW225347   2.108   4.075  13.273  0.5539 -1.0475  1.0905
 4571SOL     OW25348   2.769   3.714  11.250  0.0970  0.3736 -0.1739
 4571SOL    HW125349   2.824   3.720  11.329  3.1038 -2.6466 -2.0319
 4571SOL    HW225350   2.821   3.658  11.193 -0.1642  1.0403 -1.0637
 4572SOL     OW25351   1.994   3.164   7.687 -0.5129 -0.1267 -0.2351
 4572SOL    HW125352   1.935   3.090   7.670  0.3203 -0.6339 -0.9434
 4572SOL    HW225353   2.079   3.121   7.674 -0.9562 -0.5690 -1.6795
 4573SOL     OW25354   3.667   1.328  14.081  0.4112 -0.0376  0.5153
 4573SOL    HW125355   3.760   1.344  14.098  0.4423  0.4216 -0.0736
 4573SOL    HW225356   3.648   1.400  14.021 -1.3657 -0.8951  0.0578
 4574SOL     OW25357   3.548   1.835   8.834 -0.0874  0.4824 -0.0799
 4574SOL    HW125358   3.480   1.894   8.865  0.3462  0.5058  0.8234
 4574SOL    HW225359   3.627   1.889   8.842 -1.3889  2.2612  0.4746
 4575SOL     OW25360   1.738   1.631   7.123 -0.3631  0.3300 -0.4643
 4575SOL    HW125361   1.724   1.616   7.030 -0.0724  0.4303 -0.5233
 4575SOL    HW225362   1.682   1.561   7.157 -1.4534  0.9820 -0.9417
 4576SOL     OW25363   1.557   0.606   4.162  0.1600  0.5499  0.3429
 4576SOL    HW125364   1.650   0.586   4.148 -0.6695 -1.1697 -2.6275
 4576SOL    HW225365   1.515   0.534   4.116 -0.2468  2.4176 -2.1861
 4577SOL     OW25366   0.726   3.247   3.415 -0.6819 -0.2687  0.6443
 4577SOL    HW125367   0.723   3.343   3.413  2.1472 -0.2175  0.1411
 4577SOL    HW225368   0.795   3.223   3.354 -1.3164 -0.6380  0.0675
 4578SOL     OW25369   2.551   3.985  14.624  0.0688  0.0769 -0.4337
 4578SOL    HW125370   2.462   4.017  14.640 -0.0086 -0.9291  1.0597
 4578SOL    HW225371   2.559   4.000  14.530  1.2950  1.0958 -0.1627
 4579SOL     OW25372   2.368   4.427  16.999 -0.1800 -0.3136 -0.5392
 4579SOL    HW125373   2.303   4.402  17.065 -0.2288 -2.3495 -1.3724
 4579SOL    HW225374   2.331   4.509  16.965 -1.6780 -0.8985 -0.3235
 4580SOL     OW25375   4.295   1.464   4.991  0.6252  0.5744 -0.5764
 4580SOL    HW125376   4.334   1.378   4.977 -1.2245 -0.8847  3.1007
 4580SOL    HW225377   4.329   1.506   4.912 -0.1239  0.0649 -1.1748
 4581SOL     OW25378   2.009   1.992   2.715 -0.7220 -0.1745 -0.1741
 4581SOL    HW125379   1.938   1.932   2.688  1.8340 -2.5222 -1.6886
 4581SOL    HW225380   2.040   2.028   2.631  2.7652 -0.8809  0.8195
 4582SOL     OW25381   1.264   1.412  16.986  0.4887  0.2373  0.4742
 4582SOL    HW125382   1.283   1.426  16.894  0.6755  1.0679  0.6363
 4582SOL    HW225383   1.282   1.319  17.001  2.6061  0.3197 -1.5729
 4583SOL     OW25384   2.912   0.465   8.556  0.4717 -0.6665 -0.2028
 4583SOL    HW125385   2.828   0.437   8.519 -0.1364 -0.3588  0.9266
 4583SOL    HW225386   2.886   0.538   8.612 -1.8773 -1.7665  0.1478
 4584SOL     OW25387   4.208   1.413   7.917 -0.6464  0.2236 -0.5785
 4584SOL    HW125388   4.220   1.322   7.889  0.0160  0.5574 -1.3729
 4584SOL    HW225389   4.118   1.417   7.950 -0.3069  2.3963  0.0486
 4585SOL     OW25390   3.158   2.401   8.600 -0.3668 -0.0834 -0.1921
 4585SOL    HW125391   3.128   2.312   8.582 -1.7022  0.9654 -3.2101
 4585SOL    HW225392   3.084   2.454   8.570 -0.2882  0.6713  0.9759
 4586SOL     OW25393   3.600   2.465   4.762  0.6981 -0.1197 -0.4448
 4586SOL    HW125394   3.505   2.468   4.750  0.5315 -3.5881 -0.1626
 4586SOL    HW225395   3.610   2.405   4.836  0.8843  0.5037  0.0370
 4587SOL     OW25396   1.816   1.855   7.327  0.0281  0.1547 -0.7911
 4587SOL    HW125397   1.747   1.789   7.333 -0.5141  0.8475  0.7227
 4587SOL    HW225398   1.796   1.911   7.251 -1.1944  0.8106  0.0112
 4588SOL     OW25399   0.499   2.094   2.088  0.3662 -0.4470  0.6268
 4588SOL    HW125400   0.487   2.095   2.183 -1.4301 -1.4392  0.3999
 4588SOL    HW225401   0.594   2.089   2.081  0.1433 -2.1363 -1.1298
 4589SOL     OW25402   2.389   4.543  15.760 -0.3015  0.8699  0.3606
 4589SOL    HW125403   2.412   4.467  15.815  1.1441  1.0307 -0.0221
 4589SOL    HW225404   2.398   4.613  15.825  2.2244  1.2381 -0.3972
 4590SOL     OW25405   1.192   2.716   9.870 -0.1644  0.0506  0.3908
 4590SOL    HW125406   1.188   2.767   9.951  0.6414  1.3271 -0.3831
 4590SOL    HW225407   1.183   2.788   9.806  0.9998 -0.3174 -0.1892
 4591SOL     OW25408   0.883   1.309  13.263 -0.8211 -0.0100 -0.4096
 4591SOL    HW125409   0.842   1.241  13.317 -1.1141  1.4492  1.1942
 4591SOL    HW225410   0.895   1.260  13.181 -2.3363 -2.0217  0.5843
 4592SOL     OW25411   0.451   3.213   5.172  0.0008  0.3593  0.1116
 4592SOL    HW125412   0.474   3.270   5.098 -0.0415 -0.2749 -0.3939
 4592SOL    HW225413   0.534   3.208   5.220 -0.5703 -0.7933  0.9697
 4593SOL     OW25414   0.542   0.190   3.025  0.2097 -0.3364 -1.0199
 4593SOL    HW125415   0.532   0.097   3.004 -0.1419 -0.5148 -0.0209
 4593SOL    HW225416   0.452   0.222   3.018 -0.5809 -2.3861 -0.0271
 4594SOL     OW25417   4.087   1.643   6.971  0.5551 -0.2452 -0.0996
 4594SOL    HW125418   4.025   1.611   7.036  2.4414 -1.6343  1.0105
 4594SOL    HW225419   4.100   1.563   6.921 -0.8541 -0.4074 -0.2079
 4595SOL     OW25420   1.023   4.262   9.256 -0.8625  0.6384 -0.2225
 4595SOL    HW125421   1.040   4.242   9.164 -1.9948 -0.2718 -0.2344
 4595SOL    HW225422   1.004   4.170   9.276  1.9510  0.1928  0.4517
 4596SOL     OW25423   1.215   4.673   5.950  0.3344  0.0511  0.1833
 4596SOL    HW125424   1.175   4.588   5.967  0.6590  0.1546  1.4530
 4596SOL    HW225425   1.205   4.684   5.855  0.0745 -1.0584  0.0788
 4597SOL     OW25426   0.227   4.191   4.525  0.1781 -0.2345  0.0004
 4597SOL    HW125427   0.159   4.258   4.524 -2.1055 -2.5063  0.4044
 4597SOL    HW225428   0.204   4.156   4.439  0.2900 -0.4255  0.0471
 4598SOL     OW25429   0.048   0.972   2.934  0.1133 -0.3002 -0.0265
 4598SOL    HW125430   4.724   0.900   2.959  0.4244 -0.3981  0.4262
 4598SOL    HW225431   4.717   1.026   2.890 -0.4176 -2.6965 -2.2093
 4599SOL     OW25432   4.116   2.762   4.826 -0.1474 -0.2397 -0.2527
 4599SOL    HW125433   4.066   2.681   4.811  0.7349 -1.1815  1.9377
 4599SOL    HW225434   4.070   2.785   4.907 -2.0353  0.5301 -1.5451
 4600SOL     OW25435   3.646   1.063   4.923  0.5264  0.0828 -0.6267
 4600SOL    HW125436   3.601   1.147   4.930  1.4863  0.7425 -2.4490
 4600SOL    HW225437   3.686   1.049   5.009  1.8961  0.6662 -1.1659
 4601SOL     OW25438   1.812   0.489  14.922 -0.5552 -0.3095  0.2324
 4601SOL    HW125439   1.753   0.418  14.897  1.2968 -2.0198  0.6910
 4601SOL    HW225440   1.823   0.472  15.015  1.1923  0.2297  0.1182
 4602SOL     OW25441   4.732   4.452   7.806 -0.1558 -0.1150 -0.6900
 4602SOL    HW125442   0.002   4.482   7.897  1.2857  1.6622 -1.3319
 4602SOL    HW225443   0.093   4.446   7.793  0.1874 -0.1712  1.8357
 4603SOL     OW25444   2.838   0.174   0.873 -0.0361 -0.1817 -0.1808
 4603SOL    HW125445   2.914   0.118   0.893 -1.5643 -1.7016  1.3429
 4603SOL    HW225446   2.793   0.137   0.797 -0.3922  1.2013 -0.6346
 4604SOL     OW25447   1.090   2.921  10.436  0.0415 -0.7734 -0.0676
 4604SOL    HW125448   0.999   2.891  10.429 -0.3573  0.1032  1.3172
 4604SOL    HW225449   1.085   2.982  10.362 -0.3965 -1.0139 -0.2382
 4605SOL     OW25450   2.329   2.384  11.853 -0.3827 -0.1479  0.2140
 4605SOL    HW125451   2.267   2.457  11.846  1.3579  1.3252  0.0142
 4605SOL    HW225452   2.282   2.332  11.917 -0.2076  1.5966  1.7652
 4606SOL     OW25453   3.684   2.672  16.304 -0.1307  0.2815  0.0620
 4606SOL    HW125454   3.715   2.748  16.254 -2.7166 -0.2558 -2.3805
 4606SOL    HW225455   3.736   2.604  16.260  0.6447 -1.1468  3.2360
 4607SOL     OW25456   1.083   1.916   8.428 -0.3734  0.0820  0.3681
 4607SOL    HW125457   1.067   1.972   8.504  2.0615  0.8147  0.3237
 4607SOL    HW225458   1.031   1.952   8.356 -0.1268 -0.8111 -0.2626
 4608SOL     OW25459   1.885   4.284   1.094 -0.9330 -0.2948  0.1159
 4608SOL    HW125460   1.842   4.218   1.040 -1.5254  0.4490 -0.3240
 4608SOL    HW225461   1.898   4.359   1.037 -1.0287  0.0140  0.4946
 4609SOL     OW25462   2.340   2.476   4.673  0.1341 -0.5863 -0.0545
 4609SOL    HW125463   2.340   2.571   4.678 -3.0091 -0.6203  0.6426
 4609SOL    HW225464   2.284   2.460   4.597  1.4522 -0.7484 -0.9841
 4610SOL     OW25465   1.056   4.658   3.407 -0.2215 -0.0116 -0.1781
 4610SOL    HW125466   1.072   4.596   3.335  0.9894  1.0879 -0.8583
 4610SOL    HW225467   1.066   4.604   3.485  1.2188 -0.5813 -0.7416
 4611SOL     OW25468   4.259   2.531   2.865  0.1141 -0.2458  0.8233
 4611SOL    HW125469   4.174   2.554   2.902 -0.8435 -3.2000  0.4441
 4611SOL    HW225470   4.272   2.611   2.813 -0.1848  0.3828  1.7101
 4612SOL     OW25471   0.181   2.075   6.355 -0.2233 -0.3307 -0.1603
 4612SOL    HW125472   0.277   2.076   6.348 -0.3336  0.5910 -1.5471
 4612SOL    HW225473   0.159   2.036   6.271 -1.6639  0.2532 -0.0559
 4613SOL     OW25474   2.721   2.997  16.009 -0.5040 -0.3886  0.2606
 4613SOL    HW125475   2.815   2.980  16.020 -0.2921  0.8971  0.4529
 4613SOL    HW225476   2.714   3.014  15.915 -3.8726 -1.6403  0.2916
 4614SOL     OW25477   2.714   1.842   8.649  0.0436 -0.2200 -0.2058
 4614SOL    HW125478   2.669   1.910   8.597 -0.5853  0.4591  1.2400
 4614SOL    HW225479   2.734   1.887   8.731 -1.9537 -2.7051  1.6452
 4615SOL     OW25480   1.164   0.121   6.145 -0.2490  0.3228  0.4298
 4615SOL    HW125481   1.245   0.110   6.195 -0.4692 -0.5418  0.5898
 4615SOL    HW225482   1.180   0.064   6.070  0.6915  0.6147  0.4000
 4616SOL     OW25483   0.525   4.360  17.154  0.4496 -0.3325  0.0373
 4616SOL    HW125484   0.444   4.380  17.108  0.0104 -1.5275  0.2860
 4616SOL    HW225485   0.487   4.297  17.215  1.7870  0.0257  1.2472
 4617SOL     OW25486   1.062   0.305   9.501 -0.4308  0.1580 -0.4537
 4617SOL    HW125487   1.060   0.364   9.577  1.8144  1.9117 -1.7732
 4617SOL    HW225488   1.020   0.228   9.540 -0.0412  0.4037  0.4535
 4618SOL     OW25489   3.083   2.014   7.520 -0.3210 -0.0790 -0.2179
 4618SOL    HW125490   3.030   2.089   7.493 -1.5703 -0.5945  0.7886
 4618SOL    HW225491   3.116   1.988   7.434 -1.0428 -1.2717 -0.1400
 4619SOL     OW25492   1.287   0.975  17.143 -0.4011  0.1168  0.5977
 4619SOL    HW125493   1.246   0.901  17.096 -1.0708  1.0356 -0.2790
 4619SOL    HW225494   1.347   0.926  17.199  0.0992  1.0199  0.8389
 4620SOL     OW25495   0.449   2.019   8.148  0.3470 -0.3291  0.2460
 4620SOL    HW125496   0.457   1.969   8.229  3.0837  0.9774  0.7949
 4620SOL    HW225497   0.378   2.078   8.174 -1.3864 -2.6014  0.6157
 4621SOL     OW25498   3.789   1.097   2.313 -0.1179 -0.0737 -0.0112
 4621SOL    HW125499   3.880   1.115   2.288  0.0601 -0.3855  0.4084
 4621SOL    HW225500   3.770   1.183   2.349 -0.2577 -1.0787  2.3444
 4622SOL     OW25501   3.212   3.342   2.744 -0.5687 -0.0615 -0.3491
 4622SOL    HW125502   3.303   3.346   2.772 -0.5069  0.7014 -0.6466
 4622SOL    HW225503   3.213   3.395   2.664 -0.0037  0.0267 -0.2814
 4623SOL     OW25504   2.200   2.818   0.966 -0.2568 -0.2876 -0.8557
 4623SOL    HW125505   2.227   2.856   1.050  0.6652 -0.2341 -1.1707
 4623SOL    HW225506   2.137   2.884   0.939 -1.5691 -0.3277  2.0096
 4624SOL     OW25507   4.613   3.546   2.589  0.0993  0.2484 -0.4825
 4624SOL    HW125508   4.698   3.520   2.554  1.3607  0.8388  2.1117
 4624SOL    HW225509   4.645   3.536   2.679 -1.5146  2.1560  0.2899
 4625SOL     OW25510   1.076   4.628   5.596  0.0661 -0.0346  0.2922
 4625SOL    HW125511   1.086   4.608   5.503 -0.2658  1.5689 -0.0877
 4625SOL    HW225512   1.164   4.663   5.613  0.5157 -0.5359 -1.0092
 4626SOL     OW25513   2.511   1.094   7.813  0.2715  0.2478 -0.5157
 4626SOL    HW125514   2.596   1.136   7.827  0.9432 -1.5807  0.8353
 4626SOL    HW225515   2.480   1.137   7.733  1.6547  0.8728 -0.7232
 4627SOL     OW25516   1.396   3.360  17.329 -0.4541 -0.7460  0.3266
 4627SOL    HW125517   1.443   3.362  17.412  1.2054  0.3089 -0.6626
 4627SOL    HW225518   1.419   3.273  17.297  0.6703 -0.1085 -0.5513
 4628SOL     OW25519   4.290   0.095   5.951  0.2574  0.0014  0.0366
 4628SOL    HW125520   4.369   0.149   5.946 -0.9688  1.9123  1.1826
 4628SOL    HW225521   4.310   0.023   6.010  1.2194  0.2035 -0.0351
 4629SOL     OW25522   4.143   1.163  11.934  0.3580 -0.1766  0.6579
 4629SOL    HW125523   4.211   1.230  11.929  1.2655 -1.0498  1.5395
 4629SOL    HW225524   4.071   1.206  11.886  0.3026 -0.6371  0.3256
 4630SOL     OW25525   1.895   0.587  10.189 -0.2949 -0.3510 -0.2134
 4630SOL    HW125526   1.845   0.621  10.115  3.1106  0.4530 -2.1956
 4630SOL    HW225527   1.963   0.655  10.191  0.8651 -1.5358  0.3578
 4631SOL     OW25528   0.235   0.835   1.270 -0.2612 -0.2418  0.0113
 4631SOL    HW125529   0.270   0.843   1.359 -0.1883  0.4011 -0.0803
 4631SOL    HW225530   0.219   0.922   1.235  0.6350 -0.5157 -1.0597
 4632SOL     OW25531   2.328   1.865   3.083  0.1834 -0.0714  0.4373
 4632SOL    HW125532   2.297   1.950   3.117  3.3430  1.6620 -0.9824
 4632SOL    HW225533   2.265   1.865   3.012 -2.3396 -0.4812  2.6621
 4633SOL     OW25534   0.266   2.954   4.627 -0.4440  0.4189  0.2302
 4633SOL    HW125535   0.319   2.957   4.548  1.2992 -1.6486  1.3151
 4633SOL    HW225536   0.251   2.860   4.638  1.6995 -0.0145 -0.5765
 4634SOL     OW25537   3.214   4.297   4.412 -0.1509 -0.1284  0.4834
 4634SOL    HW125538   3.206   4.295   4.317 -0.3571  0.5851  0.4868
 4634SOL    HW225539   3.308   4.311   4.417  0.0201 -1.0336 -0.2047
 4635SOL     OW25540   1.966   2.468   6.312  0.1014  0.3453  0.2295
 4635SOL    HW125541   1.964   2.381   6.272 -0.6557 -0.0999  1.2567
 4635SOL    HW225542   1.886   2.500   6.270 -0.3529 -1.2832 -0.1303
 4636SOL     OW25543   3.452   3.341   4.085 -0.0651 -0.1220 -0.2138
 4636SOL    HW125544   3.358   3.346   4.067 -0.0168 -1.0176 -0.7281
 4636SOL    HW225545   3.477   3.269   4.027  0.9297 -0.7041  0.9506
 4637SOL     OW25546   4.035   1.034   0.776 -0.3803 -0.3634  0.5190
 4637SOL    HW125547   4.080   1.072   0.701 -1.6381  0.7252  0.3030
 4637SOL    HW225548   4.079   1.078   0.849 -0.2679  2.3193 -1.1588
 4638SOL     OW25549   1.729   0.348   8.162  0.0763 -0.1402  0.6259
 4638SOL    HW125550   1.734   0.253   8.160  0.8786  0.0297 -3.7488
 4638SOL    HW225551   1.814   0.369   8.201 -0.2305 -0.4712  1.4770
 4639SOL     OW25552   2.200   1.108  14.678  0.1810  0.6595 -0.5847
 4639SOL    HW125553   2.169   1.053  14.606  2.0955 -1.2117  0.0220
 4639SOL    HW225554   2.216   1.040  14.744 -1.8960 -1.3150 -2.1123
 4640SOL     OW25555   1.607   3.782   1.166  0.0893 -0.5634 -0.3997
 4640SOL    HW125556   1.649   3.696   1.172  0.1139 -0.4188  1.5288
 4640SOL    HW225557   1.518   3.760   1.138 -0.6912  2.0148 -0.0133
 4641SOL     OW25558   4.174   3.489   8.152  0.0481  0.0015 -0.0807
 4641SOL    HW125559   4.167   3.520   8.062 -2.4437  2.8060  1.0903
 4641SOL    HW225560   4.206   3.563   8.203 -1.0533  0.3833  0.0446
 4642SOL     OW25561   2.954   4.271   8.553 -0.5004  0.0659 -0.1704
 4642SOL    HW125562   3.018   4.262   8.483 -0.2737 -0.4134  0.1074
 4642SOL    HW225563   2.883   4.301   8.496 -1.9614 -1.5051  0.8259
 4643SOL     OW25564   3.138   2.113   8.686  0.1784 -0.3984 -0.3039
 4643SOL    HW125565   3.067   2.151   8.737 -0.5130  0.1810 -1.6806
 4643SOL    HW225566   3.086   2.045   8.643  1.0967 -1.4534  0.2814
 4644SOL     OW25567   1.893   2.621   3.039  0.8598  0.1050 -0.5888
 4644SOL    HW125568   1.958   2.615   2.969  0.9033  1.7046 -0.7043
 4644SOL    HW225569   1.816   2.635   2.984  0.2757 -2.8557 -0.5048
 4645SOL     OW25570   4.192   2.469   3.559  0.0712  0.0895 -0.2189
 4645SOL    HW125571   4.231   2.427   3.635 -0.8066 -1.1062 -0.4164
 4645SOL    HW225572   4.141   2.401   3.515  0.6150 -1.5321  1.6574
 4646SOL     OW25573   3.393   1.616   4.970 -0.7211 -0.3690  0.3585
 4646SOL    HW125574   3.379   1.580   4.882  1.4883 -0.9512  0.2410
 4646SOL    HW225575   3.306   1.645   4.995 -0.8198  0.3595 -0.8366
 4647SOL     OW25576   0.154   3.807   1.396  0.4568 -0.2117  0.3822
 4647SOL    HW125577   0.217   3.773   1.459  1.2472 -0.8083 -0.7351
 4647SOL    HW225578   0.069   3.799   1.440  1.2936 -0.6183  1.8936
 4648SOL     OW25579   4.193   0.071   2.993  0.0159  0.1685 -0.1595
 4648SOL    HW125580   4.164   0.063   3.084  3.6629  0.5100  1.0165
 4648SOL    HW225581   4.232   4.719   2.992  0.3599  0.3337 -0.6661
 4649SOL     OW25582   0.701   0.408  17.639 -0.1739 -0.0792  0.0614
 4649SOL    HW125583   0.654   0.335  17.678  0.7078 -0.9458 -0.4815
 4649SOL    HW225584   0.710   0.379  17.548 -0.0685  0.3342 -0.0623
 4650SOL     OW25585   2.130   4.234   2.631 -0.1180 -0.6225 -0.0751
 4650SOL    HW125586   2.112   4.291   2.705  1.2381  0.3745 -0.4989
 4650SOL    HW225587   2.225   4.239   2.616 -0.3146  0.9087 -0.7319
 4651SOL     OW25588   2.851   0.937   2.434 -0.5316 -0.4454  0.0983
 4651SOL    HW125589   2.929   0.897   2.395 -0.3813  0.2887 -0.3675
 4651SOL    HW225590   2.822   0.870   2.495  0.3232 -1.0546 -0.1729
 4652SOL     OW25591   2.100   0.337  16.610 -0.3411  0.4885 -0.1421
 4652SOL    HW125592   2.025   0.335  16.551  0.1156  0.1299 -0.7023
 4652SOL    HW225593   2.173   0.333  16.549  0.6269 -0.5562  1.0701
 4653SOL     OW25594   2.855   1.081   3.838 -0.1858 -0.5205 -0.0266
 4653SOL    HW125595   2.886   0.995   3.809  0.9104 -0.2325  0.2981
 4653SOL    HW225596   2.846   1.126   3.754 -1.6180  0.1021  0.4482
 4654SOL     OW25597   3.989   1.815   6.782  0.2556  0.3841  0.2375
 4654SOL    HW125598   3.937   1.756   6.728 -1.1219  0.0237  1.9460
 4654SOL    HW225599   4.040   1.755   6.836 -0.4894  0.0872  0.6093
 4655SOL     OW25600   3.323   2.585  17.018  0.0933  0.1961 -0.5555
 4655SOL    HW125601   3.326   2.492  16.994  1.1823  0.2177 -0.5159
 4655SOL    HW225602   3.321   2.628  16.932  1.4787  1.4326  0.0284
 4656SOL     OW25603   0.269   3.051   9.359  0.3271  0.7573 -0.0942
 4656SOL    HW125604   0.290   3.125   9.417  0.6662  0.3576  0.2929
 4656SOL    HW225605   0.236   2.995   9.429  0.6888  0.1490 -0.4182
 4657SOL     OW25606   0.762   1.522  13.053 -0.1622 -0.3710 -0.1898
 4657SOL    HW125607   0.692   1.574  13.013  1.2310  2.5579  1.2036
 4657SOL    HW225608   0.789   1.470  12.977 -0.0966 -0.8876  0.1879
 4658SOL     OW25609   1.685   2.993   2.977 -0.3122  0.3714 -0.6450
 4658SOL    HW125610   1.607   2.939   2.964  0.3629 -0.7381 -0.0416
 4658SOL    HW225611   1.758   2.932   2.973 -0.7799 -0.1182 -1.5496
 4659SOL     OW25612   0.085   1.785  14.851  0.5177 -0.0578 -0.0035
 4659SOL    HW125613   0.055   1.701  14.817  1.5686 -0.3386 -0.2100
 4659SOL    HW225614   0.091   1.832  14.768  2.2955 -1.3537 -0.5930
 4660SOL     OW25615   1.639   0.521   2.664 -0.1836 -0.2442 -0.2141
 4660SOL    HW125616   1.624   0.475   2.582 -1.0214  2.7377 -1.7224
 4660SOL    HW225617   1.569   0.491   2.722 -0.4944 -1.5574 -1.2556
 4661SOL     OW25618   2.093   0.444   3.998 -0.2371 -0.6660 -0.4803
 4661SOL    HW125619   2.137   0.527   4.013 -1.4895 -0.2567  0.9595
 4661SOL    HW225620   2.152   0.411   3.930  0.9431  1.1217 -0.3073
 4662SOL     OW25621   3.507   0.841   8.562  0.0283  0.8494  0.2991
 4662SOL    HW125622   3.546   0.920   8.599  2.0255 -0.1154  0.2333
 4662SOL    HW225623   3.495   0.851   8.468 -2.4525 -0.2929  0.4821
 4663SOL     OW25624   3.678   0.429   8.679  0.0186  0.5172 -0.3365
 4663SOL    HW125625   3.662   0.359   8.617  0.3587 -0.3988  0.6076
 4663SOL    HW225626   3.752   0.473   8.637  0.6664  0.9358  1.2162
 4664SOL     OW25627   2.239   4.416   7.165 -0.0373 -0.1001 -0.7310
 4664SOL    HW125628   2.144   4.402   7.164 -0.1431  0.5633 -0.5980
 4664SOL    HW225629   2.242   4.505   7.128  0.2782 -0.0363 -0.5444
 4665SOL     OW25630   0.064   4.418   4.492 -0.5334  0.4727 -0.2809
 4665SOL    HW125631   0.112   4.497   4.469 -1.4071  1.4285  1.1918
 4665SOL    HW225632   0.042   4.435   4.584  0.9081 -0.3072  0.1995
 4666SOL     OW25633   2.616   0.256   3.053 -0.1347 -0.2007  0.3797
 4666SOL    HW125634   2.704   0.221   3.039  0.5503  1.7821 -0.3417
 4666SOL    HW225635   2.573   0.200   2.989  0.4491  0.9137 -0.9953
 4667SOL     OW25636   4.152   1.835   5.970 -0.5940  0.0719 -0.0271
 4667SOL    HW125637   4.060   1.836   5.944 -0.8266  1.3456  0.8081
 4667SOL    HW225638   4.186   1.794   5.891 -2.2951  1.7896 -1.6811
 4668SOL     OW25639   3.217   2.787   6.165 -0.3601  0.0785  0.1838
 4668SOL    HW125640   3.139   2.740   6.136  0.2208 -0.4491 -0.5398
 4668SOL    HW225641   3.238   2.850   6.095  0.7495 -1.9132 -1.2971
 4669SOL     OW25642   3.641   1.689   4.726 -0.1135 -0.1183 -0.1467
 4669SOL    HW125643   3.736   1.694   4.715 -0.2762  0.3181 -1.4082
 4669SOL    HW225644   3.637   1.633   4.803  0.1819  1.8977  1.3315
 4670SOL     OW25645   3.620   3.406   6.498 -0.3585  0.3184 -0.4751
 4670SOL    HW125646   3.661   3.477   6.450  0.4968  2.3701  3.2403
 4670SOL    HW225647   3.688   3.387   6.563 -0.0971 -1.6455 -1.3234
 4671SOL     OW25648   2.666   3.033   6.438 -0.4255 -0.2036  0.3768
 4671SOL    HW125649   2.646   3.126   6.427  1.2424  0.4721  3.0276
 4671SOL    HW225650   2.744   3.041   6.492 -0.2083 -1.0549  0.1840
 4672SOL     OW25651   4.460   1.132  13.800  0.2354  0.3134 -0.0924
 4672SOL    HW125652   4.432   1.176  13.720 -1.4427 -0.3625  0.1235
 4672SOL    HW225653   4.522   1.192  13.842  1.8020 -1.6035  0.3548
 4673SOL     OW25654   4.455   4.026   0.015 -0.7145 -0.2903  0.3241
 4673SOL    HW125655   4.507   4.037  17.672 -1.0235  0.9524  0.2931
 4673SOL    HW225656   4.510   3.979   0.078  2.0809  2.1582 -0.2932
 4674SOL     OW25657   1.048   2.776   7.050  0.4970  0.1706 -0.2003
 4674SOL    HW125658   1.111   2.732   6.993 -0.6906  0.6157 -1.8387
 4674SOL    HW225659   0.967   2.733   7.027 -0.7605  2.8860 -0.8789
 4675SOL     OW25660   2.221   4.138   8.741 -0.0473  0.3559 -0.1550
 4675SOL    HW125661   2.137   4.104   8.772  0.1401 -2.0698 -2.3350
 4675SOL    HW225662   2.199   4.209   8.680 -1.1315  1.3763  1.4267
 4676SOL     OW25663   2.512   1.540   2.258  0.0885  0.4893  0.7423
 4676SOL    HW125664   2.540   1.456   2.222 -0.7976 -0.3691  2.0166
 4676SOL    HW225665   2.594   1.590   2.258  0.3847 -0.0063  3.0905
 4677SOL     OW25666   1.170   0.173   3.954  0.0905 -0.0044 -0.2069
 4677SOL    HW125667   1.211   0.256   3.979  0.8016 -0.1250 -1.0284
 4677SOL    HW225668   1.090   0.184   4.006  1.2714 -0.8401  1.7817
 4678SOL     OW25669   0.926   3.888   6.101 -0.0757  0.9293  1.0509
 4678SOL    HW125670   0.891   3.816   6.154 -0.6121  0.7617  0.4607
 4678SOL    HW225671   0.891   3.961   6.152 -1.9210  0.6018  0.2223
 4679SOL     OW25672   1.424   1.106   6.213 -0.1316  0.3708  0.1148
 4679SOL    HW125673   1.384   1.037   6.266 -0.6084 -0.4197 -1.2650
 4679SOL    HW225674   1.503   1.054   6.197 -0.7794 -0.7296  0.5046
 4680SOL     OW25675   3.053   2.034   1.493  0.0572  0.1356  0.0365
 4680SOL    HW125676   3.120   2.045   1.561  0.5991 -1.1259 -0.2834
 4680SOL    HW225677   2.987   1.975   1.530  1.5612 -0.4906  1.6989
 4681SOL     OW25678   4.260   3.869   3.523 -0.6039  0.6142  0.2863
 4681SOL    HW125679   4.325   3.799   3.531 -1.9545 -0.4544  1.8174
 4681SOL    HW225680   4.186   3.809   3.533 -0.5252  0.2124 -1.4907
 4682SOL     OW25681   0.241   0.936   7.123  0.4758  0.0765 -0.2934
 4682SOL    HW125682   0.165   0.934   7.065  0.4052  1.7864 -0.2397
 4682SOL    HW225683   0.207   1.002   7.183 -1.5695  0.0179 -1.4180
 4683SOL     OW25684   0.798   3.674   3.878 -0.3412 -0.2271  0.4223
 4683SOL    HW125685   0.815   3.603   3.940  2.9476  1.9567  2.0361
 4683SOL    HW225686   0.827   3.620   3.805  1.2675 -2.0588  2.4029
 4684SOL     OW25687   2.163   4.688   6.992 -0.1736 -0.6653  0.2677
 4684SOL    HW125688   2.142   0.043   6.966  0.2654 -0.3101  1.1263
 4684SOL    HW225689   2.127   4.698   7.081  0.2013  0.0482  0.3415
 4685SOL     OW25690   1.177   0.725   6.685 -0.4631  0.0951 -0.0022
 4685SOL    HW125691   1.270   0.741   6.671 -0.3540 -1.4642 -1.0621
 4685SOL    HW225692   1.125   0.806   6.684 -1.0463 -0.2756  1.6301
 4686SOL     OW25693   3.498   0.063   3.711  0.3478 -0.4663  0.0826
 4686SOL    HW125694   3.459   0.052   3.624 -1.1259  1.9345  0.4523
 4686SOL    HW225695   3.541   4.712   3.715  1.5874  0.2251  1.6591
 4687SOL     OW25696   0.647   0.779  17.550 -0.5248  0.7428 -0.1442
 4687SOL    HW125697   0.678   0.858  17.507  1.8171 -0.3157 -0.4044
 4687SOL    HW225698   0.626   0.724  17.474  1.1929  0.9376 -0.7794
 4688SOL     OW25699   3.261   0.722   1.489 -0.2398 -0.3906  0.0817
 4688SOL    HW125700   3.181   0.697   1.534 -0.2609 -0.0472  0.2392
 4688SOL    HW225701   3.283   0.790   1.553 -1.9548 -0.7080  0.9760
 4689SOL     OW25702   0.736   0.717   4.289  0.0639 -0.1783 -0.0859
 4689SOL    HW125703   0.739   0.798   4.341 -2.7766  0.1128 -0.3784
 4689SOL    HW225704   0.818   0.675   4.315  0.4841  0.8136  0.2063
 4690SOL     OW25705   2.184   3.339  14.658 -0.6890  0.7657  0.3119
 4690SOL    HW125706   2.239   3.265  14.681 -2.3882  0.0893  2.2398
 4690SOL    HW225707   2.217   3.366  14.572  1.4389  0.4370  1.0465
 4691SOL     OW25708   0.657   0.957   2.945  0.5436  0.1286  0.3180
 4691SOL    HW125709   0.627   0.991   2.861 -0.0820  2.2926  1.4203
 4691SOL    HW225710   0.614   0.872   2.960 -1.2567  0.9747 -0.0690
 4692SOL     OW25711   4.431   0.010   1.254 -0.6336 -0.0582  0.1624
 4692SOL    HW125712   4.379   0.059   1.191  1.7085  2.3521  0.1550
 4692SOL    HW225713   4.369   4.716   1.321  0.3863  0.4907  1.3301
 4693SOL     OW25714   0.764   3.070   9.038 -0.2012  0.1370  0.5081
 4693SOL    HW125715   0.681   3.088   9.083 -0.5730  1.3194 -0.6402
 4693SOL    HW225716   0.795   2.986   9.071 -0.6361  0.1032  0.8284
 4694SOL     OW25717   1.606   3.931  15.833 -0.3111  0.0820 -0.0517
 4694SOL    HW125718   1.561   3.863  15.883 -1.2752  0.6490 -0.1374
 4694SOL    HW225719   1.646   3.877  15.764 -0.6479 -2.3029  1.6279
 4695SOL     OW25720   0.428   0.071   7.856  1.0057 -0.2893  0.4592
 4695SOL    HW125721   0.501   0.131   7.841  1.0126 -0.4062  0.0348
 4695SOL    HW225722   0.389   0.073   7.769  0.6359  2.3625  0.6950
 4696SOL     OW25723   3.049   2.514   7.158  0.1480 -0.0191 -0.3942
 4696SOL    HW125724   3.057   2.492   7.065 -5.0725 -2.8377 -0.1859
 4696SOL    HW225725   2.960   2.484   7.176 -0.5978  2.4701  0.0143
 4697SOL     OW25726   3.219   4.350   3.577 -0.0379  0.0682  0.3977
 4697SOL    HW125727   3.313   4.354   3.592 -0.0631 -0.3954  0.6690
 4697SOL    HW225728   3.207   4.415   3.507  3.1514 -1.0816 -1.2050
 4698SOL     OW25729   3.807   2.019   7.691  0.8829 -0.1417 -0.1088
 4698SOL    HW125730   3.849   2.094   7.649  0.2807 -0.8493 -1.9810
 4698SOL    HW225731   3.826   2.030   7.785  0.2360  1.0876 -0.1355
 4699SOL     OW25732   1.912   2.209  15.280  0.2144 -0.1278  0.3818
 4699SOL    HW125733   1.822   2.239  15.292 -0.3238 -1.0649 -1.3723
 4699SOL    HW225734   1.958   2.263  15.344 -0.5680  2.2401 -1.0694
 4700SOL     OW25735   3.874   2.662   5.474 -0.6741 -0.1170  0.2492
 4700SOL    HW125736   3.899   2.591   5.415 -0.0087  0.7098 -0.4580
 4700SOL    HW225737   3.793   2.699   5.439 -0.0929  1.3380  0.4445
 4701SOL     OW25738   0.045   2.226   4.305 -0.2557 -0.6054  0.0755
 4701SOL    HW125739   0.040   2.175   4.386  1.6033  0.1281  0.6593
 4701SOL    HW225740   4.724   2.297   4.337  0.6309 -0.0409  0.3875
 4702SOL     OW25741   4.452   2.098  15.651 -0.5690 -0.2490 -0.2527
 4702SOL    HW125742   4.459   2.022  15.593  1.3936 -0.0053 -0.3258
 4702SOL    HW225743   4.356   2.104  15.658 -0.7807 -1.4241 -2.0173
 4703SOL     OW25744   0.530   0.458  14.831 -0.2570 -0.5656 -0.5120
 4703SOL    HW125745   0.599   0.437  14.768  0.3064  0.2877 -0.1838
 4703SOL    HW225746   0.452   0.414  14.799 -1.0691 -1.1390  2.2079
 4704SOL     OW25747   1.871   3.246   6.830  0.4538  0.7121  0.2984
 4704SOL    HW125748   1.920   3.324   6.855 -0.2322  0.5247  2.2974
 4704SOL    HW225749   1.787   3.291   6.837  0.7539  1.1296  1.2699
 4705SOL     OW25750   0.664   3.178  16.604 -1.0655 -0.6311  0.2741
 4705SOL    HW125751   0.693   3.253  16.552  0.6347 -0.3396  1.6378
 4705SOL    HW225752   0.574   3.209  16.611 -0.6602  0.8813 -1.2784
 4706SOL     OW25753   1.068   3.541  13.677  0.0273  0.3818  0.4498
 4706SOL    HW125754   1.004   3.593  13.726  1.2842 -1.0581  3.5942
 4706SOL    HW225755   1.135   3.607  13.661 -0.1475 -0.4323 -3.7377
 4707SOL     OW25756   2.799   0.594   0.135  0.2413 -0.8285  0.2269
 4707SOL    HW125757   2.768   0.632   0.217 -0.6495  1.6914 -1.2658
 4707SOL    HW225758   2.866   0.658   0.113 -1.1088  0.8457  1.0068
 4708SOL     OW25759   4.625   3.732   8.906  0.4671 -0.0361  0.2663
 4708SOL    HW125760   4.605   3.825   8.895  0.1182 -0.0563  0.7259
 4708SOL    HW225761   4.692   3.722   8.838  0.4378  1.7371 -0.0244
 4709SOL     OW25762   1.776   3.055   2.585 -0.6250 -0.0521 -0.3869
 4709SOL    HW125763   1.849   3.062   2.523  0.4198  1.4486  1.0131
 4709SOL    HW225764   1.789   3.130   2.643 -0.9906 -0.5212  0.3006
 4710SOL     OW25765   4.146   2.754  11.263 -0.5029 -0.6073  0.0101
 4710SOL    HW125766   4.083   2.773  11.333  2.1735  0.1563  2.2165
 4710SOL    HW225767   4.148   2.659  11.276 -0.3898 -0.8345 -1.6409
 4711SOL     OW25768   2.850   1.864   7.371  0.1058 -0.1820 -0.2308
 4711SOL    HW125769   2.941   1.870   7.343  0.3842  0.7577  0.8905
 4711SOL    HW225770   2.806   1.855   7.286 -0.7968 -0.8694  0.3077
 4712SOL     OW25771   3.558   2.681   8.309  0.0951  0.7001 -0.4196
 4712SOL    HW125772   3.551   2.662   8.215 -0.8048  0.1662 -0.2415
 4712SOL    HW225773   3.632   2.741   8.302  1.4635 -0.8896  0.2431
 4713SOL     OW25774   4.330   2.772  17.599  0.5892 -0.1718 -0.6491
 4713SOL    HW125775   4.255   2.796  17.652 -0.9498  1.2496 -3.4729
 4713SOL    HW225776   4.295   2.777  17.510  2.2992 -0.1119 -1.3347
 4714SOL     OW25777   2.533   1.910  10.818 -0.0912  0.4115  0.5307
 4714SOL    HW125778   2.554   1.888  10.727 -0.7421 -0.3261  0.5559
 4714SOL    HW225779   2.612   1.952  10.850  1.2129  0.8788 -3.3055
 4715SOL     OW25780   0.371   0.844   3.131 -0.1770  0.1486  0.3362
 4715SOL    HW125781   0.358   0.889   3.047  1.4436  0.3027  0.1680
 4715SOL    HW225782   0.355   0.752   3.109 -1.6883  0.5199 -0.1116
 4716SOL     OW25783   0.663   2.062   4.418  0.1495 -0.1335  0.5367
 4716SOL    HW125784   0.605   2.005   4.368 -1.6771  1.1296  1.2392
 4716SOL    HW225785   0.641   2.045   4.509  0.4215 -1.6903  0.3179
 4717SOL     OW25786   1.351   3.114   1.911  0.4773  0.4464 -0.0277
 4717SOL    HW125787   1.272   3.071   1.946 -0.4223  1.2651 -1.0445
 4717SOL    HW225788   1.390   3.157   1.987  1.4733 -3.0675  1.4716
 4718SOL     OW25789   3.580   0.023   3.248 -0.3450 -0.2440 -0.2462
 4718SOL    HW125790   3.524   0.039   3.172  0.1015 -0.4023 -0.6033
 4718SOL    HW225791   3.643   4.694   3.215  0.5367 -0.6829  2.2514
 4719SOL     OW25792   3.544   2.589   5.622 -0.0305  0.0307  0.7393
 4719SOL    HW125793   3.594   2.566   5.700  2.2004  0.4194 -0.6044
 4719SOL    HW225794   3.584   2.675   5.615 -1.1183  0.5239  0.4787
 4720SOL     OW25795   3.239   4.064   5.541 -0.1655  0.3552 -0.4706
 4720SOL    HW125796   3.252   3.999   5.472 -1.0216 -1.4985  1.1128
 4720SOL    HW225797   3.143   4.056   5.541 -0.3538  2.5622  0.1332
 4721SOL     OW25798   2.610   4.101   9.845 -0.6133  0.6024  0.5805
 4721SOL    HW125799   2.650   4.127   9.929 -0.6055  0.0771  0.7378
 4721SOL    HW225800   2.582   4.018   9.883  0.5189 -0.1730 -0.3016
 4722SOL     OW25801   4.718   3.477  12.329 -0.0800 -0.8403  0.2457
 4722SOL    HW125802   0.043   3.438  12.265  0.6574 -0.6879  0.8340
 4722SOL    HW225803   0.045   3.526  12.383 -1.9193  2.1240 -0.3680
 4723SOL     OW25804   0.192   0.913   3.934  0.2908  0.0305  0.1927
 4723SOL    HW125805   0.246   0.926   4.012  0.1943  3.1575 -0.2750
 4723SOL    HW225806   0.260   0.940   3.872  0.2016  0.4403  0.2733
 4724SOL     OW25807   1.555   2.797   8.487 -0.1985  0.0337 -0.4463
 4724SOL    HW125808   1.488   2.755   8.432  0.1280  0.1887 -0.9602
 4724SOL    HW225809   1.604   2.719   8.514 -1.7183 -0.2393  1.5680
 4725SOL     OW25810   3.871   0.176   3.263  0.2572  0.2379 -0.0506
 4725SOL    HW125811   3.884   0.194   3.356 -0.5200  0.5732  0.0005
 4725SOL    HW225812   3.797   0.115   3.266 -1.1373  1.9741  0.6768
 4726SOL     OW25813   4.146   3.750   6.663  0.4852 -0.1223  0.0638
 4726SOL    HW125814   4.179   3.706   6.741  0.3049 -0.2492  0.0663
 4726SOL    HW225815   4.226   3.774   6.615  0.1437 -1.1906 -1.0401
 4727SOL     OW25816   2.641   4.369   6.325 -0.1633 -0.1876  0.2990
 4727SOL    HW125817   2.592   4.288   6.310  0.8616 -0.8008  0.2270
 4727SOL    HW225818   2.688   4.345   6.405  0.9718  1.1807  0.0497
 4728SOL     OW25819   0.214   1.534  13.268 -0.6805  0.4516 -0.1847
 4728SOL    HW125820   0.158   1.587  13.212 -0.5559 -0.9212 -1.6176
 4728SOL    HW225821   0.149   1.517  13.337 -0.8479 -1.6729 -0.8373
 4729SOL     OW25822   2.498   0.844   2.415  0.0566 -0.4260 -0.3793
 4729SOL    HW125823   2.580   0.814   2.377  1.1344  3.1531 -0.9064
 4729SOL    HW225824   2.433   0.824   2.347  1.9558 -0.5239 -2.1790
 4730SOL     OW25825   3.693   2.425   0.062 -0.0871  0.5065  0.2123
 4730SOL    HW125826   3.728   2.480  17.728 -0.0774 -0.0367 -0.2160
 4730SOL    HW225827   3.656   2.491   0.121  0.3375 -1.5275  2.7511
 4731SOL     OW25828   2.891   1.817   1.554  0.1727 -0.3606 -0.1190
 4731SOL    HW125829   2.807   1.813   1.599  0.7979  0.2354  1.1201
 4731SOL    HW225830   2.905   1.723   1.544  2.6881  0.1143 -1.3178
 4732SOL     OW25831   3.778   1.762   7.145 -0.1135 -0.1815 -0.3554
 4732SOL    HW125832   3.844   1.698   7.170 -1.1340 -0.3199  2.0127
 4732SOL    HW225833   3.722   1.718   7.081 -1.4643  0.2694  0.5246
 4733SOL     OW25834   2.363   3.921   6.589  0.0898 -0.4381  0.5764
 4733SOL    HW125835   2.361   4.009   6.624  0.7842 -0.1234 -0.1805
 4733SOL    HW225836   2.435   3.925   6.527  0.7618 -0.1143  1.3884
 4734SOL     OW25837   2.823   3.996  13.219  0.5270 -0.0668  0.2714
 4734SOL    HW125838   2.744   3.943  13.221  1.1187 -1.0214 -1.0974
 4734SOL    HW225839   2.827   4.020  13.311  0.9739  1.0647 -0.0440
 4735SOL     OW25840   4.315   2.541  11.643  0.4458 -0.3272 -0.8909
 4735SOL    HW125841   4.404   2.515  11.669 -0.6328  1.4658  4.6324
 4735SOL    HW225842   4.328   2.605  11.574 -0.5189 -1.3807 -2.0326
 4736SOL     OW25843   3.230   3.449   5.485  0.4307 -0.4025  0.4287
 4736SOL    HW125844   3.273   3.406   5.410  0.7638  1.1030 -0.2382
 4736SOL    HW225845   3.177   3.383   5.530  0.5882 -3.5325 -3.9207
 4737SOL     OW25846   4.413   2.982   1.642  0.1835  0.0590  0.6778
 4737SOL    HW125847   4.342   3.004   1.581 -0.3958 -2.4467  0.4585
 4737SOL    HW225848   4.361   2.964   1.720  0.5863  0.8334  1.1267
 4738SOL     OW25849   2.823   2.995   4.259 -0.2350 -0.6896  0.4130
 4738SOL    HW125850   2.914   3.017   4.238 -0.0983  0.3777  2.0875
 4738SOL    HW225851   2.833   2.908   4.298 -0.1666  0.0308  2.0099
 4739SOL     OW25852   1.764   2.862  17.022  0.7144  0.1527 -0.5786
 4739SOL    HW125853   1.743   2.786  17.076  0.8664 -0.5481 -1.5040
 4739SOL    HW225854   1.828   2.828  16.960  1.8321 -0.5305  0.9478
 4740SOL     OW25855   0.171   0.882   8.084  0.2413  0.0999  0.1113
 4740SOL    HW125856   0.244   0.838   8.041  0.4101  0.6234 -0.1366
 4740SOL    HW225857   0.106   0.811   8.083 -0.5515  0.8504 -1.7152
 4741SOL     OW25858   3.754   4.101   1.169  0.1680 -0.0185  0.2197
 4741SOL    HW125859   3.831   4.061   1.129  0.2644  0.2285  0.1577
 4741SOL    HW225860   3.707   4.032   1.216  2.6160 -1.0252  1.1658
 4742SOL     OW25861   3.293   4.575   2.863 -0.0574 -0.4323 -0.7055
 4742SOL    HW125862   3.239   4.568   2.784 -0.6224  2.4941 -0.5912
 4742SOL    HW225863   3.307   4.484   2.890 -2.5674 -1.3806 -2.5625
 4743SOL     OW25864   1.421   0.998   0.653  0.2672  0.4535  0.3359
 4743SOL    HW125865   1.353   0.982   0.718  0.0926 -0.5286 -0.0940
 4743SOL    HW225866   1.396   1.086   0.625 -2.6275 -0.1364  1.1040
 4744SOL     OW25867   1.612   2.363   6.499  0.0028 -0.1013  0.2357
 4744SOL    HW125868   1.539   2.315   6.538 -0.5576  1.8148  1.5713
 4744SOL    HW225869   1.599   2.362   6.405 -0.8967 -0.4015  0.3572
 4745SOL     OW25870   4.497   4.726   0.842  0.2317  0.0856  0.5915
 4745SOL    HW125871   4.424   4.682   0.885  0.0970 -0.2969 -0.0236
 4745SOL    HW225872   4.487   0.077   0.884  2.7258  1.6035 -1.9343
 4746SOL     OW25873   1.506   3.647   9.210  0.6394 -0.5248  0.4278
 4746SOL    HW125874   1.602   3.656   9.208  0.6286 -0.3623  0.5896
 4746SOL    HW225875   1.506   3.555   9.183  0.5401 -0.7203  1.1126
 4747SOL     OW25876   4.569   2.359   8.058  0.0333  0.3519  0.4147
 4747SOL    HW125877   4.521   2.310   7.992 -2.7438  0.6690  2.1993
 4747SOL    HW225878   4.645   2.386   8.006  1.2136  0.8962  2.3996
 4748SOL     OW25879   1.820   1.259   7.622  0.2325  0.0129 -0.3376
 4748SOL    HW125880   1.790   1.191   7.562  0.2187  0.5127 -0.9031
 4748SOL    HW225881   1.898   1.292   7.577  2.8252 -1.3428  3.1313
 4749SOL     OW25882   2.868   0.316   6.351  0.4308 -0.0550  0.2064
 4749SOL    HW125883   2.866   0.325   6.446 -0.1858 -2.8723  0.4662
 4749SOL    HW225884   2.857   0.408   6.331  0.4407  0.1863  1.2957
 4750SOL     OW25885   0.909   4.439   0.032 -0.4370  0.0042 -0.3966
 4750SOL    HW125886   0.950   4.413  17.686 -2.7557  0.9270 -1.8399
 4750SOL    HW225887   0.987   4.487   0.058 -0.0928 -0.4368 -0.6276
 4751SOL     OW25888   4.093   0.810  17.202  0.1501 -0.5545  0.2804
 4751SOL    HW125889   4.014   0.786  17.153 -0.1289 -0.6907  0.8031
 4751SOL    HW225890   4.086   0.746  17.272  0.7185 -0.4117  0.4709
 4752SOL     OW25891   2.755   2.352   0.662 -0.0023 -0.1343 -0.3229
 4752SOL    HW125892   2.805   2.337   0.742 -0.1876  1.5017  0.1145
 4752SOL    HW225893   2.793   2.439   0.648 -0.2020  0.3975  2.3826
 4753SOL     OW25894   4.580   1.908  12.823  0.0955 -0.4518 -0.2730
 4753SOL    HW125895   4.495   1.906  12.867  1.1345 -0.3696  1.7551
 4753SOL    HW225896   4.623   1.980  12.869  0.0134  0.6464 -1.8933
 4754SOL     OW25897   4.601   0.577   5.281 -0.5148 -0.1505 -0.6594
 4754SOL    HW125898   4.615   0.590   5.187 -0.6111  1.1563 -0.4853
 4754SOL    HW225899   4.656   0.647   5.315 -0.7395 -0.7824  1.0152
 4755SOL     OW25900   3.242   3.881   5.319  0.3350 -0.4512  0.0313
 4755SOL    HW125901   3.256   3.800   5.270 -0.3278  1.9137 -4.0873
 4755SOL    HW225902   3.167   3.921   5.275 -0.2706  0.5137  1.9005
 4756SOL     OW25903   0.905   1.082   8.886 -0.1244 -0.0199 -0.0826
 4756SOL    HW125904   0.930   1.037   8.805  0.0220 -0.5452  0.2513
 4756SOL    HW225905   0.828   1.029   8.905 -1.3306  2.2925  1.3962
 4757SOL     OW25906   3.036   4.508   9.088 -0.7414  0.0635 -0.3506
 4757SOL    HW125907   3.064   4.439   9.147  2.1410  1.1398 -0.4918
 4757SOL    HW225908   3.077   4.476   9.008 -1.0524  0.0855 -0.5200
 4758SOL     OW25909   1.300   1.686   3.635  0.3280 -0.3142 -0.0135
 4758SOL    HW125910   1.208   1.700   3.655 -0.0725 -2.1506 -0.5716
 4758SOL    HW225911   1.302   1.661   3.543 -0.4042  0.1870 -0.1611
 4759SOL     OW25912   2.479   2.254   1.134 -0.1080  0.0804  0.6665
 4759SOL    HW125913   2.571   2.258   1.162  0.6504 -2.9753 -1.4152
 4759SOL    HW225914   2.494   2.250   1.039 -0.9689 -0.6194  0.5712
 4760SOL     OW25915   4.226   4.692   1.440  0.1323 -0.2866 -0.0776
 4760SOL    HW125916   4.167   4.725   1.508  0.9926 -0.0022  0.5391
 4760SOL    HW225917   4.156   4.661   1.383  0.5370  1.2007 -1.3789
 4761SOL     OW25918   2.704   2.678   7.098 -0.5432 -0.1230 -0.1359
 4761SOL    HW125919   2.716   2.663   7.004 -0.9008 -0.8084 -0.0662
 4761SOL    HW225920   2.771   2.612   7.119 -1.9839 -1.1214  1.2591
 4762SOL     OW25921   0.855   1.742   6.637  0.8221 -0.0143  0.7915
 4762SOL    HW125922   0.829   1.822   6.684 -0.0028 -0.1946  0.6413
 4762SOL    HW225923   0.896   1.778   6.558 -0.4835  0.7871  0.4688
 4763SOL     OW25924   0.452   2.652   6.084  0.0795  0.7577 -0.3009
 4763SOL    HW125925   0.530   2.681   6.131 -0.7730  1.9761  0.3486
 4763SOL    HW225926   0.490   2.600   6.013 -0.1850  0.9898 -0.6151
 4764SOL     OW25927   1.700   4.405  11.701 -0.1895 -0.4354 -0.2605
 4764SOL    HW125928   1.608   4.378  11.706 -0.1728 -0.7041 -1.3220
 4764SOL    HW225929   1.735   4.378  11.616 -0.5200 -1.7630  0.0276
 4765SOL     OW25930   2.898   0.721   5.137  0.4917  0.1444 -0.3335
 4765SOL    HW125931   2.829   0.760   5.190  0.5984  0.3570 -0.3531
 4765SOL    HW225932   2.885   0.764   5.053 -1.4555 -0.9220 -0.5812
 4766SOL     OW25933   0.595   2.838   2.432  0.1640 -0.3511 -0.0449
 4766SOL    HW125934   0.668   2.783   2.463 -0.5805 -0.9762  0.6031
 4766SOL    HW225935   0.582   2.887   2.512 -1.0174  0.4585 -0.7361
 4767SOL     OW25936   0.968   4.437  11.236  0.1129  0.2346 -0.3676
 4767SOL    HW125937   0.960   4.517  11.185  0.3771  0.7184  0.3420
 4767SOL    HW225938   1.063   4.430  11.245  0.2808  0.2029 -2.2573
 4768SOL     OW25939   3.247   3.158   4.671 -0.0453 -0.4264  0.1342
 4768SOL    HW125940   3.200   3.084   4.710 -2.6863  1.3028  0.2660
 4768SOL    HW225941   3.326   3.112   4.644 -0.3205 -1.0969  0.4440
 4769SOL     OW25942   2.168   0.612   2.909  0.5770  0.1673  0.4784
 4769SOL    HW125943   2.258   0.625   2.882 -0.1064  0.7523 -1.5300
 4769SOL    HW225944   2.117   0.670   2.852  1.3422  1.2598  0.9182
 4770SOL     OW25945   4.729   2.892   8.374  0.2987 -0.1282 -0.5153
 4770SOL    HW125946   0.050   2.868   8.300  0.8104 -0.2842 -0.0780
 4770SOL    HW225947   0.059   2.880   8.444  1.4018 -1.0296 -1.7070
 4771SOL     OW25948   3.415   4.272   6.921 -0.4635 -0.5032 -0.6413
 4771SOL    HW125949   3.392   4.259   6.829  1.3759  2.0171 -1.4880
 4771SOL    HW225950   3.410   4.367   6.933 -0.6582 -0.6995  0.7555
 4772SOL     OW25951   1.873   3.884   6.878 -0.2584  0.0716  0.3738
 4772SOL    HW125952   1.883   3.814   6.814 -0.6397 -0.1143  0.5139
 4772SOL    HW225953   1.795   3.928   6.843  0.6249  0.7337 -0.7876
 4773SOL     OW25954   4.013   2.923  14.400  0.6231 -0.0921  0.4077
 4773SOL    HW125955   4.074   2.856  14.429 -1.0662 -0.6436  2.6323
 4773SOL    HW225956   4.034   2.926  14.306  0.8605 -0.2692  0.4557
 4774SOL     OW25957   0.093   1.810  12.664  0.4970  0.3487  0.3872
 4774SOL    HW125958   0.154   1.853  12.725 -0.0487 -0.3126  1.3956
 4774SOL    HW225959   0.004   1.804  12.699  0.7619  1.5077  1.2567
 4775SOL     OW25960   0.578   2.704  11.131 -0.5669  0.0940 -0.0912
 4775SOL    HW125961   0.651   2.690  11.191 -1.4815  0.5021  1.1197
 4775SOL    HW225962   0.579   2.628  11.073  3.0769  0.2796 -0.2510
 4776SOL     OW25963   1.193   4.480   3.916  0.1864  0.0804  0.8072
 4776SOL    HW125964   1.125   4.515   3.859 -0.2273 -0.3867  1.0173
 4776SOL    HW225965   1.248   4.447   3.845  3.2384  0.3763  3.0252
 4777SOL     OW25966   2.188   2.339   2.222  0.3532  0.0934  0.7001
 4777SOL    HW125967   2.212   2.265   2.166 -3.4176 -0.0326 -0.7172
 4777SOL    HW225968   2.127   2.382   2.162 -2.3897 -0.2011  3.2833
 4778SOL     OW25969   4.136   0.945   1.926  0.1841 -0.4682 -0.3305
 4778SOL    HW125970   4.182   1.012   1.876 -1.3529  1.1735  0.4803
 4778SOL    HW225971   4.066   0.913   1.868  0.5443 -1.2438 -0.3394
 4779SOL     OW25972   1.140   3.201   5.313  0.1434  0.1791  0.6944
 4779SOL    HW125973   1.180   3.230   5.231 -0.6775 -3.4925 -1.0420
 4779SOL    HW225974   1.220   3.172   5.357 -0.1360  2.1474  2.4612
 4780SOL     OW25975   1.476   1.645   9.062 -0.1094  0.0939 -0.1956
 4780SOL    HW125976   1.432   1.725   9.034 -1.7403 -0.9665 -0.6451
 4780SOL    HW225977   1.414   1.617   9.128  1.0255  1.0845  1.2942
 4781SOL     OW25978   1.854   1.621   7.708  0.0712 -0.5857  0.4320
 4781SOL    HW125979   1.809   1.620   7.624  1.8046 -0.3126 -0.5038
 4781SOL    HW225980   1.900   1.537   7.706 -1.1383 -1.3059  2.7175
 4782SOL     OW25981   3.666   3.495   1.974 -0.0583 -0.0723  0.0264
 4782SOL    HW125982   3.645   3.527   1.886  0.3999 -2.2745 -0.8840
 4782SOL    HW225983   3.651   3.400   1.972 -1.4056  0.1048  2.9702
 4783SOL     OW25984   1.601   1.366   7.198  0.2277  0.1484  0.3443
 4783SOL    HW125985   1.681   1.316   7.177 -0.3012 -0.7696  0.5063
 4783SOL    HW225986   1.538   1.343   7.130  0.4136 -0.3923  0.3528
 4784SOL     OW25987   2.465   0.821   6.808  0.1315  0.1640 -0.2789
 4784SOL    HW125988   2.403   0.881   6.849 -0.4159  0.1709 -1.1198
 4784SOL    HW225989   2.516   0.876   6.749  1.7498 -0.5716  0.4428
 4785SOL     OW25990   4.004   0.825   0.406 -0.2571  0.2520  0.0140
 4785SOL    HW125991   4.080   0.829   0.348  1.4488  0.0370  2.2568
 4785SOL    HW225992   3.978   0.917   0.399 -0.0104  0.3873  0.9824
 4786SOL     OW25993   1.322   0.895   3.404 -0.2048 -0.2106 -0.4189
 4786SOL    HW125994   1.376   0.849   3.468 -1.9757 -1.2498  0.3280
 4786SOL    HW225995   1.232   0.878   3.430 -0.0287  1.0565  1.0587
 4787SOL     OW25996   2.960   1.341  13.470 -0.4349  0.0500 -0.0992
 4787SOL    HW125997   2.867   1.362  13.475 -0.1533  1.7860 -2.1247
 4787SOL    HW225998   2.996   1.426  13.494  2.4579 -0.8663 -1.1575
 4788SOL     OW25999   0.754   3.602  13.765 -0.8108 -0.2338 -0.1555
 4788SOL    HW126000   0.702   3.675  13.731  0.6183  0.0740 -1.6951
 4788SOL    HW226001   0.699   3.579  13.840  2.1225  0.6494  2.3248
 4789SOL     OW26002   1.558   3.761   6.335  0.0088  0.5175 -0.4318
 4789SOL    HW126003   1.529   3.766   6.244 -0.8802 -0.8860 -0.2416
 4789SOL    HW226004   1.589   3.671   6.345  0.4437  0.9447  2.1235
 4790SOL     OW26005   1.012   2.111   2.865 -0.1216  0.2399 -0.2185
 4790SOL    HW126006   0.990   2.019   2.847  1.9875 -0.2466 -0.2957
 4790SOL    HW226007   0.952   2.159   2.808  1.1102  2.5334  0.4498
 4791SOL     OW26008   3.778   2.782   2.805  0.1786 -0.0356 -0.1049
 4791SOL    HW126009   3.683   2.770   2.805  0.1753  0.2542  3.8548
 4791SOL    HW226010   3.783   2.781   2.709  0.0161  2.7044 -0.1460
 4792SOL     OW26011   4.540   1.284  10.826  0.6796  0.0271  0.1448
 4792SOL    HW126012   4.465   1.260  10.880  0.2492  0.9095 -0.0522
 4792SOL    HW226013   4.580   1.199  10.811 -0.7499 -0.5929 -0.1438
 4793SOL     OW26014   0.512   0.201   7.433  0.7191  0.3691 -0.8957
 4793SOL    HW126015   0.585   0.187   7.374  0.5076 -3.9378 -0.1117
 4793SOL    HW226016   0.469   0.278   7.395  1.0215  1.0570  0.1491
 4794SOL     OW26017   3.217   4.603  10.403 -0.3854 -0.0713 -0.1053
 4794SOL    HW126018   3.199   4.599  10.497  0.3675  1.1753  0.0922
 4794SOL    HW226019   3.311   4.589  10.404 -0.3803  0.1386  2.0583
 4795SOL     OW26020   4.654   1.558   9.067 -0.2543  0.6654 -0.3880
 4795SOL    HW126021   4.567   1.574   9.032  0.4531 -0.4040 -2.6309
 4795SOL    HW226022   4.709   1.575   8.990 -0.0394 -0.7828 -0.5493
 4796SOL     OW26023   3.294   0.707   4.538  0.2412 -0.2254  0.1014
 4796SOL    HW126024   3.204   0.676   4.553  0.0248 -0.3361 -1.4022
 4796SOL    HW226025   3.298   0.729   4.445  0.6333  0.9412  0.3921
 4797SOL     OW26026   1.483   1.598   4.178 -0.6060  0.3888 -0.2830
 4797SOL    HW126027   1.554   1.535   4.162 -1.0501  0.2662 -1.7905
 4797SOL    HW226028   1.402   1.548   4.192 -0.5875  0.0302 -1.4097
 4798SOL     OW26029   2.581   0.510  17.539  0.1479  0.2333 -0.3045
 4798SOL    HW126030   2.595   0.476  17.450  1.9370 -0.2298  0.1551
 4798SOL    HW226031   2.547   0.597  17.520 -1.3264  0.1770  2.1785
 4799SOL     OW26032   0.284   4.634   3.677 -0.0515 -0.3152  0.3023
 4799SOL    HW126033   0.325   4.682   3.605  1.5515  0.5712  1.7981
 4799SOL    HW226034   0.226   4.698   3.718  1.0833 -0.2493  1.8110
 4800SOL     OW26035   4.482   4.470   6.070  0.5750 -0.3621 -0.3081
 4800SOL    HW126036   4.396   4.506   6.048  0.3105 -0.1518  1.0798
 4800SOL    HW226037   4.455   4.380   6.091  0.5523  0.3602  2.7361
 4801SOL     OW26038   2.693   2.041   7.529  0.0270 -0.0659 -0.7179
 4801SOL    HW126039   2.607   2.051   7.488  1.3989  1.3373 -3.2695
 4801SOL    HW226040   2.725   1.973   7.470  1.1677  0.7075 -0.9883
 4802SOL     OW26041   2.433   4.520   2.442 -0.0028 -0.1347 -0.5420
 4802SOL    HW126042   2.388   4.536   2.525 -1.6941  2.1750 -1.8779
 4802SOL    HW226043   2.473   4.605   2.422  0.9220 -0.5414 -0.3833
 4803SOL     OW26044   3.010   2.209   2.632  0.4312  0.3321  0.3742
 4803SOL    HW126045   2.987   2.302   2.636 -0.0502  0.2276 -0.0276
 4803SOL    HW226046   3.080   2.209   2.567  0.1002 -0.2780  0.0244
 4804SOL     OW26047   1.896   3.716  10.774  0.0066 -0.2534 -0.0513
 4804SOL    HW126048   1.843   3.642  10.744 -0.1593 -0.6695  1.2264
 4804SOL    HW226049   1.970   3.667  10.812  1.2911  1.1703 -0.7550
 4805SOL     OW26050   1.672   0.229   9.400 -0.2778  0.0003  0.2767
 4805SOL    HW126051   1.641   0.181   9.323 -0.0710  1.1685 -0.5266
 4805SOL    HW226052   1.729   0.167   9.446  1.7427  1.5375 -0.1645
 4806SOL     OW26053   3.238   0.313   2.294 -0.1917  0.0100  0.8131
 4806SOL    HW126054   3.151   0.279   2.274  0.6148 -1.7269  0.2200
 4806SOL    HW226055   3.258   0.365   2.217 -0.3330 -1.8462 -0.4809
 4807SOL     OW26056   2.221   3.191   1.987 -0.7402 -0.2936  0.0919
 4807SOL    HW126057   2.168   3.261   1.949 -1.8974 -0.1857  1.8714
 4807SOL    HW226058   2.199   3.117   1.930 -1.5652  0.2133 -0.2463
 4808SOL     OW26059   3.041   0.804   9.910 -0.5052 -0.5985  0.4393
 4808SOL    HW126060   3.097   0.737   9.871  2.2535  2.2682 -0.5291
 4808SOL    HW226061   2.978   0.819   9.839 -0.2660  0.5775  0.4657
 4809SOL     OW26062   1.884   4.187  11.882  0.0311 -0.1613  0.1026
 4809SOL    HW126063   1.813   4.194  11.818 -0.1014  1.1402  0.4043
 4809SOL    HW226064   1.894   4.093  11.900 -0.3990 -0.5320 -1.5593
 4810SOL     OW26065   2.248   0.396  15.710 -0.0323 -0.3388  0.8425
 4810SOL    HW126066   2.309   0.468  15.728 -1.4065  0.9152  0.4320
 4810SOL    HW226067   2.281   0.338  15.779  1.0201 -1.6443 -0.7616
 4811SOL     OW26068   0.184   3.554   8.544 -0.7474 -0.3706 -0.0861
 4811SOL    HW126069   0.278   3.570   8.541 -0.9683  1.0502  0.9803
 4811SOL    HW226070   0.157   3.618   8.609 -0.6571  1.0070 -1.4078
 4812SOL     OW26071   3.723   4.727   2.849  0.0389  0.2510  0.6617
 4812SOL    HW126072   3.680   4.731   2.763  0.0347  2.5409  0.7844
 4812SOL    HW226073   3.795   0.055   2.840 -1.4334  1.9500  0.6927
 4813SOL     OW26074   0.100   0.722   4.322 -0.3344  0.1199 -0.4039
 4813SOL    HW126075   0.014   0.688   4.296 -0.5765  1.0874 -0.8417
 4813SOL    HW226076   0.156   0.672   4.263  3.4392  0.8699  2.5124
 4814SOL     OW26077   3.876   4.535   5.311  0.0938  0.3902  0.4061
 4814SOL    HW126078   3.826   4.614   5.288 -2.7061 -1.0753  1.5235
 4814SOL    HW226079   3.965   4.570   5.313  0.3823 -0.3672  0.6755
 4815SOL     OW26080   4.587   2.185   9.892 -0.4119  0.5232  1.4994
 4815SOL    HW126081   4.502   2.157   9.928 -1.2630  0.0111 -0.9472
 4815SOL    HW226082   4.565   2.215   9.804  1.1897 -0.5401  0.7412
 4816SOL     OW26083   3.531   0.945   6.555 -0.1954 -0.3066  0.5981
 4816SOL    HW126084   3.607   0.909   6.602 -0.4874  2.4586  3.2056
 4816SOL    HW226085   3.486   0.869   6.519 -1.6121  0.8630 -0.1013
 4817SOL     OW26086   0.410   0.464   7.729  0.0526 -0.4066 -0.1172
 4817SOL    HW126087   0.453   0.379   7.731 -1.0164 -0.9623 -1.3951
 4817SOL    HW226088   0.499   0.502   7.732 -0.2639  0.3646 -0.3391
 4818SOL     OW26089   4.658   3.606   4.480 -0.1559 -0.8698 -0.2777
 4818SOL    HW126090   4.718   3.531   4.485 -0.7969 -1.3154  0.5732
 4818SOL    HW226091   4.636   3.602   4.573  2.0500  2.9454  0.4122
 4819SOL     OW26092   2.058   2.589   4.959 -0.4123  0.8484 -0.8621
 4819SOL    HW126093   2.072   2.528   5.031 -2.9832 -1.0355 -1.9611
 4819SOL    HW226094   2.039   2.525   4.890 -2.4508 -1.0428  1.4611
 4820SOL     OW26095   2.178   2.967   3.926  0.0866 -0.4683 -0.4639
 4820SOL    HW126096   2.082   2.971   3.927  0.0670 -1.0223 -0.3940
 4820SOL    HW226097   2.204   3.059   3.927 -0.6598 -0.2451 -1.2495
 4821SOL     OW26098   3.723   0.734   5.636 -0.2067 -0.3600 -0.4362
 4821SOL    HW126099   3.666   0.811   5.634 -2.7615 -2.2557 -0.4761
 4821SOL    HW226100   3.707   0.709   5.546 -1.1230  1.1455 -0.6843
 4822SOL     OW26101   0.212   0.175   8.407  0.1570 -0.3929 -0.0932
 4822SOL    HW126102   0.289   0.231   8.396 -1.0746  1.6087  1.4291
 4822SOL    HW226103   0.167   0.223   8.477  1.0878 -0.2582  0.4172
 4823SOL     OW26104   0.538   1.346   1.800  0.2110 -0.3007 -0.0041
 4823SOL    HW126105   0.542   1.305   1.714 -1.6468 -3.1393  1.2660
 4823SOL    HW226106   0.549   1.269   1.856  2.3433 -1.9866 -2.7782
 4824SOL     OW26107   4.415   4.361   6.371  0.1756  0.6638  0.2025
 4824SOL    HW126108   4.378   4.449   6.376 -0.2055  0.5612 -0.8545
 4824SOL    HW226109   4.506   4.380   6.390 -0.1787  1.3362  1.2217
 4825SOL     OW26110   4.401   2.611  15.070  0.3537 -0.1283  0.0093
 4825SOL    HW126111   4.414   2.678  15.138  0.0856 -1.3026  1.2103
 4825SOL    HW226112   4.306   2.606  15.057  0.3218 -2.2536  1.1277
 4826SOL     OW26113   0.037   1.136  15.605  0.7284 -0.2503  0.0122
 4826SOL    HW126114   0.052   1.116  15.512 -1.3600 -0.8934 -0.1854
 4826SOL    HW226115   0.108   1.200  15.616  0.9740 -0.7640  1.3495
 4827SOL     OW26116   2.729   2.349   7.871 -0.0361 -0.4243 -0.0214
 4827SOL    HW126117   2.755   2.303   7.791  0.9543  2.1375 -1.1582
 4827SOL    HW226118   2.802   2.407   7.891  0.6255 -1.7703  1.5160
 4828SOL     OW26119   1.184   0.125   6.800  0.1681 -0.2538 -0.0089
 4828SOL    HW126120   1.204   0.134   6.707  1.4362  0.0118  0.2900
 4828SOL    HW226121   1.135   0.203   6.826 -0.2844 -0.0690 -1.4132
 4829SOL     OW26122   4.105   3.498   4.534  0.3058  0.2725  0.6694
 4829SOL    HW126123   4.160   3.444   4.592  0.9174 -2.0749 -2.1187
 4829SOL    HW226124   4.166   3.563   4.498 -0.7636  1.1974  0.5463
 4830SOL     OW26125   3.776   3.740   2.983 -0.0549 -0.2460  0.5358
 4830SOL    HW126126   3.722   3.812   2.949  0.9159  0.7221  1.0204
 4830SOL    HW226127   3.794   3.678   2.913 -1.4611 -0.9716  0.8216
 4831SOL     OW26128   2.236   2.584   7.289 -0.0507  0.1499 -0.7458
 4831SOL    HW126129   2.165   2.647   7.300  0.2968  0.1512  1.5142
 4831SOL    HW226130   2.231   2.537   7.372  0.0333 -0.1575 -0.9153
 4832SOL     OW26131   3.244   1.991  14.701  0.1350 -0.1145 -0.0265
 4832SOL    HW126132   3.247   1.897  14.722 -1.1862  0.1768  1.4781
 4832SOL    HW226133   3.174   1.992  14.636 -1.1697 -2.6078  1.3195
 4833SOL     OW26134   2.261   3.154   5.203 -0.0366  1.0692 -0.1680
 4833SOL    HW126135   2.286   3.095   5.132  0.5161  0.8596  0.2009
 4833SOL    HW226136   2.173   3.130   5.231  0.9090 -1.3921  0.6389
 4834SOL     OW26137   0.305   4.115   9.225 -0.1924 -0.2270 -0.3076
 4834SOL    HW126138   0.347   4.163   9.296 -1.2419 -0.1143  0.2358
 4834SOL    HW226139   0.216   4.112   9.260  0.3844  0.3126  1.1951
 4835SOL     OW26140   2.294   4.341   1.455  0.2455  0.0158  0.6836
 4835SOL    HW126141   2.315   4.421   1.408 -1.3587  0.9109  1.4628
 4835SOL    HW226142   2.226   4.303   1.400  2.0198 -0.3411 -1.2311
 4836SOL     OW26143   2.659   4.429   6.068 -0.0772 -0.3788  0.1912
 4836SOL    HW126144   2.686   4.407   6.157  1.4584 -1.9341 -0.6623
 4836SOL    HW226145   2.654   4.524   6.079 -2.4628 -0.6255  1.1209
 4837SOL     OW26146   1.113   1.370   4.649 -0.6289 -0.0466  0.7451
 4837SOL    HW126147   1.078   1.459   4.646  0.4303  0.3914  1.3560
 4837SOL    HW226148   1.153   1.371   4.736  1.5446  1.2798 -0.2793
 4838SOL     OW26149   3.279   1.073   7.142  0.3190  0.8566  0.8556
 4838SOL    HW126150   3.307   1.004   7.201  1.0477  1.4884  1.2565
 4838SOL    HW226151   3.258   1.145   7.202 -2.2280  0.0087  0.9503
 4839SOL     OW26152   0.597   1.472   5.189 -0.0397 -0.7733  0.2790
 4839SOL    HW126153   0.629   1.504   5.273  5.4652  0.2981 -2.2675
 4839SOL    HW226154   0.603   1.545   5.128  2.1258 -0.1769  1.2046
 4840SOL     OW26155   0.645   0.745   8.708  0.0325  0.1540  0.2173
 4840SOL    HW126156   0.567   0.725   8.760 -0.3836 -0.4718 -0.6484
 4840SOL    HW226157   0.687   0.813   8.760  0.0239  0.9105 -0.7555
 4841SOL     OW26158   2.909   1.932   4.552 -0.3854 -0.0300 -0.1904
 4841SOL    HW126159   2.858   1.966   4.626  0.5079  1.3657 -0.2126
 4841SOL    HW226160   2.951   1.863   4.603  1.5975  2.1197  1.0440
 4842SOL     OW26161   3.198   3.840   2.337 -0.6343 -0.1099 -0.2574
 4842SOL    HW126162   3.211   3.918   2.390 -2.1025  0.4825 -0.7491
 4842SOL    HW226163   3.182   3.874   2.249  1.3847 -2.1782 -1.4175
 4843SOL     OW26164   1.249   1.393   4.302 -0.4839  0.3587  0.0119
 4843SOL    HW126165   1.255   1.305   4.339  2.1029 -0.2729 -1.9366
 4843SOL    HW226166   1.235   1.381   4.209  0.5255  0.4760 -0.1568
 4844SOL     OW26167   0.249   2.363   8.786 -0.2305  0.5043  0.0173
 4844SOL    HW126168   0.226   2.451   8.754  0.6982  0.1102 -1.7405
 4844SOL    HW226169   0.343   2.362   8.771  0.1216  2.5728  2.0967
 4845SOL     OW26170   0.000   3.358   8.789  0.2075  0.2677  0.7404
 4845SOL    HW126171   4.691   3.273   8.778  3.2350 -1.3406  1.2786
 4845SOL    HW226172   0.090   3.329   8.769 -0.7111 -0.6623 -2.0925
 4846SOL     OW26173   0.041   3.912   4.748 -0.2646  0.6517 -0.3310
 4846SOL    HW126174   0.102   3.872   4.809 -2.1055 -1.1521  0.3407
 4846SOL    HW226175   0.102   3.979   4.718  1.2628 -1.1185 -1.1718
 4847SOL     OW26176   2.479   1.853   1.504 -0.2829 -0.1077  0.5481
 4847SOL    HW126177   2.417   1.869   1.575 -1.7585  1.5005 -1.1063
 4847SOL    HW226178   2.417   1.840   1.433  0.0202  2.2443 -0.1662
 4848SOL     OW26179   1.459   1.586   3.250 -0.0683  0.0925  0.2597
 4848SOL    HW126180   1.528   1.650   3.265 -1.4738  2.0199 -1.6128
 4848SOL    HW226181   1.450   1.559   3.342  3.6353  1.0394  0.8896
 4849SOL     OW26182   2.748   1.648   7.490 -0.0475 -0.4725  0.3199
 4849SOL    HW126183   2.790   1.726   7.453 -1.4963  0.6896  1.1044
 4849SOL    HW226184   2.690   1.614   7.422 -0.1125 -0.5900  0.4337
 4850SOL     OW26185   1.609   3.854   1.814 -0.1267 -0.0458 -0.2929
 4850SOL    HW126186   1.549   3.806   1.757  1.8733 -0.1686 -2.3316
 4850SOL    HW226187   1.575   3.828   1.899  2.4067 -1.3598  0.3106
 4851SOL     OW26188   4.112   2.799   0.015  0.2846 -0.2230  0.0381
 4851SOL    HW126189   4.065   2.840   0.087 -0.1048 -0.0446 -0.3138
 4851SOL    HW226190   4.097   2.705   0.024 -0.0972 -0.1158  0.5062
 4852SOL     OW26191   0.604   3.389  14.534  0.4046 -0.8120  0.3409
 4852SOL    HW126192   0.545   3.442  14.481  0.7188  1.4680  2.3127
 4852SOL    HW226193   0.662   3.460  14.560 -0.8277 -0.6479  2.6023
 4853SOL     OW26194   1.112   1.696  12.516  0.0143  0.3048  0.2447
 4853SOL    HW126195   1.185   1.696  12.453 -1.7516 -2.6589 -1.7899
 4853SOL    HW226196   1.116   1.790  12.537  1.7429  0.0328  1.1780
 4854SOL     OW26197   0.798   0.327   7.047  0.2018  0.0163  0.3248
 4854SOL    HW126198   0.872   0.311   6.988  2.0113  1.2067  2.2806
 4854SOL    HW226199   0.736   0.366   6.985  0.9181  2.7771  1.3379
 4855SOL     OW26200   0.673   4.099  16.096  0.3353  0.2482 -0.2775
 4855SOL    HW126201   0.647   4.072  16.008 -1.7628  2.6660 -0.3915
 4855SOL    HW226202   0.761   4.131  16.076  0.6720 -0.5009 -0.0059
 4856SOL     OW26203   1.997   2.799   5.116  0.5744  0.4405 -0.2311
 4856SOL    HW126204   2.034   2.741   5.049  0.4482  0.0894  0.0047
 4856SOL    HW226205   1.910   2.814   5.079  1.2779  2.2121 -1.1982
 4857SOL     OW26206   4.681   1.837   1.818  0.1479 -0.2284  0.1985
 4857SOL    HW126207   0.022   1.892   1.797 -0.7350  0.6692 -0.5995
 4857SOL    HW226208   4.723   1.751   1.825 -0.2489 -0.5367 -1.1779
 4858SOL     OW26209   3.077   0.034   1.866 -0.0370 -0.0706 -0.2334
 4858SOL    HW126210   2.989   0.059   1.837 -0.9577 -3.3446 -0.3225
 4858SOL    HW226211   3.090   4.675   1.845  1.1672  0.1555 -0.5086
 4859SOL     OW26212   4.069   0.106   4.616 -0.6244  0.2216 -0.6017
 4859SOL    HW126213   4.075   0.122   4.521  0.8975  0.0815 -0.5264
 4859SOL    HW226214   4.158   0.129   4.642  0.1028 -0.3098 -2.5578
 4860SOL     OW26215   1.022   0.008  12.657  0.3719  0.7258 -0.5869
 4860SOL    HW126216   0.975   4.690  12.722  1.0744 -1.4869 -1.8758
 4860SOL    HW226217   0.938   0.049  12.634 -0.0446  0.1274 -0.1325
 4861SOL     OW26218   0.060   0.877   1.897 -0.0957  0.1415 -0.4604
 4861SOL    HW126219   4.700   0.858   1.891  0.1638 -1.0953 -0.6429
 4861SOL    HW226220   0.091   0.826   1.823 -2.2383 -0.1998 -1.1358
 4862SOL     OW26221   3.009   2.405   9.050  0.4472  0.1408  0.0261
 4862SOL    HW126222   2.963   2.463   9.111 -1.2372 -0.2800 -0.8699
 4862SOL    HW226223   3.092   2.452   9.046  0.8683 -0.5730  0.2938
 4863SOL     OW26224   0.972   3.330   7.911 -0.5081 -0.6453  0.3499
 4863SOL    HW126225   1.007   3.276   7.840  2.3057  1.3381  0.2226
 4863SOL    HW226226   0.880   3.337   7.887  0.0007 -2.9301 -2.2525
 4864SOL     OW26227   1.413   3.388   4.503  0.5396  0.2402 -0.5732
 4864SOL    HW126228   1.368   3.313   4.541 -0.7905  0.7601 -1.1135
 4864SOL    HW226229   1.401   3.360   4.412 -0.4159  2.3210 -1.0810
 4865SOL     OW26230   1.213   1.271   3.715  0.3784 -0.4972  0.4500
 4865SOL    HW126231   1.212   1.216   3.793 -0.4295  0.8629  1.4073
 4865SOL    HW226232   1.164   1.207   3.664 -0.2123 -0.7475  1.3365
 4866SOL     OW26233   3.321   1.128   5.696  0.4197 -0.5431  0.5054
 4866SOL    HW126234   3.370   1.207   5.719 -2.7485  1.4352  0.4006
 4866SOL    HW226235   3.289   1.162   5.613 -0.9813 -4.0045 -0.3585
 4867SOL     OW26236   3.521   1.046   9.427  0.1021 -0.4501 -0.2865
 4867SOL    HW126237   3.517   1.032   9.522  2.1350  0.6014 -0.0438
 4867SOL    HW226238   3.430   1.038   9.398 -0.7985  1.6455  2.0084
 4868SOL     OW26239   0.924   2.934  15.131  0.5044  0.7228  0.0525
 4868SOL    HW126240   0.866   3.009  15.139 -1.7715 -0.7660 -2.2527
 4868SOL    HW226241   0.987   2.951  15.200 -0.1970  0.0838  0.8548
 4869SOL     OW26242   4.663   1.724   3.158 -0.7963  0.0183  0.0691
 4869SOL    HW126243   4.604   1.749   3.087 -2.4106 -3.4551  0.1882
 4869SOL    HW226244   0.015   1.736   3.120 -0.4453 -0.1945  0.8050
 4870SOL     OW26245   4.007   0.393  15.456 -0.3847 -0.5476  0.7449
 4870SOL    HW126246   4.021   0.478  15.413  0.1950  0.1370  2.2792
 4870SOL    HW226247   3.957   0.425  15.532 -1.0302  1.0859 -0.3602
 4871SOL     OW26248   1.856   1.729  16.950  0.2140  0.1618  0.6386
 4871SOL    HW126249   1.796   1.670  16.904  1.4430 -1.5811  1.2603
 4871SOL    HW226250   1.930   1.670  16.966 -0.4483 -0.8822 -0.1189
 4872SOL     OW26251   4.369   4.024   8.723  0.2459 -0.0563  0.0268
 4872SOL    HW126252   4.439   4.082   8.754 -0.2340  1.4171 -1.6527
 4872SOL    HW226253   4.331   4.063   8.644 -0.5946  0.6902  0.8000
 4873SOL     OW26254   3.639   3.349   5.359  0.6557  0.6457 -0.4565
 4873SOL    HW126255   3.636   3.303   5.443 -1.2479  1.1652 -0.2606
 4873SOL    HW226256   3.720   3.401   5.359 -0.8274  2.9459 -1.0522
 4874SOL     OW26257   3.446   1.544   8.432 -0.5353 -0.0508 -0.3722
 4874SOL    HW126258   3.485   1.612   8.486 -0.8173  0.4162 -0.7651
 4874SOL    HW226259   3.523   1.495   8.401  1.5922  1.5351  2.4397
 4875SOL     OW26260   4.722   2.945  10.483 -0.3537  0.3938  0.1733
 4875SOL    HW126261   4.682   2.860  10.468 -0.2598 -0.0365  2.3421
 4875SOL    HW226262   0.024   2.938  10.572  0.5138 -3.2583 -0.4961
 4876SOL     OW26263   1.962   1.016   7.270  0.4909  0.1882 -0.1545
 4876SOL    HW126264   1.914   1.098   7.288 -0.4447 -0.3711 -0.1000
 4876SOL    HW226265   1.954   0.959   7.346 -3.9541  1.6263  0.4905
 4877SOL     OW26266   2.485   4.525   0.210 -0.2821 -0.2437 -0.0326
 4877SOL    HW126267   2.511   4.606   0.255 -1.9596  0.4325 -0.2881
 4877SOL    HW226268   2.394   4.550   0.195 -0.7509 -1.9202  0.1250
 4878SOL     OW26269   4.639   2.586   4.943 -0.1639 -0.0294 -0.2902
 4878SOL    HW126270   4.688   2.663   4.970  0.2388 -0.4017  0.0426
 4878SOL    HW226271   4.553   2.627   4.946 -0.0911  0.1722 -0.9064
 4879SOL     OW26272   2.972   4.610   8.159 -0.4618  0.5147 -0.2365
 4879SOL    HW126273   3.045   4.549   8.161 -1.3003 -0.4689  0.5603
 4879SOL    HW226274   2.926   4.583   8.079  0.3950 -0.1651 -0.4994
 4880SOL     OW26275   2.706   0.240   0.432 -0.1951  0.2387  0.4835
 4880SOL    HW126276   2.644   0.310   0.410 -0.2304 -0.3771 -1.4367
 4880SOL    HW226277   2.785   0.291   0.451  2.8328 -2.8184 -3.8916
 4881SOL     OW26278   0.266   1.556   7.000 -0.2355 -0.3887  0.0276
 4881SOL    HW126279   0.185   1.504   7.007 -0.9594  0.8265  0.7387
 4881SOL    HW226280   0.288   1.548   7.092  0.5996  0.4939 -0.0984
 4882SOL     OW26281   4.042   4.272   6.865  0.7633  0.5387  0.8346
 4882SOL    HW126282   3.971   4.240   6.921  0.0480  0.3865 -0.1761
 4882SOL    HW226283   4.069   4.196   6.814  0.2907 -1.2364  3.1999
 4883SOL     OW26284   2.984   0.581  14.815  0.1906 -0.3992 -0.1782
 4883SOL    HW126285   2.932   0.578  14.735  2.5027  1.6296 -1.7532
 4883SOL    HW226286   3.055   0.643  14.799 -0.4331  0.8658  1.9244
 4884SOL     OW26287   3.462   4.343   5.016 -0.5317  0.1362  0.1000
 4884SOL    HW126288   3.498   4.414   4.963  2.0553 -0.7554  0.6196
 4884SOL    HW226289   3.431   4.387   5.095 -0.8279  0.7722 -0.3717
 4885SOL     OW26290   2.602   4.337   2.299  0.5167 -0.6066 -0.1209
 4885SOL    HW126291   2.651   4.266   2.340 -0.3476  0.6627  3.1274
 4885SOL    HW226292   2.540   4.368   2.365  0.8617  2.1980 -1.1047
 4886SOL     OW26293   4.640   4.685  16.252  0.8202  0.1147  0.4777
 4886SOL    HW126294   4.563   4.646  16.295  0.8297 -1.2394 -0.7297
 4886SOL    HW226295   4.692   4.606  16.235 -0.5177 -0.3141 -1.6022
 4887SOL     OW26296   3.584   4.346  16.888  0.5961  0.4460 -0.4479
 4887SOL    HW126297   3.498   4.321  16.920 -0.2731  2.0347 -1.5614
 4887SOL    HW226298   3.575   4.435  16.854  0.3664  1.5852  2.5980
 4888SOL     OW26299   3.997   3.799   6.017 -0.2861  0.1845  0.3831
 4888SOL    HW126300   4.073   3.857   6.004 -0.7485  0.0825 -2.7518
 4888SOL    HW226301   3.928   3.863   6.035  0.2085  0.1519  2.3505
 4889SOL     OW26302   1.609   1.088   5.024  0.1816 -0.0950 -0.0567
 4889SOL    HW126303   1.573   1.021   4.966 -0.5368  2.1539 -2.2465
 4889SOL    HW226304   1.676   1.039   5.071  0.9939  2.1524  1.1037
 4890SOL     OW26305   2.056   3.300  15.025  0.3772  0.5856  0.1663
 4890SOL    HW126306   2.127   3.334  14.970  0.8297 -0.0176  0.3730
 4890SOL    HW226307   1.998   3.375  15.010 -1.1533 -0.5834  0.2825
 4891SOL     OW26308   0.745   4.575   3.580 -0.5522  0.3103 -0.0436
 4891SOL    HW126309   0.720   4.497   3.530  1.0892  0.2666 -0.7882
 4891SOL    HW226310   0.789   4.615   3.505 -0.3625  0.7648  0.3169
 4892SOL     OW26311   4.260   0.939  12.038  0.3348 -0.1506 -0.0856
 4892SOL    HW126312   4.203   0.926  12.114 -0.0283  1.3666 -0.0901
 4892SOL    HW226313   4.238   1.031  12.022 -0.3704 -0.3893 -0.4901
 4893SOL     OW26314   1.672   2.629   4.314  0.1896 -0.1245 -0.1750
 4893SOL    HW126315   1.708   2.543   4.336  0.2694  0.0050  0.1975
 4893SOL    HW226316   1.592   2.601   4.271 -0.6702 -1.2930  2.1448
 4894SOL     OW26317   0.017   3.314   7.238 -0.2100 -0.0542 -0.1556
 4894SOL    HW126318   0.016   3.408   7.219  0.5567 -0.0094  0.0144
 4894SOL    HW226319   0.080   3.308   7.310  1.3476 -1.2697 -1.6209
 4895SOL     OW26320   3.977   2.095   7.905 -0.3235 -0.4127  0.1935
 4895SOL    HW126321   4.036   2.111   7.979  0.6026  1.8679 -1.0510
 4895SOL    HW226322   4.024   2.035   7.847  3.9019  2.7318  0.4151
 4896SOL     OW26323   2.001   3.810   1.432  0.2687  0.1371 -0.3272
 4896SOL    HW126324   2.096   3.822   1.427  0.6090 -1.5988  1.8672
 4896SOL    HW226325   1.971   3.895   1.464 -2.2725 -0.6479 -0.6048
 4897SOL     OW26326   3.130   0.308   4.720 -0.4814 -0.4014  0.0701
 4897SOL    HW126327   3.161   0.256   4.646  0.3434  2.7817 -1.8203
 4897SOL    HW226328   3.202   0.370   4.726 -0.6220 -0.0860 -1.6146
 4898SOL     OW26329   4.161   1.638   3.981 -0.0021  1.0412 -0.0270
 4898SOL    HW126330   4.122   1.575   3.920  0.1050  0.8050  0.1442
 4898SOL    HW226331   4.133   1.607   4.067 -1.0339  1.2249 -0.2966
 4899SOL     OW26332   3.303   1.477   8.045 -0.1937 -0.2782 -1.0585
 4899SOL    HW126333   3.276   1.512   8.129  1.6111 -0.3671 -0.4426
 4899SOL    HW226334   3.270   1.387   8.049  0.3933 -0.3908  0.9199
 4900SOL     OW26335   0.956   2.802   9.549 -0.1183 -0.8565  0.7264
 4900SOL    HW126336   0.872   2.838   9.577  1.2858  1.7653  1.6295
 4900SOL    HW226337   0.974   2.744   9.623  2.7216  0.4064  1.0417
 4901SOL     OW26338   0.726   3.142  15.281  0.7106 -0.0078  0.2900
 4901SOL    HW126339   0.748   3.174  15.194  0.1919  1.3081  0.6579
 4901SOL    HW226340   0.737   3.215  15.342 -2.3865  1.3214 -0.7902
 4902SOL     OW26341   1.137   1.526   0.558  0.3039 -0.0048  0.0713
 4902SOL    HW126342   1.180   1.603   0.522 -1.3918  0.5547 -0.7839
 4902SOL    HW226343   1.215   1.470   0.564 -0.1966 -0.7316 -0.0966
 4903SOL     OW26344   1.133   3.352   5.758 -0.4083  0.2521  0.2171
 4903SOL    HW126345   1.196   3.287   5.726  1.3132  1.5960  0.9143
 4903SOL    HW226346   1.113   3.419   5.693  2.2529  1.1497  0.3264
 4904SOL     OW26347   0.511   1.807   1.367 -0.4611  0.2357 -0.2203
 4904SOL    HW126348   0.480   1.887   1.410 -2.6251 -0.2435 -0.8832
 4904SOL    HW226349   0.575   1.779   1.432  0.1252 -0.2349 -0.9893
 4905SOL     OW26350   2.067   1.999   7.070 -0.2249 -0.4529 -0.5798
 4905SOL    HW126351   2.046   1.960   7.155 -0.9654 -2.3455 -1.6247
 4905SOL    HW226352   2.149   2.044   7.091  0.1039 -1.5381  0.5083
 4906SOL     OW26353   2.984   0.441   4.494  0.2841 -0.2807  0.4236
 4906SOL    HW126354   3.058   0.390   4.460 -1.8519 -0.9891 -3.2213
 4906SOL    HW226355   2.982   0.409   4.584  1.0028  1.6325  1.1045
 4907SOL     OW26356   0.725   4.320  11.322 -0.1562  0.1285  0.2644
 4907SOL    HW126357   0.801   4.368  11.288  0.9151 -1.2839  0.6753
 4907SOL    HW226358   0.757   4.231  11.308 -2.3974 -0.9912  2.2734
 4908SOL     OW26359   1.288   3.592  10.229  0.4310  0.0981 -0.3389
 4908SOL    HW126360   1.285   3.510  10.181  2.5441  1.1421 -2.2670
 4908SOL    HW226361   1.376   3.626  10.211  1.0061 -0.0133  2.2620
 4909SOL     OW26362   2.146   2.815  11.600  0.0490 -0.3040 -0.1252
 4909SOL    HW126363   2.118   2.725  11.581 -1.1973  0.2333 -0.8408
 4909SOL    HW226364   2.175   2.809  11.691 -0.1602 -1.4563 -0.1307
 4910SOL     OW26365   2.227   1.068   7.156 -0.2682  0.2103 -0.5045
 4910SOL    HW126366   2.153   1.025   7.199  0.8789  0.8460  2.0918
 4910SOL    HW226367   2.209   1.162   7.146 -2.1655 -0.0265  0.7124
 4911SOL     OW26368   2.410   2.844   9.040 -0.0477  0.1095  0.1109
 4911SOL    HW126369   2.367   2.833   8.955  0.8944  1.3142 -0.5141
 4911SOL    HW226370   2.408   2.939   9.050 -0.3158 -0.0532  1.5846
 4912SOL     OW26371   2.415   2.729   1.301  0.2740  0.3413 -0.4869
 4912SOL    HW126372   2.423   2.802   1.240  0.8099  1.4028  0.8402
 4912SOL    HW226373   2.404   2.652   1.246  0.6439 -0.5831  0.7284
 4913SOL     OW26374   1.780   0.199  15.306 -0.5704  0.7372 -0.0630
 4913SOL    HW126375   1.694   0.186  15.267 -0.1901 -1.3898 -0.1869
 4913SOL    HW226376   1.794   0.289  15.277 -0.6726  0.7863  0.0420
 4914SOL     OW26377   2.469   2.948   2.706 -0.4244 -0.1180 -0.4957
 4914SOL    HW126378   2.390   2.896   2.693  1.1823 -3.2797  2.2273
 4914SOL    HW226379   2.510   2.905   2.781  1.2606  0.5847 -1.0141
 4915SOL     OW26380   4.183   4.262  12.967  0.2562  0.8565 -0.1863
 4915SOL    HW126381   4.149   4.277  12.879 -1.3874  0.0773  0.3176
 4915SOL    HW226382   4.269   4.229  12.942 -1.5246 -1.4642 -3.1837
 4916SOL     OW26383   0.421   2.697   2.922 -0.0564  0.4825 -0.0382
 4916SOL    HW126384   0.355   2.686   2.854 -0.9138 -0.9240  1.0086
 4916SOL    HW226385   0.494   2.643   2.891 -0.6417 -0.4285  0.1925
 4917SOL     OW26386   1.036   4.170  11.350 -0.3264  0.1973  1.0338
 4917SOL    HW126387   1.023   4.257  11.313  1.3997  0.1706  0.3681
 4917SOL    HW226388   1.065   4.193  11.438  0.4663 -1.5794  1.2381
 4918SOL     OW26389   1.041   4.090   7.897  0.6159  0.0692  0.1894
 4918SOL    HW126390   1.086   4.011   7.926  0.1834 -0.1795  0.1822
 4918SOL    HW226391   0.987   4.121   7.970  0.9426 -1.1330  0.9384
 4919SOL     OW26392   2.912   2.607  10.981  0.0051  0.2795  0.3914
 4919SOL    HW126393   2.845   2.541  11.001  1.9018 -0.8077  3.1503
 4919SOL    HW226394   2.988   2.563  10.944  0.7284  0.5977  1.5101
 4920SOL     OW26395   3.230   4.218   7.502  0.5257  0.3515  0.2725
 4920SOL    HW126396   3.304   4.276   7.521  0.9815  0.1201 -0.7936
 4920SOL    HW226397   3.154   4.262   7.540 -0.0956  1.0254 -1.7711
 4921SOL     OW26398   0.009   3.975  13.116 -0.1944  0.2819  0.4885
 4921SOL    HW126399   0.070   4.023  13.059 -0.8696  0.0453 -0.4276
 4921SOL    HW226400   4.666   4.031  13.113 -2.3226 -2.6176  1.2541
 4922SOL     OW26401   3.684   0.274  13.180  0.8140  0.6677  0.1556
 4922SOL    HW126402   3.736   0.306  13.106 -0.1542  1.9032  0.0188
 4922SOL    HW226403   3.737   0.285  13.259  2.0579  0.3941 -0.6269
 4923SOL     OW26404   4.270   3.620   2.291  0.2770  0.0279 -0.2500
 4923SOL    HW126405   4.306   3.652   2.373  1.7067 -0.0329 -0.8643
 4923SOL    HW226406   4.327   3.543   2.290 -1.6307 -1.4174  0.2561
 4924SOL     OW26407   3.620   0.838   7.577  0.1501  0.0599 -0.2727
 4924SOL    HW126408   3.684   0.909   7.586 -0.0825  0.3815 -1.0844
 4924SOL    HW226409   3.547   0.874   7.628  0.7743  3.0838 -1.5078
 4925SOL     OW26410   4.039   0.074   8.109  0.0715  0.6020 -0.1054
 4925SOL    HW126411   4.025   0.133   8.034 -0.1920 -0.5396 -0.9572
 4925SOL    HW226412   4.015   4.723   8.074 -1.2198  0.2545  1.6587
 4926SOL     OW26413   2.178   4.518   1.726 -0.0126 -0.1062  0.0926
 4926SOL    HW126414   2.183   4.527   1.821  1.4986 -1.8484  0.1714
 4926SOL    HW226415   2.269   4.534   1.703  0.5631 -1.2374  1.6180
 4927SOL     OW26416   2.252   4.549   9.647  0.4268  0.1674 -0.1707
 4927SOL    HW126417   2.247   4.457   9.671 -1.0542 -0.1864 -1.8138
 4927SOL    HW226418   2.335   4.552   9.599  0.1800  1.5492 -0.5107
 4928SOL     OW26419   1.419   1.742   8.664 -0.3462 -0.4239 -0.1284
 4928SOL    HW126420   1.382   1.830   8.650 -1.6983 -0.8781  0.5812
 4928SOL    HW226421   1.380   1.697   8.739 -2.9561 -0.2537 -1.3909
 4929SOL     OW26422   0.008   2.879   0.558 -0.1814  0.3202 -0.1007
 4929SOL    HW126423   4.654   2.842   0.570  0.1657 -0.3436  0.4008
 4929SOL    HW226424   0.055   2.873   0.641 -0.3378  0.5878  0.0078
 4930SOL     OW26425   1.017   4.365   7.529  0.0340  0.1647  0.0238
 4930SOL    HW126426   1.029   4.338   7.438  0.1655 -0.7805  0.3255
 4930SOL    HW226427   0.990   4.279   7.560 -1.4613 -0.2614 -2.4272
 4931SOL     OW26428   3.065   3.019   3.884  0.3322 -0.6081  0.4327
 4931SOL    HW126429   3.100   2.931   3.866  0.4455 -0.3264 -0.7065
 4931SOL    HW226430   3.091   3.028   3.975  0.0378 -1.9401  0.6465
 4932SOL     OW26431   2.024   4.669  11.200 -0.3609  0.5985  0.0522
 4932SOL    HW126432   2.041   4.678  11.106 -0.5288 -2.1554 -0.2513
 4932SOL    HW226433   2.081   4.597  11.227 -1.3066  0.8481  2.6601
 4933SOL     OW26434   3.731   2.764   6.330  0.0351 -0.4421 -1.6479
 4933SOL    HW126435   3.638   2.742   6.318 -0.4453  2.5538 -3.3664
 4933SOL    HW226436   3.761   2.673   6.334 -0.1595 -0.4024  0.4506
 4934SOL     OW26437   4.666   2.361  15.523  0.2469  0.6443 -0.6347
 4934SOL    HW126438   4.586   2.320  15.556  1.1147 -0.2007  0.4105
 4934SOL    HW226439   4.723   2.378  15.597 -0.3285  0.8897 -0.2512
 4935SOL     OW26440   1.510   3.702  15.951  0.6305 -0.2480  0.2073
 4935SOL    HW126441   1.490   3.646  16.026 -1.4226  0.5786  0.2925
 4935SOL    HW226442   1.436   3.680  15.894  1.3001 -2.1705  0.0973
 4936SOL     OW26443   1.410   3.012   9.419 -0.4702  0.1890 -0.2179
 4936SOL    HW126444   1.408   3.014   9.324  1.1445  4.2229 -0.1797
 4936SOL    HW226445   1.504   2.999   9.434 -0.7366 -1.6252 -0.1701
 4937SOL     OW26446   1.490   0.492  15.136 -0.2557 -0.0509  0.5615
 4937SOL    HW126447   1.507   0.403  15.166 -1.1967 -0.6054 -0.5618
 4937SOL    HW226448   1.516   0.549  15.208 -0.9276  0.8569  0.0776
 4938SOL     OW26449   3.319   2.552   8.763 -0.2600 -1.0233 -0.4825
 4938SOL    HW126450   3.280   2.527   8.847 -1.0374  1.1466 -0.1813
 4938SOL    HW226451   3.262   2.510   8.700  2.1286 -0.9592 -2.6680
 4939SOL     OW26452   3.449   2.164   3.194 -0.1097  0.1830  0.0640
 4939SOL    HW126453   3.359   2.152   3.163 -0.6028 -1.6765  2.2067
 4939SOL    HW226454   3.434   2.161   3.288  0.8982 -2.1380  0.1384
 4940SOL     OW26455   0.014   1.967   2.711 -0.6116 -0.4204 -0.1635
 4940SOL    HW126456   4.665   1.929   2.681 -0.6914  0.6338 -1.2846
 4940SOL    HW226457   4.726   2.014   2.791 -1.3145 -1.1922  0.1038
 4941SOL     OW26458   0.837   3.743  17.288  0.5846  0.2632 -0.5952
 4941SOL    HW126459   0.762   3.729  17.346  1.1255  1.4643  0.3880
 4941SOL    HW226460   0.874   3.817  17.335  0.7131  0.3134 -0.7750
 4942SOL     OW26461   2.666   1.139  15.807  0.2077  0.2272  0.6028
 4942SOL    HW126462   2.628   1.091  15.880  1.6520  0.2460  1.3755
 4942SOL    HW226463   2.686   1.220  15.853  0.2407  1.1836 -1.1147
 4943SOL     OW26464   2.322   0.040  15.896  1.1215 -0.5612  0.0342
 4943SOL    HW126465   2.227   0.031  15.907  0.9685  0.4342 -0.4701
 4943SOL    HW226466   2.330   0.127  15.935 -0.1718  0.1525 -1.2680
 4944SOL     OW26467   1.761   4.299   8.209  0.4449  0.4751 -0.8225
 4944SOL    HW126468   1.675   4.318   8.172 -0.6770 -0.8489  1.0846
 4944SOL    HW226469   1.745   4.212   8.246  1.3790  0.4567 -0.4628
 4945SOL     OW26470   1.864   0.976   7.761 -0.3950 -0.6335 -0.5455
 4945SOL    HW126471   1.874   1.071   7.769 -0.1880 -0.9254  2.6861
 4945SOL    HW226472   1.837   0.969   7.670  0.0984  0.6187 -0.7953
 4946SOL     OW26473   1.811   0.110   7.411  0.0308  0.1403  0.6201
 4946SOL    HW126474   1.750   0.138   7.480 -0.8267  2.5273 -1.0950
 4946SOL    HW226475   1.746   0.055   7.367 -2.1225  2.3031  1.0779
 4947SOL     OW26476   3.170   2.978  17.621  0.4414 -0.2139  0.2771
 4947SOL    HW126477   3.224   2.937  17.688 -0.6427 -1.0793  0.6188
 4947SOL    HW226478   3.241   2.979  17.557  0.2373 -0.5297  0.0487
 4948SOL     OW26479   2.877   4.116   2.780  0.0503 -0.1544  0.1701
 4948SOL    HW126480   2.907   4.051   2.843 -2.0947 -0.1325  1.2390
 4948SOL    HW226481   2.846   4.190   2.834  1.9436  1.9241 -1.6096
 4949SOL     OW26482   2.630   0.922   1.686  0.1792  0.0057 -0.3418
 4949SOL    HW126483   2.677   1.005   1.683  0.5781 -0.2369 -0.7610
 4949SOL    HW226484   2.539   0.953   1.686  0.2273  0.1334 -2.7603
 4950SOL     OW26485   3.819   2.142   5.095  0.2175 -0.3562  0.1323
 4950SOL    HW126486   3.783   2.227   5.072  0.1054 -0.5883 -0.5532
 4950SOL    HW226487   3.807   2.100   5.010 -0.9342 -1.1919  0.7013
 4951SOL     OW26488   1.944   2.438   3.494  0.3615  0.1198  0.1287
 4951SOL    HW126489   2.017   2.476   3.445  0.4070  0.8951  0.7983
 4951SOL    HW226490   1.999   2.377   3.544  2.2553  0.5525 -1.4105
 4952SOL     OW26491   3.617   0.711   3.745 -0.3549  0.2715  0.0925
 4952SOL    HW126492   3.601   0.670   3.830 -1.6714  0.0447 -0.2540
 4952SOL    HW226493   3.618   0.805   3.763 -0.0570  0.6088 -1.6559
 4953SOL     OW26494   4.218   3.593   3.999  0.1821  0.4236 -1.0235
 4953SOL    HW126495   4.164   3.673   4.004 -1.0005 -0.4501  0.1234
 4953SOL    HW226496   4.154   3.529   4.030 -0.2948  1.5812  0.3743
 4954SOL     OW26497   2.238   4.226  16.119  0.1338 -0.4904 -0.1437
 4954SOL    HW126498   2.279   4.153  16.166 -0.4839 -1.5313 -1.2284
 4954SOL    HW226499   2.151   4.190  16.102  0.2353 -1.2792  0.9452
 4955SOL     OW26500   2.738   0.715  13.955  0.0888 -0.1668  0.7321
 4955SOL    HW126501   2.759   0.624  13.976 -0.7071 -0.7373 -0.9827
 4955SOL    HW226502   2.745   0.700  13.861 -0.0763 -0.8591  0.8258
 4956SOL     OW26503   0.205   1.689   2.794  0.6308 -0.3323  0.2434
 4956SOL    HW126504   0.125   1.722   2.754  0.4699  0.6513  1.3768
 4956SOL    HW226505   0.220   1.599   2.763 -0.0285  0.5515 -2.5498
 4957SOL     OW26506   4.254   3.025   1.871 -0.5999 -0.2911 -0.1339
 4957SOL    HW126507   4.271   3.114   1.901  1.7168 -1.1006  0.9781
 4957SOL    HW226508   4.185   3.003   1.933  0.9989 -1.1595  1.3369
 4958SOL     OW26509   4.402   1.020   2.641  0.3347  0.1798  0.3195
 4958SOL    HW126510   4.357   0.943   2.674 -1.0202  0.4808 -0.7983
 4958SOL    HW226511   4.458   1.041   2.715  0.8414 -1.7874  0.4667
 4959SOL     OW26512   3.441   0.752   5.434  0.3445  0.0970  0.4066
 4959SOL    HW126513   3.511   0.710   5.385  0.4540  0.4814  0.2344
 4959SOL    HW226514   3.377   0.776   5.366  0.4162 -2.1547 -0.4432
 4960SOL     OW26515   3.124   0.695  17.073 -0.1734  0.0465  0.1709
 4960SOL    HW126516   3.068   0.765  17.106 -1.9376 -0.1732 -2.3903
 4960SOL    HW226517   3.063   0.622  17.067  0.1930 -0.0574 -2.4305
 4961SOL     OW26518   1.103   0.239  17.366  0.1167  0.0603  0.0650
 4961SOL    HW126519   1.147   0.185  17.300  1.0090  0.5904  0.2244
 4961SOL    HW226520   1.018   0.196  17.366 -0.1176  0.5298  0.7870
 4962SOL     OW26521   3.445   2.405   3.784  0.3366 -0.3269  0.1957
 4962SOL    HW126522   3.367   2.356   3.756  0.1278  0.0368  0.1379
 4962SOL    HW226523   3.509   2.339   3.810  1.6739  1.7680  2.2078
 4963SOL     OW26524   2.204   1.291   9.131  0.5662 -0.5182 -0.0581
 4963SOL    HW126525   2.162   1.341   9.060  2.3507  0.6789 -0.2757
 4963SOL    HW226526   2.149   1.323   9.202  0.3711 -0.5858 -0.1767
 4964SOL     OW26527   4.168   0.005  12.420 -0.0433  0.2729  0.6000
 4964SOL    HW126528   4.181   4.671  12.485  1.8678 -1.9914 -2.1358
 4964SOL    HW226529   4.258   0.012  12.386 -0.9294  0.4863 -1.7412
 4965SOL     OW26530   1.355   3.607   6.870 -0.4005 -0.1433  0.6361
 4965SOL    HW126531   1.315   3.615   6.957 -1.4926  0.2766  0.1039
 4965SOL    HW226532   1.282   3.634   6.815  0.8952  1.3197 -0.3387
 4966SOL     OW26533   0.030   4.483  10.472 -0.0911 -0.4743 -0.2669
 4966SOL    HW126534   4.702   4.437  10.529 -0.3829  1.0679  0.6827
 4966SOL    HW226535   0.041   4.434  10.391 -1.2120  0.3718 -0.9354
 4967SOL     OW26536   1.456   3.753   2.003  0.0633  0.4349  0.2920
 4967SOL    HW126537   1.444   3.772   2.096  0.6349  0.3043  0.3905
 4967SOL    HW226538   1.374   3.715   1.973  1.4372 -1.9972 -0.3497
 4968SOL     OW26539   2.622   2.764   8.134 -0.4625 -0.3049 -0.0434
 4968SOL    HW126540   2.580   2.815   8.065 -2.1462  2.0307  2.6847
 4968SOL    HW226541   2.585   2.810   8.209 -1.1398 -0.0971 -0.5067
 4969SOL     OW26542   3.976   0.638   4.170 -0.9515 -0.5635 -0.2526
 4969SOL    HW126543   4.038   0.688   4.116  1.7541 -0.9826  2.4315
 4969SOL    HW226544   3.915   0.605   4.104 -1.1878 -0.5632 -0.0350
 4970SOL     OW26545   2.422   0.701  16.404 -0.0472  0.1337  0.6948
 4970SOL    HW126546   2.475   0.701  16.483  1.6726  1.3772 -0.4501
 4970SOL    HW226547   2.332   0.696  16.437  0.3162  3.3277  2.0585
 4971SOL     OW26548   3.709   4.019   8.662 -0.4070 -0.2255 -0.9311
 4971SOL    HW126549   3.757   4.038   8.581  1.3804 -2.0052 -0.3014
 4971SOL    HW226550   3.683   4.106   8.693  1.9589  0.2817 -0.3756
 4972SOL     OW26551   1.722   3.512   7.848  0.3271  0.4244  0.1554
 4972SOL    HW126552   1.687   3.424   7.834  1.8105 -0.4085  1.7404
 4972SOL    HW226553   1.800   3.514   7.793 -0.2451 -1.7157 -0.7244
 4973SOL     OW26554   3.988   3.605   5.107  0.9084  0.4167  0.0495
 4973SOL    HW126555   3.984   3.601   5.011 -1.2166  0.2636  0.1370
 4973SOL    HW226556   3.934   3.683   5.120  0.7830  0.5035 -0.9497
 4974SOL     OW26557   2.073   3.603   9.936  0.0855  0.5463 -0.2509
 4974SOL    HW126558   2.058   3.624   9.844  1.3734 -0.0696 -0.5925
 4974SOL    HW226559   1.996   3.553   9.962  0.9157 -0.3696  0.4532
 4975SOL     OW26560   1.802   3.655  12.419  0.0004 -0.0679  0.3410
 4975SOL    HW126561   1.822   3.609  12.338  1.3265 -1.4419  1.4259
 4975SOL    HW226562   1.879   3.631  12.471  0.5616 -0.7514 -0.8004
 4976SOL     OW26563   1.491   0.723   7.069 -0.2288  0.2390 -0.1735
 4976SOL    HW126564   1.531   0.678   7.143 -1.1644  1.1464  0.8837
 4976SOL    HW226565   1.520   0.658   7.005  0.5588  0.5898 -0.1738
 4977SOL     OW26566   4.211   3.627   2.738 -0.2822 -0.1503 -0.0932
 4977SOL    HW126567   4.298   3.586   2.745  0.0177  0.1672 -1.8228
 4977SOL    HW226568   4.160   3.547   2.724 -1.9850  0.6159  1.8979
 4978SOL     OW26569   2.452   0.850   0.908  0.0414  0.6057  0.3015
 4978SOL    HW126570   2.533   0.825   0.953 -0.8037 -3.0415 -0.2211
 4978SOL    HW226571   2.471   0.907   0.833 -0.9492 -0.6655 -0.9101
 4979SOL     OW26572   1.763   1.203  10.430 -0.1961 -0.0419 -0.3784
 4979SOL    HW126573   1.812   1.285  10.423  1.1990 -0.8452  0.1196
 4979SOL    HW226574   1.824   1.136  10.398  0.3820 -0.8442  2.4873
 4980SOL     OW26575   1.838   1.617   4.713 -0.2653  0.2471  0.0621
 4980SOL    HW126576   1.830   1.557   4.639  1.6341  0.7745 -0.5942
 4980SOL    HW226577   1.898   1.562   4.763  0.0828 -0.0480 -0.6888
 4981SOL     OW26578   2.066   0.948  11.796  0.0183  0.2567 -0.9768
 4981SOL    HW126579   2.088   0.860  11.764  0.6228  0.3186 -0.7269
 4981SOL    HW226580   1.990   0.932  11.851  0.7486 -1.1796 -0.3724
 4982SOL     OW26581   3.539   3.875  13.084 -0.6138  0.3935  0.1743
 4982SOL    HW126582   3.452   3.913  13.071 -0.4558  0.9950  0.8804
 4982SOL    HW226583   3.580   3.950  13.127 -0.9067  1.1984 -0.9630
 4983SOL     OW26584   0.472   1.378   2.179 -0.0025 -0.2577  0.4675
 4983SOL    HW126585   0.523   1.353   2.256  0.6946  1.2920  0.5035
 4983SOL    HW226586   0.529   1.448   2.147 -0.8764  0.2017 -0.0517
 4984SOL     OW26587   3.885   0.233  14.079  0.4824  0.4812 -0.1005
 4984SOL    HW126588   3.805   0.278  14.053  0.2528  1.3147  2.0466
 4984SOL    HW226589   3.908   0.277  14.161 -0.7535  0.8683  0.0338
 4985SOL     OW26590   0.604   2.375   5.432  0.4983 -0.4296 -0.5450
 4985SOL    HW126591   0.547   2.323   5.489  1.8039  0.8813  1.9580
 4985SOL    HW226592   0.665   2.422   5.490 -0.1841 -0.6683  0.3680
 4986SOL     OW26593   2.453   2.777   4.847 -0.2046 -0.1952 -0.0055
 4986SOL    HW126594   2.387   2.786   4.778  0.0377 -0.5531 -0.2817
 4986SOL    HW226595   2.519   2.835   4.808 -0.2755 -1.7291 -2.4129
 4987SOL     OW26596   2.383   0.550   1.056  0.6709  0.0418 -0.1734
 4987SOL    HW126597   2.387   0.640   1.086 -0.7121  0.0901 -0.1432
 4987SOL    HW226598   2.329   0.560   0.978 -0.0772 -1.0385  0.1961
 4988SOL     OW26599   0.214   0.916  14.273  0.3037  0.4070  0.1944
 4988SOL    HW126600   0.148   0.874  14.328 -1.6642  4.1234  0.6192
 4988SOL    HW226601   0.163   0.964  14.209  1.2795 -0.4912 -1.2548
 4989SOL     OW26602   3.750   2.564   3.114 -0.0876 -0.1740 -0.8661
 4989SOL    HW126603   3.736   2.529   3.027  1.4766  0.6079 -1.4210
 4989SOL    HW226604   3.829   2.521   3.147 -1.3466 -1.6324  0.2459
 4990SOL     OW26605   2.446   0.958   6.121  0.1871  0.4312  0.3066
 4990SOL    HW126606   2.398   0.880   6.092 -1.2639  1.8059 -0.9331
 4990SOL    HW226607   2.434   0.961   6.216 -0.2647  1.1302  0.2205
 4991SOL     OW26608   0.587   2.093   6.845  0.3006  0.3440  0.1177
 4991SOL    HW126609   0.494   2.108   6.861  0.3474  1.2506 -0.4439
 4991SOL    HW226610   0.612   2.169   6.792  0.8158  0.7621  0.9566
 4992SOL     OW26611   3.792   2.432  16.837 -0.1742 -0.1675  0.3694
 4992SOL    HW126612   3.759   2.521  16.848 -0.5765  0.2490 -4.2295
 4992SOL    HW226613   3.847   2.441  16.760  1.2728  0.6384  1.4975
 4993SOL     OW26614   2.451   3.172   8.315 -0.0640 -0.0465 -0.1414
 4993SOL    HW126615   2.382   3.171   8.382 -0.8381  0.2173 -0.9215
 4993SOL    HW226616   2.510   3.245   8.333 -3.3471  3.0204 -1.5882
 4994SOL     OW26617   3.673   0.073   2.243 -0.2893  0.0185 -0.0336
 4994SOL    HW126618   3.579   0.055   2.237 -0.1654 -0.4315 -0.6241
 4994SOL    HW226619   3.706   4.729   2.288 -3.4824  0.5255  3.2285
 4995SOL     OW26620   4.092   3.117   3.827 -0.8147  0.2998  0.0316
 4995SOL    HW126621   4.046   3.200   3.817  1.0720  1.3972  0.2821
 4995SOL    HW226622   4.092   3.084   3.738 -0.4681  0.6150 -0.0906
 4996SOL     OW26623   0.249   1.924   2.012  0.4568 -0.1291 -0.1372
 4996SOL    HW126624   0.203   1.870   2.077 -0.4905  0.6523 -0.1634
 4996SOL    HW226625   0.321   1.866   1.987  0.0091 -0.2871 -1.0523
 4997SOL     OW26626   2.157   1.607   8.651  0.2017  0.3977  0.1351
 4997SOL    HW126627   2.095   1.671   8.686 -1.7805 -2.4788  1.8092
 4997SOL    HW226628   2.240   1.647   8.676 -0.1094  0.4053  1.1453
 4998SOL     OW26629   1.961   2.225   4.336  0.1830 -0.7626  0.4705
 4998SOL    HW126630   1.931   2.260   4.252 -0.2270 -1.4983  0.3080
 4998SOL    HW226631   1.916   2.140   4.330 -0.3997 -0.2871 -2.0651
 4999SOL     OW26632   0.215   1.442   2.657 -0.7249 -0.2467  0.0048
 4999SOL    HW126633   0.274   1.466   2.586 -0.2510 -1.6363 -0.0559
 4999SOL    HW226634   0.252   1.358   2.684 -2.2072 -0.1479  2.3535
 5000SOL     OW26635   0.643   3.724   5.462  0.6908 -0.6155  0.2993
 5000SOL    HW126636   0.668   3.816   5.455  2.5305 -1.2015 -0.7586
 5000SOL    HW226637   0.587   3.723   5.539  0.2728  1.8477  0.0222
 5001SOL     OW26638   2.707   3.586   5.120  0.1701  0.3035 -0.3000
 5001SOL    HW126639   2.799   3.608   5.136  0.5437 -0.8099 -0.9474
 5001SOL    HW226640   2.701   3.492   5.135 -2.8347  0.7715  1.5564
 5002SOL     OW26641   4.361   1.966  12.992 -0.3214 -0.2031  0.1127
 5002SOL    HW126642   4.362   2.005  13.079  1.3555  2.4083 -1.1037
 5002SOL    HW226643   4.271   1.932  12.998 -1.3237  2.1427 -1.5149
 5003SOL     OW26644   0.058   1.098   4.552  0.0242 -0.5270 -0.3347
 5003SOL    HW126645   0.023   1.070   4.637 -2.2244  0.9969 -0.7489
 5003SOL    HW226646   4.733   1.052   4.493  0.8263  0.2507 -1.7439
 5004SOL     OW26647   0.520   2.372   8.764 -0.4407  0.3349  0.0099
 5004SOL    HW126648   0.556   2.457   8.738  2.2107 -0.8058 -0.0936
 5004SOL    HW226649   0.575   2.375   8.842 -0.1167  0.6547 -0.2323
 5005SOL     OW26650   1.273   3.619   4.636 -0.0159  0.7746 -0.0413
 5005SOL    HW126651   1.192   3.600   4.588  2.0590 -0.4477 -3.0338
 5005SOL    HW226652   1.336   3.557   4.601  0.0647  0.7557  0.1349
 5006SOL     OW26653   1.579   0.037   8.342  0.5716 -0.1667  0.4104
 5006SOL    HW126654   1.575   0.060   8.250  1.4735 -1.0942  0.1428
 5006SOL    HW226655   1.650   4.707   8.340 -0.5955 -1.4653  0.2461
 5007SOL     OW26656   0.513   2.106  10.689  0.2958  0.4467 -0.5553
 5007SOL    HW126657   0.468   2.127  10.607  1.0493 -0.5856 -1.2359
 5007SOL    HW226658   0.600   2.097  10.651 -0.7530 -3.2799 -2.1107
 5008SOL     OW26659   0.314   4.634   1.691  0.0438  0.0581 -0.0848
 5008SOL    HW126660   0.348   4.667   1.608 -1.0545  1.1526 -0.0924
 5008SOL    HW226661   0.223   4.661   1.688 -0.0182 -0.0745  0.6006
 5009SOL     OW26662   2.405   0.820   5.143 -0.1859  0.2261 -0.4026
 5009SOL    HW126663   2.438   0.744   5.191  0.0870  1.3095  1.1343
 5009SOL    HW226664   2.334   0.775   5.097 -0.7377  1.5047 -0.7915
 5010SOL     OW26665   1.623   4.265   1.355 -0.5791 -0.3907 -0.3428
 5010SOL    HW126666   1.630   4.225   1.268 -0.7497 -3.6181  1.1566
 5010SOL    HW226667   1.643   4.357   1.336  0.1425 -1.1514 -3.3177
 5011SOL     OW26668   0.896   3.886   4.148  0.4280  0.0742 -0.3370
 5011SOL    HW126669   0.851   3.920   4.225  1.6740  1.2412 -0.1172
 5011SOL    HW226670   0.934   3.804   4.179 -0.5439 -0.1375  0.2993
 5012SOL     OW26671   2.228   0.244   1.814  0.0483 -0.1092 -0.2666
 5012SOL    HW126672   2.162   0.313   1.813 -0.1861 -0.3389 -0.6563
 5012SOL    HW226673   2.229   0.218   1.722 -1.0659 -0.3544 -0.2108
 5013SOL     OW26674   4.123   0.638   2.265 -0.7206 -0.3544  0.1309
 5013SOL    HW126675   4.171   0.621   2.184  0.1599 -1.1974  0.8250
 5013SOL    HW226676   4.080   0.723   2.255  0.5554  0.0363 -2.0112
 5014SOL     OW26677   1.992   2.158   0.830 -0.0711  0.0427  0.4520
 5014SOL    HW126678   2.028   2.072   0.810  1.9746  1.0548 -0.2316
 5014SOL    HW226679   2.075   2.202   0.809 -0.4606 -0.1977 -1.5662
 5015SOL     OW26680   4.173   3.092   6.273  0.1557  0.6914  0.1604
 5015SOL    HW126681   4.149   3.013   6.225 -1.0393  0.4604  1.1394
 5015SOL    HW226682   4.204   3.040   6.347 -1.0419 -2.7927 -1.8000
 5016SOL     OW26683   4.310   4.532   8.879 -0.1258  0.1191 -0.5536
 5016SOL    HW126684   4.369   4.554   8.807  0.4713  1.4548  0.3614
 5016SOL    HW226685   4.286   4.619   8.910 -1.6551  0.3612 -2.4036
 5017SOL     OW26686   2.680   2.162  11.609  0.1536 -0.0846 -0.3171
 5017SOL    HW126687   2.634   2.139  11.690 -0.5224 -0.6589 -0.8641
 5017SOL    HW226688   2.640   2.249  11.607 -0.3879 -0.2949  1.1887
 5018SOL     OW26689   1.268   4.569   4.985  0.0783  0.3768 -0.2147
 5018SOL    HW126690   1.251   4.621   4.907  2.9034  1.5542 -0.0322
 5018SOL    HW226691   1.177   4.545   5.006  0.2264  0.6509  0.7559
 5019SOL     OW26692   2.226   4.577  16.152 -0.6153 -0.3672 -0.6686
 5019SOL    HW126693   2.147   4.527  16.130 -2.0743  0.2636  3.1259
 5019SOL    HW226694   2.225   4.628  16.070 -2.8166  0.8315  0.1192
 5020SOL     OW26695   0.901   3.392   2.353 -0.0120 -0.9526 -0.1046
 5020SOL    HW126696   0.882   3.303   2.324 -0.0885 -1.5187  1.6556
 5020SOL    HW226697   0.825   3.413   2.407 -0.1311 -0.5252 -0.4419
 5021SOL     OW26698   1.323   2.373   4.909 -0.0250  0.1763 -0.1494
 5021SOL    HW126699   1.386   2.391   4.840 -0.4641  1.7610 -0.1465
 5021SOL    HW226700   1.322   2.278   4.916  0.7072  0.0958 -1.1621
 5022SOL     OW26701   0.669   3.770  14.078  0.3449 -0.0158 -0.4807
 5022SOL    HW126702   0.653   3.858  14.044 -1.1686 -0.4063 -0.7561
 5022SOL    HW226703   0.765   3.772  14.076  0.3563  0.6919  0.6063
 5023SOL     OW26704   3.612   2.780   6.571 -0.3928  0.2408  0.1313
 5023SOL    HW126705   3.606   2.700   6.623 -0.5638 -0.0798 -0.3822
 5023SOL    HW226706   3.673   2.751   6.503  1.5320  1.2175  1.4582
 5024SOL     OW26707   0.750   4.631  10.217  0.0157 -0.2201 -0.3707
 5024SOL    HW126708   0.705   4.632  10.302  0.2814 -0.3735 -0.2268
 5024SOL    HW226709   0.686   4.578  10.169 -1.1469  0.7863  0.0922
 5025SOL     OW26710   3.408   1.052   4.629  0.4284  0.1950 -0.1716
 5025SOL    HW126711   3.337   0.989   4.620 -0.3178  0.9986  0.0882
 5025SOL    HW226712   3.462   1.003   4.691  0.7995 -0.3579 -0.9286
 5026SOL     OW26713   4.109   3.024   4.097  0.0717  0.3310  0.2402
 5026SOL    HW126714   4.099   3.052   4.006  1.1327 -0.4266 -0.1034
 5026SOL    HW226715   4.172   3.088   4.128  1.3111 -1.5126  1.4928
 5027SOL     OW26716   2.869   3.747   4.017 -0.0435 -0.5072 -0.7160
 5027SOL    HW126717   2.897   3.829   4.058 -0.1196 -0.8890  0.0864
 5027SOL    HW226718   2.909   3.679   4.070  1.2547  0.8199  0.0099
 5028SOL     OW26719   2.610   2.316  12.332 -0.1608  0.2563  0.2407
 5028SOL    HW126720   2.703   2.331  12.315 -0.7386  3.4162 -0.1057
 5028SOL    HW226721   2.584   2.267  12.254  0.0970  0.4773  0.0190
 5029SOL     OW26722   4.677   1.535  14.765  0.4263 -0.2793 -0.3258
 5029SOL    HW126723   0.023   1.523  14.715  1.6983 -0.0137  1.6407
 5029SOL    HW226724   4.649   1.445  14.781  1.2212 -0.2093  1.4008
 5030SOL     OW26725   0.377   2.806  14.257  0.1785  0.2684  0.4440
 5030SOL    HW126726   0.333   2.729  14.293  1.3646 -1.1261 -1.0848
 5030SOL    HW226727   0.303   2.866  14.243 -0.3714 -0.5883 -0.3424
 5031SOL     OW26728   4.124   2.877  17.132  0.1621  0.2301  0.8709
 5031SOL    HW126729   4.113   2.972  17.137 -2.1672  0.0246 -0.1402
 5031SOL    HW226730   4.050   2.849  17.079  0.7528  2.6749 -1.2199
 5032SOL     OW26731   2.359   0.921   9.100 -0.1778  0.1588  0.1634
 5032SOL    HW126732   2.369   0.831   9.070 -0.9304 -0.1553  0.8551
 5032SOL    HW226733   2.275   0.909   9.146 -0.9652 -0.7464 -1.5279
 5033SOL     OW26734   1.122   4.198   1.700  0.1141  0.5431 -0.1530
 5033SOL    HW126735   1.108   4.234   1.612  1.1189  1.0576 -0.1000
 5033SOL    HW226736   1.199   4.145   1.679  0.9561  2.9142 -2.9512
 5034SOL     OW26737   2.093   4.557   1.996  0.2093  0.2425 -0.0549
 5034SOL    HW126738   2.064   4.637   1.952  0.1500  0.2870  0.0662
 5034SOL    HW226739   2.184   4.582   2.011 -0.4925  1.9748  1.3353
 5035SOL     OW26740   0.462   0.345  10.138 -0.7166  0.4091  0.3200
 5035SOL    HW126741   0.394   0.368  10.202 -1.6812 -1.3627 -0.0768
 5035SOL    HW226742   0.416   0.289  10.076  1.4610  0.0304 -0.9505
 5036SOL     OW26743   2.905   0.701  14.301 -0.4849 -0.4696  0.0765
 5036SOL    HW126744   2.918   0.622  14.249 -1.2711 -1.4163  1.3114
 5036SOL    HW226745   2.811   0.710  14.285 -0.9598 -2.0368  1.9947
 5037SOL     OW26746   1.826   3.904  16.203  0.2086 -0.2813 -0.1292
 5037SOL    HW126747   1.884   3.853  16.259 -0.0961 -0.0604  0.3918
 5037SOL    HW226748   1.828   3.863  16.116 -1.0103  0.3963 -0.4767
 5038SOL     OW26749   1.617   3.333   6.849  0.5057 -0.9727  0.5992
 5038SOL    HW126750   1.589   3.388   6.922 -0.5117  0.6469 -1.0363
 5038SOL    HW226751   1.532   3.308   6.815  0.2677 -0.1690  0.6101
 5039SOL     OW26752   1.988   3.042  14.938  0.3332  0.1015  0.1438
 5039SOL    HW126753   2.011   3.008  15.025  1.1791 -1.2796 -0.6168
 5039SOL    HW226754   2.018   3.130  14.958 -0.3618  0.5526 -0.8301
 5040SOL     OW26755   4.161   4.119   6.665  0.0494 -0.6957  0.5340
 5040SOL    HW126756   4.185   4.086   6.579  1.0003  0.3863  0.3719
 5040SOL    HW226757   4.246   4.149   6.697 -0.7373 -2.3189  4.1899
 5041SOL     OW26758   3.528   3.971   3.162  0.2050  0.2541  0.0433
 5041SOL    HW126759   3.479   3.889   3.175  0.4418  0.4689  2.2827
 5041SOL    HW226760   3.516   3.993   3.069 -3.1780  0.0292  0.4105
 5042SOL     OW26761   0.525   3.479   1.870 -0.0209 -0.0926 -0.5244
 5042SOL    HW126762   0.592   3.414   1.848 -0.0116 -1.0689  2.3526
 5042SOL    HW226763   0.490   3.431   1.945  0.9461  1.1824  0.7307
 5043SOL     OW26764   3.372   0.257   3.123  0.1533 -0.0270 -0.1827
 5043SOL    HW126765   3.412   0.325   3.069  2.8950 -0.5152  1.2658
 5043SOL    HW226766   3.397   0.180   3.072 -0.5667  0.9655 -2.0614
 5044SOL     OW26767   1.723   1.276   5.775  1.0346 -0.4996  0.3549
 5044SOL    HW126768   1.784   1.346   5.753 -1.0792  0.9484 -0.8585
 5044SOL    HW226769   1.642   1.316   5.745  1.0182 -0.9881 -0.2604
 5045SOL     OW26770   4.213   3.799   2.092  0.1611  0.5681 -0.3493
 5045SOL    HW126771   4.231   3.729   2.154  0.8821  1.3491  0.3301
 5045SOL    HW226772   4.184   3.858   2.162 -0.9023  1.8074 -1.8321
 5046SOL     OW26773   2.509   0.041  16.552  0.0682  0.0476  0.0392
 5046SOL    HW126774   2.578   4.722  16.592 -0.3198 -0.9422 -0.6197
 5046SOL    HW226775   2.470   4.711  16.492  2.2715 -0.0943 -1.2496
 5047SOL     OW26776   1.386   0.958   7.584 -0.6990  0.3732  0.5923
 5047SOL    HW126777   1.397   0.903   7.507 -0.2351 -0.8995  1.5595
 5047SOL    HW226778   1.362   0.885   7.641  0.2049 -0.3291  0.0575
 5048SOL     OW26779   1.764   0.708   6.093  0.1864 -0.1543  0.2319
 5048SOL    HW126780   1.843   0.673   6.134  1.2735  1.4125 -0.4969
 5048SOL    HW226781   1.718   0.629   6.067  1.8720 -0.6440 -1.2178
 5049SOL     OW26782   3.995   4.453   2.002 -0.6936  0.3453  0.0217
 5049SOL    HW126783   4.059   4.424   2.067 -1.7355  0.8478  1.2591
 5049SOL    HW226784   4.061   4.475   1.935  0.4307 -2.1505  0.2938
 5050SOL     OW26785   3.342   1.110   8.542  0.1216 -0.2179 -0.4120
 5050SOL    HW126786   3.307   1.197   8.523 -0.4431 -0.3294  0.1313
 5050SOL    HW226787   3.395   1.138   8.616 -0.2627  2.0183 -0.9752
 5051SOL     OW26788   1.964   2.390   2.466 -0.5030  0.3109 -0.5283
 5051SOL    HW126789   1.975   2.329   2.393 -1.9629 -1.1380  0.4715
 5051SOL    HW226790   1.898   2.338   2.511 -0.0900  0.0673 -0.1979
 5052SOL     OW26791   4.545   3.060   2.513  0.3779  0.2714 -0.3014
 5052SOL    HW126792   4.484   3.124   2.549  0.4838  0.2463 -0.0764
 5052SOL    HW226793   4.570   3.027   2.599  0.0807 -0.3800 -0.4612
 5053SOL     OW26794   2.450   3.234   2.704 -0.2250 -0.3121  0.1148
 5053SOL    HW126795   2.496   3.274   2.778  1.9098 -0.7232 -0.9622
 5053SOL    HW226796   2.496   3.149   2.704 -0.8815 -0.6849 -2.2694
 5054SOL     OW26797   0.285   3.069   3.670 -0.0659  0.2372  0.3292
 5054SOL    HW126798   0.193   3.044   3.667  0.8850 -3.0774 -1.0226
 5054SOL    HW226799   0.278   3.162   3.688 -0.5809  0.2546  0.0195
 5055SOL     OW26800   4.018   3.389   4.058 -0.0648  0.3211 -0.7343
 5055SOL    HW126801   3.950   3.432   4.110 -0.0923  1.0384 -1.3755
 5055SOL    HW226802   3.967   3.328   4.005  0.5465 -0.2343 -0.6952
 5056SOL     OW26803   2.235   3.578   1.694  0.3902  0.6863  0.0742
 5056SOL    HW126804   2.251   3.670   1.669  1.1507  0.3941 -0.5127
 5056SOL    HW226805   2.164   3.572   1.629  0.1123 -0.1093  0.4555
 5057SOL     OW26806   0.777   3.302  15.069 -0.1365  0.1467 -0.4930
 5057SOL    HW126807   0.818   3.381  15.104  2.2226 -2.3739  2.3571
 5057SOL    HW226808   0.809   3.303  14.979 -0.3678  4.7035 -0.5352
 5058SOL     OW26809   3.158   3.758   4.449  0.5602 -0.4030 -0.5127
 5058SOL    HW126810   3.074   3.796   4.473  0.0891 -1.2483 -0.8127
 5058SOL    HW226811   3.219   3.831   4.451 -0.0152  0.0596  0.1543
 5059SOL     OW26812   4.543   0.225  16.464  0.0666  0.4199 -0.1812
 5059SOL    HW126813   4.559   0.159  16.531  2.7508 -0.3025 -1.5437
 5059SOL    HW226814   4.469   0.262  16.512  0.1389 -0.9486  0.9846
 5060SOL     OW26815   4.021   2.981   8.199  0.1670  0.8286  0.1110
 5060SOL    HW126816   4.035   2.920   8.271  2.5331  1.1946 -0.0295
 5060SOL    HW226817   4.053   3.065   8.232 -0.4864  2.0030 -2.1749
 5061SOL     OW26818   1.381   4.547   6.121  0.3461 -0.1091  0.8500
 5061SOL    HW126819   1.328   4.597   6.058  1.2215  0.6946  0.7636
 5061SOL    HW226820   1.419   4.623   6.164 -1.4575  1.0660  0.3721
 5062SOL     OW26821   0.174   0.163   9.107  0.3621 -0.2641  0.3338
 5062SOL    HW126822   0.261   0.153   9.068 -0.4204 -0.5196 -1.3383
 5062SOL    HW226823   0.153   0.071   9.125  1.7744 -0.8669 -1.0985
 5063SOL     OW26824   3.911   3.331   3.462 -0.1659  0.2629  0.1164
 5063SOL    HW126825   3.852   3.402   3.484  0.3411  0.0969  2.0078
 5063SOL    HW226826   3.857   3.254   3.481  0.9323 -0.4949  0.2045
 5064SOL     OW26827   4.650   2.021   7.782 -0.5613  0.1298 -0.1112
 5064SOL    HW126828   4.590   1.954   7.750  0.3644 -0.6271 -0.2305
 5064SOL    HW226829   4.611   2.103   7.750 -0.4321  0.2553  0.0575
 5065SOL     OW26830   1.387   0.055   3.527 -0.5774 -0.2343 -0.4959
 5065SOL    HW126831   1.331   0.044   3.604 -1.7650 -0.6450 -1.4350
 5065SOL    HW226832   1.472   0.076   3.567 -0.2473  2.1371 -2.4506
 5066SOL     OW26833   0.380   1.296   8.461  0.3107  0.0670 -0.1993
 5066SOL    HW126834   0.372   1.315   8.367 -1.6612  1.3657  0.2274
 5066SOL    HW226835   0.396   1.202   8.460  0.7449  0.1489 -1.6630
 5067SOL     OW26836   0.523   3.621  15.095 -0.2332 -0.0675 -0.0041
 5067SOL    HW126837   0.516   3.668  15.012 -1.3317  0.7360  0.5475
 5067SOL    HW226838   0.607   3.649  15.131  0.6748 -1.9164 -0.6932
 5068SOL     OW26839   2.313   0.259  16.035 -0.6318  0.2996 -0.0490
 5068SOL    HW126840   2.343   0.269  16.125 -1.0216 -2.7426  0.4368
 5068SOL    HW226841   2.243   0.323  16.029 -1.2483 -0.2925  0.8825
 5069SOL     OW26842   1.095   0.411   7.542 -0.1605  0.2333  0.3077
 5069SOL    HW126843   1.000   0.412   7.530 -0.4407 -3.9355  2.0836
 5069SOL    HW226844   1.116   0.332   7.592 -0.0330 -0.5981 -1.0753
 5070SOL     OW26845   4.608   0.595   6.356  0.5151  0.0367  0.2580
 5070SOL    HW126846   4.541   0.592   6.424  1.2016 -0.5171  0.9125
 5070SOL    HW226847   4.624   0.502   6.338  4.0669  0.3749  1.8375
 5071SOL     OW26848   4.244   4.226  10.466 -0.1053 -0.3741 -0.8565
 5071SOL    HW126849   4.181   4.298  10.477  0.1139 -0.2412 -0.4603
 5071SOL    HW226850   4.330   4.267  10.476 -0.3378 -0.2293  0.6483
 5072SOL     OW26851   2.530   1.633   4.947  0.5700  0.2315 -0.3892
 5072SOL    HW126852   2.458   1.608   5.005  0.7208 -3.2897 -1.7530
 5072SOL    HW226853   2.495   1.598   4.866 -1.0758  1.2075 -0.1054
 5073SOL     OW26854   2.198   2.016   8.324  0.1611  0.2811  0.0016
 5073SOL    HW126855   2.175   1.985   8.411  1.2061 -1.1667 -0.2188
 5073SOL    HW226856   2.196   1.942   8.263 -0.5013  1.0583 -0.9140
 5074SOL     OW26857   2.661   0.167   4.651 -0.4603  0.5667 -0.1383
 5074SOL    HW126858   2.671   0.125   4.736  1.2444 -0.2318 -0.7343
 5074SOL    HW226859   2.567   0.169   4.632  0.1303  2.3781 -2.9081
 5075SOL     OW26860   0.044   3.438  17.134 -0.0441  0.2887 -0.4718
 5075SOL    HW126861   0.091   3.513  17.171 -0.2494  0.8343 -1.3264
 5075SOL    HW226862   0.120   3.383  17.113 -0.2295 -0.6114  1.2276
 5076SOL     OW26863   2.335   3.053   0.226 -0.3550 -0.2183 -0.5585
 5076SOL    HW126864   2.320   3.007   0.309  1.0176  1.2693  0.5238
 5076SOL    HW226865   2.371   2.979   0.177  1.7384  0.8411 -0.6290
 5077SOL     OW26866   2.936   3.927   5.956 -0.2140  0.1464  0.1872
 5077SOL    HW126867   2.889   3.949   6.037  3.7077  0.3183  2.3960
 5077SOL    HW226868   2.924   4.006   5.902  4.1609  1.1493  0.7234
 5078SOL     OW26869   3.297   3.255  14.392 -0.4054 -0.9612  0.1945
 5078SOL    HW126870   3.317   3.168  14.427 -1.3805 -0.8937  0.9308
 5078SOL    HW226871   3.220   3.275  14.445  0.0779  1.4983 -0.0360
 5079SOL     OW26872   3.095   1.610   1.873 -0.3371 -0.2848 -0.3826
 5079SOL    HW126873   3.087   1.704   1.887  1.7672 -0.3841  1.5605
 5079SOL    HW226874   3.008   1.589   1.841 -0.8754 -0.4401  1.1679
 5080SOL     OW26875   2.921   2.817   4.891  0.2865  0.0062  0.5337
 5080SOL    HW126876   2.971   2.897   4.907  0.0314  0.7056 -2.2907
 5080SOL    HW226877   2.939   2.773   4.974  0.0689 -0.2442  0.4475
 5081SOL     OW26878   2.548   0.836   2.076  0.3636  0.0124  0.1925
 5081SOL    HW126879   2.612   0.801   2.138  0.7519  1.5400  0.6693
 5081SOL    HW226880   2.476   0.864   2.133  2.0587 -0.2906  2.4676
 5082SOL     OW26881   4.325   2.869   2.497  0.5119 -0.5468 -0.2175
 5082SOL    HW126882   4.410   2.914   2.498  1.8569 -3.1965  2.4472
 5082SOL    HW226883   4.274   2.917   2.431  1.5816 -0.9964 -1.3659
 5083SOL     OW26884   1.353   1.047   8.165 -0.5265 -0.4309  0.4103
 5083SOL    HW126885   1.390   0.975   8.217 -2.5143 -0.1967  2.1771
 5083SOL    HW226886   1.283   1.070   8.226 -0.9365  1.7132 -0.8825
 5084SOL     OW26887   4.182   2.876   0.565  0.2308  0.1931 -0.4874
 5084SOL    HW126888   4.244   2.855   0.495  1.0009 -3.1081  1.1591
 5084SOL    HW226889   4.131   2.948   0.529 -2.2817 -2.4128 -2.1766
 5085SOL     OW26890   2.423   3.042   6.069 -0.2585 -0.3607  0.6730
 5085SOL    HW126891   2.456   3.006   5.987 -0.0320 -1.2881  1.1692
 5085SOL    HW226892   2.458   3.131   6.058  0.0215 -0.5534 -0.0020
 5086SOL     OW26893   2.200   0.436  11.647  0.0860 -0.0261 -0.5013
 5086SOL    HW126894   2.285   0.420  11.606 -0.2361 -0.2798 -1.0550
 5086SOL    HW226895   2.168   0.347  11.633 -0.2959 -0.0524  0.5471
 5087SOL     OW26896   3.091   2.560   1.898  0.2049  0.0680  0.0187
 5087SOL    HW126897   3.048   2.589   1.818 -0.8150 -1.3255  0.0653
 5087SOL    HW226898   3.014   2.546   1.953  0.2873 -0.1781  0.0711
 5088SOL     OW26899   2.293   0.395   9.157  0.1206 -0.3316 -0.2132
 5088SOL    HW126900   2.228   0.335   9.121 -1.6612 -0.2401  2.8119
 5088SOL    HW226901   2.279   0.374   9.249 -0.2108 -0.8573 -0.3849
 5089SOL     OW26902   0.615   0.184   3.305  0.3414  0.6641  0.3028
 5089SOL    HW126903   0.606   0.201   3.211  0.9189  0.6602  0.2473
 5089SOL    HW226904   0.707   0.208   3.311  1.0229 -2.1637  1.3454
 5090SOL     OW26905   2.302   3.364   5.368  0.5909 -0.2212  0.2411
 5090SOL    HW126906   2.301   3.288   5.310  1.9962 -0.1907  0.1912
 5090SOL    HW226907   2.239   3.351   5.439 -0.0270  1.5661  0.0190
 5091SOL     OW26908   0.079   3.998  14.592 -0.0282 -0.1905 -0.4952
 5091SOL    HW126909   0.136   3.947  14.649 -0.5213 -0.2695 -0.0695
 5091SOL    HW226910   0.056   3.930  14.529 -2.7574  1.4320 -1.2432
 5092SOL     OW26911   4.534   2.746   1.254  0.4932  0.3409  0.3135
 5092SOL    HW126912   4.476   2.775   1.325 -0.8980  0.4203 -0.8710
 5092SOL    HW226913   4.614   2.718   1.299 -0.4920 -0.2443  1.6987
 5093SOL     OW26914   0.207   3.464   9.185  0.7169 -0.6133 -0.5479
 5093SOL    HW126915   0.205   3.450   9.279  0.2505 -1.8735 -0.7457
 5093SOL    HW226916   0.188   3.558   9.175  1.0888 -0.2917  1.7932
 5094SOL     OW26917   3.460   1.413   2.268 -0.4487  0.2142  0.0113
 5094SOL    HW126918   3.393   1.479   2.248 -3.1085 -2.3283  0.5207
 5094SOL    HW226919   3.409   1.366   2.334 -0.8017 -0.4213 -0.7116
 5095SOL     OW26920   2.355   3.061   6.620  0.4455  0.0617  0.1821
 5095SOL    HW126921   2.363   3.136   6.561 -0.6588 -0.2593 -0.3738
 5095SOL    HW226922   2.272   3.073   6.666  0.3437  0.6051 -0.1437
 5096SOL     OW26923   0.350   2.379   1.641  0.0872  0.2173  0.1542
 5096SOL    HW126924   0.273   2.355   1.693  0.4959  1.3893  1.2759
 5096SOL    HW226925   0.392   2.294   1.629 -0.5612  0.0274 -0.7620
 5097SOL     OW26926   0.715   1.354  16.611 -0.7711  0.4851  1.1224
 5097SOL    HW126927   0.767   1.381  16.687  1.6132 -3.2739  0.8632
 5097SOL    HW226928   0.758   1.409  16.546 -1.7690  0.0640  0.1152
 5098SOL     OW26929   3.905   2.214   3.964 -0.5028  0.5263  0.8410
 5098SOL    HW126930   3.981   2.264   3.935 -0.1993 -1.5070 -1.8207
 5098SOL    HW226931   3.878   2.261   4.043 -0.3052  1.9378  0.0837
 5099SOL     OW26932   4.185   0.190   7.150 -0.0654  0.2951  0.3543
 5099SOL    HW126933   4.175   0.105   7.193 -0.3614  1.5683  2.7694
 5099SOL    HW226934   4.276   0.178   7.122  0.5487  1.0354  2.0578
 5100SOL     OW26935   2.454   4.330   9.191  0.0241 -0.4977  0.0775
 5100SOL    HW126936   2.532   4.292   9.231  1.2916  0.4373 -1.4998
 5100SOL    HW226937   2.428   4.266   9.124 -0.2938  0.8931 -1.1256
 5101SOL     OW26938   3.361   1.063   8.906  0.0692 -0.2277  0.1390
 5101SOL    HW126939   3.354   1.051   9.001  1.5970  1.3132  0.4430
 5101SOL    HW226940   3.392   0.977   8.879  1.9141  0.8747 -1.2331
 5102SOL     OW26941   0.278   0.316   5.615  0.0100  0.2799 -0.0747
 5102SOL    HW126942   0.239   0.254   5.554  1.1995 -0.0958 -0.4307
 5102SOL    HW226943   0.195   0.360   5.636 -0.6186 -1.6215  1.4716
 5103SOL     OW26944   4.158   1.341   3.552  0.3375  0.3730 -0.5676
 5103SOL    HW126945   4.189   1.315   3.465  2.6833  0.2350  0.2970
 5103SOL    HW226946   4.206   1.424   3.548 -1.6977  1.4017 -3.5590
 5104SOL     OW26947   0.128   3.431   2.499 -0.0620 -0.0052  0.3600
 5104SOL    HW126948   0.160   3.460   2.584  3.7446 -2.5140 -0.1877
 5104SOL    HW226949   0.194   3.369   2.467 -0.7410 -0.1234 -0.8442
 5105SOL     OW26950   0.271   3.787   3.482  0.5281  0.1652 -0.0534
 5105SOL    HW126951   0.259   3.780   3.577 -0.1548 -0.3826 -0.1802
 5105SOL    HW226952   0.345   3.847   3.478 -0.5641  1.5893  1.2355
 5106SOL     OW26953   3.832   1.694   5.106  0.6411 -0.0201 -0.2791
 5106SOL    HW126954   3.867   1.605   5.113 -0.5348 -0.4331  0.1524
 5106SOL    HW226955   3.740   1.671   5.117  0.0903  2.4569  0.2855
 5107SOL     OW26956   2.320   1.858  13.602  0.2489 -0.3537 -0.2024
 5107SOL    HW126957   2.237   1.828  13.564 -1.2770  2.8702  0.5858
 5107SOL    HW226958   2.391   1.816  13.553  2.7812  1.9921  1.5033
 5108SOL     OW26959   3.839   2.308   8.544  0.3339  0.1784 -0.1842
 5108SOL    HW126960   3.900   2.246   8.584 -0.9246 -0.9180  0.0351
 5108SOL    HW226961   3.860   2.292   8.452  1.0419 -1.1258  0.1965
 5109SOL     OW26962   1.351   0.181  11.063  0.5159 -1.0635  0.3120
 5109SOL    HW126963   1.396   0.174  10.979  1.5107 -1.8407  0.9020
 5109SOL    HW226964   1.425   0.209  11.117  0.7834  0.6790 -0.9583
 5110SOL     OW26965   0.269   2.691   4.484  0.1301 -0.0090  0.1426
 5110SOL    HW126966   0.311   2.766   4.441  0.4583 -0.5830 -0.5523
 5110SOL    HW226967   0.268   2.625   4.414 -2.0102  0.0439  0.1171
 5111SOL     OW26968   2.018   4.400   2.839 -0.3758 -0.2816 -0.1751
 5111SOL    HW126969   2.030   4.324   2.895 -2.4355 -0.3726  0.1402
 5111SOL    HW226970   2.027   4.471   2.903 -0.5952 -2.3510  2.1586
 5112SOL     OW26971   2.065   0.257   0.909 -0.6978 -0.2805 -0.6580
 5112SOL    HW126972   2.097   0.250   0.819 -1.3086  1.0003 -0.9754
 5112SOL    HW226973   1.998   0.324   0.893 -0.0323  0.7163  0.6963
 5113SOL     OW26974   4.001   3.795   4.019  0.0130  0.2497 -0.9384
 5113SOL    HW126975   3.936   3.806   4.087  0.5962 -0.5712 -0.2517
 5113SOL    HW226976   4.071   3.852   4.050 -0.4553 -0.4803  1.4115
 5114SOL     OW26977   3.289   3.380   0.668  0.5979  0.1583  0.2949
 5114SOL    HW126978   3.212   3.434   0.688  0.5070 -0.6269  2.0913
 5114SOL    HW226979   3.298   3.306   0.729  0.3347 -0.1325 -0.0194
 5115SOL     OW26980   1.649   1.396   2.785  0.5353  0.3510  0.0173
 5115SOL    HW126981   1.617   1.464   2.726  0.0914 -0.0077 -0.1544
 5115SOL    HW226982   1.610   1.431   2.865 -1.2353  0.0335 -0.6974
 5116SOL     OW26983   3.878   2.734   7.497  0.2408  0.0373 -0.0878
 5116SOL    HW126984   3.835   2.733   7.412  0.8434  0.6150 -0.4018
 5116SOL    HW226985   3.822   2.801   7.537  0.4954  0.1718  0.0432
 5117SOL     OW26986   2.159   0.884  14.792 -0.1053  0.6816 -0.2688
 5117SOL    HW126987   2.075   0.863  14.833 -0.1280  0.1112 -0.6073
 5117SOL    HW226988   2.132   0.849  14.707 -1.2474  0.8186  0.0359
 5118SOL     OW26989   0.671   0.647   0.049  0.3330 -0.0498  0.2046
 5118SOL    HW126990   0.664   0.709  17.713 -0.0139 -1.5719 -1.0498
 5118SOL    HW226991   0.657   0.567  17.734  3.7350 -1.1452  1.0013
 5119SOL     OW26992   0.636   1.519  13.320  0.2507 -0.8222  0.0312
 5119SOL    HW126993   0.569   1.569  13.275  2.1281  2.6505  1.1305
 5119SOL    HW226994   0.582   1.494  13.395  0.8265 -2.3908 -0.0542
 5120SOL     OW26995   2.865   0.622   2.671 -0.0541  0.6564 -0.1230
 5120SOL    HW126996   2.797   0.687   2.656 -0.8123 -0.0128  0.4379
 5120SOL    HW226997   2.907   0.608   2.586 -1.1167 -1.5110 -0.3139
 5121SOL     OW26998   3.222   0.730   8.873 -0.1409 -0.2061 -0.2904
 5121SOL    HW126999   3.215   0.638   8.901 -0.8102 -0.8278 -2.5615
 5121SOL    HW227000   3.315   0.737   8.854 -0.1210  1.0114  0.2585
 5122SOL     OW27001   3.866   1.566   6.678  0.2480  0.4392 -0.5178
 5122SOL    HW127002   3.795   1.563   6.613  1.5881 -0.6815 -1.9572
 5122SOL    HW227003   3.943   1.571   6.621  1.3547 -0.9591  0.8527
 5123SOL     OW27004   3.805   3.575   5.490  0.1323  0.5543  0.5496
 5123SOL    HW127005   3.793   3.629   5.412  3.0094  2.0945  1.1573
 5123SOL    HW227006   3.797   3.640   5.559 -2.7450  0.4384  0.3015
 5124SOL     OW27007   3.580   0.675   8.147 -0.2293  0.4980  0.4774
 5124SOL    HW127008   3.502   0.641   8.103  1.0011 -2.7844  0.8071
 5124SOL    HW227009   3.636   0.600   8.165  1.0235  1.2881 -0.0953
 5125SOL     OW27010   3.559   4.388   2.033  0.4031 -0.3064 -0.1695
 5125SOL    HW127011   3.638   4.438   2.013  1.0207 -0.3587  2.1454
 5125SOL    HW227012   3.533   4.352   1.947  0.8464  0.7947 -0.7592
 5126SOL     OW27013   2.588   3.353   2.211 -0.4430 -0.3011 -0.0275
 5126SOL    HW127014   2.662   3.305   2.174 -1.4526 -0.6210 -1.6673
 5126SOL    HW227015   2.571   3.308   2.294 -0.2897 -0.8001 -0.2606
 5127SOL     OW27016   1.543   1.995   4.483 -0.4893  0.4080 -0.3084
 5127SOL    HW127017   1.532   2.089   4.465  0.0211  0.4678 -0.2951
 5127SOL    HW227018   1.558   1.966   4.393  1.1157  1.4634 -0.3777
 5128SOL     OW27019   1.924   0.198   6.788 -0.5727  0.1604 -0.6630
 5128SOL    HW127020   1.951   0.248   6.711 -0.5823  0.8757 -0.2107
 5128SOL    HW227021   1.988   0.232   6.850  0.0470 -0.7674 -0.8071
 5129SOL     OW27022   1.086   0.191   8.409 -0.4424  0.5393  0.6742
 5129SOL    HW127023   1.175   0.158   8.403 -0.7644 -0.5684  2.1408
 5129SOL    HW227024   1.110   0.251   8.480  1.6357  2.2666 -1.5023
 5130SOL     OW27025   3.744   4.144   3.194 -0.3409 -0.2680 -0.1174
 5130SOL    HW127026   3.664   4.094   3.212 -1.3995  1.8100  0.9312
 5130SOL    HW227027   3.735   4.157   3.100  1.3475 -2.1799 -0.5327
 5131SOL     OW27028   2.005   3.869   2.679  0.2290 -0.6030 -0.2690
 5131SOL    HW127029   1.980   3.946   2.627  2.0704  0.3295  0.2157
 5131SOL    HW227030   1.930   3.855   2.736 -0.8032  1.9627 -1.0154
 5132SOL     OW27031   4.634   2.539  13.500 -0.3150  0.1571 -0.0882
 5132SOL    HW127032   4.630   2.634  13.515  1.0566 -0.0298  1.4176
 5132SOL    HW227033   4.543   2.516  13.521 -0.7691  1.5004 -0.5795
 5133SOL     OW27034   3.804   1.563  11.309  0.0659  0.4250  0.6546
 5133SOL    HW127035   3.780   1.479  11.270  0.0122  0.6002  0.3102
 5133SOL    HW227036   3.718   1.595  11.337  0.1735 -0.1572  1.6286
 5134SOL     OW27037   4.308   2.500   0.936 -0.5314  0.2324 -0.0701
 5134SOL    HW127038   4.248   2.445   0.885  1.3413 -1.9007  0.0686
 5134SOL    HW227039   4.282   2.583   0.896  0.2717 -0.9297 -3.0104
 5135SOL     OW27040   2.157   1.368   2.259  0.5731 -0.1217 -0.2648
 5135SOL    HW127041   2.088   1.416   2.215  0.5329  0.1247  0.0648
 5135SOL    HW227042   2.224   1.379   2.192  1.5866 -1.1953  0.5486
 5136SOL     OW27043   0.899   2.155   4.013  0.2585 -0.3274 -0.1591
 5136SOL    HW127044   0.844   2.134   3.938 -1.0637  0.8393  0.4892
 5136SOL    HW227045   0.838   2.164   4.086  0.7589 -1.3277  0.3829
 5137SOL     OW27046   2.028   0.029   6.492 -0.6647  0.4662  0.5457
 5137SOL    HW127047   2.100   0.087   6.470 -0.4384  1.0532  2.8324
 5137SOL    HW227048   2.037   0.012   6.586  1.2859  0.6838  0.4008
 5138SOL     OW27049   1.575   1.543   8.261 -0.0873 -0.2236 -0.1247
 5138SOL    HW127050   1.636   1.492   8.314  0.4198  0.8825  0.3511
 5138SOL    HW227051   1.607   1.631   8.242 -0.2665 -0.3878 -1.1914
 5139SOL     OW27052   2.090   1.607   1.329  0.2388 -0.2069  0.4922
 5139SOL    HW127053   2.001   1.643   1.335 -0.2141 -1.0072 -1.1361
 5139SOL    HW227054   2.082   1.516   1.298  0.5113  0.2011 -0.7999
 5140SOL     OW27055   2.546   3.120  12.605  0.3263 -0.1987 -0.3554
 5140SOL    HW127056   2.589   3.197  12.567  1.7246 -1.1764 -0.7606
 5140SOL    HW227057   2.580   3.128  12.694  0.4209  0.4603 -0.4501
 5141SOL     OW27058   1.943   4.575   5.367 -0.4142  0.4570  0.2464
 5141SOL    HW127059   1.851   4.548   5.366  0.0498 -1.1539  0.5709
 5141SOL    HW227060   1.940   4.660   5.324 -0.4207 -0.1578 -0.9479
 5142SOL     OW27061   2.989   2.695   6.446  0.3995  0.1407  0.1912
 5142SOL    HW127062   3.063   2.635   6.451  0.3655  0.1900  1.1970
 5142SOL    HW227063   2.999   2.746   6.527  0.3969  0.4513 -0.0028
 5143SOL     OW27064   4.426   0.583  13.458  0.2229  0.0459 -0.4467
 5143SOL    HW127065   4.335   0.607  13.470  0.3880  0.5116 -0.1488
 5143SOL    HW227066   4.453   0.562  13.548  0.6073 -1.6254 -0.9394
 5144SOL     OW27067   2.922   2.513   7.971  0.1833  0.2025 -0.1466
 5144SOL    HW127068   2.959   2.593   7.935  0.1317 -0.7358 -2.2862
 5144SOL    HW227069   2.983   2.491   8.041 -0.4086  0.8042  0.5542
 5145SOL     OW27070   1.188   0.357  12.289 -0.4722  0.3329  0.0962
 5145SOL    HW127071   1.193   0.312  12.374  0.0000 -2.8923 -1.6113
 5145SOL    HW227072   1.173   0.286  12.226 -0.2214 -0.3214  0.7715
 5146SOL     OW27073   4.309   1.216  16.715  0.5477  0.3219  0.1826
 5146SOL    HW127074   4.347   1.134  16.681  1.1687  0.6912 -0.0084
 5146SOL    HW227075   4.306   1.266  16.634 -2.4879  0.0271  0.1067
 5147SOL     OW27076   1.074   4.580   5.305 -0.6621  0.3759 -0.4640
 5147SOL    HW127077   0.989   4.538   5.314 -0.6105  0.3358 -0.1530
 5147SOL    HW227078   1.054   4.646   5.239  0.4024 -0.3433 -1.5051
 5148SOL     OW27079   3.199   0.913   6.376  0.0821 -0.1934 -0.4259
 5148SOL    HW127080   3.248   0.885   6.454 -1.2714  0.6738  0.7427
 5148SOL    HW227081   3.258   0.906   6.302 -2.3782  0.7844 -2.4754
 5149SOL     OW27082   2.888   3.096  10.694  0.0535  0.1001 -0.3732
 5149SOL    HW127083   2.822   3.037  10.730  0.1331  0.5784  0.5438
 5149SOL    HW227084   2.840   3.170  10.658 -1.0941 -0.3370  0.2535
 5150SOL     OW27085   3.377   0.182   5.073  0.1834  0.3182  0.1376
 5150SOL    HW127086   3.392   0.108   5.131  0.9745  0.1492 -0.2771
 5150SOL    HW227087   3.376   0.245   5.144  0.9758  0.9502 -0.4063
 5151SOL     OW27088   0.491   0.605   6.567 -0.0784 -0.5378 -0.5631
 5151SOL    HW127089   0.452   0.617   6.654  0.1846 -1.8096 -0.2622
 5151SOL    HW227090   0.582   0.632   6.582 -0.1711 -1.8648  2.4864
 5152SOL     OW27091   2.806   2.100   7.202 -0.0074 -0.2354  0.0340
 5152SOL    HW127092   2.713   2.080   7.211 -0.4077  2.0902  0.9914
 5152SOL    HW227093   2.818   2.096   7.107  2.0177 -0.8697  0.3148
 5153SOL     OW27094   4.429   0.733   6.822  0.3317 -0.1306 -0.0746
 5153SOL    HW127095   4.367   0.764   6.756 -1.8932 -3.3124  0.5019
 5153SOL    HW227096   4.452   0.651   6.778 -0.8226  0.2955 -1.4602
 5154SOL     OW27097   0.620   4.481   0.608  0.2284  0.0867  0.1721
 5154SOL    HW127098   0.704   4.437   0.590 -0.0269  0.0136 -0.8523
 5154SOL    HW227099   0.597   4.447   0.694  2.1663  0.5434  0.8884
 5155SOL     OW27100   0.892   3.813  12.190 -0.7210 -0.1519  0.0613
 5155SOL    HW127101   0.938   3.736  12.224 -0.3254  0.8785  1.8484
 5155SOL    HW227102   0.823   3.762  12.147 -2.0659  1.0396  0.8110
 5156SOL     OW27103   2.879   0.392   1.046 -0.6547  0.3937 -0.0576
 5156SOL    HW127104   2.878   0.337   0.967  2.0117  0.2260  0.0008
 5156SOL    HW227105   2.821   0.338   1.100 -1.1985  1.1256  0.0771
 5157SOL     OW27106   4.698   2.081   2.946 -0.4137 -0.2146 -1.0011
 5157SOL    HW127107   0.016   2.153   2.980 -0.2885 -0.3970 -0.8060
 5157SOL    HW227108   4.623   2.083   3.005 -0.5080 -0.3586 -1.1139
 5158SOL     OW27109   3.004   3.768   8.254 -0.3914  0.4447 -0.1785
 5158SOL    HW127110   2.985   3.765   8.161 -1.1455  0.0216 -0.0124
 5158SOL    HW227111   2.930   3.716   8.286 -0.3960 -0.3139 -1.4611
 5159SOL     OW27112   0.378   1.885  13.325  0.0394 -0.9625  0.6366
 5159SOL    HW127113   0.418   1.804  13.294 -3.3340 -1.8934 -1.2182
 5159SOL    HW227114   0.459   1.937  13.322  0.4303 -1.7193 -2.0537
 5160SOL     OW27115   0.077   2.952   0.294  0.7283 -0.0893 -0.0798
 5160SOL    HW127116   0.131   3.031   0.301 -0.2467  0.7596 -2.0628
 5160SOL    HW227117   0.054   2.939   0.386  2.4469 -1.9698  0.0862
 5161SOL     OW27118   0.689   4.194   7.429 -0.4395  0.0749 -0.3342
 5161SOL    HW127119   0.613   4.136   7.437  0.3648 -1.0575 -0.9767
 5161SOL    HW227120   0.672   4.242   7.510 -0.8161  2.3198 -1.7415
 5162SOL     OW27121   3.682   2.348   6.534 -0.4779  0.4014 -0.2277
 5162SOL    HW127122   3.689   2.382   6.623  0.6150  1.9788 -0.9228
 5162SOL    HW227123   3.683   2.252   6.544  1.0013  0.2695 -1.6009
 5163SOL     OW27124   3.972   2.880   5.678  0.5838  0.3681 -0.1515
 5163SOL    HW127125   4.057   2.837   5.683  1.2032  1.6796  0.7688
 5163SOL    HW227126   3.948   2.893   5.770  0.4800  0.2393 -0.1613
 5164SOL     OW27127   2.383   1.393   5.177 -0.7991  0.0054  0.1252
 5164SOL    HW127128   2.401   1.375   5.269 -0.5605 -2.1300 -0.3380
 5164SOL    HW227129   2.437   1.471   5.165 -0.2310 -0.6207 -1.3657
 5165SOL     OW27130   2.573   2.726   6.788 -0.2579 -0.0013 -1.3374
 5165SOL    HW127131   2.555   2.804   6.841 -3.8075 -1.3266 -0.5652
 5165SOL    HW227132   2.529   2.740   6.704 -0.6859  3.1837 -0.5944
 5166SOL     OW27133   1.890   2.695   3.307  0.3853  0.2675  0.0386
 5166SOL    HW127134   1.970   2.653   3.339  0.6956  0.7363 -0.1205
 5166SOL    HW227135   1.894   2.666   3.216  1.0924 -3.0979  1.1412
 5167SOL     OW27136   0.932   3.442  14.574 -0.5290 -0.0718 -0.5845
 5167SOL    HW127137   1.023   3.470  14.587 -0.4112 -0.5732 -0.3477
 5167SOL    HW227138   0.937   3.433  14.478 -0.3567  1.6741 -0.7348
 5168SOL     OW27139   2.097   1.733  15.709 -0.3780 -0.0001  0.3775
 5168SOL    HW127140   2.048   1.804  15.668  0.4817 -0.7697 -2.0065
 5168SOL    HW227141   2.085   1.762  15.799 -0.6250  2.2580 -0.3816
 5169SOL     OW27142   4.522   1.253   9.096 -0.0678 -0.0930  0.3909
 5169SOL    HW127143   4.558   1.282   9.179  0.8227 -0.7435  0.2306
 5169SOL    HW227144   4.477   1.332   9.067  2.1230  0.1257 -2.3807
 5170SOL     OW27145   0.147   0.567  10.230  0.1283 -0.0110  0.1860
 5170SOL    HW127146   0.145   0.655  10.268 -1.7672 -0.3048  0.7858
 5170SOL    HW227147   0.056   0.557  10.203 -0.1599  0.9845  0.7925
 5171SOL     OW27148   1.975   4.180   9.779  0.6113 -0.4217  0.5012
 5171SOL    HW127149   2.033   4.189   9.854 -1.2624  1.0152  1.7834
 5171SOL    HW227150   1.888   4.191   9.818 -0.2717 -0.3485 -1.4857
 5172SOL     OW27151   3.452   3.457   6.935  0.3462  0.3146  0.1205
 5172SOL    HW127152   3.479   3.366   6.946 -1.2544 -0.4149 -2.0687
 5172SOL    HW227153   3.453   3.484   7.027 -1.1694  2.2266 -0.4250
 5173SOL     OW27154   0.210   3.102   3.995 -0.3511 -0.1435  0.6293
 5173SOL    HW127155   0.189   3.059   4.078 -1.5056 -3.9840 -1.6636
 5173SOL    HW227156   0.179   3.192   4.003  0.2907  0.2922 -1.8065
 5174SOL     OW27157   3.400   2.198   7.781 -0.3418 -0.4265  0.6014
 5174SOL    HW127158   3.392   2.155   7.696  0.3832 -1.1262  0.8828
 5174SOL    HW227159   3.475   2.256   7.765  0.1113 -0.7507  1.5067
 5175SOL     OW27160   1.070   4.254  16.956 -0.1717  0.6020  0.4791
 5175SOL    HW127161   1.090   4.165  16.985  1.3538  0.7368 -0.2148
 5175SOL    HW227162   1.036   4.234  16.869 -0.5871  0.5722  0.6477
 5176SOL     OW27163   2.780   4.262   6.531  0.0676  0.1883 -0.1610
 5176SOL    HW127164   2.808   4.171   6.542 -0.9788  0.0130  0.9667
 5176SOL    HW227165   2.771   4.295   6.620 -2.0213 -2.6850  0.6716
 5177SOL     OW27166   4.397   1.816   2.161  0.4784  0.4391 -0.7081
 5177SOL    HW127167   4.412   1.895   2.109 -0.1822  1.9338  1.3740
 5177SOL    HW227168   4.367   1.755   2.094  1.1866 -0.2667 -0.3854
 5178SOL     OW27169   3.790   1.634   0.104  0.4073  0.4149 -0.2284
 5178SOL    HW127170   3.873   1.679   0.095  0.6721 -0.1886 -0.8528
 5178SOL    HW227171   3.790   1.593   0.191 -1.6087 -2.7961 -1.6946
 5179SOL     OW27172   2.709   3.658  15.921  0.1184 -0.2907 -0.2409
 5179SOL    HW127173   2.683   3.584  15.867  0.9912 -1.6624  1.2099
 5179SOL    HW227174   2.630   3.712  15.925  0.4372  0.0767  1.2824
 5180SOL     OW27175   0.106   2.634   4.719 -0.2423  0.3732 -0.2660
 5180SOL    HW127176   0.188   2.656   4.676  0.7773 -0.6539  1.1410
 5180SOL    HW227177   0.092   2.694   4.793 -1.9364  1.4998 -1.5042
 5181SOL     OW27178   3.369   0.258  15.148 -0.9081 -0.2907 -0.0823
 5181SOL    HW127179   3.320   0.321  15.200  0.3377  0.7359 -0.1785
 5181SOL    HW227180   3.305   0.229  15.083 -0.6373  2.0599 -1.3944
 5182SOL     OW27181   4.433   3.866   6.205 -0.2122  0.4972  0.7733
 5182SOL    HW127182   4.431   3.791   6.264 -2.4307  0.0118  0.0906
 5182SOL    HW227183   4.477   3.925   6.266 -1.6429  0.9948  1.3170
 5183SOL     OW27184   4.428   2.212   7.422 -0.0252 -0.5639 -0.3447
 5183SOL    HW127185   4.339   2.223   7.389 -1.2265  0.2725  3.2762
 5183SOL    HW227186   4.444   2.128   7.378  0.0942 -0.4861 -0.4542
 5184SOL     OW27187   0.969   0.695   1.856  0.5680  0.6511  0.1244
 5184SOL    HW127188   0.983   0.760   1.925  0.3947  0.6093  0.1995
 5184SOL    HW227189   1.055   0.655   1.845  0.1382 -0.3995  0.6605
 5185SOL     OW27190   2.379   3.898  17.430 -0.4080  0.0209  0.2095
 5185SOL    HW127191   2.467   3.879  17.396 -0.7247  0.4057 -0.8266
 5185SOL    HW227192   2.409   3.944  17.508  3.0791 -1.3905 -0.3050
 5186SOL     OW27193   4.085   3.129   4.449  0.0726  0.3855 -0.2765
 5186SOL    HW127194   4.072   3.034   4.452  1.2184  0.2329 -0.3954
 5186SOL    HW227195   4.064   3.155   4.539 -1.0101  1.1220 -0.7466
 5187SOL     OW27196   0.553   4.274   8.056  0.0762 -0.7645 -0.0072
 5187SOL    HW127197   0.560   4.339   7.987 -1.3129 -0.6724 -0.0753
 5187SOL    HW227198   0.465   4.291   8.092  0.6647 -0.5658  1.3435
 5188SOL     OW27199   1.401   3.968   5.772  0.2118 -0.2835 -0.1728
 5188SOL    HW127200   1.436   4.023   5.842  0.2004 -1.1072  0.4794
 5188SOL    HW227201   1.309   3.993   5.771  0.4812  0.6852  0.0668
 5189SOL     OW27202   1.280   0.164  13.986 -0.4560 -0.2149 -0.0454
 5189SOL    HW127203   1.279   0.257  14.007  0.7382  0.3989 -2.7204
 5189SOL    HW227204   1.375   0.154  13.979 -0.6703 -2.1744 -0.2924
 5190SOL     OW27205   3.211   2.638   2.475  0.1697  0.0755  0.0770
 5190SOL    HW127206   3.217   2.714   2.417  2.4618 -0.6005 -0.5563
 5190SOL    HW227207   3.183   2.686   2.553 -0.7151  0.6088 -0.5651
 5191SOL     OW27208   3.204   2.319   7.971 -0.0976  0.6477  0.1162
 5191SOL    HW127209   3.275   2.309   7.907 -1.2456 -0.3064 -0.9966
 5191SOL    HW227210   3.135   2.292   7.911 -0.7554 -1.4978  1.8536
 5192SOL     OW27211   0.953   0.042   5.133  0.2629  0.4777  0.2913
 5192SOL    HW127212   0.907   0.028   5.050  1.0931 -0.0906 -0.0737
 5192SOL    HW227213   0.921   0.128   5.161 -0.5119  0.7679 -1.4912
 5193SOL     OW27214   1.930   0.908   1.171  0.1777 -0.2282 -0.4259
 5193SOL    HW127215   1.962   0.839   1.228  0.3340  0.4302  0.2784
 5193SOL    HW227216   1.943   0.865   1.086 -1.4586  2.0212 -1.8337
 5194SOL     OW27217   3.006   1.033  11.828 -0.0890  1.0499 -0.3692
 5194SOL    HW127218   3.095   1.068  11.834 -0.7397  2.9039 -1.3648
 5194SOL    HW227219   3.005   0.979  11.907  0.8889  0.5269 -0.7282
 5195SOL     OW27220   1.802   4.509   2.565 -0.2915 -0.3239 -0.8390
 5195SOL    HW127221   1.760   4.534   2.647 -0.4441  0.1946 -1.0755
 5195SOL    HW227222   1.733   4.524   2.501 -0.1216  0.4134 -0.8464
 5196SOL     OW27223   0.421   1.359   2.968  0.3766  0.0413  0.2671
 5196SOL    HW127224   0.469   1.388   2.891 -1.1224  0.7970 -0.3985
 5196SOL    HW227225   0.476   1.393   3.039  0.7681 -1.0625  0.4868
 5197SOL     OW27226   1.108   1.335   7.655 -0.0984  0.2709  0.1922
 5197SOL    HW127227   1.014   1.347   7.649  0.1389  2.3950  0.8939
 5197SOL    HW227228   1.128   1.326   7.748 -0.3351 -0.2421  0.1943
 5198SOL     OW27229   4.117   2.777   6.635 -0.2968  0.4189 -0.3085
 5198SOL    HW127230   4.064   2.816   6.567  0.8424  0.1678 -1.3517
 5198SOL    HW227231   4.090   2.825   6.713  2.0191  2.6593 -0.8879
 5199SOL     OW27232   1.730   1.650   5.392 -0.1444  0.0154  0.1325
 5199SOL    HW127233   1.709   1.727   5.339  0.2791 -1.0913 -1.6502
 5199SOL    HW227234   1.647   1.636   5.438 -0.0508  2.1056  0.9554
 5200SOL     OW27235   0.190   4.083   3.385 -0.5807 -0.1665 -0.2604
 5200SOL    HW127236   0.151   4.004   3.347  2.6970 -1.3926 -1.1219
 5200SOL    HW227237   0.165   4.094   3.477  0.7986  1.9930 -0.1593
 5201SOL     OW27238   4.164   3.230   2.921 -0.6698 -0.0038 -0.0852
 5201SOL    HW127239   4.251   3.232   2.961 -0.3667 -0.3262 -0.7254
 5201SOL    HW227240   4.170   3.151   2.867 -1.1257 -0.5257  0.6340
 5202SOL     OW27241   4.057   1.404  17.619 -0.0403 -0.3484  0.5976
 5202SOL    HW127242   3.966   1.380  17.635 -0.5894  1.1483 -0.3181
 5202SOL    HW227243   4.101   1.345  17.680  1.0435  0.6510  0.7947
 5203SOL     OW27244   1.667   0.778   3.292  0.0371 -0.0685  0.1229
 5203SOL    HW127245   1.591   0.831   3.272 -1.1643 -2.8308 -2.6230
 5203SOL    HW227246   1.620   0.704   3.331  0.3205 -1.3264 -1.8917
 5204SOL     OW27247   4.465   2.959   8.436 -0.4506  0.0427  0.0867
 5204SOL    HW127248   4.550   2.927   8.405 -0.8111 -0.7502 -0.0629
 5204SOL    HW227249   4.462   3.054   8.423 -3.0732  0.0466  0.8383
 5205SOL     OW27250   0.947   4.182   0.377 -0.8523  0.0792  0.0821
 5205SOL    HW127251   0.923   4.246   0.310  0.0375  1.8896  1.5032
 5205SOL    HW227252   0.898   4.102   0.358 -1.7826  0.0091  2.7667
 5206SOL     OW27253   3.958   4.287  10.732  0.4781  0.1568 -0.0579
 5206SOL    HW127254   3.905   4.308  10.809 -0.0809  2.5822 -1.0870
 5206SOL    HW227255   4.012   4.212  10.755 -0.3219 -0.7204 -1.0471
 5207SOL     OW27256   2.424   0.067   5.981 -0.4604 -0.5903  0.0956
 5207SOL    HW127257   2.499   0.068   5.921 -0.4591  0.6688  0.1175
 5207SOL    HW227258   2.384   4.717   5.960 -0.4890 -0.4009 -0.6202
 5208SOL     OW27259   3.047   4.115   2.397 -0.6552 -0.1513 -0.3981
 5208SOL    HW127260   2.973   4.054   2.394 -2.3076  1.8843 -1.0337
 5208SOL    HW227261   3.102   4.068   2.460  1.3305 -0.0297 -2.0458
 5209SOL     OW27262   2.952   4.631  14.992  0.3084 -0.0437  0.7441
 5209SOL    HW127263   2.980   4.547  15.028 -0.3080  0.5556  2.6505
 5209SOL    HW227264   2.899   4.603  14.918 -0.7399  0.5036  1.2860
 5210SOL     OW27265   0.462   0.179   8.566 -0.0829 -0.8776  0.5958
 5210SOL    HW127266   0.484   0.116   8.498 -0.4036 -0.0054 -0.3196
 5210SOL    HW227267   0.492   0.121   8.636  0.7150 -0.5342  0.5396
 5211SOL     OW27268   0.939   0.416   0.089 -0.1752  0.7466 -0.4076
 5211SOL    HW127269   0.906   0.416   0.179  2.6613  0.9216  0.6461
 5211SOL    HW227270   0.859   0.401   0.040 -0.5986 -1.1496  0.8796
 5212SOL     OW27271   0.286   2.506  16.056  0.0159 -0.2657 -0.0720
 5212SOL    HW127272   0.369   2.470  16.025  1.7379  3.6107  0.0524
 5212SOL    HW227273   0.243   2.539  15.978 -1.0696  1.3397  1.2074
 5213SOL     OW27274   2.649   4.576   4.436 -0.8085 -0.2710 -0.5949
 5213SOL    HW127275   2.594   4.509   4.393 -1.9638  1.2886 -1.5738
 5213SOL    HW227276   2.590   4.609   4.504 -0.8680  1.9902 -1.7326
 5214SOL     OW27277   4.417   4.345   2.662  0.4893  0.0694 -0.3280
 5214SOL    HW127278   4.326   4.343   2.634  0.3896 -0.7705  0.0509
 5214SOL    HW227279   4.451   4.309   2.580 -2.0856 -0.4110 -1.1881
 5215SOL     OW27280   0.362   3.726   1.544 -0.2228 -0.0925  0.3017
 5215SOL    HW127281   0.447   3.764   1.569 -0.7907  1.0530  0.4937
 5215SOL    HW227282   0.334   3.691   1.629 -0.9645 -1.0571 -0.3491
 5216SOL     OW27283   0.246   1.641   4.587  0.3045  0.0077  0.0624
 5216SOL    HW127284   0.293   1.719   4.555 -2.1359  1.0004 -1.0667
 5216SOL    HW227285   0.170   1.648   4.529  0.9495  1.1888 -0.6400
 5217SOL     OW27286   2.031   0.229  11.274  0.2891 -0.2424 -0.2021
 5217SOL    HW127287   2.018   0.139  11.246  1.5428 -0.5248  0.1091
 5217SOL    HW227288   2.012   0.271  11.190  1.9342 -0.6198 -0.7677
 5218SOL     OW27289   4.318   3.591   7.297  0.0953 -0.0154  0.1586
 5218SOL    HW127290   4.266   3.542   7.360 -1.2074  2.1785  0.7819
 5218SOL    HW227291   4.254   3.619   7.231 -0.1993  0.4845  0.6600
 5219SOL     OW27292   2.737   3.931   9.657  0.4092  0.1261  0.0850
 5219SOL    HW127293   2.700   4.006   9.703 -0.7437 -0.2362 -0.2717
 5219SOL    HW227294   2.781   3.902   9.737  0.6639  1.7098  0.5259
 5220SOL     OW27295   3.289   0.044   0.810  0.2893 -0.1766  0.5036
 5220SOL    HW127296   3.347   0.040   0.734  0.7449  0.6595  0.8079
 5220SOL    HW227297   3.327   0.113   0.864  0.1285 -0.0099  0.4050
 5221SOL     OW27298   3.997   0.677   5.312  0.6469  0.2950 -0.1577
 5221SOL    HW127299   4.034   0.591   5.289 -0.3413 -0.5031  1.2582
 5221SOL    HW227300   4.078   0.719   5.343  0.5703  1.2033 -1.2168
 5222SOL     OW27301   0.232   2.320   5.165  0.1811 -0.6466 -0.2798
 5222SOL    HW127302   0.280   2.396   5.197  0.1569 -1.0512  0.7121
 5222SOL    HW227303   0.181   2.302   5.244 -0.2804 -2.3360 -0.9718
 5223SOL     OW27304   3.040   2.572  13.419 -0.1286  0.2236  0.1460
 5223SOL    HW127305   3.113   2.624  13.388 -0.2726 -1.0208 -2.3076
 5223SOL    HW227306   2.983   2.579  13.342 -0.9114  3.2041  1.0166
 5224SOL     OW27307   4.512   3.490  13.071 -0.3186  0.2939 -0.0191
 5224SOL    HW127308   4.557   3.554  13.016  1.6273 -1.2266 -0.1873
 5224SOL    HW227309   4.570   3.495  13.147  1.2926  0.3102 -1.2510
 5225SOL     OW27310   0.806   2.237   2.682 -0.3159 -0.0051 -0.5329
 5225SOL    HW127311   0.812   2.164   2.621  1.3594  0.7534 -1.3080
 5225SOL    HW227312   0.725   2.275   2.650 -0.7978 -0.2987  0.3439
 5226SOL     OW27313   0.751   3.156   1.489  0.6203 -0.1263 -0.0782
 5226SOL    HW127314   0.688   3.093   1.454 -0.1790 -0.7481  2.4834
 5226SOL    HW227315   0.836   3.123   1.460 -0.1842 -2.4264  0.1694
 5227SOL     OW27316   2.686   2.540  12.070  0.3489  0.0919  0.5252
 5227SOL    HW127317   2.707   2.587  12.151 -0.7547 -0.8035  1.3234
 5227SOL    HW227318   2.756   2.475  12.063  0.8732  0.5637  1.2996
 5228SOL     OW27319   3.313   3.661   6.662 -0.5306  0.4920  0.0627
 5228SOL    HW127320   3.295   3.568   6.673  2.3023 -0.6550 -4.7874
 5228SOL    HW227321   3.408   3.666   6.661 -0.6805  3.4812 -0.3297
 5229SOL     OW27322   4.384   3.398   1.709  0.1758 -0.9798  0.1362
 5229SOL    HW127323   4.332   3.335   1.757 -2.8480  1.5474  0.1615
 5229SOL    HW227324   4.385   3.479   1.761 -1.2046 -0.9933  0.1782
 5230SOL     OW27325   1.670   1.859   0.122 -0.1259 -0.5102 -0.8163
 5230SOL    HW127326   1.609   1.793   0.088 -0.8355 -1.1176  1.6225
 5230SOL    HW227327   1.656   1.835   0.214 -3.0266 -3.3243 -1.9666
 5231SOL     OW27328   1.901   1.970   4.011  0.4772  0.0408  0.1446
 5231SOL    HW127329   1.863   1.884   3.994 -0.3165  0.6095 -0.9605
 5231SOL    HW227330   1.899   2.012   3.925 -2.6577 -0.4727 -0.0390
 5232SOL     OW27331   3.818   3.545   6.888  0.3004 -0.0938 -0.0703
 5232SOL    HW127332   3.851   3.494   6.962 -0.8847  2.0958  1.9684
 5232SOL    HW227333   3.860   3.628   6.913  2.0580 -0.7035 -0.9325
 5233SOL     OW27334   3.337   1.317   2.820 -0.7815  0.1785 -0.5526
 5233SOL    HW127335   3.256   1.342   2.865 -1.7434  0.7548 -2.6291
 5233SOL    HW227336   3.358   1.406   2.793 -3.1934  0.2535 -2.2238
 5234SOL     OW27337   2.979   2.834  13.135 -0.6386 -0.2076 -0.4039
 5234SOL    HW127338   2.936   2.883  13.205  3.1835 -0.0878  1.8215
 5234SOL    HW227339   3.068   2.823  13.167 -0.2253 -0.2364 -1.5470
 5235SOL     OW27340   1.444   1.504  12.994  0.3143  0.0592 -0.4298
 5235SOL    HW127341   1.533   1.497  12.961  0.6647  3.3131 -0.2496
 5235SOL    HW227342   1.403   1.584  12.959  0.9033 -0.4673 -2.2615
 5236SOL     OW27343   2.038   0.040   7.753 -0.1658  0.3863 -0.7740
 5236SOL    HW127344   2.123   0.060   7.793 -1.4352  3.1303  0.5427
 5236SOL    HW227345   2.023   4.685   7.785  1.3656 -0.1767 -1.5933
 5237SOL     OW27346   3.936   1.886   6.281 -0.9422 -0.6389 -0.2883
 5237SOL    HW127347   3.994   1.811   6.266 -0.1032 -0.3311  1.4337
 5237SOL    HW227348   3.913   1.900   6.189  0.2609 -0.6521 -0.6038
 5238SOL     OW27349   3.351   4.675   6.040  0.2395  0.3990  0.5426
 5238SOL    HW127350   3.315   0.027   6.020  2.5118  1.8358  2.6096
 5238SOL    HW227351   3.444   4.698   6.039 -0.4693  3.1796 -1.4516
 5239SOL     OW27352   0.884   0.716   3.634 -0.7401 -0.1743  0.2308
 5239SOL    HW127353   0.915   0.664   3.707  0.7969  0.3402 -0.0514
 5239SOL    HW227354   0.908   0.656   3.563  0.2666  0.4137  0.0669
 5240SOL     OW27355   0.528   4.134   4.460 -0.3205 -0.0885 -0.4094
 5240SOL    HW127356   0.595   4.150   4.527 -0.7651  1.2484 -0.2935
 5240SOL    HW227357   0.446   4.154   4.506 -0.2644 -0.8002  0.0123
 5241SOL     OW27358   2.752   4.656  14.775 -0.0543  0.1838  0.1599
 5241SOL    HW127359   2.740   0.010  14.739  1.6593 -0.6278 -2.4203
 5241SOL    HW227360   2.728   4.603  14.698 -0.7731 -0.8055  1.0645
 5242SOL     OW27361   0.144   1.573  13.559 -0.0844 -0.0451 -0.0025
 5242SOL    HW127362   0.122   1.526  13.640 -0.2451 -0.6556 -0.4028
 5242SOL    HW227363   0.056   1.573  13.522 -1.0043 -1.9567  2.1812
 5243SOL     OW27364   1.864   0.891  11.139 -0.2056 -0.2842  0.3857
 5243SOL    HW127365   1.844   0.866  11.049  1.6345  2.5845 -0.8033
 5243SOL    HW227366   1.814   0.821  11.182  1.1552 -1.6040 -0.1879
 5244SOL     OW27367   4.514   3.291   4.637  0.1325  0.0836 -0.4981
 5244SOL    HW127368   4.510   3.377   4.595 -0.7789 -0.2001 -0.9855
 5244SOL    HW227369   4.497   3.240   4.558 -2.1754 -1.4788  0.9910
 5245SOL     OW27370   3.564   0.960   7.285  0.3792 -0.9438 -0.2409
 5245SOL    HW127371   3.613   0.880   7.264  0.9604 -0.6773  0.1086
 5245SOL    HW227372   3.477   0.928   7.309  0.2738  1.5991  2.6738
 5246SOL     OW27373   3.245   0.265   6.499  0.6738 -0.2975 -0.2767
 5246SOL    HW127374   3.171   0.317   6.465 -0.1804 -1.4103 -0.0912
 5246SOL    HW227375   3.216   0.186   6.544  0.5333  0.9049  1.7607
 5247SOL     OW27376   4.063   4.453  10.527 -0.2734  0.7858 -0.4600
 5247SOL    HW127377   4.007   4.393  10.577 -0.2834  0.6168 -0.6706
 5247SOL    HW227378   4.104   4.498  10.600 -1.1400 -0.8049  1.0189
 5248SOL     OW27379   1.069   4.241   8.962  0.0320 -0.3467  0.2944
 5248SOL    HW127380   1.116   4.169   8.921  1.1071  1.1101 -1.0271
 5248SOL    HW227381   1.096   4.319   8.913 -1.8731 -0.1932 -0.5077
 5249SOL     OW27382   0.892   0.934   3.793 -0.1039  0.4897  0.1501
 5249SOL    HW127383   0.861   0.854   3.750  1.9269  0.7283 -1.7648
 5249SOL    HW227384   0.814   0.974   3.832 -0.5901  0.9804 -1.3276
 5250SOL     OW27385   0.588   0.658   4.084 -0.4073 -0.2025  1.0748
 5250SOL    HW127386   0.679   0.648   4.056 -1.1140 -1.3535 -0.7959
 5250SOL    HW227387   0.614   0.677   4.174 -0.9445 -0.8878  1.3790
 5251SOL     OW27388   2.335   1.845   9.453  0.7392  0.3535 -0.0536
 5251SOL    HW127389   2.256   1.797   9.428  0.7264 -0.2306  1.0917
 5251SOL    HW227390   2.289   1.888   9.526  0.7901 -0.4810  0.4607
 5252SOL     OW27391   0.021   2.728   8.853 -0.0422  0.1489 -0.4512
 5252SOL    HW127392   0.041   2.814   8.888 -0.7099  0.0213  0.2552
 5252SOL    HW227393   0.093   2.715   8.792  0.1425 -0.8306 -0.0215
 5253SOL     OW27394   2.636   2.420   1.748 -0.6147 -0.4452 -0.2320
 5253SOL    HW127395   2.643   2.334   1.789 -0.4810  1.1518  3.1072
 5253SOL    HW227396   2.727   2.429   1.718 -0.9611 -2.1943 -1.7949
 5254SOL     OW27397   0.441   0.743   6.816 -0.1110  0.3490 -0.1476
 5254SOL    HW127398   0.385   0.809   6.775 -1.7698 -0.0891  1.4541
 5254SOL    HW227399   0.400   0.737   6.902 -0.1334 -2.3971 -0.3537
 5255SOL     OW27400   3.469   3.729  16.586 -0.3829 -0.3400 -0.4477
 5255SOL    HW127401   3.447   3.651  16.637 -0.0318  0.9469  1.6538
 5255SOL    HW227402   3.454   3.685  16.502  2.7832  0.1502 -1.2881
 5256SOL     OW27403   4.284   3.366   5.392  0.4613  0.1123  0.1473
 5256SOL    HW127404   4.290   3.282   5.437 -1.1977 -0.0910  0.0163
 5256SOL    HW227405   4.300   3.433   5.459  1.7412 -0.6096  0.5532
 5257SOL     OW27406   1.298   4.393   6.312  0.4369 -0.0979 -0.1736
 5257SOL    HW127407   1.211   4.430   6.327  0.7099  0.4048  0.1632
 5257SOL    HW227408   1.326   4.445   6.237 -0.9958 -1.0705 -1.3655
 5258SOL     OW27409   4.564   2.866   0.939  0.2208 -0.0835  0.4014
 5258SOL    HW127410   4.567   2.956   0.906  2.3438 -0.1801  0.3190
 5258SOL    HW227411   4.618   2.867   1.018 -0.5794  1.5141  0.9262
 5259SOL     OW27412   3.449   0.231   0.088  0.2870  0.5037  0.6300
 5259SOL    HW127413   3.487   0.319   0.081 -1.9312  1.2962 -1.5915
 5259SOL    HW227414   3.379   0.231   0.023  1.6177 -0.1525 -0.8140
 5260SOL     OW27415   3.426   2.876  11.029 -0.4285 -0.3286 -0.0033
 5260SOL    HW127416   3.344   2.831  11.007 -1.3425 -0.0491  2.8792
 5260SOL    HW227417   3.490   2.807  11.048 -1.7057 -1.0411  1.6447
 5261SOL     OW27418   3.376   4.535   6.948 -0.2661  0.1964  0.1545
 5261SOL    HW127419   3.282   4.545   6.962 -0.1190  0.0135  1.2904
 5261SOL    HW227420   3.386   4.620   6.905 -1.3796 -0.6485 -1.7485
 5262SOL     OW27421   1.509   0.288  11.321 -0.2086  0.2684  0.6539
 5262SOL    HW127422   1.520   0.381  11.300  1.3847  0.2144  1.2035
 5262SOL    HW227423   1.472   0.292  11.409 -1.9983 -0.1594 -0.0788
 5263SOL     OW27424   2.475   1.512   4.682 -0.3931  0.3852 -0.0190
 5263SOL    HW127425   2.568   1.525   4.664 -0.5035  1.1488 -0.0162
 5263SOL    HW227426   2.451   1.455   4.608  1.9097 -1.0983  0.3948
 5264SOL     OW27427   0.071   3.716   9.102  0.2464 -0.5423  0.3406
 5264SOL    HW127428   4.730   3.712   9.043  0.0521  0.7439  0.5039
 5264SOL    HW227429   0.118   3.792   9.067 -0.0915 -0.3266  0.3551
 5265SOL     OW27430   4.014   3.178  13.691 -0.1111  0.6555  0.3319
 5265SOL    HW127431   4.015   3.083  13.702  0.5900  0.4769 -1.3192
 5265SOL    HW227432   4.015   3.206  13.782 -0.7997 -0.5313  0.7025
 5266SOL     OW27433   2.516   0.080  16.198 -0.0186  0.1850  0.1642
 5266SOL    HW127434   2.439   0.103  16.145  0.9338  0.4282 -1.0977
 5266SOL    HW227435   2.525   4.719  16.194  0.6319  0.3878 -2.7019
 5267SOL     OW27436   1.306   2.509   5.965 -0.5174  0.3073 -0.1915
 5267SOL    HW127437   1.400   2.520   5.980 -0.8788  2.0728  0.7681
 5267SOL    HW227438   1.295   2.459   5.884 -0.9035  0.9870 -0.5594
 5268SOL     OW27439   2.977   1.791   5.765  0.1678  0.2785 -0.1976
 5268SOL    HW127440   2.911   1.851   5.729 -0.2640 -0.0744  0.0124
 5268SOL    HW227441   2.932   1.746   5.836  3.7660  0.4995  2.2374
 5269SOL     OW27442   4.721   3.388   5.199 -0.0094 -0.1413  0.2646
 5269SOL    HW127443   4.647   3.446   5.218  0.4139  0.8645 -1.1059
 5269SOL    HW227444   4.683   3.305   5.228  1.5438 -1.2820 -0.9308
 5270SOL     OW27445   2.521   4.709   6.806 -0.3314  0.1787  0.3809
 5270SOL    HW127446   2.512   4.663   6.723 -0.5296 -0.2601  0.6503
 5270SOL    HW227447   2.522   0.062   6.766 -0.8861 -0.4758 -1.0568
 5271SOL     OW27448   0.665   3.944  13.792  0.4241  0.2307  0.2960
 5271SOL    HW127449   0.593   3.933  13.730  0.6592  0.6415 -0.0485
 5271SOL    HW227450   0.652   4.031  13.831 -1.4546 -0.1878  0.6193
 5272SOL     OW27451   3.916   1.688   7.658  0.0772  0.5754 -0.1185
 5272SOL    HW127452   3.916   1.669   7.751 -2.3259  3.6885  0.4992
 5272SOL    HW227453   3.832   1.732   7.649  0.6380  1.3602 -1.5177
 5273SOL     OW27454   2.469   1.760   7.563  0.2445 -0.8753  0.3806
 5273SOL    HW127455   2.453   1.671   7.592 -1.0328 -1.2289 -1.4390
 5273SOL    HW227456   2.518   1.739   7.483  0.4471  1.5945 -0.1473
 5274SOL     OW27457   2.772   4.373   3.791 -0.2358  0.3784  1.0551
 5274SOL    HW127458   2.729   4.294   3.758 -0.4309 -0.5009  3.4024
 5274SOL    HW227459   2.778   4.355   3.885 -0.1923  0.2751  1.0330
 5275SOL     OW27460   0.731   1.000   0.326 -0.4162  0.1064  0.0474
 5275SOL    HW127461   0.765   0.941   0.259 -1.6674 -0.2196 -0.2971
 5275SOL    HW227462   0.658   0.950   0.363 -0.4650  0.7572  0.8324
 5276SOL     OW27463   2.560   1.800   3.601 -0.3485 -0.6228 -0.3672
 5276SOL    HW127464   2.518   1.787   3.516  0.4057  0.4949 -0.9006
 5276SOL    HW227465   2.627   1.731   3.597 -1.2129 -1.5687  1.1742
 5277SOL     OW27466   3.129   4.007  13.345 -0.4094  0.1025  0.2842
 5277SOL    HW127467   3.096   4.069  13.410  1.8194 -0.0392  1.5107
 5277SOL    HW227468   3.046   3.987  13.301  0.3419  0.1673 -1.1653
 5278SOL     OW27469   2.630   4.165   7.091  0.0233  1.3739 -0.4706
 5278SOL    HW127470   2.565   4.234   7.079 -1.1921  0.4113  0.5647
 5278SOL    HW227471   2.576   4.087   7.079 -0.5086  1.4484  1.3520
 5279SOL     OW27472   2.622   3.225  11.623 -0.3359 -0.2357 -0.2537
 5279SOL    HW127473   2.554   3.228  11.556  0.0798  2.0121 -0.5891
 5279SOL    HW227474   2.560   3.221  11.696 -0.5531 -1.1072 -0.4853
 5280SOL     OW27475   4.017   1.220   7.089 -0.4259  0.7361 -0.0014
 5280SOL    HW127476   3.939   1.271   7.069  0.0688  1.6396  0.3591
 5280SOL    HW227477   3.981   1.134   7.069 -1.5690  1.2211 -0.0398
 5281SOL     OW27478   0.443   1.888  12.211  0.7224 -0.1823 -0.0864
 5281SOL    HW127479   0.481   1.802  12.227  0.4706 -0.5576 -1.4881
 5281SOL    HW227480   0.449   1.923  12.300  1.9190  0.0624 -0.2535
 5282SOL     OW27481   4.592   3.465   3.180  0.1347  0.4612 -0.0592
 5282SOL    HW127482   4.561   3.429   3.262 -0.6951  0.3068 -0.4470
 5282SOL    HW227483   4.531   3.532   3.149  0.6536  0.9338 -0.0610
 5283SOL     OW27484   4.593   2.319   3.667 -0.2086  0.1700 -0.6503
 5283SOL    HW127485   4.639   2.244   3.705 -0.7881 -0.3824 -1.0305
 5283SOL    HW227486   4.585   2.288   3.576  0.8436 -0.6300 -0.4756
 5284SOL     OW27487   1.430   4.194   2.587 -0.1593 -0.3003  0.2362
 5284SOL    HW127488   1.489   4.204   2.512  0.4205 -0.0290  0.7336
 5284SOL    HW227489   1.473   4.121   2.632 -0.3698 -1.9755 -2.3002
 5285SOL     OW27490   4.043   1.080   6.248  0.3865 -0.2173  0.0102
 5285SOL    HW127491   4.125   1.124   6.226  1.8532 -2.2372  1.4409
 5285SOL    HW227492   3.997   1.143   6.303  1.4603 -1.3396  2.1674
 5286SOL     OW27493   0.268   3.791  12.972 -0.0955  0.2126 -0.3235
 5286SOL    HW127494   0.360   3.817  12.972 -0.2223  0.6991  2.2168
 5286SOL    HW227495   0.227   3.863  12.924 -2.5951 -0.4461  0.7802
 5287SOL     OW27496   2.758   2.493   5.278 -0.1022  0.2913  0.4828
 5287SOL    HW127497   2.843   2.538   5.279  0.7324 -1.2834  0.4100
 5287SOL    HW227498   2.723   2.514   5.191 -0.5698  0.6929  0.7747
 5288SOL     OW27499   4.009   4.285  13.168  0.3565 -0.1588  0.2022
 5288SOL    HW127500   4.079   4.340  13.203  0.6170 -1.0096  1.0025
 5288SOL    HW227501   4.057   4.259  13.089 -0.1851  2.6188 -1.0705
 5289SOL     OW27502   0.282   3.304   1.049 -0.3788 -0.3420  0.2233
 5289SOL    HW127503   0.301   3.397   1.045 -1.1674 -0.2254 -0.7917
 5289SOL    HW227504   0.210   3.293   1.111 -0.6636 -0.7169 -0.1755
 5290SOL     OW27505   3.871   1.846  11.477 -0.2549  0.2451  0.3073
 5290SOL    HW127506   3.944   1.819  11.532 -0.1039  3.8620  1.9426
 5290SOL    HW227507   3.902   1.832  11.388  0.6756 -1.2848  0.8761
 5291SOL     OW27508   0.818   1.766   3.523  0.0495  0.4957  0.3251
 5291SOL    HW127509   0.741   1.709   3.519  1.4987 -1.3015 -1.7456
 5291SOL    HW227510   0.823   1.811   3.439  2.2600 -0.3320  0.0155
 5292SOL     OW27511   3.985   4.463   6.311  0.3197 -0.6398  0.5671
 5292SOL    HW127512   4.039   4.417   6.376 -1.8355 -2.0616  1.3501
 5292SOL    HW227513   3.919   4.394   6.313 -1.1846  0.7294 -2.3338
 5293SOL     OW27514   4.583   1.220  15.770  0.0320 -0.3908 -0.4649
 5293SOL    HW127515   4.635   1.233  15.849 -1.6273 -0.9236  0.7239
 5293SOL    HW227516   4.647   1.179  15.712 -2.0146 -1.4077 -1.9736
 5294SOL     OW27517   3.457   4.585   2.215  0.5421  0.1189  0.3071
 5294SOL    HW127518   3.412   4.625   2.140  0.8227  2.7128  1.5139
 5294SOL    HW227519   3.501   4.518   2.162 -1.0454 -2.4039  2.2374
 5295SOL     OW27520   2.313   4.117   3.662 -0.1397 -0.0096  0.1935
 5295SOL    HW127521   2.275   4.138   3.747  0.4045  2.4047 -0.1563
 5295SOL    HW227522   2.281   4.188   3.606  0.7775 -0.8527 -1.4076
 5296SOL     OW27523   4.107   2.932   6.055 -0.4691 -0.1962  0.0153
 5296SOL    HW127524   4.017   2.910   6.030  0.6446 -2.9525 -1.5900
 5296SOL    HW227525   4.149   2.966   5.976 -0.0950  2.4180  1.3276
 5297SOL     OW27526   4.109   1.840   8.107 -0.0826 -0.1631 -0.1398
 5297SOL    HW127527   4.083   1.888   8.186 -0.1661  1.4694 -1.1546
 5297SOL    HW227528   4.175   1.780   8.141  2.5422  2.4288 -0.6443
 5298SOL     OW27529   2.118   1.387   9.379  0.0072 -0.1116  0.4351
 5298SOL    HW127530   2.175   1.350   9.445 -1.8419 -0.4112  1.8567
 5298SOL    HW227531   2.033   1.349   9.399 -0.4341  0.5788 -0.0928
 5299SOL     OW27532   0.486   3.576  14.081  0.2625 -0.2768  0.3227
 5299SOL    HW127533   0.459   3.576  13.989  0.9906 -0.0859  0.1147
 5299SOL    HW227534   0.565   3.630  14.077  0.0690  0.1459  2.2721
 5300SOL     OW27535   2.989   0.248   8.781  0.3924 -0.0830  0.0704
 5300SOL    HW127536   3.034   0.172   8.817 -1.4457 -0.8006  0.8350
 5300SOL    HW227537   3.052   0.294   8.725  2.5252  1.5021  3.7261
 5301SOL     OW27538   3.661   1.946   3.742 -0.4453  0.2031 -0.5716
 5301SOL    HW127539   3.643   2.039   3.731 -1.3760  0.0564 -0.3163
 5301SOL    HW227540   3.736   1.952   3.801 -1.6518  0.6876  0.9509
 5302SOL     OW27541   2.011   2.788   4.751  0.2085  0.4442 -0.0108
 5302SOL    HW127542   1.958   2.855   4.794 -1.9114 -0.8739 -0.6039
 5302SOL    HW227543   2.079   2.761   4.813 -0.1696  0.3017  0.3410
 5303SOL     OW27544   4.428   4.618   4.611  0.4045  0.0170 -0.0656
 5303SOL    HW127545   4.408   4.533   4.570 -1.8616 -0.8172  2.7982
 5303SOL    HW227546   4.482   4.595   4.686  3.0001 -1.0751 -2.2605
 5304SOL     OW27547   4.294   1.725   6.576 -0.2167  0.1192  0.7231
 5304SOL    HW127548   4.280   1.819   6.566  0.6877  0.1379 -0.3831
 5304SOL    HW227549   4.315   1.708   6.668  1.7806 -0.7016  0.1208
 5305SOL     OW27550   1.701   2.888   8.738 -0.3439  0.7259 -0.8216
 5305SOL    HW127551   1.610   2.861   8.746  0.3252 -1.1273  0.3537
 5305SOL    HW227552   1.693   2.983   8.726 -3.0651  0.5860 -0.1081
 5306SOL     OW27553   2.342   0.671   3.811  0.6680 -1.0492 -0.3185
 5306SOL    HW127554   2.387   0.598   3.769  1.7666  0.5964 -1.9637
 5306SOL    HW227555   2.419   0.725   3.828 -0.2004 -0.0171  0.3818
 5307SOL     OW27556   3.421   2.762  15.967  0.1312 -0.6036  0.8009
 5307SOL    HW127557   3.510   2.750  15.932 -1.1062 -2.9826 -1.4715
 5307SOL    HW227558   3.381   2.675  15.961  1.2009 -1.1358  1.2000
 5308SOL     OW27559   0.571   4.087  11.603  1.0009 -0.6212  0.4041
 5308SOL    HW127560   0.619   4.169  11.590  1.0425 -0.4754  1.4057
 5308SOL    HW227561   0.603   4.031  11.533  0.3656 -0.3746 -0.0818
 5309SOL     OW27562   4.170   4.451  13.386 -0.7250  0.0418 -0.5137
 5309SOL    HW127563   4.141   4.540  13.407 -2.8494  0.2200 -4.0657
 5309SOL    HW227564   4.195   4.426  13.475 -0.5482 -0.3712 -0.6812
 5310SOL     OW27565   0.664   2.011   8.733 -0.2504 -0.4513  0.0979
 5310SOL    HW127566   0.569   2.015   8.717 -0.1539  0.6771 -0.2631
 5310SOL    HW227567   0.658   1.953   8.808 -0.0877 -1.6895 -0.8461
 5311SOL     OW27568   1.154   1.101   3.252 -0.1954  0.5184  0.3913
 5311SOL    HW127569   1.194   1.052   3.324  0.1305  1.8612  1.1300
 5311SOL    HW227570   1.189   1.187   3.276  0.5898  0.5030 -0.6791
 5312SOL     OW27571   3.703   3.524  13.813  0.1379  0.0007  0.0126
 5312SOL    HW127572   3.771   3.486  13.758  1.4477 -0.0601  1.6744
 5312SOL    HW227573   3.670   3.592  13.755  1.1890  1.2456  0.8653
 5313SOL     OW27574   1.861   0.214  11.934 -0.1467 -0.0739  0.8631
 5313SOL    HW127575   1.931   0.175  11.988 -1.4777  0.6724  3.1037
 5313SOL    HW227576   1.838   0.141  11.876 -2.1612  2.8007 -1.8927
 5314SOL     OW27577   2.234   0.337   1.147  0.1783  0.1973 -0.2644
 5314SOL    HW127578   2.314   0.378   1.115  1.1742 -0.9723  0.7222
 5314SOL    HW227579   2.184   0.320   1.067  0.4612  3.0326 -1.0515
 5315SOL     OW27580   1.895   2.156   9.125 -0.0472  0.0799 -0.2384
 5315SOL    HW127581   1.955   2.163   9.199  1.4076 -0.3033 -1.3757
 5315SOL    HW227582   1.899   2.245   9.090 -1.4352 -0.7897 -2.5930
 5316SOL     OW27583   1.934   1.885   6.691 -0.1489  0.5945 -0.6098
 5316SOL    HW127584   1.931   1.888   6.787  0.6790  1.0623 -0.5987
 5316SOL    HW227585   1.979   1.969   6.683 -0.2354  0.9062  1.9345
 5317SOL     OW27586   3.642   1.646  10.468 -0.1088  0.5095 -0.1269
 5317SOL    HW127587   3.686   1.670  10.386  1.7141  0.5587  0.8732
 5317SOL    HW227588   3.580   1.578  10.439 -0.3880  1.2133 -1.1853
 5318SOL     OW27589   1.752   3.346   8.428  0.0303  0.0659 -0.7745
 5318SOL    HW127590   1.748   3.282   8.356  0.8965  0.8571 -1.5243
 5318SOL    HW227591   1.659   3.361   8.446  0.5559 -1.0488  2.7896
 5319SOL     OW27592   0.390   3.545   8.285  0.4798  0.1075  0.4172
 5319SOL    HW127593   0.408   3.497   8.366  1.4110 -2.4878 -1.3091
 5319SOL    HW227594   0.361   3.629   8.321 -1.4396 -0.7907  0.9566
 5320SOL     OW27595   4.227   2.812   8.601 -0.0618  0.4397 -0.1274
 5320SOL    HW127596   4.255   2.775   8.685 -1.4812  4.5900  2.1390
 5320SOL    HW227597   4.308   2.817   8.550  0.4192 -1.7084  0.3942
 5321SOL     OW27598   0.131   0.654   9.916 -0.2130  0.6565 -0.0115
 5321SOL    HW127599   0.179   0.700   9.848  2.0838 -2.4623 -0.4826
 5321SOL    HW227600   0.081   0.727   9.952  0.8603  0.1577  2.5194
 5322SOL     OW27601   3.918   2.119  15.301 -0.3011  0.5134 -0.1480
 5322SOL    HW127602   3.962   2.125  15.216  0.5091 -0.9713  0.1750
 5322SOL    HW227603   3.974   2.079  15.367  3.2295 -0.1032 -3.4674
 5323SOL     OW27604   3.654   2.524   5.881  0.4001 -0.2024  0.0898
 5323SOL    HW127605   3.605   2.453   5.923 -0.2372  0.8153  1.0623
 5323SOL    HW227606   3.715   2.538   5.954  0.6889  1.6487 -0.5085
 5324SOL     OW27607   0.902   3.674   5.216  0.5375  0.3604  0.3119
 5324SOL    HW127608   0.888   3.766   5.192 -3.0242 -0.0203  0.9065
 5324SOL    HW227609   0.816   3.633   5.207 -0.7037  2.9833  0.0869
 5325SOL     OW27610   3.006   2.163   2.891 -0.1634  0.0238  0.0833
 5325SOL    HW127611   2.966   2.078   2.871  0.9950 -0.9437  1.8474
 5325SOL    HW227612   2.998   2.194   2.801  1.6107 -1.2314 -0.4956
 5326SOL     OW27613   4.044   3.443   3.213  0.7519  0.1705  0.5286
 5326SOL    HW127614   3.975   3.487   3.262  0.0939  2.8894 -2.8142
 5326SOL    HW227615   4.048   3.514   3.149  2.4737 -0.8420 -0.4878
 5327SOL     OW27616   0.417   2.051   0.538  0.4012 -0.4055  0.2182
 5327SOL    HW127617   0.428   2.020   0.629  0.7079  0.8690  0.6154
 5327SOL    HW227618   0.366   2.130   0.550  0.2806 -0.2919 -1.0758
 5328SOL     OW27619   3.200   4.401   7.219 -0.4236  0.2265 -0.2080
 5328SOL    HW127620   3.180   4.380   7.310  2.1133  1.1911  0.5815
 5328SOL    HW227621   3.295   4.391   7.223 -0.4254 -0.0475 -0.8248
 5329SOL     OW27622   3.729   2.570  13.097 -0.2147  0.1573  0.3665
 5329SOL    HW127623   3.726   2.553  13.192 -2.6511  1.8753  0.6266
 5329SOL    HW227624   3.790   2.643  13.087 -0.2402  0.0302 -0.6548
 5330SOL     OW27625   4.138   3.316   7.734 -0.0574 -0.5402 -0.3941
 5330SOL    HW127626   4.116   3.227   7.761 -1.0156 -0.2945 -0.3545
 5330SOL    HW227627   4.226   3.324   7.771 -0.2035 -3.0203  0.4986
 5331SOL     OW27628   1.928   4.315   6.303 -0.2689 -0.2618 -0.1447
 5331SOL    HW127629   1.985   4.262   6.247  1.1986  0.8159  0.3226
 5331SOL    HW227630   1.983   4.388   6.331 -0.6967 -0.3563  0.9473
 5332SOL     OW27631   3.832   4.625  17.334  0.1656  0.6384  0.0450
 5332SOL    HW127632   3.906   4.597  17.280  1.2446  0.6493  1.5407
 5332SOL    HW227633   3.763   4.641  17.269  0.7865  0.1749 -0.7345
 5333SOL     OW27634   0.718   4.286   3.511 -0.5094 -0.0026 -0.3142
 5333SOL    HW127635   0.622   4.284   3.514 -0.5653 -0.1282 -1.9069
 5333SOL    HW227636   0.727   4.255   3.420  0.5040 -1.2293  0.2003
 5334SOL     OW27637   2.972   1.155   1.889  0.4261  0.8225  0.4651
 5334SOL    HW127638   3.034   1.215   1.932 -0.4460 -0.4275  3.4290
 5334SOL    HW227639   2.956   1.193   1.802  1.3261  1.7280  0.6856
 5335SOL     OW27640   2.684   1.058   3.512  0.2154  0.2544 -0.2811
 5335SOL    HW127641   2.752   0.991   3.510  1.3718  1.4028  0.3420
 5335SOL    HW227642   2.615   1.018   3.460  0.1668 -0.3534  0.2463
 5336SOL     OW27643   1.435   1.403   2.083 -0.1973 -0.2512  0.0475
 5336SOL    HW127644   1.398   1.385   1.997  0.3331  0.3319 -0.2995
 5336SOL    HW227645   1.470   1.492   2.078 -1.0938  0.0002 -1.9553
 5337SOL     OW27646   3.179   1.839   1.223  0.0638  0.1708 -0.4984
 5337SOL    HW127647   3.269   1.807   1.229  0.2008  0.6622  0.0683
 5337SOL    HW227648   3.168   1.903   1.293  0.5954 -2.0503  1.6010
 5338SOL     OW27649   2.256   2.357   7.149 -0.0182 -0.0951 -0.0311
 5338SOL    HW127650   2.210   2.315   7.221  3.0156 -1.5209  1.0975
 5338SOL    HW227651   2.254   2.449   7.173 -2.6452 -0.6916  1.9037
 5339SOL     OW27652   0.750   1.306   8.351  0.1019  0.1528  0.2565
 5339SOL    HW127653   0.725   1.213   8.346  1.9185 -0.3791  1.0698
 5339SOL    HW227654   0.721   1.319   8.441 -2.0225 -0.2435 -0.3651
 5340SOL     OW27655   4.637   0.928   6.774  0.4121 -0.3101 -0.0832
 5340SOL    HW127656   4.702   0.889   6.715 -1.0447  0.3012 -2.1078
 5340SOL    HW227657   4.566   0.865   6.785  1.7323 -2.0250 -1.4431
 5341SOL     OW27658   3.014   2.460   8.235  0.0425 -0.0925  0.0143
 5341SOL    HW127659   2.987   2.394   8.299 -1.9331 -0.5558 -1.3108
 5341SOL    HW227660   2.949   2.528   8.253  0.3481 -0.0297  0.8708
 5342SOL     OW27661   2.509   1.111   0.032 -0.1687 -0.4277 -0.6699
 5342SOL    HW127662   2.590   1.150  17.733  1.4390 -2.5765  0.6567
 5342SOL    HW227663   2.541   1.020   0.032  0.9329 -0.0363 -1.2636
 5343SOL     OW27664   3.680   2.843   5.636 -0.3029  0.1405  0.9854
 5343SOL    HW127665   3.771   2.827   5.613 -0.3146 -0.6940  1.4964
 5343SOL    HW227666   3.671   2.934   5.662 -0.4252 -0.2409  2.3295
 5344SOL     OW27667   1.423   4.317   1.792  0.4675  0.2770 -0.2267
 5344SOL    HW127668   1.511   4.314   1.755  2.0129  2.9973  3.1611
 5344SOL    HW227669   1.386   4.234   1.761  1.8937  0.5165 -2.5160
 5345SOL     OW27670   0.943   2.367   1.995 -0.3840 -0.3711  0.1001
 5345SOL    HW127671   0.956   2.447   1.944  0.1902  0.1572  1.0837
 5345SOL    HW227672   1.021   2.314   1.979 -1.0778 -1.5009  0.4144
 5346SOL     OW27673   0.200   3.768   7.964 -0.5144 -0.6827  0.8266
 5346SOL    HW127674   0.243   3.695   8.009 -0.0099 -0.1898  1.1462
 5346SOL    HW227675   0.181   3.727   7.879 -0.9011  0.0875  0.5425
 5347SOL     OW27676   3.241   2.895   4.752 -0.0378 -0.2399  0.3026
 5347SOL    HW127677   3.184   2.822   4.774  1.7272 -0.9752  2.4404
 5347SOL    HW227678   3.309   2.857   4.697  1.8798  1.0595  1.7608
 5348SOL     OW27679   4.060   1.984   1.570 -0.4179 -0.2413  0.1267
 5348SOL    HW127680   4.148   1.981   1.532 -1.5696  0.7361 -2.6026
 5348SOL    HW227681   4.090   1.950   1.655  3.6473 -1.0130 -1.6265
 5349SOL     OW27682   3.915   2.427   4.149 -0.5132  0.2705  0.0201
 5349SOL    HW127683   3.879   2.465   4.229  1.8011  1.8124  0.3283
 5349SOL    HW227684   3.995   2.388   4.184 -0.6764  1.7313  2.0297
 5350SOL     OW27685   0.240   3.296   7.413  0.2261  0.4898 -0.5049
 5350SOL    HW127686   0.236   3.314   7.507 -1.1871  2.3651 -0.9061
 5350SOL    HW227687   0.255   3.390   7.399  2.2964  0.2646  0.2288
 5351SOL     OW27688   0.402   2.883   8.653  0.1747 -0.3124 -0.0052
 5351SOL    HW127689   0.454   2.911   8.728 -2.8710  0.3871  1.8131
 5351SOL    HW227690   0.466   2.874   8.582 -1.2550  3.8524 -1.8201
 5352SOL     OW27691   0.043   1.896  15.101 -0.4772  0.2040  0.3421
 5352SOL    HW127692   0.051   1.857  15.014  0.0600  0.3471  0.3269
 5352SOL    HW227693   0.053   1.991  15.091  0.0770 -0.0165 -1.1629
 5353SOL     OW27694   1.282   3.707   8.829  0.2809  0.2924 -0.0712
 5353SOL    HW127695   1.260   3.615   8.834 -0.0574  0.4250  0.8052
 5353SOL    HW227696   1.217   3.740   8.891 -3.1269  0.0079 -3.5333
 5354SOL     OW27697   0.684   0.904   5.751 -0.5760  0.2086  0.0403
 5354SOL    HW127698   0.718   0.881   5.664  1.0721  0.6481  0.5748
 5354SOL    HW227699   0.593   0.876   5.742 -0.2964 -0.9056  0.6575
 5355SOL     OW27700   0.060   1.706  13.140  0.0963  0.3129  0.1234
 5355SOL    HW127701   0.099   1.789  13.112  0.3629  0.8449  2.0543
 5355SOL    HW227702   4.703   1.716  13.112 -0.7700 -1.3546  2.3414
 5356SOL     OW27703   4.725   2.684   7.209  0.0622 -0.4264  0.5301
 5356SOL    HW127704   0.048   2.608   7.224  2.1495  0.8373 -1.0636
 5356SOL    HW227705   4.720   2.727   7.295 -0.4755  0.3331  0.1113
 5357SOL     OW27706   3.051   1.615   2.768 -0.1733 -0.3878  0.1913
 5357SOL    HW127707   2.966   1.648   2.739  0.0851  0.8899  0.8838
 5357SOL    HW227708   3.075   1.671   2.842 -0.4806 -1.9116  1.4568
 5358SOL     OW27709   2.078   4.333   3.317  0.2121  0.4585  0.1775
 5358SOL    HW127710   2.088   4.385   3.397 -1.1193  1.4778 -0.3126
 5358SOL    HW227711   2.114   4.246   3.334  0.8179  0.5651 -0.5534
 5359SOL     OW27712   2.865   1.220   3.184 -0.4676 -0.4215  0.0123
 5359SOL    HW127713   2.913   1.172   3.251  1.4526  2.2743  0.6127
 5359SOL    HW227714   2.844   1.300   3.233  1.5816  0.6607 -0.8563
 5360SOL     OW27715   3.283   2.802   7.668 -0.6821  0.0818  0.4154
 5360SOL    HW127716   3.339   2.870   7.705 -1.0577  0.8332 -0.4002
 5360SOL    HW227717   3.293   2.728   7.728 -0.8647  0.2736  0.6846
 5361SOL     OW27718   1.768   1.719   4.347  0.2134 -0.3322  0.1021
 5361SOL    HW127719   1.698   1.663   4.380 -0.8344  0.5361 -0.6824
 5361SOL    HW227720   1.812   1.666   4.281  0.0465  0.5538 -0.7232
 5362SOL     OW27721   4.613   0.799   8.938 -0.2052 -0.0935 -0.3651
 5362SOL    HW127722   4.697   0.843   8.939 -0.9123  1.2291  1.0343
 5362SOL    HW227723   4.593   0.810   9.031 -2.1779 -0.2986 -0.7496
 5363SOL     OW27724   3.725   3.706  11.599 -0.4525  0.1517 -0.6629
 5363SOL    HW127725   3.709   3.796  11.625  1.0672 -0.7875  3.5427
 5363SOL    HW227726   3.715   3.654  11.679 -2.4617  1.8161  0.1546
 5364SOL     OW27727   0.279   0.825   2.645  0.4202  0.5507  0.1836
 5364SOL    HW127728   0.219   0.899   2.635  0.3581  0.0301 -3.3296
 5364SOL    HW227729   0.232   0.748   2.612 -0.7439  1.2465  0.2137
 5365SOL     OW27730   3.494   2.855   7.387 -0.0758  0.4118 -0.0521
 5365SOL    HW127731   3.435   2.782   7.409 -0.1861  0.5536  0.1170
 5365SOL    HW227732   3.437   2.910   7.335  0.0411  0.1297 -0.4784
 5366SOL     OW27733   2.293   4.729   7.321 -0.1391 -0.3437  0.0718
 5366SOL    HW127734   2.202   4.724   7.295 -1.2808 -0.0299  4.0350
 5366SOL    HW227735   2.330   0.018   7.236  0.9989  0.0792  0.6612
 5367SOL     OW27736   2.818   4.480   2.180 -0.1031  0.2100  0.4307
 5367SOL    HW127737   2.741   4.434   2.213  0.0780  1.1613  2.2047
 5367SOL    HW227738   2.881   4.473   2.252 -1.9204 -0.1572  1.9755
 5368SOL     OW27739   3.231   3.400   2.486 -0.1609  0.0734  0.0762
 5368SOL    HW127740   3.313   3.428   2.445  0.7643 -3.3700 -0.3657
 5368SOL    HW227741   3.166   3.460   2.448 -0.8984 -0.4306  0.5510
 5369SOL     OW27742   1.781   2.804  13.439  0.9361  0.1154 -0.1870
 5369SOL    HW127743   1.692   2.810  13.403  0.5679  0.7119  0.8384
 5369SOL    HW227744   1.820   2.755  13.366 -0.8122 -0.1842 -0.9446
 5370SOL     OW27745   2.432   2.226   2.821  0.6813 -0.6099 -0.0670
 5370SOL    HW127746   2.503   2.265   2.770  0.2593  0.3752  0.0931
 5370SOL    HW227747   2.464   2.255   2.907  1.1692 -1.7363  0.1208
 5371SOL     OW27748   2.335   1.411   4.467  0.4401  0.0603 -0.0447
 5371SOL    HW127749   2.369   1.466   4.397  1.3365 -3.9152 -2.7469
 5371SOL    HW227750   2.245   1.442   4.458  0.1413 -1.5985 -2.6827
 5372SOL     OW27751   3.805   2.652  11.217 -0.0171  0.4773 -0.5686
 5372SOL    HW127752   3.876   2.637  11.278  0.7478 -0.7892 -1.7578
 5372SOL    HW227753   3.778   2.737  11.250 -0.6789  0.2470 -0.5014
 5373SOL     OW27754   2.069   4.292  14.679  0.1533  0.2757 -0.1134
 5373SOL    HW127755   2.129   4.313  14.607 -0.3607  1.0494 -0.3167
 5373SOL    HW227756   1.978   4.304  14.652 -0.3640 -1.5071  0.8319
 5374SOL     OW27757   3.006   2.947  14.802  0.0829  0.0021 -0.2621
 5374SOL    HW127758   2.963   2.949  14.717  0.7641 -0.2389 -0.6140
 5374SOL    HW227759   3.098   2.938  14.777 -0.7703 -1.0501 -3.0114
 5375SOL     OW27760   0.495   4.062   3.240  0.6464 -0.0245  0.0401
 5375SOL    HW127761   0.425   4.111   3.197 -0.9608 -1.2374  1.2684
 5375SOL    HW227762   0.568   4.123   3.239  0.8042 -0.2233 -1.2132
 5376SOL     OW27763   1.930   3.479   0.390  0.7955 -0.5016  0.3343
 5376SOL    HW127764   1.965   3.547   0.333  0.8280 -0.1510  0.7773
 5376SOL    HW227765   1.943   3.533   0.468 -1.1387  0.8047 -0.2444
 5377SOL     OW27766   3.538   0.194   1.882 -0.1578  0.1889  0.2414
 5377SOL    HW127767   3.454   0.236   1.904  0.5662  1.7552  0.0243
 5377SOL    HW227768   3.514   0.104   1.860 -0.4955 -0.3405  2.6871
 5378SOL     OW27769   3.164   3.064   8.671 -0.7521 -0.4313 -0.1375
 5378SOL    HW127770   3.167   2.978   8.629 -2.1108 -0.4094 -0.2779
 5378SOL    HW227771   3.254   3.077   8.702 -0.9019  2.9985 -1.1566
 5379SOL     OW27772   1.056   4.686  11.147 -0.2403  0.1782 -0.1907
 5379SOL    HW127773   1.124   4.724  11.202 -0.0358 -1.5193  0.7198
 5379SOL    HW227774   1.113   4.661  11.074  0.9055  1.2001  0.3829
 5380SOL     OW27775   3.833   4.393  12.038 -0.6007  0.0474 -0.3274
 5380SOL    HW127776   3.747   4.409  11.998 -0.7638 -1.8762 -0.7860
 5380SOL    HW227777   3.803   4.364  12.125 -0.8944 -1.2961 -0.8707
 5381SOL     OW27778   0.314   2.783   5.663  0.9572 -0.4591  0.7911
 5381SOL    HW127779   0.294   2.784   5.757  1.6322 -0.8572  0.9398
 5381SOL    HW227780   0.255   2.848   5.626 -0.6817 -1.3363  1.8819
 5382SOL     OW27781   1.115   0.243  16.409 -0.4009 -0.4502 -1.0333
 5382SOL    HW127782   1.068   0.162  16.388 -2.4869 -0.0677  2.0573
 5382SOL    HW227783   1.061   0.298  16.351  0.9602  1.7794 -0.1585
 5383SOL     OW27784   1.521   2.900  16.663  0.4246 -0.0157 -0.6724
 5383SOL    HW127785   1.555   2.813  16.644  1.3814 -0.2619  2.1533
 5383SOL    HW227786   1.578   2.949  16.604  1.0983 -0.3525 -0.3011
 5384SOL     OW27787   0.142   4.717   8.583 -0.0523 -0.8754  0.2902
 5384SOL    HW127788   0.123   0.061   8.635  0.1479  1.0533 -2.5401
 5384SOL    HW227789   0.190   0.011   8.506 -1.3042 -0.1166 -0.2137
 5385SOL     OW27790   0.913   4.417   4.514  0.1181  0.0924  0.1284
 5385SOL    HW127791   0.876   4.497   4.552 -1.1697  0.3709 -1.7308
 5385SOL    HW227792   0.980   4.458   4.459  1.2552 -0.1296  1.3424
 5386SOL     OW27793   2.420   4.518   9.440 -0.7097 -0.0881 -0.0607
 5386SOL    HW127794   2.508   4.481   9.444 -0.9664 -0.6039  0.7848
 5386SOL    HW227795   2.429   4.562   9.356 -2.8234  0.9118  0.2288
 5387SOL     OW27796   1.706   4.074   3.075  0.3827 -0.3759  0.9229
 5387SOL    HW127797   1.698   4.009   3.144 -0.8820 -1.8383 -0.6132
 5387SOL    HW227798   1.734   4.159   3.110 -0.7594 -0.6788  2.5606
 5388SOL     OW27799   4.290   2.744  13.546  0.1724  0.0579 -0.4261
 5388SOL    HW127800   4.318   2.674  13.606  0.2735  0.4910  0.0359
 5388SOL    HW227801   4.378   2.753  13.510 -0.4646  1.5495 -1.5948
 5389SOL     OW27802   1.868   1.405   4.503 -0.5194 -0.1006 -0.1106
 5389SOL    HW127803   1.913   1.371   4.426  0.3995  1.1410 -0.1207
 5389SOL    HW227804   1.885   1.337   4.568  1.0854 -0.5997 -1.0595
 5390SOL     OW27805   2.032   2.273   8.648  0.3243 -0.1143 -0.0853
 5390SOL    HW127806   2.119   2.263   8.609  0.4872 -0.4242  0.3539
 5390SOL    HW227807   1.992   2.344   8.599  0.7372 -0.8901 -1.5372
 5391SOL     OW27808   4.306   2.021   1.473 -0.7001 -0.0173  0.2462
 5391SOL    HW127809   4.300   2.082   1.400 -0.1717  1.5776  1.5379
 5391SOL    HW227810   4.383   2.051   1.521 -0.7019  0.3161  0.0439
 5392SOL     OW27811   2.032   3.739   0.283 -0.3377 -0.4991  0.1581
 5392SOL    HW127812   1.961   3.785   0.238  0.3039 -0.6079 -0.9818
 5392SOL    HW227813   2.071   3.683   0.216 -0.4094  0.0678 -0.3589
 5393SOL     OW27814   0.600   3.049   7.110 -0.1976  0.2004 -0.2241
 5393SOL    HW127815   0.538   3.115   7.140  0.2280  1.0198 -1.1450
 5393SOL    HW227816   0.619   3.084   7.023  0.0386 -0.6374 -0.5167
 5394SOL     OW27817   2.316   3.830   3.235  0.3253  0.1864  0.4120
 5394SOL    HW127818   2.338   3.745   3.272  1.7756  0.5042  0.2896
 5394SOL    HW227819   2.401   3.868   3.213  0.9070 -1.5339 -0.2928
 5395SOL     OW27820   2.951   3.076   8.356  0.4755  0.1412 -0.0434
 5395SOL    HW127821   3.031   3.050   8.311  1.8832  2.9742  0.8044
 5395SOL    HW227822   2.954   3.171   8.353  1.7351  0.0527 -1.3960
 5396SOL     OW27823   2.589   1.040   5.130 -0.3282  0.6597 -0.1470
 5396SOL    HW127824   2.511   0.998   5.094 -0.5459 -0.2936  1.4290
 5396SOL    HW227825   2.595   0.999   5.216 -1.2918  2.5070  0.7918
 5397SOL     OW27826   3.208   3.792   4.787 -0.3404  0.0547  0.1307
 5397SOL    HW127827   3.253   3.875   4.773 -1.4319  0.7180  0.5970
 5397SOL    HW227828   3.264   3.753   4.853  0.2893  1.4965  0.4477
 5398SOL     OW27829   0.582   4.292   6.858 -0.5108 -0.7364  0.1545
 5398SOL    HW127830   0.657   4.352   6.858  1.0520 -2.6973 -0.3289
 5398SOL    HW227831   0.616   4.210   6.894 -3.2190 -0.9127  2.2950
 5399SOL     OW27832   4.513   4.062  11.862 -0.2912 -0.2043 -0.1946
 5399SOL    HW127833   4.492   4.064  11.768  1.9733  2.5245 -0.6456
 5399SOL    HW227834   4.430   4.097  11.895  0.6973 -1.0613  3.1277
 5400SOL     OW27835   4.557   2.783  13.515  0.0518  0.2035 -0.3232
 5400SOL    HW127836   4.619   2.830  13.460  0.7468 -0.6274 -0.2633
 5400SOL    HW227837   4.598   2.795  13.601 -1.9550 -0.2192  0.6981
 5401SOL     OW27838   4.054   2.503   6.510 -0.2482 -0.0963  0.0297
 5401SOL    HW127839   4.042   2.579   6.566  3.5265 -0.9867  1.9778
 5401SOL    HW227840   4.135   2.526   6.465 -0.1423 -1.4609 -0.4955
 5402SOL     OW27841   2.265   1.373  10.885 -0.4944 -0.0988 -0.0533
 5402SOL    HW127842   2.311   1.301  10.842 -0.9465 -1.6915  2.1637
 5402SOL    HW227843   2.339   1.433  10.874  0.1831 -0.3552  2.9271
 5403SOL     OW27844   0.634   0.960   1.360  0.1526  0.3506  0.3323
 5403SOL    HW127845   0.651   0.930   1.271  0.2973 -1.7175  1.0631
 5403SOL    HW227846   0.593   0.883   1.398  1.3682  0.9062  2.7671
 5404SOL     OW27847   3.498   1.473   4.016 -0.1227  0.0811 -0.2826
 5404SOL    HW127848   3.560   1.476   3.943 -1.4299  1.6155 -1.3516
 5404SOL    HW227849   3.557   1.465   4.091  1.6150  1.0734 -1.5377
 5405SOL     OW27850   3.960   4.606   4.536 -0.5689 -0.1907  0.2765
 5405SOL    HW127851   3.992   4.693   4.560 -1.0699 -0.2245  1.0688
 5405SOL    HW227852   3.998   4.583   4.451  2.2087 -3.0508  2.2857
 5406SOL     OW27853   1.992   3.241  16.921 -0.7895  0.1417 -0.6906
 5406SOL    HW127854   2.073   3.215  16.965 -1.8978  0.8524  1.7800
 5406SOL    HW227855   1.937   3.259  16.997  1.6843 -1.2615  1.4085
 5407SOL     OW27856   0.423   3.557  10.819  0.0458 -0.6608  0.3669
 5407SOL    HW127857   0.477   3.498  10.871 -0.4832 -0.8570  0.6923
 5407SOL    HW227858   0.492   3.616  10.788 -0.7705  0.0465 -0.1121
 5408SOL     OW27859   2.304   2.565   2.962 -0.7112 -0.1803  0.4279
 5408SOL    HW127860   2.274   2.651   2.993  0.9468  0.6349 -0.1967
 5408SOL    HW227861   2.381   2.538   3.012  2.0685 -0.9931 -4.2850
 5409SOL     OW27862   2.722   0.899   7.426 -0.0298  0.0455 -0.1276
 5409SOL    HW127863   2.684   0.952   7.356  1.6328 -1.7410 -2.4107
 5409SOL    HW227864   2.725   0.965   7.495  0.9088  0.1203 -0.2392
 5410SOL     OW27865   2.065   0.770  16.900  0.2465 -0.1362  0.0555
 5410SOL    HW127866   1.969   0.776  16.898  0.4081  2.2639 -0.5633
 5410SOL    HW227867   2.086   0.707  16.832  0.8153  0.3146 -0.1852
 5411SOL     OW27868   4.069   1.860   7.250  0.3217  0.6529 -0.1600
 5411SOL    HW127869   4.133   1.867   7.179  0.1715  0.0348 -0.3550
 5411SOL    HW227870   4.044   1.768   7.250 -1.0161  1.0127  0.0035
 5412SOL     OW27871   1.792   1.368   3.613 -0.3485 -0.6798  0.1729
 5412SOL    HW127872   1.838   1.289   3.640  0.7736  0.6026  2.0873
 5412SOL    HW227873   1.860   1.389   3.549 -1.6090  2.3588 -0.1816
 5413SOL     OW27874   1.754   3.165   8.213 -0.2442  0.2920 -0.5770
 5413SOL    HW127875   1.755   3.141   8.120 -1.9078 -1.6692 -0.0884
 5413SOL    HW227876   1.795   3.085   8.246 -1.5562 -0.5959 -1.0864
 5414SOL     OW27877   3.968   4.221   7.388 -0.1139  0.1674 -0.0125
 5414SOL    HW127878   3.988   4.244   7.479  0.5834 -1.9835  0.3893
 5414SOL    HW227879   3.926   4.301   7.358 -0.1642 -0.2033 -0.9424
 5415SOL     OW27880   2.374   3.651   7.640 -0.3158 -0.4190 -0.2460
 5415SOL    HW127881   2.468   3.638   7.627 -0.3530 -1.6124  0.6704
 5415SOL    HW227882   2.340   3.567   7.609  2.4651 -2.2014  1.6234
 5416SOL     OW27883   3.657   0.987  12.114  0.1062 -0.0422  0.1289
 5416SOL    HW127884   3.716   1.042  12.166 -0.2388  0.0421  0.4387
 5416SOL    HW227885   3.668   0.914  12.176  3.2018  0.3760  0.0641
 5417SOL     OW27886   1.501   2.536   4.090  0.3192  0.4452 -0.1941
 5417SOL    HW127887   1.515   2.596   4.016 -0.8889  0.7129 -0.2139
 5417SOL    HW227888   1.432   2.483   4.051  3.0881 -2.9394 -0.4360
 5418SOL     OW27889   3.556   3.910   2.330  0.5395  0.2124  0.0539
 5418SOL    HW127890   3.488   3.965   2.368 -0.0709 -0.0044 -0.7386
 5418SOL    HW227891   3.548   3.917   2.235  2.8527 -2.3033 -0.3372
 5419SOL     OW27892   3.682   0.732   0.684 -0.3580 -0.3934  0.1517
 5419SOL    HW127893   3.683   0.697   0.595 -1.6189  1.1216 -0.4658
 5419SOL    HW227894   3.765   0.705   0.723 -1.1287  1.8222  3.3282
 5420SOL     OW27895   0.153   2.099   5.572  0.2472 -0.0509  0.2189
 5420SOL    HW127896   0.113   2.018   5.541 -0.6522  0.8821 -0.9955
 5420SOL    HW227897   0.243   2.070   5.554 -0.1775 -1.7829  0.8037
 5421SOL     OW27898   2.524   0.702   3.148 -0.0338  0.4577 -0.6665
 5421SOL    HW127899   2.439   0.692   3.191  0.5630 -1.7349  0.0387
 5421SOL    HW227900   2.508   0.616   3.108 -1.5289  0.8088 -0.8254
 5422SOL     OW27901   0.272   1.121   3.743 -0.5516 -0.3962 -0.2553
 5422SOL    HW127902   0.342   1.105   3.680 -0.5246  1.8951 -0.8003
 5422SOL    HW227903   0.307   1.195   3.794  0.0007 -0.7669 -0.1007
 5423SOL     OW27904   2.148   2.757   2.140  0.4662  0.1373  0.7631
 5423SOL    HW127905   2.208   2.827   2.115 -2.0360  1.9395 -0.2098
 5423SOL    HW227906   2.205   2.698   2.189  1.4587 -1.0457 -1.7725
 5424SOL     OW27907   2.086   1.565  17.342  0.4075  0.0678 -0.1224
 5424SOL    HW127908   2.015   1.504  17.364  1.0267 -0.5161  0.2871
 5424SOL    HW227909   2.040   1.648  17.340 -1.1441 -0.8600 -2.1042
 5425SOL     OW27910   0.253   1.613   5.958  0.1088  0.3821  0.0263
 5425SOL    HW127911   0.297   1.538   5.997  0.1660 -0.7973 -2.2988
 5425SOL    HW227912   0.258   1.586   5.866  0.7701 -2.1528  0.8260
 5426SOL     OW27913   0.801   1.451   6.299 -0.2254  0.0368  0.2181
 5426SOL    HW127914   0.870   1.392   6.268  1.4304  0.9708  2.1792
 5426SOL    HW227915   0.812   1.534   6.253  1.4585  0.0191  0.6131
 5427SOL     OW27916   3.050   2.964   5.943  0.5079 -0.5772  0.0355
 5427SOL    HW127917   2.967   2.939   5.902 -0.3851  1.4984  0.5525
 5427SOL    HW227918   3.025   2.993   6.031  1.5824  2.5774 -0.6884
 5428SOL     OW27919   1.202   2.449   9.539 -0.0992 -0.3231 -0.7160
 5428SOL    HW127920   1.269   2.514   9.555  0.5414 -1.6984  2.1186
 5428SOL    HW227921   1.219   2.382   9.605  0.5786  1.0662  0.4877
 5429SOL     OW27922   4.034   2.942   6.845 -0.0270 -0.2231 -0.2116
 5429SOL    HW127923   4.062   3.033   6.856 -1.4968  0.3154 -0.9433
 5429SOL    HW227924   4.091   2.902   6.911  0.4617  0.0360 -0.4730
 5430SOL     OW27925   2.494   1.916   6.039  0.0908 -0.2364 -0.8662
 5430SOL    HW127926   2.426   1.902   6.106  1.9691  2.0065  1.5216
 5430SOL    HW227927   2.435   1.955   5.974 -0.7569  1.6959  1.0642
 5431SOL     OW27928   2.091   3.913   9.283  0.3691 -0.3914 -0.0815
 5431SOL    HW127929   2.113   3.990   9.335 -0.3773 -1.6550  2.0881
 5431SOL    HW227930   2.137   3.842   9.328  0.7336 -0.4114 -0.4777
 5432SOL     OW27931   3.461   1.750  11.315  0.0912  0.3445  0.7240
 5432SOL    HW127932   3.535   1.798  11.275 -2.8770  1.3069 -3.6927
 5432SOL    HW227933   3.514   1.723  11.390 -0.8657  0.5047  1.4563
 5433SOL     OW27934   4.602   3.067   2.781  0.0524 -0.4708  0.0492
 5433SOL    HW127935   4.680   3.030   2.822 -0.2429 -0.1233  0.9275
 5433SOL    HW227936   4.533   3.044   2.844  0.1046 -0.4860  0.1013
 5434SOL     OW27937   2.302   0.523   7.925  0.1563  0.7269  0.1808
 5434SOL    HW127938   2.385   0.509   7.881 -0.0862  0.3426 -0.1540
 5434SOL    HW227939   2.334   0.579   7.996 -1.4329 -1.1855  2.3823
 5435SOL     OW27940   1.970   3.844   4.864  0.2426 -0.3146 -0.7066
 5435SOL    HW127941   2.027   3.815   4.792  0.1826  2.8530 -2.0525
 5435SOL    HW227942   1.936   3.763   4.903  0.7127  0.0342  0.4312
 5436SOL     OW27943   0.493   2.751  14.743  0.4426 -0.3460  0.0667
 5436SOL    HW127944   0.541   2.821  14.788 -2.4088  2.1424 -0.8070
 5436SOL    HW227945   0.495   2.778  14.652 -0.3162 -2.1965 -0.4832
 5437SOL     OW27946   3.623   0.043   6.036  0.0647 -0.6496 -0.1297
 5437SOL    HW127947   3.638   0.133   6.063  0.1931 -0.9731  0.8690
 5437SOL    HW227948   3.675   4.726   6.098  0.5035  1.2521  1.0458
 5438SOL     OW27949   4.128   1.212  13.697  0.2296 -0.4501 -0.1542
 5438SOL    HW127950   4.168   1.253  13.774 -1.8914  0.3517  0.5427
 5438SOL    HW227951   4.075   1.284  13.663  1.1149  1.1584  1.8422
 5439SOL     OW27952   2.701   0.651   0.371  0.2261 -0.5991  0.0962
 5439SOL    HW127953   2.667   0.709   0.438 -0.7345 -0.6671 -0.3357
 5439SOL    HW227954   2.752   0.594   0.429  2.2251  0.2955 -0.7704
 5440SOL     OW27955   0.393   2.421  16.858  0.0390  0.2100 -0.2572
 5440SOL    HW127956   0.439   2.357  16.803  0.7207  1.2115 -0.8548
 5440SOL    HW227957   0.305   2.385  16.868  0.0000  0.0318 -1.2231
 5441SOL     OW27958   1.008   1.857   7.115  0.5586  0.0172  0.4978
 5441SOL    HW127959   1.068   1.794   7.076 -1.9946 -1.9374 -0.2709
 5441SOL    HW227960   0.949   1.884   7.045  1.4289 -0.6287 -0.4873
 5442SOL     OW27961   3.197   3.279  12.989  0.0105  0.2675  0.7005
 5442SOL    HW127962   3.107   3.303  13.007  0.1650  1.8637 -0.7175
 5442SOL    HW227963   3.207   3.248  12.899 -0.6136 -1.8364  1.3339
 5443SOL     OW27964   0.359   3.153   0.838  0.3918  0.0447 -0.1372
 5443SOL    HW127965   0.327   3.202   0.914 -0.3492 -0.6524 -0.0058
 5443SOL    HW227966   0.368   3.068   0.880  2.2127 -0.2582 -1.1378
 5444SOL     OW27967   2.415   4.357  15.955  0.1192 -0.0204  0.1654
 5444SOL    HW127968   2.478   4.319  16.016  0.4492 -0.2509 -0.3248
 5444SOL    HW227969   2.338   4.325  16.003  0.2336  0.0248  0.3814
 5445SOL     OW27970   2.763   1.848  13.040 -0.3616 -0.4367 -0.2150
 5445SOL    HW127971   2.693   1.913  13.042  0.4527  0.3874  1.9190
 5445SOL    HW227972   2.747   1.810  12.954 -0.9947  0.9290 -0.7062
 5446SOL     OW27973   2.198   0.154   1.557  0.0205 -0.1762 -0.4283
 5446SOL    HW127974   2.132   0.085   1.561  0.2916 -0.3570  1.0305
 5446SOL    HW227975   2.171   0.199   1.478 -1.9664 -0.7218 -0.0527
 5447SOL     OW27976   0.805   2.802   1.427 -0.5125 -0.2418  0.0004
 5447SOL    HW127977   0.770   2.827   1.341 -0.1231 -1.5224 -0.5303
 5447SOL    HW227978   0.730   2.804   1.487  0.8249 -0.0393  1.6557
 5448SOL     OW27979   1.117   3.633   9.917  0.1333  0.2574  0.5828
 5448SOL    HW127980   1.082   3.597   9.836 -0.3949  0.0762  0.8849
 5448SOL    HW227981   1.207   3.602   9.912  0.1502  0.4924 -0.6105
 5449SOL     OW27982   0.399   1.680   4.191 -0.1567  0.1933 -0.0808
 5449SOL    HW127983   0.381   1.595   4.230 -0.9420  0.4629  0.1391
 5449SOL    HW227984   0.407   1.654   4.099 -1.7779 -1.9579  0.3974
 5450SOL     OW27985   2.765   4.441  11.601  0.9270 -0.8227 -0.0752
 5450SOL    HW127986   2.766   4.526  11.556 -1.3386 -1.2879 -1.0149
 5450SOL    HW227987   2.719   4.394  11.532  1.5050  0.8497 -1.6087
 5451SOL     OW27988   1.194   1.014  15.017 -0.0080  0.1057  0.5026
 5451SOL    HW127989   1.285   1.030  15.044 -0.2149 -0.8347  1.7560
 5451SOL    HW227990   1.151   1.069  15.082  0.0078  1.8293 -0.9584
 5452SOL     OW27991   1.660   1.356   3.876 -0.2427 -0.3399 -0.8590
 5452SOL    HW127992   1.585   1.384   3.928  2.2179 -1.7944  3.4551
 5452SOL    HW227993   1.660   1.422   3.806  0.6356 -0.0704 -0.6100
 5453SOL     OW27994   1.645   1.847   1.547 -0.1434 -0.0013  0.1611
 5453SOL    HW127995   1.558   1.864   1.583 -0.4075 -1.1670  0.0595
 5453SOL    HW227996   1.703   1.894   1.607  0.4157 -1.2005  0.5535
 5454SOL     OW27997   4.455   3.280   6.046 -0.3689 -0.2816 -0.0853
 5454SOL    HW127998   4.438   3.334   6.124  0.5524 -1.9113  1.2581
 5454SOL    HW227999   4.485   3.199   6.088  0.1370 -0.8679 -1.6009
 5455SOL     OW28000   2.501   3.878   9.952 -0.6470 -0.4434 -0.4600
 5455SOL    HW128001   2.544   3.836  10.027  1.0259 -0.2219 -1.3048
 5455SOL    HW228002   2.408   3.872   9.975 -1.0886 -0.4232 -2.1931
 5456SOL     OW28003   1.829   0.313  17.374 -0.0410 -0.2190 -0.1089
 5456SOL    HW128004   1.737   0.303  17.350  0.0917 -0.6030 -0.4624
 5456SOL    HW228005   1.819   0.373  17.448 -0.7971 -2.8412  1.9471
 5457SOL     OW28006   1.632   2.033  11.022  0.2960  0.2237  0.2396
 5457SOL    HW128007   1.627   1.961  10.958  1.0895  0.5937 -0.2378
 5457SOL    HW228008   1.725   2.055  11.025 -0.1687  2.2660 -0.3583
 5458SOL     OW28009   0.756   0.426   6.659 -0.2141  0.4316  0.4495
 5458SOL    HW128010   0.700   0.358   6.619  0.9723  0.8804 -1.9869
 5458SOL    HW228011   0.717   0.442   6.745  1.9992  2.0311  1.1577
 5459SOL     OW28012   4.575   0.792   2.953 -0.0700 -0.5827 -0.0748
 5459SOL    HW128013   4.493   0.838   2.969 -0.0295 -0.2476 -0.8270
 5459SOL    HW228014   4.556   0.736   2.878 -1.0037 -0.0951 -0.2005
 5460SOL     OW28015   4.186   2.733   2.691 -0.0932 -0.2226  0.2938
 5460SOL    HW128016   4.214   2.775   2.609  2.8629  0.4315  1.6298
 5460SOL    HW228017   4.092   2.747   2.686 -0.1927 -1.0127 -0.1226
 5461SOL     OW28018   4.628   4.005   8.538 -0.1573  0.2387 -0.4272
 5461SOL    HW128019   4.641   3.928   8.593 -1.7933 -0.0608 -0.4688
 5461SOL    HW228020   4.620   4.075   8.603  1.6097  0.7964 -0.8192
 5462SOL     OW28021   3.020   0.623   1.605 -0.0804 -0.0916 -0.0010
 5462SOL    HW128022   3.079   0.575   1.662 -1.3749 -2.4646 -0.6812
 5462SOL    HW228023   2.957   0.654   1.670  0.1455  1.6618 -0.6249
 5463SOL     OW28024   0.962   3.875   9.960  0.3598 -0.1896  0.1151
 5463SOL    HW128025   1.035   3.813   9.956 -0.4580 -1.2472  1.4287
 5463SOL    HW228026   0.887   3.815   9.964  0.5865 -0.4794 -0.0117
 5464SOL     OW28027   3.039   4.275   5.381 -0.0725  0.1878  0.1942
 5464SOL    HW128028   3.077   4.253   5.296  0.0122 -1.5575  0.6654
 5464SOL    HW228029   3.104   4.231   5.437 -1.2889  0.3053  1.7126
 5465SOL     OW28030   2.480   1.939   8.969 -0.2890  0.7460  0.0163
 5465SOL    HW128031   2.390   1.972   8.972 -1.9837 -3.7027 -2.5074
 5465SOL    HW228032   2.501   1.939   9.062 -0.7667  4.0058  0.1166
 5466SOL     OW28033   1.404   3.180   8.696  0.1104  0.7921  0.0007
 5466SOL    HW128034   1.314   3.210   8.682 -0.0791 -0.0558 -0.5804
 5466SOL    HW228035   1.425   3.118   8.627  1.1389  0.8135  0.2933
 5467SOL     OW28036   1.557   4.450   6.998 -0.3935  0.2388 -0.4558
 5467SOL    HW128037   1.470   4.445   7.036 -0.3318 -0.0848 -0.3511
 5467SOL    HW228038   1.543   4.512   6.927  1.9560 -0.5748 -1.6596
 5468SOL     OW28039   1.300   0.525   2.156 -0.3418 -0.4914  0.2039
 5468SOL    HW128040   1.394   0.513   2.143 -0.2246 -1.0542  1.5287
 5468SOL    HW228041   1.265   0.437   2.146 -4.6099  1.3099 -0.5043
 5469SOL     OW28042   0.939   3.597   3.647 -0.1249 -0.1662  0.3232
 5469SOL    HW128043   0.916   3.506   3.628  0.1153 -0.1258 -0.1715
 5469SOL    HW228044   0.968   3.624   3.560  0.1091  0.2093  0.5162
 5470SOL     OW28045   3.424   4.423  16.315  0.0472 -0.2915  0.2086
 5470SOL    HW128046   3.356   4.456  16.257 -0.8243 -1.4866  0.5437
 5470SOL    HW228047   3.417   4.327  16.311  0.8795 -0.2327 -3.5659
 5471SOL     OW28048   1.187   2.816  10.129  0.4426 -0.5043  0.1100
 5471SOL    HW128049   1.235   2.870  10.192 -0.5681  2.1665 -1.4218
 5471SOL    HW228050   1.206   2.728  10.162  0.8444 -0.6558 -0.5239
 5472SOL     OW28051   1.265   3.391   7.418  0.0695 -0.2719  0.2763
 5472SOL    HW128052   1.249   3.460   7.483 -0.7303 -0.8769  0.7211
 5472SOL    HW228053   1.329   3.429   7.358 -2.6498  1.8177 -1.2924
 5473SOL     OW28054   3.879   0.065   3.531  0.3317 -0.0411  0.3219
 5473SOL    HW128055   3.877   4.720   3.477 -0.2932  0.6295 -0.6537
 5473SOL    HW228056   3.966   0.059   3.571 -0.6762  1.9464  2.7872
 5474SOL     OW28057   1.684   2.071   9.282  0.4715 -0.2725  0.0080
 5474SOL    HW128058   1.603   2.060   9.232  0.2782 -0.1272  0.2942
 5474SOL    HW228059   1.752   2.106   9.225 -0.4495 -0.5800 -1.2796
 5475SOL     OW28060   1.274   2.260   7.197 -0.2172 -0.3139  0.2599
 5475SOL    HW128061   1.256   2.238   7.288 -0.4309  0.7896  0.4826
 5475SOL    HW228062   1.288   2.168   7.176  0.0034 -0.2921  0.3058
 5476SOL     OW28063   3.358   2.026   6.299  0.2292  0.0676  0.6134
 5476SOL    HW128064   3.325   1.967   6.368 -0.6790 -1.9524 -1.5181
 5476SOL    HW228065   3.453   2.030   6.300  0.3046 -2.0314  1.3868
 5477SOL     OW28066   1.470   4.717  16.926 -0.0228  0.4216 -0.1608
 5477SOL    HW128067   1.483   4.625  16.902  0.1219  1.0686 -2.5565
 5477SOL    HW228068   1.495   4.718  17.018 -1.4347 -1.4836  0.2622
 5478SOL     OW28069   4.040   1.143   2.200  0.0401 -0.0001 -0.4575
 5478SOL    HW128070   4.072   1.207   2.264 -2.2779 -0.1779  0.9091
 5478SOL    HW228071   3.993   1.204   2.143  0.6878  0.6152 -0.3369
 5479SOL     OW28072   0.624   0.081   4.788 -0.4561 -0.2894 -0.0187
 5479SOL    HW128073   0.554   0.081   4.853  0.7545  2.1684  1.2831
 5479SOL    HW228074   0.700   0.121   4.832 -0.6174 -1.2805  1.1790
 5480SOL     OW28075   3.526   4.035   0.948 -0.2617  0.0916 -0.3936
 5480SOL    HW128076   3.465   4.063   1.016  0.0642 -0.4633  0.1312
 5480SOL    HW228077   3.509   4.098   0.878  2.2849 -1.3580 -2.3720
 5481SOL     OW28078   4.065   2.494  11.273  0.0805  0.3112  0.6659
 5481SOL    HW128079   3.988   2.438  11.258 -0.3000  0.8609  0.5768
 5481SOL    HW228080   4.114   2.441  11.336 -1.1968  2.3321  3.3911
 5482SOL     OW28081   3.081   4.351   2.749  0.2011 -0.4075 -0.5999
 5482SOL    HW128082   3.045   4.437   2.729  2.4663  0.9168  1.0758
 5482SOL    HW228083   3.005   4.298   2.774 -0.8135  1.5242  0.4288
 5483SOL     OW28084   4.173   3.867   7.640  0.7790 -0.3724 -0.1100
 5483SOL    HW128085   4.155   3.774   7.657 -3.0435  0.3875  0.1418
 5483SOL    HW228086   4.205   3.871   7.550 -2.3671  3.5719 -1.0596
 5484SOL     OW28087   3.953   0.346   7.200  0.0723 -0.5266 -0.0934
 5484SOL    HW128088   4.027   0.287   7.208 -1.3457 -2.4654 -1.3557
 5484SOL    HW228089   3.974   0.421   7.255 -0.4101 -1.8677  1.8885
 5485SOL     OW28090   4.229   4.593   7.909  0.2520  0.0280  0.2908
 5485SOL    HW128091   4.300   4.657   7.914 -0.7150  1.1942 -1.0750
 5485SOL    HW228092   4.246   4.536   7.984  0.8446 -0.1925 -0.0091
 5486SOL     OW28093   2.520   2.617   6.121  0.1027 -0.0628  0.6653
 5486SOL    HW128094   2.507   2.651   6.033 -0.3727 -1.2225  0.2835
 5486SOL    HW228095   2.518   2.689   6.184 -0.7011  0.7418 -0.2901
 5487SOL     OW28096   0.092   4.296   8.578 -0.5794  0.2010  0.2948
 5487SOL    HW128097   0.030   4.270   8.646 -2.6866  2.3599 -0.7884
 5487SOL    HW228098   0.065   4.385   8.556  0.2016 -0.0386 -1.6372
 5488SOL     OW28099   0.199   2.539  17.015 -0.8803  0.3415  0.1914
 5488SOL    HW128100   0.255   2.542  16.938 -1.1285  1.5395  0.0592
 5488SOL    HW228101   0.223   2.615  17.068  0.1219 -0.6013  1.1161
 5489SOL     OW28102   2.779   0.284   5.572  0.3845 -0.1670 -0.3491
 5489SOL    HW128103   2.777   0.321   5.660 -0.6678 -0.5337 -0.2262
 5489SOL    HW228104   2.741   0.363   5.532 -1.4189 -0.4023  0.9021
 5490SOL     OW28105   2.904   0.377   3.905 -0.2913 -0.1445  0.5623
 5490SOL    HW128106   2.887   0.439   3.834 -1.3828 -0.8575  0.1932
 5490SOL    HW228107   2.992   0.343   3.893  0.5755  2.3847 -0.3847
 5491SOL     OW28108   1.955   4.344   7.190  0.0171 -0.5920  0.6717
 5491SOL    HW128109   1.906   4.377   7.115  1.2022  0.0204  0.1653
 5491SOL    HW228110   1.941   4.249   7.193 -0.1130 -0.6086 -0.4636
 5492SOL     OW28111   2.745   3.792  10.481 -1.1991 -0.0149 -0.1754
 5492SOL    HW128112   2.773   3.737  10.554 -2.6998  0.3861  0.7015
 5492SOL    HW228113   2.827   3.835  10.459 -0.6312 -0.6041  0.7753
 5493SOL     OW28114   3.798   3.956  14.453  0.5356 -0.4503  0.0945
 5493SOL    HW128115   3.737   3.999  14.393  1.4849  1.8933  0.7927
 5493SOL    HW228116   3.807   3.864  14.430 -2.6464 -0.9244  0.7003
 5494SOL     OW28117   1.160   1.129   2.341  0.0065  0.1550  0.1209
 5494SOL    HW128118   1.141   1.135   2.434  3.1607 -0.9853  0.8379
 5494SOL    HW228119   1.162   1.223   2.320 -0.8201 -0.2288 -1.7503
 5495SOL     OW28120   3.158   4.632   3.098 -0.8720 -0.5197 -0.3163
 5495SOL    HW128121   3.217   4.623   3.023 -0.9605 -0.9553 -0.3289
 5495SOL    HW228122   3.141   4.726   3.087  0.5585 -0.3121 -0.7499
 5496SOL     OW28123   3.611   4.148  13.101 -0.3646  0.8793 -0.1686
 5496SOL    HW128124   3.675   4.164  13.031  1.3954 -1.1417  0.9963
 5496SOL    HW228125   3.557   4.226  13.111 -1.1717  0.2719  0.2291
 5497SOL     OW28126   0.348   3.031   6.179 -0.3052 -0.0900 -0.1188
 5497SOL    HW128127   0.418   3.005   6.120  0.4781 -1.2442  1.3288
 5497SOL    HW228128   0.278   3.055   6.118  0.7911 -1.4151 -1.8758
 5498SOL     OW28129   0.315   1.091   8.738 -0.0457  0.5638  0.0717
 5498SOL    HW128130   0.278   1.157   8.797 -0.5450 -0.7153  1.1944
 5498SOL    HW228131   0.391   1.142   8.708  3.9528 -4.5486  1.4829
 5499SOL     OW28132   2.705   1.983  17.392  0.0104 -0.1226 -0.0935
 5499SOL    HW128133   2.738   1.914  17.450 -0.4354  1.0587  1.5501
 5499SOL    HW228134   2.744   1.963  17.307  0.7692 -1.5914  0.5980
 5500SOL     OW28135   0.639   0.737   2.665  0.4650 -0.4336 -0.2994
 5500SOL    HW128136   0.612   0.692   2.745 -0.2735  0.5398 -0.0081
 5500SOL    HW228137   0.569   0.711   2.605 -1.1759  0.5639  1.1855
 5501SOL     OW28138   0.019   3.772   5.454 -0.4777  0.0643 -0.3372
 5501SOL    HW128139   0.048   3.858   5.425  1.1724  0.0804  1.3810
 5501SOL    HW228140   0.020   3.726   5.370 -0.5240  0.8131 -0.7450
 5502SOL     OW28141   3.509   3.719  17.684 -0.4408  0.3045  0.1072
 5502SOL    HW128142   3.564   3.795  17.699  0.2368 -0.6454  2.3913
 5502SOL    HW228143   3.572   3.654  17.650 -0.4421  0.4276 -0.1299
 5503SOL     OW28144   3.480   0.050   9.858 -0.1893 -0.3381  0.3091
 5503SOL    HW128145   3.479   4.697   9.898 -2.3223 -0.6391 -0.3857
 5503SOL    HW228146   3.395   0.048   9.813 -0.3690 -0.0107  0.6337
 5504SOL     OW28147   2.868   0.495  15.216 -0.5096  0.2084 -0.3203
 5504SOL    HW128148   2.857   0.469  15.124 -0.0070 -0.8706 -0.0801
 5504SOL    HW228149   2.780   0.469  15.245 -0.6350  0.2546 -0.6513
 5505SOL     OW28150   4.009   2.548  17.729  0.0358 -0.0882  0.4873
 5505SOL    HW128151   3.927   2.586  17.697  1.0186  0.3759 -1.4955
 5505SOL    HW228152   4.030   2.484  17.661 -0.9808 -1.4576  1.4667
 5506SOL     OW28153   1.293   0.468   0.266  0.7422 -0.3209  0.1286
 5506SOL    HW128154   1.330   0.556   0.271 -2.8699  1.1621  1.1047
 5506SOL    HW228155   1.258   0.447   0.352 -1.6326 -2.1464 -1.2750
 5507SOL     OW28156   2.604   1.007   4.502  0.0875  0.1699 -0.1797
 5507SOL    HW128157   2.542   1.078   4.513 -1.6470 -1.2918 -0.5910
 5507SOL    HW228158   2.570   0.940   4.561  0.8678  2.1463  2.5238
 5508SOL     OW28159   0.649   3.146   6.453 -0.1739 -0.7927 -0.5132
 5508SOL    HW128160   0.569   3.185   6.490  0.6169 -0.1653  0.5301
 5508SOL    HW228161   0.683   3.213   6.394  3.3483 -1.1536  1.1477
 5509SOL     OW28162   4.551   4.472  10.248 -0.0703 -0.0485  0.4375
 5509SOL    HW128163   4.533   4.566  10.249  1.7959  0.3121 -3.6852
 5509SOL    HW228164   4.531   4.455  10.340 -0.5805 -0.4610  0.2515
 5510SOL     OW28165   2.989   3.646   3.529 -0.7173  0.3962 -0.0339
 5510SOL    HW128166   2.910   3.596   3.512 -0.7221  0.2946  0.2841
 5510SOL    HW228167   2.947   3.718   3.577  0.8966  0.7719  0.8277
 5511SOL     OW28168   1.008   2.430   6.114  0.1805 -0.2211 -0.6934
 5511SOL    HW128169   0.985   2.387   6.031  0.2471  1.1529 -1.4107
 5511SOL    HW228170   0.969   2.364   6.172 -1.9940  1.0172 -0.7532
 5512SOL     OW28171   4.536   2.709  14.844  0.0047  0.0067 -0.5093
 5512SOL    HW128172   4.483   2.660  14.908  0.9959 -1.4625 -0.8368
 5512SOL    HW228173   4.561   2.650  14.774  1.0334  3.1256 -2.7670
 5513SOL     OW28174   0.489   2.516   3.618  0.1476  0.5108  0.1949
 5513SOL    HW128175   0.405   2.559   3.601 -0.8372 -2.2725 -1.8871
 5513SOL    HW228176   0.463   2.437   3.664  0.0472 -0.2245 -1.1213
 5514SOL     OW28177   1.069   3.518   4.485  0.1667  0.0280  0.0888
 5514SOL    HW128178   1.116   3.435   4.487 -1.2201 -0.7530  0.1390
 5514SOL    HW228179   1.039   3.529   4.395 -0.7811  2.2001  0.6627
 5515SOL     OW28180   1.986   0.093   4.973  0.6027  0.3089  0.2809
 5515SOL    HW128181   2.005   0.183   4.947  0.8371  0.0018 -0.6038
 5515SOL    HW228182   1.893   0.082   4.954  0.3706 -0.2324  1.7182
 5516SOL     OW28183   3.798   3.052  13.427 -0.3732  0.4050 -0.1058
 5516SOL    HW128184   3.746   2.973  13.444 -0.1306 -0.4052 -3.1387
 5516SOL    HW228185   3.866   3.013  13.373  0.1872 -1.8151  2.1841
 5517SOL     OW28186   4.100   4.683   5.361  0.6440 -0.0039 -0.1368
 5517SOL    HW128187   4.056   0.027   5.394  0.7373  0.3382 -0.8260
 5517SOL    HW228188   4.114   4.631   5.440 -0.7963 -0.8802 -0.4526
 5518SOL     OW28189   4.418   2.130   8.222 -0.4889 -0.9760 -0.0860
 5518SOL    HW128190   4.492   2.181   8.191 -0.3927 -1.7441 -1.0992
 5518SOL    HW228191   4.446   2.049   8.180  0.3389 -0.2145 -0.9992
 5519SOL     OW28192   2.967   1.037   3.377  0.2833 -0.3784 -0.3046
 5519SOL    HW128193   2.916   0.959   3.400  0.4774 -0.9573 -1.8637
 5519SOL    HW228194   2.973   1.082   3.461  0.5452 -2.7918  0.9684
 5520SOL     OW28195   2.838   3.805   5.551  0.2618 -0.2654  0.3051
 5520SOL    HW128196   2.795   3.744   5.611 -1.4472 -0.8901 -1.5683
 5520SOL    HW228197   2.924   3.763   5.541  0.1148 -0.8180  1.3862
 5521SOL     OW28198   0.521   1.081   9.310  0.7934  0.1662  0.0075
 5521SOL    HW128199   0.585   1.059   9.378  0.8214 -1.0841 -0.4259
 5521SOL    HW228200   0.510   0.997   9.266  0.4889  0.3385 -0.2424
 5522SOL     OW28201   0.060   4.296   3.818 -0.0102 -0.3248 -0.1275
 5522SOL    HW128202   0.104   4.335   3.894  1.3455 -1.9638 -0.0584
 5522SOL    HW228203   4.703   4.313   3.840  1.1296  3.3488  1.8115
 5523SOL     OW28204   0.599   1.113  16.541 -0.1816 -0.3124 -0.5155
 5523SOL    HW128205   0.605   1.208  16.550  2.5600 -0.5877  0.6185
 5523SOL    HW228206   0.688   1.085  16.563 -0.1601 -0.4638 -0.8084
 5524SOL     OW28207   3.717   0.381   1.390 -0.0400  0.9364 -0.3112
 5524SOL    HW128208   3.722   0.438   1.314  1.7286  1.5821  0.2930
 5524SOL    HW228209   3.812   0.372   1.396 -0.1750  0.7409  1.4839
 5525SOL     OW28210   0.106   2.802   5.308  0.0412 -0.1673  0.5866
 5525SOL    HW128211   0.190   2.790   5.263  0.1849  0.5125  0.6724
 5525SOL    HW228212   0.054   2.726   5.284  1.9699 -1.1431 -0.4766
 5526SOL     OW28213   4.168   0.922   4.256  0.0419  0.7471 -0.2364
 5526SOL    HW128214   4.137   0.895   4.170 -0.6450  1.5845 -0.2535
 5526SOL    HW228215   4.092   0.901   4.311  1.3986 -1.6701  0.7579
 5527SOL     OW28216   3.912   4.317   7.857  0.2232  0.8785  1.0647
 5527SOL    HW128217   3.982   4.261   7.893  1.6144  1.4433 -0.7428
 5527SOL    HW228218   3.847   4.248   7.844  1.8550 -0.1948 -1.3406
 5528SOL     OW28219   2.816   3.516   4.736 -0.1036  0.2592  0.5888
 5528SOL    HW128220   2.806   3.512   4.641  2.3803 -2.7901  0.4538
 5528SOL    HW228221   2.725   3.502   4.763  0.0166 -1.7258 -0.0238
 5529SOL     OW28222   1.772   0.225  12.767 -0.1905 -0.2104 -0.0479
 5529SOL    HW128223   1.697   0.192  12.817 -1.3338 -0.6051 -2.0325
 5529SOL    HW228224   1.832   0.212  12.841 -1.2520  2.4330  1.2774
 5530SOL     OW28225   2.983   3.108   6.174 -0.4075  0.3644 -0.2290
 5530SOL    HW128226   2.953   3.199   6.181 -0.0106  0.3930  0.9793
 5530SOL    HW228227   2.901   3.059   6.163 -0.0716  0.2062 -2.0295
 5531SOL     OW28228   1.466   2.851   2.872  0.5201 -0.0654  0.0814
 5531SOL    HW128229   1.405   2.778   2.861  1.6970 -1.0842  0.2992
 5531SOL    HW228230   1.421   2.924   2.828 -0.7466  0.1115  1.6741
 5532SOL     OW28231   3.105   2.791   8.812 -0.2896 -0.1941 -0.6414
 5532SOL    HW128232   3.165   2.774   8.885 -0.9046 -0.5574 -0.2183
 5532SOL    HW228233   3.167   2.799   8.740  0.5761  1.0411  0.2372
 5533SOL     OW28234   0.921   0.588   6.842 -0.0935  0.1490 -0.0198
 5533SOL    HW128235   0.872   0.583   6.760  0.7724 -1.3513 -0.4428
 5533SOL    HW228236   0.931   0.683   6.847  2.7260 -0.0980 -1.1933
 5534SOL     OW28237   1.540   2.818  12.111  0.1429 -0.4726  0.1514
 5534SOL    HW128238   1.558   2.730  12.146  0.1758 -0.8903 -0.9236
 5534SOL    HW228239   1.526   2.803  12.018 -0.7186  1.8376 -0.0805
 5535SOL     OW28240   3.881   2.099  10.615  0.7795  0.2329  0.5538
 5535SOL    HW128241   3.872   2.017  10.566  0.0690  0.5445  0.1588
 5535SOL    HW228242   3.802   2.105  10.669  1.6743 -2.9295  2.2092
 5536SOL     OW28243   3.662   1.396   1.971 -0.2350 -0.2702  0.0278
 5536SOL    HW128244   3.636   1.427   2.057 -0.6755 -0.7483  0.0694
 5536SOL    HW228245   3.579   1.377   1.927 -1.6560  0.7870  2.2632
 5537SOL     OW28246   3.804   1.633   2.351 -0.2292  0.7364  0.0753
 5537SOL    HW128247   3.847   1.669   2.428  0.8302 -0.5813  0.0825
 5537SOL    HW228248   3.847   1.674   2.276 -0.5966 -0.0418 -0.5574
 5538SOL     OW28249   3.096   3.968   5.064  0.0339  0.4765  0.5017
 5538SOL    HW128250   3.054   3.898   5.114 -0.5112  0.5233  0.1148
 5538SOL    HW228251   3.046   3.960   4.983 -1.2836 -1.0300  1.4573
 5539SOL     OW28252   4.067   3.964   4.377  0.3294  0.1058  0.1125
 5539SOL    HW128253   4.077   4.057   4.398  0.8054 -0.4969  2.5481
 5539SOL    HW228254   4.110   3.971   4.292  2.0041  0.8283  1.0248
 5540SOL     OW28255   0.548   3.567   6.211  0.2546  1.0358  0.1271
 5540SOL    HW128256   0.594   3.578   6.127  0.2503  0.6305  0.0718
 5540SOL    HW228257   0.583   3.482   6.237 -0.4691  0.5362 -0.5376
 5541SOL     OW28258   2.601   4.011   2.903  0.1936  0.2245  0.4829
 5541SOL    HW128259   2.654   3.948   2.854 -0.9965 -0.4794  0.0877
 5541SOL    HW228260   2.592   4.086   2.845 -0.5958 -0.9190 -0.8566
 5542SOL     OW28261   3.031   0.845   8.129 -0.4001 -0.0359  0.1166
 5542SOL    HW128262   3.072   0.766   8.164  0.4585  0.1185 -0.5267
 5542SOL    HW228263   2.949   0.844   8.179  1.3723  1.6553  3.0619
 5543SOL     OW28264   2.030   0.148   4.530  0.2637 -0.3462  0.4388
 5543SOL    HW128265   1.949   0.099   4.541 -0.3531  0.8750  1.4112
 5543SOL    HW228266   2.088   0.090   4.481  1.1367 -0.2406  1.3216
 5544SOL     OW28267   4.361   2.772  11.467  0.2061  0.5581 -0.0936
 5544SOL    HW128268   4.286   2.817  11.429 -2.0284 -0.7591  2.7750
 5544SOL    HW228269   4.380   2.828  11.542  0.7248 -0.0074  0.1960
 5545SOL     OW28270   1.982   1.886   6.216 -0.0556 -0.0668  0.4842
 5545SOL    HW128271   1.956   1.947   6.284 -1.4451 -0.1943  0.0585
 5545SOL    HW228272   2.046   1.826   6.255  0.3909  0.5345  0.6603
 5546SOL     OW28273   0.427   1.352  13.202  0.1454  0.1280  0.0367
 5546SOL    HW128274   0.514   1.390  13.213  0.0323  0.1629  0.8316
 5546SOL    HW228275   0.368   1.412  13.249 -1.4545 -3.2562  2.3882
 5547SOL     OW28276   1.396   4.563   6.508  0.0637  0.1182 -0.0555
 5547SOL    HW128277   1.375   4.507   6.434  0.1991  0.4477 -0.3450
 5547SOL    HW228278   1.365   4.650   6.483  0.1052 -0.6756 -2.8069
 5548SOL     OW28279   3.455   2.771  11.987 -0.0427 -0.3892  0.3418
 5548SOL    HW128280   3.427   2.861  11.971  0.3085 -0.5150 -0.9262
 5548SOL    HW228281   3.547   2.773  12.011 -0.1545  0.4851  0.6744
 5549SOL     OW28282   0.276   3.911  14.362  0.2068 -0.1832  0.0288
 5549SOL    HW128283   0.281   4.002  14.333 -4.1486  0.4557  1.3427
 5549SOL    HW228284   0.368   3.883  14.356  0.6997  0.9409  2.4758
 5550SOL     OW28285   2.255   0.533   1.361 -0.5988  0.5405  0.0020
 5550SOL    HW128286   2.234   0.468   1.294 -0.7441 -1.3156  1.8198
 5550SOL    HW228287   2.207   0.607   1.326 -0.8495  0.2014 -0.3781
 5551SOL     OW28288   0.029   4.603  13.933 -0.0397  0.0325  0.5279
 5551SOL    HW128289   4.671   4.591  13.957 -0.1828 -0.1124 -0.0810
 5551SOL    HW228290   0.062   4.644  14.013  0.2361 -1.0038  0.9532
 5552SOL     OW28291   3.396   2.969   8.253  0.2534  0.2843 -0.0497
 5552SOL    HW128292   3.474   3.019   8.227  1.1181  0.9435  3.9139
 5552SOL    HW228293   3.436   2.882   8.265 -0.2586 -0.1598 -1.4833
 5553SOL     OW28294   2.585   3.320   7.135 -0.7063  0.4896 -0.9568
 5553SOL    HW128295   2.552   3.231   7.146  1.5074 -0.1669  0.2697
 5553SOL    HW228296   2.521   3.371   7.085 -1.9391 -0.3816 -0.2633
 5554SOL     OW28297   1.201   2.038   6.137  0.0530  0.0200  0.3310
 5554SOL    HW128298   1.247   2.105   6.187 -1.1741 -1.3065  3.2484
 5554SOL    HW228299   1.210   2.075   6.049 -0.4672 -1.2136 -0.2388
 5555SOL     OW28300   2.487   0.945  15.945 -0.2596  0.7880  0.1830
 5555SOL    HW128301   2.466   1.024  15.994 -0.9948  0.5255  0.2942
 5555SOL    HW228302   2.539   0.898  16.010 -0.5369 -0.3535 -0.4324
 5556SOL     OW28303   4.590   2.247   7.646 -0.3230 -0.3887  0.0533
 5556SOL    HW128304   4.555   2.333   7.667 -0.8668 -0.0302 -2.3391
 5556SOL    HW228305   4.541   2.234   7.565  0.4236 -0.9485 -0.3147
 5557SOL     OW28306   3.053   4.192  16.699  0.2997  0.2411 -0.0247
 5557SOL    HW128307   3.010   4.271  16.667 -0.0858  0.9071  2.1658
 5557SOL    HW228308   3.083   4.232  16.780 -0.9895 -2.2481  1.6822
 5558SOL     OW28309   2.624   0.713   1.238  0.0349  0.2040  0.5123
 5558SOL    HW128310   2.719   0.707   1.242  0.2007  1.5157 -1.3888
 5558SOL    HW228311   2.599   0.622   1.256  1.2614  0.1602  1.9839
 5559SOL     OW28312   2.951   0.192   8.440 -0.2465  0.3137  0.0332
 5559SOL    HW128313   3.029   0.200   8.386 -0.1368  1.6780  0.3992
 5559SOL    HW228314   2.986   0.249   8.508  0.2176  0.7805 -0.6024
 5560SOL     OW28315   0.792   1.062  14.816 -0.1012  0.1390 -0.0058
 5560SOL    HW128316   0.841   0.991  14.857 -0.2488  1.0313  1.6723
 5560SOL    HW228317   0.743   1.096  14.891  0.6718 -0.4378  0.7598
 5561SOL     OW28318   0.575   1.432   3.194 -0.7360  0.5056 -0.1523
 5561SOL    HW128319   0.618   1.368   3.250  0.7778  1.4347 -0.2234
 5561SOL    HW228320   0.532   1.494   3.252 -1.5991 -3.0116  2.9349
 5562SOL     OW28321   3.914   0.811   6.395  0.3637 -0.2124  0.7689
 5562SOL    HW128322   3.928   0.844   6.306  0.0718 -1.2538  0.3393
 5562SOL    HW228323   3.820   0.796   6.394  0.2579  0.7075 -2.7645
 5563SOL     OW28324   1.383   2.533   8.443  0.7206  0.1820 -0.2201
 5563SOL    HW128325   1.314   2.505   8.384 -1.0705 -0.8952  2.3799
 5563SOL    HW228326   1.331   2.600   8.487 -0.0934 -2.1188  2.3070
 5564SOL     OW28327   1.983   0.010   1.011  0.1677  0.0958 -0.3993
 5564SOL    HW128328   1.895   0.016   1.049 -0.5567 -2.4139 -1.6969
 5564SOL    HW228329   1.995   0.099   0.977  1.4063 -0.6085 -1.7864
 5565SOL     OW28330   1.747   4.728   0.735  0.4974  0.0605  0.0895
 5565SOL    HW128331   1.812   0.036   0.678  1.8296  0.7819  2.1472
 5565SOL    HW228332   1.795   4.667   0.791  0.0186  1.3799  1.9160
 5566SOL     OW28333   2.154   2.146  16.461  0.1668  0.1558  0.0172
 5566SOL    HW128334   2.181   2.097  16.384  2.1473  0.0048  0.8103
 5566SOL    HW228335   2.158   2.083  16.533 -0.6314  0.9769  0.7898
 5567SOL     OW28336   1.973   0.375   2.127 -0.1560  0.0266  0.3231
 5567SOL    HW128337   2.038   0.317   2.166 -0.1499  0.7629  1.4067
 5567SOL    HW228338   1.907   0.389   2.195  0.0996  1.4597  0.2613
 5568SOL     OW28339   3.717   4.158   3.495 -0.3770  0.3470  0.0512
 5568SOL    HW128340   3.809   4.180   3.481  0.0992 -3.0295 -1.9617
 5568SOL    HW228341   3.708   4.076   3.446 -1.2434  2.5204 -3.3985
 5569SOL     OW28342   4.386   3.279   2.563  0.0764 -0.2966 -0.9834
 5569SOL    HW128343   4.292   3.289   2.547  0.0362  1.4636  0.2355
 5569SOL    HW228344   4.413   3.367   2.534  1.3701 -0.6514 -0.8599
 5570SOL     OW28345   0.638   0.162   9.217 -0.7212  0.8149 -0.2168
 5570SOL    HW128346   0.621   0.076   9.177  0.2719  0.9910 -0.9912
 5570SOL    HW228347   0.560   0.179   9.270 -0.6010 -0.5936  0.4309
 5571SOL     OW28348   0.588   2.908  11.969 -0.1243 -0.1146  0.2499
 5571SOL    HW128349   0.643   2.985  11.978 -1.5165  0.9970 -0.7664
 5571SOL    HW228350   0.613   2.874  11.882 -0.0917  1.5124 -0.3703
 5572SOL     OW28351   1.375   2.949   7.897 -0.3772  0.4441  0.6124
 5572SOL    HW128352   1.464   2.916   7.908 -0.0748  0.9995 -0.2141
 5572SOL    HW228353   1.331   2.875   7.854  0.2087 -0.1700  1.0826
 5573SOL     OW28354   2.597   0.449   9.874 -0.2284  0.1974  0.2583
 5573SOL    HW128355   2.614   0.402   9.792 -1.2570  0.0745  0.1116
 5573SOL    HW228356   2.545   0.393   9.931  0.5044 -0.9532 -0.1961
 5574SOL     OW28357   0.830   1.965   6.907  0.4725  0.2120  0.5857
 5574SOL    HW128358   0.809   1.879   6.944 -2.8864  0.4555 -0.7254
 5574SOL    HW228359   0.745   2.008   6.914  1.0293  1.4911 -0.4863
 5575SOL     OW28360   4.456   2.819  11.914 -0.4271 -0.5140  0.0403
 5575SOL    HW128361   4.533   2.816  11.971 -1.0533 -1.1212  0.8445
 5575SOL    HW228362   4.396   2.791  11.982 -1.4055 -2.1540 -1.4846
 5576SOL     OW28363   4.427   0.574   6.103 -0.5144 -0.5378  0.2347
 5576SOL    HW128364   4.359   0.622   6.149 -1.3058 -1.5040  0.0802
 5576SOL    HW228365   4.498   0.577   6.167  0.1210 -0.1240 -0.4877
 5577SOL     OW28366   2.969   1.861  11.454 -0.0109  0.2113 -0.0099
 5577SOL    HW128367   3.053   1.880  11.412  0.2413 -0.7292  0.0542
 5577SOL    HW228368   2.921   1.939  11.428  0.6659  0.9773  1.0288
 5578SOL     OW28369   4.054   0.996   7.781  0.1984  0.3694  0.2924
 5578SOL    HW128370   4.106   0.926   7.741  2.4099  2.8218 -1.1344
 5578SOL    HW228371   3.970   0.990   7.736  0.5048  1.1475 -0.3762
 5579SOL     OW28372   2.289   0.227  14.386  0.2540 -0.2424 -0.1189
 5579SOL    HW128373   2.287   0.225  14.290  2.7718 -2.0808 -0.1341
 5579SOL    HW228374   2.250   0.313  14.400 -0.8787 -1.4671  4.2022
 5580SOL     OW28375   4.468   3.767   8.631 -0.5726 -0.0850  0.0098
 5580SOL    HW128376   4.489   3.853   8.593 -0.1060  0.4564  1.5008
 5580SOL    HW228377   4.378   3.785   8.658 -0.9608 -4.0792  1.4176
 5581SOL     OW28378   0.968   0.991   2.694 -0.2094  0.6083  0.0463
 5581SOL    HW128379   0.973   0.978   2.789 -2.2763 -1.7936 -0.1647
 5581SOL    HW228380   0.982   0.901   2.666  0.6240  0.9804 -0.7119
 5582SOL     OW28381   4.331   0.150   1.038 -0.1797  0.4371 -0.0812
 5582SOL    HW128382   4.247   0.178   1.001 -1.3046 -1.0970  1.3201
 5582SOL    HW228383   4.392   0.222   1.019 -0.8952  0.6434 -1.6155
 5583SOL     OW28384   0.221   3.043   5.042 -0.1020  0.0695 -0.5309
 5583SOL    HW128385   0.133   3.079   5.042  0.2783  0.9895 -1.6828
 5583SOL    HW228386   0.263   3.126   5.020 -1.6582  1.0338  0.2286
 5584SOL     OW28387   2.354   2.906  10.946 -0.4046 -0.3112  0.3339
 5584SOL    HW128388   2.291   2.976  10.964 -0.7020 -0.1925 -1.1179
 5584SOL    HW228389   2.354   2.865  11.032 -2.7369 -0.3323  0.3091
 5585SOL     OW28390   0.832   3.521   9.922  0.0049  0.2152 -0.0248
 5585SOL    HW128391   0.787   3.597   9.884  0.7403 -0.3134 -1.9480
 5585SOL    HW228392   0.788   3.450   9.876 -0.8894 -1.0563  2.7969
 5586SOL     OW28393   2.472   1.464   6.288  0.1974 -0.1674 -0.4101
 5586SOL    HW128394   2.517   1.525   6.230 -2.7612  1.1378 -1.3404
 5586SOL    HW228395   2.516   1.383   6.261 -0.8569 -0.3928 -1.4634
 5587SOL     OW28396   0.989   0.323   3.718 -0.2023  0.5250 -0.3555
 5587SOL    HW128397   1.053   0.336   3.788 -0.6485  1.3207 -0.0932
 5587SOL    HW228398   0.929   0.261   3.759  0.1626  1.0236  0.9231
 5588SOL     OW28399   1.321   3.639  15.707  0.5664  0.3200  0.3452
 5588SOL    HW128400   1.248   3.617  15.765  1.0710  2.4799  1.7742
 5588SOL    HW228401   1.282   3.684  15.632  0.2501  0.2789  0.4844
 5589SOL     OW28402   0.853   2.538   6.562 -0.2524 -0.4890  0.9825
 5589SOL    HW128403   0.938   2.578   6.547 -0.7465  1.3973  3.1988
 5589SOL    HW228404   0.785   2.596   6.526  0.8902  0.8113  0.8929
 5590SOL     OW28405   3.333   3.350   8.179  1.2411 -0.3384  0.6319
 5590SOL    HW128406   3.319   3.354   8.274 -0.9939  0.4798  0.2750
 5590SOL    HW228407   3.428   3.335   8.172  0.9506 -3.1024  2.8067
 5591SOL     OW28408   3.904   1.054   6.824 -0.2881 -0.2877 -0.2104
 5591SOL    HW128409   3.969   1.014   6.882 -0.6733  0.2843  0.6139
 5591SOL    HW228410   3.951   1.047   6.741  1.3028 -0.2634  0.6892
 5592SOL     OW28411   0.315   3.280   3.219 -0.1465  0.8376  0.6386
 5592SOL    HW128412   0.254   3.237   3.279 -1.4500 -1.0086 -2.0483
 5592SOL    HW228413   0.267   3.283   3.137 -0.9515  0.8614  1.1077
 5593SOL     OW28414   0.144   0.033   6.162  0.1310  0.2036 -0.2426
 5593SOL    HW128415   0.088   4.709   6.213  0.1804  1.6999  1.5292
 5593SOL    HW228416   0.097   0.031   6.079  1.5193  0.8982 -1.0478
 5594SOL     OW28417   2.432   3.958   7.072 -0.3031 -0.5032 -0.0874
 5594SOL    HW128418   2.396   3.872   7.050 -2.0675  0.1710  0.2335
 5594SOL    HW228419   2.377   4.011   7.015  0.9347  2.6543  1.6521
 5595SOL     OW28420   0.715   3.684   5.725 -0.2562  0.0146  0.0205
 5595SOL    HW128421   0.777   3.756   5.735  1.7293 -1.4910 -1.4478
 5595SOL    HW228422   0.742   3.646   5.641  0.7440 -0.8852  0.7523
 5596SOL     OW28423   2.700   1.686   1.688  0.3967 -0.5165 -0.5981
 5596SOL    HW128424   2.674   1.654   1.601  0.6381 -2.9550  0.2189
 5596SOL    HW228425   2.759   1.613   1.707 -0.9658 -1.2193  0.9313
 5597SOL     OW28426   3.493   1.576  12.449 -0.1931  0.5452  0.2126
 5597SOL    HW128427   3.439   1.647  12.484 -3.0240 -0.1838 -2.6851
 5597SOL    HW228428   3.439   1.501  12.425  0.3914  0.2381 -0.1440
 5598SOL     OW28429   3.225   0.186   1.699  0.3988 -0.2012  0.6434
 5598SOL    HW128430   3.242   0.123   1.629 -0.8512  0.4246 -0.2306
 5598SOL    HW228431   3.199   0.131   1.773 -2.5303  0.1866 -0.0851
 5599SOL     OW28432   4.311   0.480   3.878 -0.3108 -0.6049  0.1259
 5599SOL    HW128433   4.294   0.568   3.910 -2.5769 -0.9943 -0.0026
 5599SOL    HW228434   4.311   0.441   3.965  0.2944  0.2347  0.4978
 5600SOL     OW28435   3.988   2.936   3.610  0.5842  0.5330  0.2328
 5600SOL    HW128436   3.977   2.843   3.631 -0.0664  0.5189 -0.1817
 5600SOL    HW228437   3.981   2.940   3.514  1.3024  2.1323  0.2559
 5601SOL     OW28438   2.130   4.716  11.735 -0.3438 -0.2990  0.1860
 5601SOL    HW128439   2.149   4.692  11.644  2.8687 -1.5137  1.1750
 5601SOL    HW228440   2.035   4.714  11.727 -0.4317  0.7938  0.9817
 5602SOL     OW28441   4.705   0.249   0.906  0.8876  0.2304 -0.0607
 5602SOL    HW128442   4.667   0.289   0.828 -0.3510  0.5999  0.7299
 5602SOL    HW228443   4.661   0.297   0.977 -0.1033  0.9326 -1.1395
 5603SOL     OW28444   0.026   3.006  13.007 -0.2739 -0.0431  0.2855
 5603SOL    HW128445   4.725   3.075  13.063  0.8606  0.2188  0.6795
 5603SOL    HW228446   4.689   2.982  12.949 -0.1852 -0.9992  0.5766
 5604SOL     OW28447   1.914   3.616   2.420 -0.4421 -0.4088 -0.1926
 5604SOL    HW128448   1.851   3.668   2.370  0.4739  1.3410  0.4942
 5604SOL    HW228449   1.934   3.542   2.362  1.8663  0.2343 -0.1864
 5605SOL     OW28450   0.383   3.258   6.447 -0.7466 -0.1557  0.2053
 5605SOL    HW128451   0.403   3.204   6.370 -0.9229 -1.7595  1.2939
 5605SOL    HW228452   0.307   3.308   6.419 -0.0681  0.2313 -0.9527
 5606SOL     OW28453   0.602   0.366   2.243 -0.7026 -0.1884  0.2106
 5606SOL    HW128454   0.650   0.313   2.180  2.3207  0.2884  2.0998
 5606SOL    HW228455   0.570   0.293   2.297  1.5171  0.4588  2.3985
 5607SOL     OW28456   1.235   2.619   9.038  0.6134 -0.0716 -0.5762
 5607SOL    HW128457   1.227   2.536   8.992  2.4631 -0.6364  0.1071
 5607SOL    HW228458   1.168   2.602   9.104 -0.5345  1.1144 -1.4605
 5608SOL     OW28459   3.997   2.959   3.328 -0.4752  0.2833  0.0232
 5608SOL    HW128460   4.034   3.036   3.285 -0.4126  0.0878 -0.2737
 5608SOL    HW228461   4.032   2.882   3.284  2.4491 -0.2223  3.2591
 5609SOL     OW28462   3.264   0.588  12.331 -0.1904  0.3361 -0.0973
 5609SOL    HW128463   3.238   0.531  12.404  0.8639  1.3209  1.0517
 5609SOL    HW228464   3.212   0.557  12.257  1.5256  0.6250 -1.4175
 5610SOL     OW28465   4.165   2.759   7.011 -0.2868  0.5809 -0.4501
 5610SOL    HW128466   4.256   2.743   6.989  0.2117  0.4298  1.7000
 5610SOL    HW228467   4.168   2.771   7.106 -1.0930 -1.2485 -0.1913
 5611SOL     OW28468   1.165   1.568  12.933  0.0779 -0.1597  0.1898
 5611SOL    HW128469   1.140   1.532  12.849  0.9870  1.3584 -0.7421
 5611SOL    HW228470   1.229   1.637  12.915 -0.7586  0.5309 -0.1329
 5612SOL     OW28471   4.584   2.586   9.267 -0.8961  0.3233 -0.0742
 5612SOL    HW128472   4.582   2.570   9.173  0.6965 -1.9208  0.2795
 5612SOL    HW228473   4.598   2.681   9.271  0.7793  0.0732  0.1708
 5613SOL     OW28474   1.932   0.376   9.361  0.6277  0.3389  0.1939
 5613SOL    HW128475   1.976   0.361   9.277 -4.2471  1.1158 -2.5123
 5613SOL    HW228476   1.840   0.356   9.343  0.6447  0.3017  0.1501
 5614SOL     OW28477   1.812   2.002  12.733  0.1816 -0.2601  0.7894
 5614SOL    HW128478   1.805   1.921  12.683 -2.7403  0.0873  0.6090
 5614SOL    HW228479   1.794   1.974  12.823 -0.5797 -1.1279  0.3666
 5615SOL     OW28480   4.260   3.332   4.770 -0.0906 -0.4229 -0.7096
 5615SOL    HW128481   4.350   3.305   4.753 -0.2741 -0.9343 -0.8612
 5615SOL    HW228482   4.271   3.347   4.864 -1.1743  1.6850 -0.9175
 5616SOL     OW28483   2.885   1.958   8.231  0.1263  0.3680 -0.4210
 5616SOL    HW128484   2.833   1.877   8.230 -1.5438  1.4247  1.4697
 5616SOL    HW228485   2.899   1.980   8.139 -2.3668 -1.1494 -1.1717
 5617SOL     OW28486   2.702   4.120  10.122 -0.5292  0.0340 -0.3587
 5617SOL    HW128487   2.697   4.051  10.187  1.2753  2.1148  1.9737
 5617SOL    HW228488   2.738   4.195  10.170 -0.0578  0.0595 -0.7523
 5618SOL     OW28489   0.030   2.379   3.372 -0.1473 -0.0236  0.4373
 5618SOL    HW128490   0.111   2.336   3.401  0.3401 -0.3273 -1.4034
 5618SOL    HW228491   0.053   2.440   3.302 -1.1413 -1.6091 -1.2384
 5619SOL     OW28492   0.156   1.068   5.198 -0.0096  0.1003 -0.0841
 5619SOL    HW128493   0.190   1.137   5.141 -2.0845 -0.3590 -1.8789
 5619SOL    HW228494   0.210   1.094   5.272 -0.8443 -1.0311  0.9287
 5620SOL     OW28495   3.735   0.336   8.045 -0.2176  0.1368  0.3165
 5620SOL    HW128496   3.684   0.279   8.103 -1.2662 -1.2516 -1.9825
 5620SOL    HW228497   3.726   0.421   8.088 -0.4872 -0.0972  0.7285
 5621SOL     OW28498   3.805   3.550   6.018  0.1395  0.1617  0.4935
 5621SOL    HW128499   3.884   3.603   6.007 -0.0492 -0.0141 -1.7547
 5621SOL    HW228500   3.831   3.458   6.023 -2.6185 -0.5869  1.0093
 5622SOL     OW28501   0.148   2.413   1.468 -0.1069 -0.3830  0.0015
 5622SOL    HW128502   0.166   2.320   1.453 -0.3300 -0.3902 -0.2241
 5622SOL    HW228503   0.203   2.434   1.543 -0.7651  0.4517  0.2535
 5623SOL     OW28504   3.490   1.506  14.761 -0.1009 -1.1811  0.2757
 5623SOL    HW128505   3.410   1.463  14.730 -0.0928 -0.7627 -0.3165
 5623SOL    HW228506   3.544   1.430  14.784 -1.0382 -2.4970 -1.8801
 5624SOL     OW28507   0.780   0.710   7.923  0.1590 -0.3638  0.0248
 5624SOL    HW128508   0.816   0.701   8.011 -0.3497  0.8918  0.3600
 5624SOL    HW228509   0.844   0.768   7.881  0.2976 -1.1096 -0.7982
 5625SOL     OW28510   0.960   2.846   5.914 -0.2628 -0.2289  0.0622
 5625SOL    HW128511   1.034   2.819   5.968  1.6183  1.2596 -1.7956
 5625SOL    HW228512   0.901   2.858   5.989 -0.5432 -0.6294 -0.0975
 5626SOL     OW28513   2.971   0.820   3.011  0.3504  0.0227  0.5451
 5626SOL    HW128514   2.890   0.770   3.025 -1.6869  2.4839 -2.3628
 5626SOL    HW228515   2.940   0.907   2.987  3.9009  1.4004  1.0273
 5627SOL     OW28516   2.725   1.883   6.301  0.0919 -0.6223 -0.1690
 5627SOL    HW128517   2.773   1.847   6.375 -0.0807 -1.7395 -0.5995
 5627SOL    HW228518   2.795   1.893   6.236 -1.3067 -0.1336 -1.6247
 5628SOL     OW28519   4.244   2.572   5.366  0.1396 -0.3250 -0.4226
 5628SOL    HW128520   4.165   2.553   5.316 -0.6444  1.4669  0.1232
 5628SOL    HW228521   4.289   2.499   5.324 -0.4564 -0.5569 -0.6511
 5629SOL     OW28522   0.194   0.598   7.830 -0.0467  0.1423  0.1462
 5629SOL    HW128523   0.263   0.536   7.807  0.3529  0.8856 -0.6414
 5629SOL    HW228524   0.137   0.533   7.872  0.2180  0.1882  0.5711
 5630SOL     OW28525   3.519   2.926   0.410  0.0154  0.2202  0.4780
 5630SOL    HW128526   3.434   2.971   0.415 -0.5483 -0.5980 -1.8881
 5630SOL    HW228527   3.519   2.903   0.503  0.4072  2.4797  1.0495
 5631SOL     OW28528   3.022   3.983   6.423 -0.1543  0.2253 -0.4827
 5631SOL    HW128529   3.072   3.970   6.504 -0.1239 -1.1271 -0.7142
 5631SOL    HW228530   3.033   3.899   6.379 -1.8789 -0.5124  0.5134
 5632SOL     OW28531   0.428   0.129   2.274  0.2751 -0.4650 -0.5510
 5632SOL    HW128532   0.373   0.149   2.198 -0.2262  1.9958  0.4666
 5632SOL    HW228533   0.497   0.070   2.243  1.6112  1.1039 -0.6162
 5633SOL     OW28534   1.604   2.817   7.950  0.5379 -0.2034  0.6484
 5633SOL    HW128535   1.600   2.728   7.987  0.1511 -0.6478 -0.4741
 5633SOL    HW228536   1.591   2.788   7.860  0.1200 -1.2090  1.0205
 5634SOL     OW28537   3.521   2.613   7.171  0.2965 -0.2581 -0.5441
 5634SOL    HW128538   3.490   2.584   7.257  0.3464  2.6719  0.4668
 5634SOL    HW228539   3.438   2.621   7.125 -0.4166  0.6620  0.8933
 5635SOL     OW28540   0.325   2.744   9.758  0.6730  0.4613 -0.3583
 5635SOL    HW128541   0.356   2.775   9.843 -0.5267  1.9191 -0.4392
 5635SOL    HW228542   0.231   2.755   9.776  0.5569 -0.9698 -0.1018
 5636SOL     OW28543   1.981   3.897   9.828  0.7459 -0.2011  0.0805
 5636SOL    HW128544   1.945   3.984   9.807 -2.7571 -1.5513  0.5619
 5636SOL    HW228545   1.920   3.834   9.790  1.9977 -0.0711 -2.1232
 5637SOL     OW28546   0.195   1.344   7.685 -0.3106 -0.6073  0.1947
 5637SOL    HW128547   0.272   1.372   7.734 -0.5423 -0.6432  0.5783
 5637SOL    HW228548   0.174   1.430   7.651  1.5418 -0.4050 -0.4633
 5638SOL     OW28549   0.707   3.540   1.453  0.5709  0.7551 -0.4868
 5638SOL    HW128550   0.795   3.528   1.488  0.4983  1.9719  0.1030
 5638SOL    HW228551   0.731   3.552   1.361  0.5092 -2.3334 -0.9244
 5639SOL     OW28552   1.012   2.087   5.710 -0.4655 -0.1940 -0.1612
 5639SOL    HW128553   0.979   2.017   5.766 -0.3832  0.5600  0.8130
 5639SOL    HW228554   1.106   2.070   5.703 -0.5137 -0.7330  0.5316
 5640SOL     OW28555   3.981   1.375   0.203  0.0077 -0.1841  0.3695
 5640SOL    HW128556   4.016   1.464   0.205  0.9331 -0.5546  0.4052
 5640SOL    HW228557   3.887   1.384   0.184  0.5530 -0.2150 -2.3172
 5641SOL     OW28558   0.303   2.199   8.332 -0.2274 -0.0357 -0.0267
 5641SOL    HW128559   0.234   2.199   8.398  1.7340  1.4896  2.0199
 5641SOL    HW228560   0.365   2.261   8.372 -0.6189 -0.2691  0.9238
 5642SOL     OW28561   1.110   3.857   1.267 -0.3113  0.1466  0.1787
 5642SOL    HW128562   1.134   3.777   1.314 -0.0144 -1.3756 -2.6097
 5642SOL    HW228563   1.196   3.898   1.272 -0.6302  0.8189  0.2264
 5643SOL     OW28564   1.969   1.197   4.707  0.1402  0.0504 -0.4162
 5643SOL    HW128565   1.974   1.116   4.757 -0.2444  1.3555  1.7684
 5643SOL    HW228566   2.060   1.226   4.708  0.2256 -0.2467  0.3518
 5644SOL     OW28567   2.377   1.306   3.960  0.3353  0.3598  0.5433
 5644SOL    HW128568   2.464   1.344   3.946  1.4477 -2.4327 -0.1450
 5644SOL    HW228569   2.397   1.214   3.945 -1.4764  0.0745 -0.2144
 5645SOL     OW28570   1.453   0.216   0.266 -0.0222 -0.4718 -0.3066
 5645SOL    HW128571   1.438   0.310   0.275 -0.9265 -0.6457  0.0506
 5645SOL    HW228572   1.481   0.185   0.352 -0.2350  1.3981  0.4323
 5646SOL     OW28573   2.241   2.197   1.650  0.3721  0.1918 -0.2813
 5646SOL    HW128574   2.211   2.236   1.732  1.3432  0.2081  0.0745
 5646SOL    HW228575   2.308   2.133   1.675 -0.4510  0.0049  1.4571
 5647SOL     OW28576   2.374   1.829   4.010  0.1981 -0.6016  0.5233
 5647SOL    HW128577   2.429   1.752   4.024  0.6755 -0.3201  0.1846
 5647SOL    HW228578   2.419   1.887   4.071 -0.2856 -0.3184  0.6113
 5648SOL     OW28579   3.996   2.499   3.232  0.1713  0.2278 -0.4590
 5648SOL    HW128580   4.047   2.432   3.185  0.3886  0.9499 -1.2720
 5648SOL    HW228581   4.013   2.471   3.322 -0.3456  0.5626 -0.2590
 5649SOL     OW28582   1.255   3.928  13.457  0.4018  0.2191 -0.7034
 5649SOL    HW128583   1.251   4.020  13.432  1.9593  0.2731 -0.7618
 5649SOL    HW228584   1.315   3.893  13.391 -0.0933 -0.7547 -0.6359
 5650SOL     OW28585   2.639   1.380   1.481  0.2715  0.2600  0.4510
 5650SOL    HW128586   2.578   1.453   1.470  0.5789  0.8804  2.9125
 5650SOL    HW228587   2.646   1.342   1.394 -2.7540  0.0546  0.3003
 5651SOL     OW28588   0.432   2.056   5.540  0.1888  0.4131  0.2883
 5651SOL    HW128589   0.523   2.073   5.565 -0.1283  0.6215  1.3349
 5651SOL    HW228590   0.444   2.069   5.446 -0.1517  0.1354  0.2053
 5652SOL     OW28591   3.800   1.675   6.392 -0.3548 -0.7738  0.1223
 5652SOL    HW128592   3.843   1.750   6.353  1.1548 -1.7809 -0.1470
 5652SOL    HW228593   3.827   1.592   6.353  0.3506 -0.1854 -0.6376
 5653SOL     OW28594   4.575   1.375  14.353  0.6191 -0.2841  0.3496
 5653SOL    HW128595   4.629   1.453  14.346 -1.8733  1.4035 -0.0267
 5653SOL    HW228596   4.550   1.377  14.445 -1.8027  1.2748 -0.3368
 5654SOL     OW28597   3.106   4.617   4.228  0.0856 -0.0128  0.5542
 5654SOL    HW128598   3.017   4.586   4.247 -0.3986  0.7733 -0.4641
 5654SOL    HW228599   3.116   4.601   4.134 -1.0038  0.8131  0.2938
 5655SOL     OW28600   2.589   4.037  14.890 -0.5677 -0.4549 -0.7964
 5655SOL    HW128601   2.574   4.007  14.801  0.6089 -2.1527 -0.4214
 5655SOL    HW228602   2.517   3.992  14.934 -0.7223 -2.1123 -2.7471
 5656SOL     OW28603   0.296   2.158   6.635  0.9008 -0.1455  0.1242
 5656SOL    HW128604   0.295   2.161   6.731  0.4942 -2.9403  0.1873
 5656SOL    HW228605   0.222   2.099   6.620  0.7969 -0.0181  0.1370
 5657SOL     OW28606   1.739   0.027   6.640  0.0495  0.2393  0.2376
 5657SOL    HW128607   1.791   0.047   6.718 -2.4460  0.3747  1.8749
 5657SOL    HW228608   1.795   0.055   6.568  0.1395 -1.5611 -0.3817
 5658SOL     OW28609   1.096   3.122  10.241 -0.1920 -0.9903 -0.4143
 5658SOL    HW128610   1.124   3.198  10.293 -3.1149 -1.3282  1.6433
 5658SOL    HW228611   1.065   3.170  10.165 -0.7510 -0.8422 -0.0891
 5659SOL     OW28612   0.923   0.138   9.672 -0.2764  0.2142 -0.3356
 5659SOL    HW128613   0.907   0.093   9.755  0.0310 -0.5053 -0.6750
 5659SOL    HW228614   0.950   0.062   9.622  0.6417  0.0031  0.4825
 5660SOL     OW28615   2.131   0.306   7.280  0.2326  0.4120 -0.3302
 5660SOL    HW128616   2.185   0.362   7.336 -0.4882 -0.4418  1.2087
 5660SOL    HW228617   2.066   0.288   7.348  0.8579 -0.1272  0.1149
 5661SOL     OW28618   1.709   0.323  14.366 -0.6331 -0.4510  0.2502
 5661SOL    HW128619   1.745   0.374  14.440  1.0854 -0.3391 -0.6544
 5661SOL    HW228620   1.726   0.242  14.415  1.1379  0.3315  0.9656
 5662SOL     OW28621   2.686   3.203   5.962  0.2060  0.3460 -0.4516
 5662SOL    HW128622   2.747   3.144   5.917  0.1763  0.0700 -0.1322
 5662SOL    HW228623   2.742   3.273   5.993  0.7433 -0.5059  0.4876
 5663SOL     OW28624   1.353   4.019   1.251 -0.1135 -0.5054 -0.2648
 5663SOL    HW128625   1.404   4.043   1.173 -0.0930 -1.5673 -0.5825
 5663SOL    HW228626   1.421   4.017   1.317 -0.1157  3.0892 -0.1529
 5664SOL     OW28627   4.733   1.150  15.981 -0.1163  0.6191 -0.4105
 5664SOL    HW128628   0.087   1.120  15.958  0.1033 -0.1024  1.3415
 5664SOL    HW228629   0.012   1.155  16.075  1.1016 -1.0669 -0.4840
 5665SOL     OW28630   0.960   2.032   7.351 -0.4438  0.3998  0.2049
 5665SOL    HW128631   0.977   1.990   7.267 -1.3359 -1.4008  0.9190
 5665SOL    HW228632   1.033   2.004   7.407  1.8751  0.7216 -2.6618
 5666SOL     OW28633   2.490   0.994   9.990  0.3506 -0.4977 -0.3744
 5666SOL    HW128634   2.414   1.025   9.941  0.1219  0.4273  0.5667
 5666SOL    HW228635   2.554   1.064   9.984  2.2758 -2.1841  0.5066
 5667SOL     OW28636   3.083   0.674   2.813 -0.0141  0.3268 -0.2175
 5667SOL    HW128637   3.036   0.741   2.863  1.0139  0.3357  0.7373
 5667SOL    HW228638   3.010   0.646   2.758  1.4662 -1.4813 -1.2537
 5668SOL     OW28639   3.121   4.142   3.131 -0.7087 -0.3463 -0.4900
 5668SOL    HW128640   3.185   4.126   3.201 -1.8948 -1.1164  0.4314
 5668SOL    HW228641   3.079   4.219   3.169  0.2873  1.0997 -2.3220
 5669SOL     OW28642   4.475   4.177  16.102 -0.4337  0.4637  0.7554
 5669SOL    HW128643   4.465   4.142  16.191  1.5166  0.4824  0.9908
 5669SOL    HW228644   4.556   4.137  16.071 -1.5330 -0.6500 -0.6681
 5670SOL     OW28645   3.463   4.519   0.510  0.8191  0.7659  0.0805
 5670SOL    HW128646   3.386   4.485   0.555  1.8787 -1.1570  0.4640
 5670SOL    HW228647   3.421   4.598   0.477  0.1655 -0.0677 -1.0996
 5671SOL     OW28648   1.745   0.978   4.557 -0.6539 -0.2516 -0.1997
 5671SOL    HW128649   1.782   0.893   4.583 -0.0765 -0.0650 -0.3965
 5671SOL    HW228650   1.790   0.988   4.473 -1.8229  0.3783 -0.7393
 5672SOL     OW28651   1.520   4.420  16.925  0.6249  0.7049 -0.0025
 5672SOL    HW128652   1.439   4.411  16.974  0.9204 -0.1615  0.3175
 5672SOL    HW228653   1.523   4.333  16.886  0.5572  2.0666 -3.1192
 5673SOL     OW28654   1.380   2.617   7.310  0.0381 -0.0074  0.0769
 5673SOL    HW128655   1.442   2.633   7.382 -0.3811 -2.0260  0.8835
 5673SOL    HW228656   1.323   2.693   7.318  0.4126  0.2424  0.3989
 5674SOL     OW28657   1.106   3.148   7.383  0.3250  0.5075 -0.1931
 5674SOL    HW128658   1.135   3.234   7.353 -1.3719  0.7547 -1.1452
 5674SOL    HW228659   1.183   3.112   7.427  0.1642  1.1299  0.6129
 5675SOL     OW28660   1.855   1.271  16.150  0.0774 -0.2348 -0.3611
 5675SOL    HW128661   1.837   1.189  16.104 -0.7798 -1.5656  2.3101
 5675SOL    HW228662   1.940   1.288  16.111  0.4228  0.8064  0.8171
 5676SOL     OW28663   2.691   3.885   1.688  0.5772  0.4563  0.0566
 5676SOL    HW128664   2.612   3.912   1.735  0.4708 -1.9822  1.2759
 5676SOL    HW228665   2.701   3.795   1.719 -0.9510  0.4707  0.5749
 5677SOL     OW28666   0.341   0.942  10.277 -0.1811 -0.7153 -0.4411
 5677SOL    HW128667   0.427   0.906  10.256  0.1614 -1.4140  2.2646
 5677SOL    HW228668   0.363   1.021  10.326 -1.5007  0.1161 -1.1819
 5678SOL     OW28669   0.425   4.225  11.783 -0.4123 -0.1624  0.1535
 5678SOL    HW128670   0.486   4.173  11.730  0.3397 -0.2002  1.0583
 5678SOL    HW228671   0.403   4.293  11.719  2.3116  0.0076 -0.5935
 5679SOL     OW28672   0.831   1.701  12.609  0.1319 -0.0380 -0.2469
 5679SOL    HW128673   0.842   1.786  12.565 -1.2553  1.0793  1.5732
 5679SOL    HW228674   0.918   1.661  12.602 -0.5197 -1.4740 -0.0872
 5680SOL     OW28675   3.604   0.004   1.448  0.2214  0.2975  0.3202
 5680SOL    HW128676   3.580   4.674   1.382  1.6111  1.1040 -0.9668
 5680SOL    HW228677   3.549   4.707   1.520 -0.1233 -1.1746 -0.5808
 5681SOL     OW28678   3.855   4.224   8.521  0.4231 -0.5230  0.5149
 5681SOL    HW128679   3.904   4.259   8.595 -0.8623  1.9333  0.1684
 5681SOL    HW228680   3.928   4.210   8.460  1.2654  0.8664  1.2248
 5682SOL     OW28681   2.577   2.707   8.735 -0.0704 -0.3049 -0.4896
 5682SOL    HW128682   2.623   2.689   8.817  0.7293 -2.2720 -1.3620
 5682SOL    HW228683   2.563   2.623   8.691 -1.7423  0.3358 -1.1733
 5683SOL     OW28684   0.558   0.021   4.471 -0.2285 -0.4381  0.2663
 5683SOL    HW128685   0.609   0.092   4.510  2.2170 -1.6784 -0.6764
 5683SOL    HW228686   0.473   0.061   4.489 -0.0122  0.5883 -0.9855
 5684SOL     OW28687   3.461   1.604   7.638 -0.0313 -0.1206 -0.3760
 5684SOL    HW128688   3.527   1.662   7.600 -1.8765  2.2657  0.0580
 5684SOL    HW228689   3.378   1.647   7.659 -0.7373 -1.6736  0.0664
 5685SOL     OW28690   1.332   4.374   3.455  0.0115 -0.5640  0.0236
 5685SOL    HW128691   1.379   4.342   3.379  0.6528 -1.6695  0.8877
 5685SOL    HW228692   1.247   4.404   3.423 -0.7040 -2.4616  0.1629
 5686SOL     OW28693   1.107   0.708  17.142 -0.2317 -0.2319 -0.1443
 5686SOL    HW128694   1.174   0.714  17.074 -0.2463  0.7100 -0.0866
 5686SOL    HW228695   1.138   0.623  17.172  2.2347  0.2232 -1.4583
 5687SOL     OW28696   0.404   0.757   7.972 -0.0591 -0.4025 -0.1326
 5687SOL    HW128697   0.374   0.687   7.915 -2.1378 -0.7438  1.3777
 5687SOL    HW228698   0.399   0.716   8.058  0.7462 -1.3801 -0.5543
 5688SOL     OW28699   4.263   0.345  17.388 -0.3244 -0.0901  0.0402
 5688SOL    HW128700   4.185   0.334  17.443  0.0104  1.2772  0.7864
 5688SOL    HW228701   4.286   0.254  17.368 -0.3500 -0.4572  1.6483
 5689SOL     OW28702   4.729   1.525   4.770 -0.4755  0.4085  0.4028
 5689SOL    HW128703   0.033   1.577   4.700  0.7127  1.8138  2.0957
 5689SOL    HW228704   4.638   1.510   4.746 -0.5346  0.1668  0.7624
 5690SOL     OW28705   3.168   1.224   7.994  0.3418 -0.0631  0.1322
 5690SOL    HW128706   3.140   1.136   7.972  0.8476 -0.3169  0.5147
 5690SOL    HW228707   3.108   1.246   8.066 -0.0935 -1.0853  0.0681
 5691SOL     OW28708   3.129   2.382   6.873  0.0690  0.0758  0.1325
 5691SOL    HW128709   3.190   2.382   6.800  0.1437 -0.4641  0.1972
 5691SOL    HW228710   3.047   2.400   6.826 -0.7563 -0.3730  1.3981
 5692SOL     OW28711   2.630   0.096   9.888 -0.2789 -0.1029  0.1944
 5692SOL    HW128712   2.650   0.089   9.981  2.2908 -0.1131 -0.3507
 5692SOL    HW228713   2.535   0.085   9.887 -0.1459 -1.1980 -0.6781
 5693SOL     OW28714   1.020   3.100   7.003 -0.5872 -0.1098 -0.4660
 5693SOL    HW128715   0.984   3.028   6.951 -1.9110  0.3405 -0.1793
 5693SOL    HW228716   1.096   3.104   6.945 -0.8813  1.7989 -0.7423
 5694SOL     OW28717   3.610   2.311   1.930  0.2127 -0.3743 -0.7971
 5694SOL    HW128718   3.597   2.217   1.913  2.6117 -0.6111 -1.3217
 5694SOL    HW228719   3.546   2.348   1.869 -0.5857 -0.2453  0.1177
 5695SOL     OW28720   2.806   0.222   1.831  0.2265 -0.4178  0.0946
 5695SOL    HW128721   2.772   0.308   1.810  0.0396  0.1220  2.6358
 5695SOL    HW228722   2.764   0.174   1.760 -3.2353  0.3730  1.6268
 5696SOL     OW28723   4.323   2.008  17.477 -0.1968 -0.1067 -0.4193
 5696SOL    HW128724   4.408   2.040  17.506  1.3251 -2.9535 -1.7648
 5696SOL    HW228725   4.332   1.914  17.490  0.9430  0.1106  0.3499
 5697SOL     OW28726   2.492   4.269  17.712 -0.3768  0.2283 -0.0497
 5697SOL    HW128727   2.504   4.346  17.656 -2.2286  0.2265 -0.4667
 5697SOL    HW228728   2.464   4.307   0.059 -0.7055  2.1940 -1.0584
 5698SOL     OW28729   4.567   0.356  11.225  0.4377 -0.4131  0.1783
 5698SOL    HW128730   4.481   0.362  11.268  0.1944 -2.1833 -0.0691
 5698SOL    HW228731   4.540   0.329  11.137 -0.1637 -1.5026  0.6893
 5699SOL     OW28732   2.338   3.950   4.095 -0.9497 -0.2855  0.0570
 5699SOL    HW128733   2.304   3.968   4.008 -1.7445  0.6851  0.5649
 5699SOL    HW228734   2.421   3.999   4.095 -0.5011 -1.0479  0.9190
 5700SOL     OW28735   4.405   2.531  13.683  0.0162 -0.7230  0.0830
 5700SOL    HW128736   4.374   2.465  13.746 -0.6968 -0.3514  0.1163
 5700SOL    HW228737   4.479   2.572  13.728  0.1871  0.8599 -1.6467
 5701SOL     OW28738   1.415   0.535  16.217  0.2269 -0.4181  0.5313
 5701SOL    HW128739   1.370   0.611  16.178 -2.6163 -0.7168  3.1839
 5701SOL    HW228740   1.369   0.535  16.301  3.1364  0.4864  2.1251
 5702SOL     OW28741   4.351   4.135  10.081 -0.2701  0.0845  0.6046
 5702SOL    HW128742   4.370   4.041  10.079  0.7455  0.2863  0.8513
 5702SOL    HW228743   4.439   4.172  10.077  0.5377 -1.7545  1.2467
 5703SOL     OW28744   0.830   4.054   8.723 -0.3677 -0.7121  0.0440
 5703SOL    HW128745   0.817   4.088   8.812 -0.1356  0.2151 -0.2668
 5703SOL    HW228746   0.773   4.116   8.677 -1.2364 -0.7223  1.1165
 5704SOL     OW28747   2.798   3.939   2.109  0.2939 -0.3151 -0.1455
 5704SOL    HW128748   2.720   3.901   2.149  1.3788 -0.2546  2.0137
 5704SOL    HW228749   2.784   4.021   2.156 -1.1227  0.4833 -1.9330
 5705SOL     OW28750   3.574   2.662  11.078 -0.5898 -0.2861 -0.0051
 5705SOL    HW128751   3.641   2.638  11.141 -0.1040  1.5535  0.2000
 5705SOL    HW228752   3.583   2.589  11.017 -1.1253  0.3890 -0.9056
 5706SOL     OW28753   0.707   4.588   9.392 -0.0095  0.2265  0.0772
 5706SOL    HW128754   0.727   4.595   9.486  2.7372  1.5826 -0.6226
 5706SOL    HW228755   0.612   4.575   9.391  0.0153  0.0859 -0.2944
 5707SOL     OW28756   4.619   2.806   0.163  0.2554 -0.2520 -0.7095
 5707SOL    HW128757   4.702   2.839   0.199 -0.2349  0.4693 -0.2171
 5707SOL    HW228758   4.569   2.880   0.199  1.3635 -0.0574  0.4347
 5708SOL     OW28759   0.971   2.715   3.695  0.0860  0.2767 -0.0310
 5708SOL    HW128760   0.984   2.661   3.773  0.2529  0.3777  0.0102
 5708SOL    HW228761   1.023   2.674   3.626 -1.0770  0.7225 -1.1849
 5709SOL     OW28762   4.552   3.883   1.763  0.0088 -0.2161  0.1608
 5709SOL    HW128763   4.510   3.958   1.721 -0.6972 -0.1344  1.0101
 5709SOL    HW228764   4.506   3.876   1.847 -0.7134 -0.9000 -0.2941
 5710SOL     OW28765   3.495   1.486   4.461  0.5683  0.1096 -1.0282
 5710SOL    HW128766   3.496   1.393   4.438  0.8793 -0.1593  0.1014
 5710SOL    HW228767   3.548   1.482   4.540  0.2677  0.4155 -0.8151
 5711SOL     OW28768   1.299   1.915   0.766 -0.1797 -0.5050  0.1894
 5711SOL    HW128769   1.207   1.938   0.759 -0.5750 -1.8653  0.9621
 5711SOL    HW228770   1.298   1.831   0.719 -0.5927 -0.5784  0.3327
 5712SOL     OW28771   0.578   1.787   2.101  0.4507  0.0508  0.0179
 5712SOL    HW128772   0.520   1.766   2.028 -1.4941 -0.3305  1.6659
 5712SOL    HW228773   0.520   1.805   2.175 -0.0079  2.7308 -0.9951
 5713SOL     OW28774   1.680   3.037   6.359 -0.4375 -0.2558 -0.1180
 5713SOL    HW128775   1.720   3.083   6.432 -0.5990 -2.3887  1.3136
 5713SOL    HW228776   1.731   2.957   6.350 -2.7327 -1.8289  0.6630
 5714SOL     OW28777   4.318   2.643   4.364 -0.0668  0.6211 -0.5206
 5714SOL    HW128778   4.349   2.707   4.428 -0.7989  0.6696 -0.2118
 5714SOL    HW228779   4.223   2.654   4.373 -0.1292 -0.4326  0.1383
 5715SOL     OW28780   0.348   3.059   8.349  0.1927  0.0301  0.6896
 5715SOL    HW128781   0.278   3.081   8.410 -0.6390 -0.0896 -0.2348
 5715SOL    HW228782   0.426   3.095   8.391 -1.1064  1.8710  1.5498
 5716SOL     OW28783   1.943   2.689   8.064  0.2165  0.4737 -0.0221
 5716SOL    HW128784   1.931   2.679   8.158 -0.0059 -1.1616 -0.2207
 5716SOL    HW228785   1.910   2.603   8.037 -1.1365  0.6923  0.9538
 5717SOL     OW28786   0.703   3.776  12.020 -0.6807  0.2016  0.0875
 5717SOL    HW128787   0.622   3.828  12.024 -0.0326  1.1181  1.2287
 5717SOL    HW228788   0.686   3.703  11.960  0.4849  0.1640 -0.1919
 5718SOL     OW28789   1.274   0.308  17.554  0.7925  0.1814 -0.4367
 5718SOL    HW128790   1.220   0.277  17.482 -0.3807 -1.0914  0.9880
 5718SOL    HW228791   1.271   0.228  17.607 -0.5281  0.9955  0.7418
 5719SOL     OW28792   3.247   1.238   5.449 -0.1729  0.8834  0.2908
 5719SOL    HW128793   3.215   1.231   5.359  1.5891 -0.3049 -0.2520
 5719SOL    HW228794   3.276   1.329   5.448  2.9201 -0.1037 -2.2847
 5720SOL     OW28795   2.950   4.411  13.063  0.6047  0.5432 -0.0794
 5720SOL    HW128796   2.980   4.328  13.101 -2.0558  0.0441  0.9132
 5720SOL    HW228797   2.856   4.398  13.074  0.2512  0.6924 -2.8861
 5721SOL     OW28798   4.409   0.825   9.623  0.0865  0.2656  0.7078
 5721SOL    HW128799   4.439   0.913   9.649  2.3202 -0.2591 -0.0844
 5721SOL    HW228800   4.338   0.844   9.563  0.1484 -0.9111  0.2635
 5722SOL     OW28801   2.506   0.811  14.061  0.2676 -0.7006  0.8632
 5722SOL    HW128802   2.509   0.895  14.105 -2.3619  0.3567 -0.9295
 5722SOL    HW228803   2.598   0.792  14.046  0.3832  1.2533 -0.9798
 5723SOL     OW28804   3.828   3.957  13.924  0.5106  0.3812  0.0565
 5723SOL    HW128805   3.780   4.021  13.871 -0.3828 -1.1120 -0.9083
 5723SOL    HW228806   3.838   4.004  14.007  0.0026  0.5824  0.0054
 5724SOL     OW28807   3.777   3.043  11.971  0.2156 -0.4573 -0.1444
 5724SOL    HW128808   3.719   3.038  11.896 -0.2913 -1.4377  0.3080
 5724SOL    HW228809   3.744   2.969  12.023  0.2290  0.4747  1.1854
 5725SOL     OW28810   2.581   4.022   8.657 -0.6955 -0.0145  0.0944
 5725SOL    HW128811   2.628   4.054   8.580  1.3093  0.7079  1.6017
 5725SOL    HW228812   2.501   4.074   8.656 -1.7300 -1.5974  0.5787
 5726SOL     OW28813   0.434   2.189   0.279  0.1441  0.8029  0.1958
 5726SOL    HW128814   0.362   2.167   0.338 -0.0676 -1.1017 -0.7647
 5726SOL    HW228815   0.479   2.105   0.289  0.1743  0.4330 -3.0493
 5727SOL     OW28816   1.978   4.524   9.125  0.2063 -0.3107  0.2317
 5727SOL    HW128817   2.001   4.611   9.157  0.0858 -1.4054  3.2730
 5727SOL    HW228818   2.064   4.484   9.140  0.6532  0.6314  0.1791
 5728SOL     OW28819   2.165   3.607   6.314 -0.1302  0.3841 -0.0806
 5728SOL    HW128820   2.141   3.583   6.225  3.2001 -1.7664 -0.4126
 5728SOL    HW228821   2.176   3.521   6.355  1.6885 -0.0293 -1.4481
 5729SOL     OW28822   1.012   4.558   3.712 -0.2854  0.4587  0.1536
 5729SOL    HW128823   0.983   4.466   3.709 -0.0523  0.3996 -0.3000
 5729SOL    HW228824   0.924   4.593   3.697  0.2482  0.5251 -2.7951
 5730SOL     OW28825   0.909   1.885  17.052  0.0957  0.5094  0.4787
 5730SOL    HW128826   1.001   1.858  17.052  0.5494  2.0411  0.1373
 5730SOL    HW228827   0.878   1.826  17.120  0.8261 -2.8217 -2.1104
 5731SOL     OW28828   3.304   4.008  13.116 -0.0969  1.0296 -0.0149
 5731SOL    HW128829   3.251   4.006  13.196  1.2656  0.4228  0.8814
 5731SOL    HW228830   3.283   4.096  13.085 -1.6076  0.4781 -0.5413
 5732SOL     OW28831   0.530   4.078   0.418 -0.2034 -0.0694  0.0790
 5732SOL    HW128832   0.482   4.156   0.387  0.8834  0.1578 -1.0423
 5732SOL    HW228833   0.542   4.111   0.507 -0.8012  1.0241 -0.2437
 5733SOL     OW28834   2.884   1.566   4.074  0.8556  0.3531  0.3150
 5733SOL    HW128835   2.940   1.627   4.027  0.4455  1.1211  0.8207
 5733SOL    HW228836   2.930   1.487   4.046  1.3284  0.0713  1.8557
 5734SOL     OW28837   3.041   4.461  16.708  0.9013  0.3003 -0.5109
 5734SOL    HW128838   3.054   4.492  16.618 -4.7643  2.9284 -0.4223
 5734SOL    HW228839   3.089   4.519  16.767  0.6664 -1.1565  1.1192
 5735SOL     OW28840   4.611   2.214   4.006  0.3580 -0.5646  0.0680
 5735SOL    HW128841   4.645   2.125   4.001 -0.0117 -0.8034  2.0349
 5735SOL    HW228842   4.566   2.209   4.090 -0.0208 -0.0308 -0.1069
 5736SOL     OW28843   0.209   4.005   7.457 -0.0766 -0.4577  0.0413
 5736SOL    HW128844   0.258   3.992   7.538  0.3550 -0.3726 -0.2036
 5736SOL    HW228845   0.140   4.065   7.486  0.4098  0.2816 -0.3319
 5737SOL     OW28846   0.090   3.124   7.036 -0.5034 -0.2936  0.3689
 5737SOL    HW128847   0.079   3.167   7.121  0.6879  1.3749 -0.3012
 5737SOL    HW228848   0.031   3.049   7.043 -3.0783  1.7409  0.6663
 5738SOL     OW28849   1.259   0.735  14.505  0.3673  0.1799 -0.8131
 5738SOL    HW128850   1.227   0.825  14.499 -1.2024 -0.3521 -0.3022
 5738SOL    HW228851   1.219   0.720  14.591  0.8722  0.1808 -0.5814
 5739SOL     OW28852   1.745   2.020   5.451 -0.4238 -0.2978 -0.1522
 5739SOL    HW128853   1.670   2.058   5.497 -0.0332 -0.9295  0.9878
 5739SOL    HW228854   1.810   2.089   5.447  0.3906 -0.9889  1.2414
 5740SOL     OW28855   1.046   1.400   0.272  0.0036  0.1413 -0.7075
 5740SOL    HW128856   1.126   1.363   0.308 -1.2902  1.1679  3.2205
 5740SOL    HW228857   0.989   1.326   0.293  1.1504 -0.8679 -1.0993
 5741SOL     OW28858   2.571   3.320  14.492  0.5150 -0.1281  0.4034
 5741SOL    HW128859   2.600   3.309  14.401 -1.3340  0.0619 -0.2139
 5741SOL    HW228860   2.477   3.306  14.479  0.4947  0.2794  0.0896
 5742SOL     OW28861   0.198   0.562   9.404  0.3308 -0.2763 -0.2217
 5742SOL    HW128862   0.162   0.616   9.334 -2.3335 -1.7934 -0.0112
 5742SOL    HW228863   0.172   0.613   9.480 -1.5892 -2.1112  0.3659
 5743SOL     OW28864   3.597   4.220   8.435  0.0251  0.0466 -0.2208
 5743SOL    HW128865   3.596   4.205   8.340  2.7026  1.1779 -0.4059
 5743SOL    HW228866   3.689   4.228   8.458  0.0338 -1.8027  0.3602
 5744SOL     OW28867   1.855   1.152  12.152 -0.3069  0.2700 -0.1694
 5744SOL    HW128868   1.829   1.075  12.102 -0.2863  0.7958 -0.9936
 5744SOL    HW228869   1.874   1.218  12.085 -1.2886 -1.1208 -1.7881
 5745SOL     OW28870   3.951   3.888   8.426  0.4809  0.0326  0.2993
 5745SOL    HW128871   4.032   3.938   8.415  0.0867  0.6990  0.4332
 5745SOL    HW228872   3.981   3.803   8.394 -0.7137  0.6255 -2.4298
 5746SOL     OW28873   0.017   0.277   6.129  0.3521  0.5537  0.0285
 5746SOL    HW128874   0.069   0.200   6.152 -0.9399 -0.5095 -0.6469
 5746SOL    HW228875   0.065   0.342   6.181  1.3096  0.5196 -0.8013
 5747SOL     OW28876   2.305   4.468   6.548 -0.7255 -0.3089  0.2073
 5747SOL    HW128877   2.316   4.488   6.641 -0.4209  0.3132  0.0428
 5747SOL    HW228878   2.370   4.532   6.518 -1.7733 -0.9087 -3.3874
 5748SOL     OW28879   3.708   3.985   7.158 -0.4272  0.2987 -0.6159
 5748SOL    HW128880   3.654   3.986   7.238 -0.4748  0.7345 -0.6550
 5748SOL    HW228881   3.792   3.954   7.190 -0.4900  0.8699  0.1177
 5749SOL     OW28882   4.251   1.596   3.424  1.2257  0.3852  0.4880
 5749SOL    HW128883   4.259   1.670   3.485 -1.5439  2.0510 -1.1491
 5749SOL    HW228884   4.343   1.572   3.425  0.3249 -3.0662 -0.7824
 5750SOL     OW28885   1.057   4.391   1.860 -0.0350 -0.2030  0.3672
 5750SOL    HW128886   1.002   4.322   1.897 -1.0697 -0.0599 -0.9018
 5750SOL    HW228887   1.101   4.345   1.788 -0.2692  1.3105 -0.7506
 5751SOL     OW28888   2.628   3.624   8.095 -0.2059  0.1567 -0.0705
 5751SOL    HW128889   2.666   3.593   8.177 -3.0528 -1.9659  0.4479
 5751SOL    HW228890   2.640   3.555   8.029  0.7811 -1.2247  1.5653
 5752SOL     OW28891   0.975   3.778  15.300  0.0794  0.1012  0.0704
 5752SOL    HW128892   0.959   3.871  15.280  0.1241  0.0190 -0.3496
 5752SOL    HW228893   1.019   3.788  15.384  0.8489 -0.0342 -0.3126
 5753SOL     OW28894   1.966   0.975   6.999  0.3611 -0.2376  0.3329
 5753SOL    HW128895   1.900   1.024   6.949 -0.5099  0.5278  2.2477
 5753SOL    HW228896   1.971   1.015   7.085  2.9737 -1.4828  0.7490
 5754SOL     OW28897   1.869   2.691  11.527 -0.1764 -0.3559 -0.2719
 5754SOL    HW128898   1.916   2.754  11.471 -0.8204  1.1574  0.9073
 5754SOL    HW228899   1.919   2.611  11.509  0.4548  0.1276 -0.6740
 5755SOL     OW28900   0.023   0.371   4.561 -0.3031 -0.4474  0.2575
 5755SOL    HW128901   4.726   0.281   4.551 -1.8134  0.2077 -1.0156
 5755SOL    HW228902   0.016   0.408   4.473 -0.3008 -0.0942  0.4064
 5756SOL     OW28903   0.135   0.496   0.596 -0.5622 -0.0448  0.2688
 5756SOL    HW128904   0.086   0.415   0.611 -0.1346 -0.4814 -0.7104
 5756SOL    HW228905   0.206   0.462   0.541  1.4805  2.3565  1.4016
 5757SOL     OW28906   2.481   0.332   1.789 -0.2967  0.6610  0.4755
 5757SOL    HW128907   2.398   0.285   1.802 -0.1081  0.7888  2.2009
 5757SOL    HW228908   2.509   0.306   1.702  0.7588 -0.0649  1.0327
 5758SOL     OW28909   1.399   1.344   7.035  0.2056 -0.3543  0.0389
 5758SOL    HW128910   1.361   1.279   7.094  1.4487 -0.8781  0.2462
 5758SOL    HW228911   1.331   1.344   6.968  0.6789 -0.1269 -0.4362
 5759SOL     OW28912   2.749   0.138   4.019  0.8180  0.5126 -0.4805
 5759SOL    HW128913   2.821   0.169   4.074  1.5980  1.8579 -2.2454
 5759SOL    HW228914   2.689   0.212   4.007  1.6856  0.6916 -3.7663
 5760SOL     OW28915   0.284   4.336  10.631  0.0333 -0.5307 -0.4106
 5760SOL    HW128916   0.294   4.295  10.717  0.2557  0.3903  0.0133
 5760SOL    HW228917   0.188   4.334  10.626 -0.0408  0.7174  0.2193
 5761SOL     OW28918   4.696   0.753   4.002  0.4064 -0.4301 -0.2884
 5761SOL    HW128919   0.047   0.790   4.026 -0.2628  0.4055  0.7351
 5761SOL    HW228920   4.696   0.689   4.073  1.3067 -0.4590 -0.3089
 5762SOL     OW28921   2.796   1.703   8.180 -0.0160 -0.0109  0.3608
 5762SOL    HW128922   2.740   1.658   8.118  0.7532 -1.3938  0.6579
 5762SOL    HW228923   2.862   1.634   8.194  0.2384  0.5038  1.7272
 5763SOL     OW28924   2.237   3.856   9.965  0.3780  0.6817  0.1551
 5763SOL    HW128925   2.160   3.862   9.908  1.9869 -2.5317 -2.3819
 5763SOL    HW228926   2.226   3.771  10.008  1.8887 -0.1202 -1.0398
 5764SOL     OW28927   3.814   2.277  10.910  0.1593  0.5558 -0.1654
 5764SOL    HW128928   3.813   2.237  10.997 -2.0562 -0.5413 -0.6926
 5764SOL    HW228929   3.909   2.275  10.896  0.6190 -0.1886  3.2383
 5765SOL     OW28930   1.881   2.508  14.517 -0.3425  0.5394  0.3117
 5765SOL    HW128931   1.887   2.595  14.478 -0.0655  0.2600 -0.2712
 5765SOL    HW228932   1.890   2.451  14.441  0.1921  1.1650 -0.0979
 5766SOL     OW28933   0.846   3.722   9.352 -0.5777 -0.1522  0.0214
 5766SOL    HW128934   0.927   3.683   9.385 -0.1114  2.2702  1.7768
 5766SOL    HW228935   0.787   3.729   9.428 -0.3533  0.0798  0.1774
 5767SOL     OW28936   1.548   0.063   2.262  0.1478 -0.1563  0.1971
 5767SOL    HW128937   1.638   0.038   2.240  0.0693 -0.1367 -0.1488
 5767SOL    HW228938   1.505   0.021   2.186 -0.3685  1.5084 -0.4241
 5768SOL     OW28939   0.612   2.412   2.620 -0.1448 -0.3334  0.3633
 5768SOL    HW128940   0.537   2.472   2.613 -1.3193 -1.6976  1.0440
 5768SOL    HW228941   0.673   2.465   2.570 -0.2575  0.3393  0.9387
 5769SOL     OW28942   3.416   0.118   2.417 -0.4075  0.4196 -0.3229
 5769SOL    HW128943   3.358   0.193   2.406 -1.0284 -0.2565 -1.5573
 5769SOL    HW228944   3.359   0.049   2.384  0.9081 -1.1490  0.6610
 5770SOL     OW28945   0.182   2.883   2.094  0.1467 -0.4811 -0.1183
 5770SOL    HW128946   0.229   2.961   2.065 -1.5953  0.5144 -0.2883
 5770SOL    HW228947   0.258   2.863   2.148  0.1177  1.0303  0.4748
 5771SOL     OW28948   0.065   4.450   3.563 -0.0230  0.3308 -0.0042
 5771SOL    HW128949   0.077   4.522   3.624 -1.3351 -2.2369  3.3391
 5771SOL    HW228950   0.079   4.373   3.618 -0.7295  1.3360  1.5932
 5772SOL     OW28951   1.403   0.949  15.886  0.0868 -0.3148 -0.2772
 5772SOL    HW128952   1.348   0.983  15.816 -0.7275  0.4756  0.7419
 5772SOL    HW228953   1.486   0.934  15.840  0.5413  1.0687  0.0934
 5773SOL     OW28954   2.289   1.225   1.555 -0.1498 -0.2576  0.2352
 5773SOL    HW128955   2.195   1.242   1.550 -0.5141 -1.2871  3.5912
 5773SOL    HW228956   2.324   1.314   1.557 -0.9730 -0.0071  3.1585
 5774SOL     OW28957   1.385   2.045  12.456  0.0631  0.1510  0.2335
 5774SOL    HW128958   1.439   2.123  12.444 -0.7068  0.7382  0.6441
 5774SOL    HW228959   1.445   1.977  12.424  0.0277 -1.2521  3.1922
 5775SOL     OW28960   3.826   2.104   1.058  0.3865 -0.3929  0.0869
 5775SOL    HW128961   3.789   2.116   0.970 -2.7724  0.7603  1.5913
 5775SOL    HW228962   3.815   2.010   1.072 -1.1182 -0.1263  0.6256
 5776SOL     OW28963   2.582   4.496   5.621 -0.1272 -0.7761 -0.1345
 5776SOL    HW128964   2.533   4.438   5.679 -0.9524  0.8846  0.8408
 5776SOL    HW228965   2.641   4.536   5.685  0.3364 -0.8941 -0.4965
 5777SOL     OW28966   0.490   3.927   1.731 -0.0080 -0.7985  0.1152
 5777SOL    HW128967   0.455   4.005   1.774  0.4451 -0.2753 -0.4611
 5777SOL    HW228968   0.487   3.882   1.815 -0.6325  2.5869  1.9270
 5778SOL     OW28969   4.356   0.486  17.603 -0.0976  0.4590 -0.5776
 5778SOL    HW128970   4.437   0.535  17.594  0.7500 -0.8614 -0.0625
 5778SOL    HW228971   4.332   0.452  17.517  0.4814 -0.2432 -0.4560
 5779SOL     OW28972   1.192   1.394   2.278  0.0048 -0.1650  0.0979
 5779SOL    HW128973   1.285   1.390   2.254 -0.3004  1.3597 -1.3299
 5779SOL    HW228974   1.183   1.455   2.351 -0.7709  0.4351 -0.5026
 5780SOL     OW28975   2.846   0.697   8.716 -0.4333 -0.2950  0.2524
 5780SOL    HW128976   2.781   0.767   8.712  0.4737  0.5836  0.7572
 5780SOL    HW228977   2.839   0.683   8.811 -0.7774 -1.0029  0.1228
 5781SOL     OW28978   2.652   0.054   7.265  0.0027 -0.2186  0.1909
 5781SOL    HW128979   2.569   0.045   7.220  0.9102 -1.1757 -1.2745
 5781SOL    HW228980   2.683   4.700   7.248 -1.0034 -0.5068 -0.1285
 5782SOL     OW28981   4.103   0.967   5.502  0.5523 -0.3376 -0.1671
 5782SOL    HW128982   4.122   0.902   5.570  2.9452  1.3948  0.8373
 5782SOL    HW228983   4.170   0.935   5.442 -0.1299  0.9214 -1.6028
 5783SOL     OW28984   2.031   0.900   6.290 -0.1715 -0.3248 -0.3727
 5783SOL    HW128985   1.965   0.831   6.288 -0.1610 -0.3607  0.8434
 5783SOL    HW228986   2.004   0.959   6.360 -0.0883  1.0320 -1.4747
 5784SOL     OW28987   0.998   4.113   3.960 -0.2468  0.1343  0.7441
 5784SOL    HW128988   1.021   4.042   4.019 -1.7535 -0.3672  0.7463
 5784SOL    HW228989   0.945   4.172   4.014 -0.2871  2.0753 -1.3894
 5785SOL     OW28990   2.385   3.943   4.446  0.0354  0.0449 -0.6899
 5785SOL    HW128991   2.290   3.932   4.443 -0.0540  1.1697 -2.4916
 5785SOL    HW228992   2.382   4.037   4.465 -0.9334  0.1845 -1.4947
 5786SOL     OW28993   1.928   3.640   6.724 -0.1100 -0.1730 -0.0670
 5786SOL    HW128994   1.854   3.601   6.679 -1.1179  2.0009 -0.2779
 5786SOL    HW228995   1.982   3.682   6.658 -0.3159 -1.0657 -0.7979
 5787SOL     OW28996   2.620   0.703  13.165 -0.2708  0.2295 -0.1419
 5787SOL    HW128997   2.536   0.660  13.182  0.7457 -0.2806  3.5914
 5787SOL    HW228998   2.587   0.792  13.183 -1.6476 -0.1228 -0.9474
 5788SOL     OW28999   4.015   3.076   7.887  0.5403 -0.1088  0.4237
 5788SOL    HW129000   4.087   3.018   7.909 -0.4975 -1.5099  0.1262
 5788SOL    HW229001   3.938   3.035   7.926 -0.8591  0.7431 -1.4603
 5789SOL     OW29002   2.877   4.201   5.783 -0.1549  0.1284 -0.3746
 5789SOL    HW129003   2.888   4.259   5.859 -1.9110 -2.3316  1.7399
 5789SOL    HW229004   2.891   4.268   5.716 -1.4438 -1.3207 -2.0971
 5790SOL     OW29005   4.611   1.008   5.610 -0.0793  0.3134  0.3811
 5790SOL    HW129006   4.631   1.051   5.527  1.1974 -0.4616  0.2874
 5790SOL    HW229007   4.697   0.999   5.652  0.5331  0.0746 -0.8947
 5791SOL     OW29008   0.103   3.633   5.196  0.1508  0.0175  0.1675
 5791SOL    HW129009   0.065   3.547   5.175  0.6333 -0.4345  1.1041
 5791SOL    HW229010   0.185   3.591   5.225  0.3736 -0.3642 -1.0271
 5792SOL     OW29011   1.845   0.939  11.927 -0.2212  0.2504 -0.2390
 5792SOL    HW129012   1.770   0.990  11.896  0.0603 -0.0866 -1.4525
 5792SOL    HW229013   1.805   0.862  11.968  2.5315 -0.5626  0.9654
 5793SOL     OW29014   3.702   3.422   8.662  0.7376 -0.2000  0.0610
 5793SOL    HW129015   3.751   3.455   8.586  0.9706  1.4956  0.9414
 5793SOL    HW229016   3.694   3.502   8.714  2.2556  0.0385 -0.0632
 5794SOL     OW29017   3.146   4.406   8.178 -0.1138  0.2286  0.2324
 5794SOL    HW129018   3.228   4.452   8.163  0.2451 -1.0960 -1.8568
 5794SOL    HW229019   3.160   4.346   8.251 -2.6001 -0.4423  0.1522
 5795SOL     OW29020   1.655   4.550   1.280 -0.2467 -0.2859  0.1748
 5795SOL    HW129021   1.582   4.600   1.317  0.8191  0.1428  1.6349
 5795SOL    HW229022   1.663   4.585   1.191 -2.7067  1.3050  0.5636
 5796SOL     OW29023   0.090   3.217   3.370  0.5604 -0.2999 -0.1390
 5796SOL    HW129024   0.042   3.135   3.359 -1.4750  0.9111 -0.1667
 5796SOL    HW229025   0.054   3.248   3.453 -0.1292 -1.4566 -0.0111
 5797SOL     OW29026   2.067   0.424   5.393 -0.2908  0.0789  0.7902
 5797SOL    HW129027   2.118   0.343   5.402  2.1272  1.3587 -1.4749
 5797SOL    HW229028   2.002   0.409   5.324  1.2074  0.9550 -0.8000
 5798SOL     OW29029   4.160   3.124  14.650 -0.0214  0.2919 -0.1576
 5798SOL    HW129030   4.102   3.069  14.597 -0.7616 -0.0043  0.9656
 5798SOL    HW229031   4.099   3.184  14.692 -0.0332  0.0288  0.2033
 5799SOL     OW29032   2.871   4.332  17.036 -0.3106 -0.0862  0.2003
 5799SOL    HW129033   2.857   4.245  16.999  1.9880 -0.9428  1.3824
 5799SOL    HW229034   2.834   4.386  16.966 -0.8930  0.6598  1.0651
 5800SOL     OW29035   2.323   4.019   4.839 -0.6274 -0.6571 -0.2164
 5800SOL    HW129036   2.355   4.042   4.926 -1.3692 -0.8496  0.1023
 5800SOL    HW229037   2.312   4.108   4.804 -2.4518 -1.4085 -1.5379
 5801SOL     OW29038   4.421   4.677   2.542  0.5650 -0.0864 -0.4652
 5801SOL    HW129039   4.513   4.656   2.561  0.4788  0.1916  0.2841
 5801SOL    HW229040   4.401   4.632   2.460  2.7452  0.4369 -1.2834
 5802SOL     OW29041   1.243   0.432   4.748 -0.9383  0.0463  0.4791
 5802SOL    HW129042   1.186   0.496   4.706 -0.1395  0.0687 -0.5904
 5802SOL    HW229043   1.265   0.478   4.829 -0.4032  0.2280  0.2325
 5803SOL     OW29044   0.935   1.030   5.475 -0.5265 -0.2194 -0.5110
 5803SOL    HW129045   1.011   0.974   5.456  0.7324  1.3770 -0.1958
 5803SOL    HW229046   0.859   0.974   5.461 -0.6999  0.1072 -0.8687
 5804SOL     OW29047   1.120   2.300   7.755 -0.8010 -0.0927  0.0646
 5804SOL    HW129048   1.211   2.327   7.750 -1.1546  1.2219  0.6271
 5804SOL    HW229049   1.107   2.295   7.849  1.5304  5.5722  0.7158
 5805SOL     OW29050   1.201   2.901  16.361  0.4714 -0.2935  0.1222
 5805SOL    HW129051   1.115   2.941  16.366  0.2543 -0.6404 -0.7420
 5805SOL    HW229052   1.236   2.909  16.449  1.3609  1.3082 -0.3883
 5806SOL     OW29053   2.762   2.538   6.061 -0.5239  0.0501  0.0155
 5806SOL    HW129054   2.672   2.548   6.092 -0.6122  1.6151 -0.7465
 5806SOL    HW229055   2.754   2.464   6.001  1.1213 -0.3189  0.2568
 5807SOL     OW29056   1.009   0.215   9.076  0.3404  0.8484  0.2008
 5807SOL    HW129057   0.930   0.265   9.057 -0.1026  0.3664  0.8061
 5807SOL    HW229058   0.987   0.130   9.112  0.3519  0.6489 -0.2638
 5808SOL     OW29059   3.688   1.197   6.751  0.3116 -0.0544  0.0521
 5808SOL    HW129060   3.765   1.158   6.794  1.1855  1.7867  0.1370
 5808SOL    HW229061   3.689   1.286   6.786 -2.9328  1.0040 -2.5309
 5809SOL     OW29062   0.472   3.720   7.083  0.6661 -0.3357 -0.4337
 5809SOL    HW129063   0.472   3.638   7.133 -0.8258 -0.3380 -0.4321
 5809SOL    HW229064   0.556   3.757   7.111  0.2955  0.3361 -0.2035
 5810SOL     OW29065   4.695   1.120   4.042 -0.1709 -0.0911  0.3295
 5810SOL    HW129066   0.034   1.152   4.094  1.5623  3.4422 -4.3874
 5810SOL    HW229067   0.015   1.110   3.964  1.1350  1.0046  1.0969
 5811SOL     OW29068   0.441   0.095   5.987  0.0878  0.2640 -0.0974
 5811SOL    HW129069   0.355   0.066   6.017  0.3100 -1.0070 -0.7143
 5811SOL    HW229070   0.431   0.079   5.893  3.4678 -0.2099 -0.3944
 5812SOL     OW29071   4.358   0.918   2.117  0.8153 -0.4386 -0.5357
 5812SOL    HW129072   4.385   0.894   2.029 -2.5478  2.1966 -2.2269
 5812SOL    HW229073   4.280   0.965   2.092  0.8853  0.5975  1.2034
 5813SOL     OW29074   0.925   2.157   4.356 -0.5002 -0.5200 -0.0319
 5813SOL    HW129075   0.989   2.118   4.415 -1.5081 -1.7331  0.2590
 5813SOL    HW229076   0.846   2.110   4.381  0.6557 -3.4757 -1.9445
 5814SOL     OW29077   3.551   3.467   7.823 -0.3094 -0.2823 -0.0540
 5814SOL    HW129078   3.508   3.393   7.866 -0.0982 -1.1314 -1.3040
 5814SOL    HW229079   3.495   3.536   7.860  0.8536  0.7928 -0.3247
 5815SOL     OW29080   1.201   1.674  13.565  0.1744 -0.4891  0.2975
 5815SOL    HW129081   1.142   1.601  13.544  1.6885 -1.6014 -0.1403
 5815SOL    HW229082   1.227   1.703  13.477 -0.0248  1.0894  0.7700
 5816SOL     OW29083   0.959   2.248   5.074 -0.1013 -0.4081 -0.5190
 5816SOL    HW129084   0.981   2.234   4.981 -0.1534 -1.4001 -0.3795
 5816SOL    HW229085   0.921   2.336   5.070  0.4405 -0.1554 -0.0826
 5817SOL     OW29086   2.232   3.229   1.440  0.0012 -0.1213 -0.5551
 5817SOL    HW129087   2.276   3.189   1.515 -0.9134 -1.0013 -0.4824
 5817SOL    HW229088   2.297   3.298   1.429  1.8598 -1.8908 -0.6427
 5818SOL     OW29089   0.609   1.558  15.436 -0.1294  0.1648 -0.4012
 5818SOL    HW129090   0.682   1.608  15.399 -0.4688  1.9958  1.4348
 5818SOL    HW229091   0.536   1.619  15.438 -0.0690  0.1776  1.4610
 5819SOL     OW29092   4.423   3.118   5.079 -0.0894 -0.0761 -0.1386
 5819SOL    HW129093   4.471   3.108   5.161 -0.9207  1.9712  0.6016
 5819SOL    HW229094   4.377   3.034   5.079  0.2695 -0.2699 -1.1351
 5820SOL     OW29095   3.482   1.292   4.991  0.6658 -0.6109  0.5001
 5820SOL    HW129096   3.482   1.240   5.071 -1.2689  1.8230  2.1035
 5820SOL    HW229097   3.392   1.325   4.998  0.6116 -0.4876 -0.6550
 5821SOL     OW29098   3.613   1.653   1.887  0.6299 -0.5270  0.8906
 5821SOL    HW129099   3.527   1.633   1.922  0.4492 -1.3622 -0.0410
 5821SOL    HW229100   3.649   1.564   1.887 -0.6850 -1.0593  0.7725
 5822SOL     OW29101   1.111   2.226  12.152 -0.0637  0.1888  0.1079
 5822SOL    HW129102   1.078   2.309  12.185  0.1300 -0.9838  3.2750
 5822SOL    HW229103   1.195   2.256  12.119 -0.5178 -0.0289 -1.2463
 5823SOL     OW29104   3.229   2.584   4.964 -0.2004  0.2244 -0.3669
 5823SOL    HW129105   3.315   2.581   4.922 -0.4065  1.0007 -0.8531
 5823SOL    HW229106   3.251   2.659   5.020 -3.1093 -0.1862  1.3142
 5824SOL     OW29107   2.860   3.656   6.093  0.3279  0.0031  0.2190
 5824SOL    HW129108   2.882   3.700   6.011 -3.7625 -0.2562 -1.0385
 5824SOL    HW229109   2.918   3.714   6.143 -1.6269  1.0312  1.3348
 5825SOL     OW29110   2.471   2.222   4.026  0.3242  0.1551 -0.2735
 5825SOL    HW129111   2.428   2.257   4.104 -0.2089 -1.7173  0.2672
 5825SOL    HW229112   2.502   2.138   4.061  0.2807  0.7580  1.2281
 5826SOL     OW29113   1.290   4.678   7.742 -0.2098 -0.3386  0.1667
 5826SOL    HW129114   1.365   4.732   7.769  0.4640 -1.6863  1.0129
 5826SOL    HW229115   1.250   4.680   7.829 -3.1807 -0.6096 -1.2075
 5827SOL     OW29116   3.327   0.013   8.664  0.1123 -0.3539 -0.3810
 5827SOL    HW129117   3.358   0.101   8.640 -0.7369 -0.1564 -0.7765
 5827SOL    HW229118   3.305   0.021   8.756  0.7130  1.4846 -0.4037
 5828SOL     OW29119   3.204   3.187   6.300  0.2198 -0.1594  0.3832
 5828SOL    HW129120   3.187   3.115   6.360 -0.1060 -0.5790 -0.2121
 5828SOL    HW229121   3.145   3.150   6.235  1.6522  0.6755 -1.4068
 5829SOL     OW29122   4.596   1.162   2.829  0.1419  0.2162  0.1502
 5829SOL    HW129123   4.637   1.243   2.798 -0.7617 -0.2370 -2.1901
 5829SOL    HW229124   4.586   1.181   2.922  0.5261 -1.2899  0.4997
 5830SOL     OW29125   0.487   2.534   7.624  0.0973  0.1733 -0.1436
 5830SOL    HW129126   0.514   2.580   7.545  2.8956 -0.9969  0.1032
 5830SOL    HW229127   0.470   2.446   7.589 -0.8812  0.0681  0.5971
 5831SOL     OW29128   1.602   0.014  10.143 -0.6311  0.4297 -0.1691
 5831SOL    HW129129   1.687   4.733  10.101 -1.5208 -0.8198 -1.5148
 5831SOL    HW229130   1.547   4.684  10.098  2.3436 -2.4001  0.1716
 5832SOL     OW29131   0.828   2.822   8.447  0.1039 -0.1076 -0.4577
 5832SOL    HW129132   0.879   2.845   8.368 -0.1471 -1.0109 -0.8824
 5832SOL    HW229133   0.806   2.905   8.490  0.2012 -0.8661  1.0218
 5833SOL     OW29134   4.484   0.832  11.862 -0.2058  0.4356 -0.6158
 5833SOL    HW129135   4.413   0.861  11.919 -1.7988  0.7527 -2.7949
 5833SOL    HW229136   4.523   0.916  11.837 -1.8692  1.6926  0.9680
 5834SOL     OW29137   0.798   2.408  14.389  0.3203 -0.3395  0.3177
 5834SOL    HW129138   0.849   2.447  14.319  1.3940 -2.0077  0.1774
 5834SOL    HW229139   0.711   2.447  14.378  0.5822 -0.1215 -0.9887
 5835SOL     OW29140   4.205   2.999   7.679 -0.4815 -0.7026 -0.0209
 5835SOL    HW129141   4.169   2.919   7.715  0.2290 -0.2999  1.5964
 5835SOL    HW229142   4.160   2.991   7.595  0.8135  0.7560 -0.8689
 5836SOL     OW29143   1.450   3.712  11.094 -0.1239 -0.1081 -0.1935
 5836SOL    HW129144   1.354   3.715  11.095 -0.0462  2.6882 -2.3394
 5836SOL    HW229145   1.470   3.805  11.105  2.0414 -0.6914  0.7855
 5837SOL     OW29146   1.610   3.520   1.475 -0.1936  1.0285  0.2485
 5837SOL    HW129147   1.654   3.571   1.543 -1.9025 -0.3589  2.4425
 5837SOL    HW229148   1.639   3.560   1.394 -1.9930  1.2014 -0.3178
 5838SOL     OW29149   3.412   2.162   3.457 -0.2552  0.3747 -0.1589
 5838SOL    HW129150   3.383   2.094   3.518  2.5366  1.1761  2.0546
 5838SOL    HW229151   3.339   2.222   3.469 -0.5199 -0.3771  2.0206
 5839SOL     OW29152   1.639   0.606   6.586 -0.5709 -0.4502  0.2465
 5839SOL    HW129153   1.703   0.546   6.625 -0.6519 -1.1333 -0.6665
 5839SOL    HW229154   1.561   0.554   6.602 -0.5572 -1.5910 -3.4378
 5840SOL     OW29155   3.077   0.656   9.646 -0.0875 -0.0490  0.8588
 5840SOL    HW129156   2.993   0.614   9.629  0.1957 -0.3783  0.2571
 5840SOL    HW229157   3.116   0.594   9.708  0.5515 -0.5437 -0.0266
 5841SOL     OW29158   0.563   0.192   9.854  0.1113 -0.2408  0.3388
 5841SOL    HW129159   0.547   0.111   9.805  0.9885  1.1896 -2.2751
 5841SOL    HW229160   0.638   0.164   9.907  0.3825 -0.0505  0.0495
 5842SOL     OW29161   2.497   3.832  15.946  0.6596 -0.0522 -0.4095
 5842SOL    HW129162   2.455   3.916  15.928  1.8843  0.4934 -0.7711
 5842SOL    HW229163   2.432   3.784  15.997  0.8462 -0.0347 -0.1550
 5843SOL     OW29164   2.283   2.746   4.623 -0.0091 -0.2711  0.4220
 5843SOL    HW129165   2.193   2.776   4.626  1.0044  2.6309  1.4295
 5843SOL    HW229166   2.305   2.752   4.530  0.7881  0.6108  0.6659
 5844SOL     OW29167   1.574   2.616  16.249 -0.3062  0.4008 -0.4174
 5844SOL    HW129168   1.499   2.674  16.236  0.2959  0.7272 -2.3848
 5844SOL    HW229169   1.574   2.614  16.344  0.0381 -0.7008 -0.4364
 5845SOL     OW29170   2.241   4.364   5.483 -0.3908 -0.1981  0.4049
 5845SOL    HW129171   2.290   4.331   5.559 -1.2711 -0.6818  0.7595
 5845SOL    HW229172   2.282   4.305   5.419 -0.5044 -1.4906  1.5235
 5846SOL     OW29173   0.897   0.752   4.714 -0.6903  0.5131  0.0381
 5846SOL    HW129174   0.819   0.804   4.733 -1.6162 -1.2998  1.2967
 5846SOL    HW229175   0.955   0.805   4.768 -3.4560  1.5397  1.9782
 5847SOL     OW29176   2.326   4.510   4.954  0.4080  0.3538 -0.0047
 5847SOL    HW129177   2.397   4.534   5.013 -0.6556  0.2867  1.3020
 5847SOL    HW229178   2.249   4.514   5.011  1.2006  2.6335  0.8884
 5848SOL     OW29179   2.384   2.397  13.417  0.3881  0.1944 -0.0323
 5848SOL    HW129180   2.316   2.331  13.433  1.0298 -0.7074 -1.0009
 5848SOL    HW229181   2.460   2.357  13.458  0.8874  0.9172 -0.2552
 5849SOL     OW29182   0.712   1.439  15.671  0.0824  0.3057 -0.2037
 5849SOL    HW129183   0.696   1.499  15.598 -1.2010 -0.2748 -0.3855
 5849SOL    HW229184   0.624   1.426  15.704  0.0073  1.3312  0.0005
 5850SOL     OW29185   3.839   0.485   6.989 -0.0457 -0.2509  0.2621
 5850SOL    HW129186   3.743   0.480   6.992 -0.1205  1.9766  1.2726
 5850SOL    HW229187   3.865   0.420   7.055 -0.7205 -0.2966  0.4841
 5851SOL     OW29188   3.004   2.476   4.414 -0.1011  0.6625 -0.4020
 5851SOL    HW129189   2.979   2.434   4.332  2.3920  1.1323 -1.3973
 5851SOL    HW229190   2.934   2.457   4.477 -1.1635 -0.7475 -2.0258
 5852SOL     OW29191   2.904   3.430   4.259 -0.7892 -0.3179  0.8606
 5852SOL    HW129192   2.817   3.429   4.298 -0.3537 -0.9484  1.8269
 5852SOL    HW229193   2.938   3.518   4.272  2.3943 -1.6526  1.7141
 5853SOL     OW29194   4.556   3.812   1.099 -0.8178  0.0333  0.3568
 5853SOL    HW129195   4.647   3.840   1.092 -0.2934 -1.2548  1.8540
 5853SOL    HW229196   4.537   3.842   1.189  0.0358  0.1385  0.4984
 5854SOL     OW29197   3.640   1.565   5.607  0.3785 -0.1475 -0.2148
 5854SOL    HW129198   3.713   1.521   5.651  1.6157  0.9383 -1.1652
 5854SOL    HW229199   3.685   1.631   5.554 -2.5397  0.0617 -2.3821
 5855SOL     OW29200   3.215   3.802  11.732  0.3388 -0.6499 -0.1666
 5855SOL    HW129201   3.132   3.850  11.743  0.8954  0.4064 -0.5377
 5855SOL    HW229202   3.224   3.771  11.822 -0.6983 -2.3490 -0.6451
 5856SOL     OW29203   2.031   0.288  14.576  0.0266  0.5552  0.8077
 5856SOL    HW129204   2.010   0.330  14.492 -0.9971  1.8169  1.6974
 5856SOL    HW229205   2.036   0.195  14.555 -1.7208  0.3932  1.1009
 5857SOL     OW29206   3.425   0.780   2.141  0.3887 -0.0025 -0.1928
 5857SOL    HW129207   3.478   0.818   2.211  1.2485 -2.4969  0.5180
 5857SOL    HW229208   3.473   0.799   2.061 -1.4651 -3.9409 -2.2610
 5858SOL     OW29209   0.049   3.111   4.663 -0.0238  0.5865 -0.4642
 5858SOL    HW129210   0.034   3.084   4.572 -2.4361  2.2879 -0.5521
 5858SOL    HW229211   0.118   3.046   4.676  2.4772  3.3428  0.0498
 5859SOL     OW29212   1.608   2.348   9.385 -0.3994  0.0535 -0.4433
 5859SOL    HW129213   1.627   2.266   9.341  0.4330  0.0064 -0.0114
 5859SOL    HW229214   1.614   2.322   9.477 -0.2425  1.7431  0.0218
 5860SOL     OW29215   3.082   0.970   7.436 -0.2640  0.8888 -0.0974
 5860SOL    HW129216   3.131   1.048   7.464  1.7362 -0.2830 -0.3338
 5860SOL    HW229217   3.015   0.971   7.504  0.0697  0.1097  0.2447
 5861SOL     OW29218   4.383   2.422   5.059 -0.0207 -0.6237  0.7517
 5861SOL    HW129219   4.456   2.388   5.111  0.0569 -2.2947 -0.4113
 5861SOL    HW229220   4.417   2.502   5.019 -1.7397 -0.6875 -0.8670
 5862SOL     OW29221   0.429   4.061   8.991  0.0364  0.0292  0.1974
 5862SOL    HW129222   0.392   4.069   9.079 -0.6058 -1.4488  0.0550
 5862SOL    HW229223   0.521   4.047   9.016  0.7373  0.6443 -1.9611
 5863SOL     OW29224   2.102   2.869   3.592  0.4009  0.3368 -0.4443
 5863SOL    HW129225   2.098   2.959   3.624 -0.7007  0.2032 -0.1937
 5863SOL    HW229226   2.158   2.827   3.658  2.1692  0.9089 -1.5933
 5864SOL     OW29227   0.999   3.701   5.507  0.7831 -0.7000  0.4765
 5864SOL    HW129228   1.041   3.615   5.511  1.3346 -0.4266  0.6738
 5864SOL    HW229229   0.957   3.692   5.421 -1.1432  4.2523  0.8576
 5865SOL     OW29230   1.368   1.090  14.329 -0.3638  0.5270 -0.0054
 5865SOL    HW129231   1.279   1.065  14.352 -0.3983  0.2653 -0.4364
 5865SOL    HW229232   1.341   1.180  14.310  0.9262  1.3027  1.8165
 5866SOL     OW29233   1.033   1.483   3.602  0.4320  0.1374 -0.5985
 5866SOL    HW129234   1.082   1.427   3.661 -0.9283  0.5324  0.9166
 5866SOL    HW229235   0.957   1.428   3.583  0.9209 -0.9345  0.5955
 5867SOL     OW29236   2.208   1.905   4.333  0.1597 -0.2739  0.1780
 5867SOL    HW129237   2.153   1.870   4.404 -0.1808 -0.7398 -0.3162
 5867SOL    HW229238   2.146   1.932   4.265  1.0367  1.7131  0.1588
 5868SOL     OW29239   1.620   4.300  11.421 -0.1194  0.5366 -0.0750
 5868SOL    HW129240   1.541   4.348  11.445 -0.7104 -0.5708  0.1713
 5868SOL    HW229241   1.596   4.209  11.433 -0.9153  0.8411  0.6151
 5869SOL     OW29242   1.737   4.298   3.976 -0.3908 -0.1761 -0.1246
 5869SOL    HW129243   1.810   4.292   4.037  0.6009  2.4782 -1.0631
 5869SOL    HW229244   1.671   4.236   4.006 -0.7390  0.8080  1.1229
 5870SOL     OW29245   1.316   2.759  12.999 -0.2683  0.3129  0.9554
 5870SOL    HW129246   1.368   2.710  12.935 -2.2446  1.5135 -1.5874
 5870SOL    HW229247   1.233   2.761  12.952 -0.1039  1.0874  0.6953
 5871SOL     OW29248   1.098   1.018   6.630 -0.0517 -0.0487 -0.1381
 5871SOL    HW129249   1.178   0.996   6.583  0.7787  1.6699  0.4596
 5871SOL    HW229250   1.093   1.113   6.622  2.5374 -0.0223 -1.3626
 5872SOL     OW29251   3.335   2.482   4.641  0.2472 -0.2667 -0.4629
 5872SOL    HW129252   3.250   2.524   4.655 -0.3151 -1.3670 -0.5629
 5872SOL    HW229253   3.313   2.427   4.567  1.7787 -0.9626 -0.3971
 5873SOL     OW29254   2.530   1.636  14.191  0.0536  0.1747  0.7439
 5873SOL    HW129255   2.568   1.587  14.263 -0.0123 -1.8639 -0.6224
 5873SOL    HW229256   2.438   1.658  14.209  0.0670  0.3765  0.5731
 5874SOL     OW29257   3.770   0.105   9.806 -0.3946 -0.5455 -0.2926
 5874SOL    HW129258   3.808   0.105   9.893  0.4247 -0.6564 -0.6489
 5874SOL    HW229259   3.676   0.096   9.820 -0.1490  1.7425  2.7395
 5875SOL     OW29260   1.532   2.011   5.677 -0.1984 -0.0991  0.2503
 5875SOL    HW129261   1.487   2.055   5.606 -0.0677  0.1763  0.3383
 5875SOL    HW229262   1.475   1.936   5.695  1.4305 -1.1923  0.9080
 5876SOL     OW29263   0.770   2.912   3.889  0.0385 -0.3619 -0.0699
 5876SOL    HW129264   0.786   2.820   3.869 -0.8762 -0.6409  0.4595
 5876SOL    HW229265   0.710   2.943   3.822  0.6426  0.6917 -0.1276
 5877SOL     OW29266   3.708   0.286   7.230  0.1071 -0.1527 -0.0637
 5877SOL    HW129267   3.797   0.323   7.227 -0.6317  1.5179 -1.1744
 5877SOL    HW229268   3.713   0.223   7.302 -0.2407  1.1031  1.0632
 5878SOL     OW29269   0.114   4.357  12.134 -0.4072 -0.2145  0.8276
 5878SOL    HW129270   0.042   4.341  12.195 -0.1417 -0.2057  1.1410
 5878SOL    HW229271   0.071   4.319  12.058  1.1389 -0.1759 -0.0676
 5879SOL     OW29272   2.846   1.926   4.155  0.0625  0.1346 -0.6227
 5879SOL    HW129273   2.843   1.840   4.197  1.1316  0.4097  0.0102
 5879SOL    HW229274   2.913   1.967   4.210 -1.5868  1.6144  0.2445
 5880SOL     OW29275   0.719   4.634   7.740  0.4901  0.0389 -0.4133
 5880SOL    HW129276   0.783   4.606   7.805  0.8183  0.2751 -0.6356
 5880SOL    HW229277   0.757   4.720   7.719  0.3741 -0.4855 -2.8085
 5881SOL     OW29278   4.610   1.033  10.788  0.6909  0.2982 -0.1931
 5881SOL    HW129279   4.516   1.017  10.780  1.2013 -1.9969 -1.5298
 5881SOL    HW229280   4.629   0.940  10.772 -1.1190  0.2917 -2.3622
 5882SOL     OW29281   0.374   1.360  13.729 -0.0917 -0.3195 -0.4885
 5882SOL    HW129282   0.426   1.308  13.789 -1.1070 -0.2093  0.4918
 5882SOL    HW229283   0.284   1.339  13.754 -0.7535  1.4811 -1.3305
 5883SOL     OW29284   0.670   3.532   7.622  1.0242  0.8141  0.2000
 5883SOL    HW129285   0.677   3.481   7.703 -0.1855  0.2803 -0.0429
 5883SOL    HW229286   0.686   3.465   7.556 -1.0568 -0.9373  1.4679
 5884SOL     OW29287   1.948   3.128   3.652 -0.0938 -0.5305 -0.2782
 5884SOL    HW129288   1.906   3.211   3.631 -1.1033 -0.7445  0.8843
 5884SOL    HW229289   1.879   3.078   3.696 -1.9855  0.5587 -2.0209
 5885SOL     OW29290   2.937   1.301   6.466  0.4407  0.3241  0.0787
 5885SOL    HW129291   2.950   1.219   6.514 -0.3853  0.5133  0.6292
 5885SOL    HW229292   2.950   1.362   6.539  1.2581  0.3547 -0.0917
 5886SOL     OW29293   1.145   4.633   4.754  0.3492  1.0482  0.1228
 5886SOL    HW129294   1.071   4.679   4.713  1.5788  2.1114 -0.9111
 5886SOL    HW229295   1.116   4.543   4.736  1.7684  0.6372 -0.1103
 5887SOL     OW29296   2.628   3.221   8.657 -0.3947 -0.1843 -0.4210
 5887SOL    HW129297   2.683   3.247   8.583  0.1452 -2.2409 -0.7424
 5887SOL    HW229298   2.693   3.173   8.706 -1.6138 -1.9328 -0.5174
 5888SOL     OW29299   2.177   2.940  15.963 -0.4610  0.0937  0.1613
 5888SOL    HW129300   2.180   3.036  15.966 -0.8298  0.1426 -1.1090
 5888SOL    HW229301   2.125   2.923  16.042  0.7133  2.9664  1.5880
 5889SOL     OW29302   1.185   2.237   2.414 -0.3933 -0.2967  0.1476
 5889SOL    HW129303   1.135   2.294   2.473  1.6094  0.6389  0.9496
 5889SOL    HW229304   1.178   2.275   2.326  1.6391  0.2113  0.2036
 5890SOL     OW29305   4.097   3.080   9.792  0.3690  0.3507 -0.7747
 5890SOL    HW129306   4.107   3.136   9.868 -1.5372  0.0805 -0.3282
 5890SOL    HW229307   4.018   3.120   9.756 -0.9653 -1.2146  0.4263
 5891SOL     OW29308   0.926   1.702   3.806  0.8494 -0.0368  0.4485
 5891SOL    HW129309   0.860   1.739   3.747  0.5181 -1.4192 -0.0583
 5891SOL    HW229310   0.976   1.658   3.738  1.6089 -0.7418  1.4613
 5892SOL     OW29311   0.639   4.218   8.593 -1.3268 -0.0430 -0.4757
 5892SOL    HW129312   0.631   4.197   8.500 -2.8112  0.8187 -0.5421
 5892SOL    HW229313   0.545   4.217   8.611 -0.9954 -0.0642  1.2154
 5893SOL     OW29314   1.975   0.179   5.547  0.3954 -0.4079 -0.0697
 5893SOL    HW129315   1.940   0.183   5.458  0.9776 -2.1551 -0.3720
 5893SOL    HW229316   1.909   0.128   5.594  0.2223  0.7291  0.9273
 5894SOL     OW29317   0.686   3.775   2.679  0.7138  0.0831  0.2446
 5894SOL    HW129318   0.692   3.869   2.697  3.7017 -0.1381  0.3787
 5894SOL    HW229319   0.652   3.748   2.764  0.7909 -2.1729 -0.4344
 5895SOL     OW29320   0.665   3.866   7.193 -0.0859  0.1472 -0.4086
 5895SOL    HW129321   0.656   3.947   7.142 -1.3944 -1.4677 -2.7623
 5895SOL    HW229322   0.637   3.902   7.277 -1.7846  1.7715 -1.6754
 5896SOL     OW29323   3.870   3.289  11.921  0.0219  0.1936  0.1045
 5896SOL    HW129324   3.831   3.209  11.954  1.2427 -0.3660  0.1936
 5896SOL    HW229325   3.916   3.320  11.999 -2.2190  1.4778  0.9136
 5897SOL     OW29326   2.930   3.030  11.715  0.2537  0.5827 -0.8874
 5897SOL    HW129327   2.901   3.058  11.629  0.5559 -1.2795 -1.6009
 5897SOL    HW229328   3.020   3.001  11.698  0.9908  0.2965  3.3465
 5898SOL     OW29329   2.234   4.713   3.719  0.1057 -0.2681  0.2985
 5898SOL    HW129330   2.271   0.060   3.683 -0.0687  0.5088  1.8555
 5898SOL    HW229331   2.318   4.667   3.717 -0.5410 -1.3781 -1.0069
 5899SOL     OW29332   3.561   0.356   2.900 -0.3652  0.6266 -0.0131
 5899SOL    HW129333   3.504   0.419   2.857  1.0423  1.6051 -0.4351
 5899SOL    HW229334   3.626   0.348   2.830  0.8590  1.1813  1.0564
 5900SOL     OW29335   2.880   0.666   1.100  0.1680  0.0793  0.1374
 5900SOL    HW129336   2.873   0.578   1.065 -1.1853  0.5270 -0.6810
 5900SOL    HW229337   2.880   0.657   1.196 -2.3120 -1.9104 -0.0544
 5901SOL     OW29338   2.966   4.387   9.622  0.1963  0.0534  0.4644
 5901SOL    HW129339   2.953   4.334   9.543 -1.4539  0.0490  0.7411
 5901SOL    HW229340   3.041   4.440   9.595 -0.2620  0.9541  0.9388
 5902SOL     OW29341   2.195   1.348   7.089 -0.5923  0.6521  0.8699
 5902SOL    HW129342   2.154   1.432   7.071  0.9058  1.2317  0.0934
 5902SOL    HW229343   2.233   1.360   7.176  0.9566  0.7755  0.1842
 5903SOL     OW29344   2.962   0.385   0.732  0.0769  0.7028  0.3603
 5903SOL    HW129345   3.057   0.393   0.728  0.1032  0.2179  0.0580
 5903SOL    HW229346   2.943   0.314   0.793 -0.2233 -1.2407 -2.0382
 5904SOL     OW29347   1.969   2.248   5.738  0.3113 -0.1500  0.8834
 5904SOL    HW129348   1.940   2.285   5.655  0.9778  0.3712  0.8808
 5904SOL    HW229349   1.888   2.246   5.790  0.4811  0.1056  1.1591
 5905SOL     OW29350   1.764   4.372   4.392  0.1643  0.2231  0.2172
 5905SOL    HW129351   1.750   4.300   4.331  0.8252 -0.0671  0.4104
 5905SOL    HW229352   1.735   4.328   4.472 -0.7877  1.6269  0.6515
 5906SOL     OW29353   2.638   3.658   7.185  0.5543  0.2366 -0.2597
 5906SOL    HW129354   2.631   3.562   7.182 -3.1119  0.5097  0.0853
 5906SOL    HW229355   2.571   3.692   7.243  1.0175 -0.7951  0.8876
 5907SOL     OW29356   1.835   0.648   3.113 -0.0723 -0.8399  0.1880
 5907SOL    HW129357   1.767   0.679   3.173  0.3330 -0.0712  0.2518
 5907SOL    HW229358   1.832   0.555   3.135  0.9605 -1.3877 -1.9878
 5908SOL     OW29359   3.588   3.875   4.364 -0.3781  0.2882  0.5408
 5908SOL    HW129360   3.580   3.897   4.271  1.0656  1.1491  0.6273
 5908SOL    HW229361   3.537   3.940   4.411 -2.5638  0.3428 -1.9086
 5909SOL     OW29362   2.345   2.326   0.194  0.7331  0.5094 -0.0612
 5909SOL    HW129363   2.414   2.262   0.175 -1.6537 -1.3131 -2.6672
 5909SOL    HW229364   2.396   2.369   0.263  1.0578 -0.3585  0.2523
 5910SOL     OW29365   0.283   3.407   6.725 -0.2321 -0.0815  0.2133
 5910SOL    HW129366   0.302   3.334   6.784  0.0335 -1.3986 -1.4947
 5910SOL    HW229367   0.365   3.434   6.684 -0.2348 -0.4296 -0.0174
 5911SOL     OW29368   3.392   3.372   6.317 -0.0297  0.4528  0.3795
 5911SOL    HW129369   3.436   3.374   6.402 -0.9767 -2.2658  0.9556
 5911SOL    HW229370   3.339   3.292   6.320  1.6526 -0.7876 -2.4159
 5912SOL     OW29371   4.025   3.181   5.224  0.5145  0.2674 -0.0782
 5912SOL    HW129372   3.983   3.263   5.249  0.0489  0.1229 -0.3754
 5912SOL    HW229373   3.994   3.122   5.293  0.6752  0.6813  0.3380
 5913SOL     OW29374   1.621   3.092   3.991 -0.6714  0.1383  0.0913
 5913SOL    HW129375   1.612   3.049   4.076  0.4448  1.2878  0.7801
 5913SOL    HW229376   1.558   3.037   3.943 -1.3371  1.5544 -0.6472
 5914SOL     OW29377   2.533   2.453   0.409 -0.1867  0.0614 -0.2798
 5914SOL    HW129378   2.498   2.411   0.488 -0.2522  2.3938  0.9324
 5914SOL    HW229379   2.620   2.414   0.399  0.2216  0.7076  0.7295
 5915SOL     OW29380   0.529   0.822   9.178  0.0249  0.4812 -0.3565
 5915SOL    HW129381   0.437   0.809   9.156 -0.9243  2.8119  2.2441
 5915SOL    HW229382   0.569   0.745   9.138  0.0735 -0.2566  1.1299
 5916SOL     OW29383   1.004   4.160   5.345  0.1507  0.1728 -0.5797
 5916SOL    HW129384   1.063   4.174   5.419  0.3749 -1.0880 -0.5355
 5916SOL    HW229385   0.975   4.249   5.325 -0.8851 -0.0800 -0.1720
 5917SOL     OW29386   2.894   2.374   1.662 -0.2481 -0.0708  0.0730
 5917SOL    HW129387   2.937   2.460   1.670 -0.2817  0.0006 -0.5212
 5917SOL    HW229388   2.901   2.349   1.570 -0.9364  0.3846 -0.1026
 5918SOL     OW29389   2.365   3.095   7.440  0.2046  0.0011  0.8821
 5918SOL    HW129390   2.295   3.034   7.461 -1.6267  2.4778  1.9581
 5918SOL    HW229391   2.375   3.142   7.523 -2.2306  1.8509  0.1373
 5919SOL     OW29392   0.726   3.517   7.092 -0.0250 -0.0603  0.4237
 5919SOL    HW129393   0.775   3.440   7.062  2.5928  1.9560 -0.5347
 5919SOL    HW229394   0.790   3.584   7.067 -1.5448  0.6111 -1.5677
 5920SOL     OW29395   1.350   0.542  17.692 -0.7433 -0.1579 -0.2540
 5920SOL    HW129396   1.345   0.522   0.049  1.8901  1.3631  0.2175
 5920SOL    HW229397   1.339   0.456  17.652 -2.0564  0.1089 -0.4700
 5921SOL     OW29398   2.160   1.990  11.834  0.2192  0.1382 -0.5162
 5921SOL    HW129399   2.115   1.919  11.788  1.0897  1.5293 -3.4933
 5921SOL    HW229400   2.252   1.966  11.826 -0.2995 -1.7619 -0.9441
 5922SOL     OW29401   0.364   0.330   2.053 -0.3801  0.0323  0.2302
 5922SOL    HW129402   0.318   0.333   1.969  3.0310  0.8850 -1.5688
 5922SOL    HW229403   0.454   0.353   2.029 -1.0964  1.9407 -0.6405
 5923SOL     OW29404   3.552   1.800   1.655  0.4617  0.0046 -0.0986
 5923SOL    HW129405   3.632   1.754   1.629 -0.4743 -0.7011 -1.6700
 5923SOL    HW229406   3.536   1.763   1.742  0.2685  2.7311  1.0285
 5924SOL     OW29407   3.066   4.294   7.952  0.2128 -0.3530  0.1158
 5924SOL    HW129408   2.992   4.349   7.924 -0.0108 -0.0236  1.3525
 5924SOL    HW229409   3.101   4.337   8.030 -1.4299 -1.4540  1.4816
 5925SOL     OW29410   3.765   4.583   2.015 -0.5482 -0.3720 -0.4308
 5925SOL    HW129411   3.771   4.640   2.092  1.4803 -0.7199 -0.3332
 5925SOL    HW229412   3.845   4.533   2.028 -0.1721  0.9309  2.2872
 5926SOL     OW29413   3.352   3.115  10.595 -0.1705 -0.6372  0.0725
 5926SOL    HW129414   3.405   3.127  10.516 -1.2665  1.3140 -0.3770
 5926SOL    HW229415   3.369   3.202  10.632 -0.0368 -0.4071 -0.5226
 5927SOL     OW29416   0.923   1.299   9.043 -0.0755 -0.0064 -0.1843
 5927SOL    HW129417   0.938   1.217   8.994  0.8684 -0.3859  0.7397
 5927SOL    HW229418   0.904   1.266   9.131  4.0543  0.3206  0.8427
 5928SOL     OW29419   2.373   2.508   2.685  0.1640  0.1124 -0.4615
 5928SOL    HW129420   2.351   2.602   2.690  0.0438  0.2484 -3.3141
 5928SOL    HW229421   2.360   2.476   2.774  0.5481 -0.9968 -0.8050
 5929SOL     OW29422   4.374   1.297   5.350  0.0973  0.6948 -0.1304
 5929SOL    HW129423   4.398   1.214   5.308 -0.1422  0.9670 -0.8071
 5929SOL    HW229424   4.346   1.275   5.438 -0.6419  1.0236 -0.2794
 5930SOL     OW29425   1.811   2.294   1.625 -0.2155  0.6218 -0.4726
 5930SOL    HW129426   1.850   2.380   1.610 -0.0053  0.4612 -0.8572
 5930SOL    HW229427   1.873   2.230   1.588 -0.8792 -0.1094 -0.3179
 5931SOL     OW29428   4.098   1.077   7.389 -0.2655 -1.0815  0.1794
 5931SOL    HW129429   4.027   1.030   7.344 -1.6854  1.3789 -0.1266
 5931SOL    HW229430   4.047   1.146   7.431  1.1002 -0.7405  1.2716
 5932SOL     OW29431   1.845   2.738  11.251 -0.3724 -0.0242  0.6695
 5932SOL    HW129432   1.861   2.643  11.258 -2.1757 -0.1488  3.1010
 5932SOL    HW229433   1.750   2.728  11.248 -0.5168  2.0599 -1.1995
 5933SOL     OW29434   3.342   0.639   8.628  0.6296  0.1018  0.2810
 5933SOL    HW129435   3.410   0.703   8.606  1.4269 -0.7012  0.4134
 5933SOL    HW229436   3.270   0.700   8.640  0.5678 -0.0872  0.8882
 5934SOL     OW29437   1.434   0.904  14.761  0.8077 -0.7278 -0.2480
 5934SOL    HW129438   1.503   0.919  14.697  0.0893 -2.0552 -1.3389
 5934SOL    HW229439   1.472   0.850  14.830 -0.6939  0.6111  1.6745
 5935SOL     OW29440   2.973   4.194   4.517  0.0271 -0.5431  0.3834
 5935SOL    HW129441   2.952   4.282   4.549  2.9363  0.2398  0.1195
 5935SOL    HW229442   3.056   4.214   4.474 -1.9855  0.8766 -2.7630
 5936SOL     OW29443   4.650   1.236   4.949 -0.3017  0.1588 -0.4159
 5936SOL    HW129444   4.619   1.250   4.860  0.7804  0.9076 -0.6854
 5936SOL    HW229445   4.731   1.188   4.931  0.6533  0.8729  1.8834
 5937SOL     OW29446   1.408   2.589   9.626  0.1151  0.3514  0.5486
 5937SOL    HW129447   1.496   2.609   9.593 -0.7679  2.2192 -0.6473
 5937SOL    HW229448   1.367   2.667   9.663  1.8132  0.8395  1.4146
 5938SOL     OW29449   0.845   3.113   4.394 -0.2582 -0.0431 -0.0450
 5938SOL    HW129450   0.933   3.141   4.369 -0.8414  0.0650 -2.0386
 5938SOL    HW229451   0.863   3.020   4.413  1.5617  0.2644 -0.2343
 5939SOL     OW29452   0.689   3.941   4.336 -0.4137  0.4042 -0.1736
 5939SOL    HW129453   0.655   3.906   4.418  1.0792  0.8573  0.6431
 5939SOL    HW229454   0.642   4.025   4.333  0.1845  0.7496  0.2092
 5940SOL     OW29455   2.727   4.694   6.088  0.0139 -0.3545 -0.3681
 5940SOL    HW129456   2.814   4.682   6.126  0.5971  2.1991 -0.9238
 5940SOL    HW229457   2.690   0.012   6.159  0.9052 -2.5043  1.6624
 5941SOL     OW29458   0.085   4.217   8.325 -0.2352  0.0179 -0.0809
 5941SOL    HW129459   0.177   4.238   8.306 -0.2564 -0.0766 -0.2887
 5941SOL    HW229460   0.091   4.223   8.420 -0.5776 -2.2712  0.0881
 5942SOL     OW29461   4.484   1.485   7.960  0.0950  0.4120  0.0173
 5942SOL    HW129462   4.409   1.440   7.922 -0.7060  3.1114 -1.6081
 5942SOL    HW229463   4.540   1.413   7.986  0.6967  0.1146 -2.1154
 5943SOL     OW29464   4.080   2.388   2.610  0.5939 -0.3378  0.2612
 5943SOL    HW129465   4.040   2.381   2.697  1.4128 -0.0166  0.6666
 5943SOL    HW229466   4.024   2.330   2.558  1.9131 -3.0155  1.8049
 5944SOL     OW29467   1.202   3.089   8.328 -0.5885 -0.4785  0.4378
 5944SOL    HW129468   1.198   3.063   8.420  2.2726 -0.5440  0.5337
 5944SOL    HW229469   1.228   3.181   8.328 -1.4842 -0.2276  0.1287
 5945SOL     OW29470   3.880   3.337   8.044  0.5211 -0.4336 -0.8248
 5945SOL    HW129471   3.974   3.322   8.053  0.6164 -0.1171 -1.3121
 5945SOL    HW229472   3.877   3.431   8.025  2.8840 -0.3421 -0.7034
 5946SOL     OW29473   0.561   2.628  14.098 -0.3186 -0.0298 -0.2074
 5946SOL    HW129474   0.534   2.709  14.141  0.5621 -0.3504  0.9606
 5946SOL    HW229475   0.599   2.676  14.024 -0.3209  0.1584 -0.0883
 5947SOL     OW29476   0.332   4.175  16.166  0.5169 -0.5144  0.3008
 5947SOL    HW129477   0.415   4.149  16.125  1.5808  0.7408  1.6869
 5947SOL    HW229478   0.352   4.262  16.200 -0.5866  0.7168 -2.2034
 5948SOL     OW29479   0.098   0.286   5.868  1.3906 -0.5296  0.0198
 5948SOL    HW129480   0.054   0.276   5.952  0.2477  2.3986 -0.2317
 5948SOL    HW229481   0.083   0.381   5.867 -1.5508 -0.9697 -0.2294
 5949SOL     OW29482   4.432   2.160   4.197  0.5460  0.8252 -0.4927
 5949SOL    HW129483   4.386   2.163   4.113  1.4605  0.8161 -0.9999
 5949SOL    HW229484   4.405   2.230   4.255  1.0194  3.3658 -3.3300
 5950SOL     OW29485   4.324   0.136   4.764 -0.1810  0.2762 -0.1294
 5950SOL    HW129486   4.302   0.127   4.857 -2.4752 -0.5098 -0.7508
 5950SOL    HW229487   4.381   0.062   4.745  0.0297  0.3152  0.3441
 5951SOL     OW29488   0.213   0.251   0.814 -0.3283 -0.2843 -0.4920
 5951SOL    HW129489   0.123   0.220   0.816  0.0847 -1.4485  0.0905
 5951SOL    HW229490   0.200   0.343   0.836 -0.1001 -0.4269  0.2440
 5952SOL     OW29491   3.872   3.855  11.215  0.6677 -0.1806 -0.7273
 5952SOL    HW129492   3.782   3.887  11.206 -0.0665 -1.6705  1.3592
 5952SOL    HW229493   3.864   3.775  11.267 -1.4690  1.5914  1.6259
 5953SOL     OW29494   4.124   2.702   6.262 -0.0867 -0.1911 -0.1741
 5953SOL    HW129495   4.072   2.734   6.335  1.6818  3.1178 -0.3446
 5953SOL    HW229496   4.088   2.757   6.192 -1.4888 -2.1237 -0.9632
 5954SOL     OW29497   2.092   1.299  14.533  0.6415  0.2405  0.0652
 5954SOL    HW129498   2.103   1.274  14.441  0.8830  2.6766 -0.5567
 5954SOL    HW229499   2.136   1.225  14.576  1.0668  0.6631  0.3619
 5955SOL     OW29500   4.663   4.453   7.119 -0.0737 -0.2951  0.4703
 5955SOL    HW129501   4.610   4.373   7.125 -0.6004  0.0036 -0.3318
 5955SOL    HW229502   4.708   4.431   7.201 -1.5207 -0.2480  1.2896
 5956SOL     OW29503   3.187   3.958   7.400  0.9234  0.2206  0.3786
 5956SOL    HW129504   3.212   4.042   7.440 -1.2149 -0.2010  2.6137
 5956SOL    HW229505   3.143   3.993   7.323  0.7638 -0.6829  0.0592
 5957SOL     OW29506   4.275   1.722   8.725  0.2987 -0.1526  0.0229
 5957SOL    HW129507   4.311   1.693   8.641 -0.5936 -0.6318 -0.1994
 5957SOL    HW229508   4.322   1.805   8.729 -0.8589  0.4362  1.5570
 5958SOL     OW29509   4.459   2.677   7.236 -0.0861 -0.9388  0.3543
 5958SOL    HW129510   4.551   2.690   7.214 -1.4685  1.0749 -4.0720
 5958SOL    HW229511   4.461   2.601   7.178 -0.2402  0.0292 -0.9171
 5959SOL     OW29512   1.360   0.879  11.855 -0.2785  0.6903  0.0365
 5959SOL    HW129513   1.360   0.791  11.892 -1.6632 -0.4880 -2.7803
 5959SOL    HW229514   1.274   0.906  11.887  0.3018  0.6307  1.6911
 5960SOL     OW29515   0.946   2.918  17.694  0.3637  0.2391  0.3381
 5960SOL    HW129516   0.917   2.827  17.691 -3.1590  1.4271 -1.0217
 5960SOL    HW229517   1.022   2.908  17.637  1.0202  0.3855  1.1773
 5961SOL     OW29518   3.425   3.386  10.626  0.4287  0.1713  0.0490
 5961SOL    HW129519   3.392   3.404  10.714 -1.6639  1.0158 -0.9014
 5961SOL    HW229520   3.357   3.428  10.573 -1.3851 -2.1339  0.5663
 5962SOL     OW29521   3.236   4.590   4.450 -0.0648 -0.7242 -0.1917
 5962SOL    HW129522   3.193   4.595   4.365 -0.4705  0.3995  0.0761
 5962SOL    HW229523   3.214   4.499   4.471 -0.1158 -0.5152  0.6842
 5963SOL     OW29524   3.614   1.859  10.911  0.4044 -0.2298  0.2319
 5963SOL    HW129525   3.659   1.883  10.992 -0.3771  0.2749  0.5244
 5963SOL    HW229526   3.555   1.796  10.953  2.3834 -1.3035  1.4097
 5964SOL     OW29527   2.611   2.328   8.890  0.4132 -0.4871  0.1179
 5964SOL    HW129528   2.656   2.316   8.974 -0.3138  1.3179  0.7633
 5964SOL    HW229529   2.553   2.402   8.909  1.3228  0.1866  0.2615
 5965SOL     OW29530   1.394   0.322   5.530  0.4281  0.5875  0.3950
 5965SOL    HW129531   1.353   0.319   5.444  3.3956 -1.6240 -0.8842
 5965SOL    HW229532   1.450   0.245   5.527  1.0971  1.1098 -0.2099
 5966SOL     OW29533   4.317   2.020  14.487 -0.1016 -0.0099 -0.3654
 5966SOL    HW129534   4.234   1.985  14.519  1.2612 -1.1880  1.8859
 5966SOL    HW229535   4.372   1.950  14.523 -3.3491 -2.6794 -0.6554
 5967SOL     OW29536   1.650   1.072   3.896 -0.0172  0.3382  0.4587
 5967SOL    HW129537   1.713   1.054   3.966 -0.5869 -1.0786  0.6151
 5967SOL    HW229538   1.650   1.167   3.895 -1.3363  0.3084 -1.8325
 5968SOL     OW29539   1.078   4.095   8.391  0.4449 -0.1361 -0.2070
 5968SOL    HW129540   1.106   4.110   8.481  1.5032  1.7798 -0.8573
 5968SOL    HW229541   1.101   4.180   8.354  1.0221  0.5353  1.6984
 5969SOL     OW29542   1.357   1.093   5.197 -0.2793  0.2588  0.3594
 5969SOL    HW129543   1.421   1.115   5.129 -1.1637  0.0690 -0.5337
 5969SOL    HW229544   1.401   1.096   5.282  1.7754  0.7016 -0.7195
 5970SOL     OW29545   1.841   1.060   4.093 -0.3662  0.0504  0.0605
 5970SOL    HW129546   1.838   1.018   4.179 -1.0488  0.9279  0.4609
 5970SOL    HW229547   1.917   1.116   4.110  1.8418 -2.8289 -0.3343
 5971SOL     OW29548   3.120   3.271   1.848 -0.1443  0.1568 -0.2945
 5971SOL    HW129549   3.052   3.321   1.802 -0.2519  0.7705  0.5219
 5971SOL    HW229550   3.073   3.249   1.929  2.6469 -0.9008  1.0450
 5972SOL     OW29551   0.936   2.348   5.847  0.4994 -0.0352 -0.0668
 5972SOL    HW129552   0.935   2.289   5.772  0.5886  0.2204 -0.2685
 5972SOL    HW229553   0.852   2.317   5.881  0.4675 -1.2212 -1.2541
 5973SOL     OW29554   2.999   0.194   2.204  0.5499  0.0503  0.0926
 5973SOL    HW129555   2.980   0.253   2.131  0.1609 -0.4791 -0.2388
 5973SOL    HW229556   2.907   0.167   2.202  0.9004 -1.0704 -0.7865
 5974SOL     OW29557   0.265   1.725  14.430  0.2350  0.0891 -0.1379
 5974SOL    HW129558   0.338   1.670  14.401 -0.6886 -0.3781 -1.5829
 5974SOL    HW229559   0.258   1.801  14.372  0.1384  0.1693 -0.0206
 5975SOL     OW29560   4.604   3.188  13.557 -0.0459 -0.3163 -0.2836
 5975SOL    HW129561   4.648   3.119  13.606  0.6597  0.7121  0.5218
 5975SOL    HW229562   4.667   3.215  13.490  3.0845  1.2481  3.3217
 5976SOL     OW29563   3.356   1.944   5.600 -0.4287  0.3762  0.3417
 5976SOL    HW129564   3.439   1.988   5.578  0.3562 -1.4937 -0.4331
 5976SOL    HW229565   3.383   1.859   5.633 -1.8457  0.4427  1.6759
 5977SOL     OW29566   2.984   3.619   5.157  0.1703 -0.1993 -0.2837
 5977SOL    HW129567   3.075   3.619   5.187 -0.9268 -0.8872  3.0693
 5977SOL    HW229568   2.997   3.609   5.063 -2.4543  0.6176 -0.7473
 5978SOL     OW29569   4.140   2.364  11.508 -0.0658  0.3597 -0.3693
 5978SOL    HW129570   4.200   2.428  11.547 -1.0833  0.5405  0.8868
 5978SOL    HW229571   4.180   2.279  11.524  1.4355  1.1870  0.3040
 5979SOL     OW29572   2.990   0.526   7.199 -0.1177 -0.4093 -0.7311
 5979SOL    HW129573   2.925   0.566   7.256  0.9109 -1.3110  1.0793
 5979SOL    HW229574   2.956   0.562   7.117  0.1864  0.3905 -0.5099
 5980SOL     OW29575   4.161   4.133   5.618  0.0010  0.0549  0.0178
 5980SOL    HW129576   4.178   4.145   5.711  1.6675  0.2293 -0.3048
 5980SOL    HW229577   4.071   4.101   5.613 -0.0201 -0.2454  2.5339
 5981SOL     OW29578   2.875   3.182   3.052 -0.5604  0.5227 -0.6405
 5981SOL    HW129579   2.869   3.210   3.143 -1.2464 -1.1232 -0.1883
 5981SOL    HW229580   2.965   3.203   3.030  0.2605 -4.1270 -1.7290
 5982SOL     OW29581   2.168   4.348   3.701 -0.1371 -0.0476 -0.4568
 5982SOL    HW129582   2.214   4.401   3.636  1.8005 -0.2116  0.7777
 5982SOL    HW229583   2.234   4.351   3.770 -0.7869 -0.4762  0.1816
 5983SOL     OW29584   3.984   2.662   3.683  0.2085  0.4022 -0.2850
 5983SOL    HW129585   4.065   2.622   3.651  0.1136  0.1745 -0.2389
 5983SOL    HW229586   3.977   2.626   3.772 -0.6347 -1.1003 -0.9691
 5984SOL     OW29587   1.527   3.908   6.560 -0.1293 -0.2747 -0.1865
 5984SOL    HW129588   1.496   3.847   6.494  1.5117 -1.5973  0.2735
 5984SOL    HW229589   1.512   3.988   6.510  0.9006  0.3939  0.5608
 5985SOL     OW29590   4.560   1.233   4.688 -0.2983 -0.1780 -0.7259
 5985SOL    HW129591   4.575   1.291   4.613  0.5687 -0.5614 -0.8479
 5985SOL    HW229592   4.482   1.183   4.666 -1.9086  1.4875  1.1475
 5986SOL     OW29593   1.616   3.417   7.549 -0.5310  0.4551 -0.2222
 5986SOL    HW129594   1.613   3.332   7.593  1.1766  0.3012 -0.3916
 5986SOL    HW229595   1.705   3.443   7.576 -0.0942 -0.4855 -0.7651
 5987SOL     OW29596   0.498   4.295  17.621  0.1271  0.0483 -0.4280
 5987SOL    HW129597   0.492   4.308  17.715  0.9629 -1.7417 -0.1193
 5987SOL    HW229598   0.563   4.361  17.595 -1.2845  0.9035 -1.7683
 5988SOL     OW29599   2.045   1.778  15.361 -0.2883  0.5397 -0.5555
 5988SOL    HW129600   1.998   1.834  15.299 -0.5039 -1.2782 -2.0106
 5988SOL    HW229601   2.063   1.707  15.300  0.4971 -0.8799  1.3386
 5989SOL     OW29602   0.079   0.762   5.991 -0.4986 -0.4591  0.6495
 5989SOL    HW129603   0.161   0.797   6.026 -0.7342 -1.5096  2.2684
 5989SOL    HW229604   0.011   0.820   6.025 -2.3263 -2.0542 -0.2825
 5990SOL     OW29605   2.313   3.435   7.505  0.4564  0.2793  0.7349
 5990SOL    HW129606   2.401   3.449   7.472  0.2612  0.7154  0.4083
 5990SOL    HW229607   2.269   3.392   7.432 -0.4807 -0.0748  1.4947
 5991SOL     OW29608   2.516   1.236   4.267 -0.1889  0.2401  0.1347
 5991SOL    HW129609   2.434   1.215   4.222  0.8117 -1.8457 -0.7706
 5991SOL    HW229610   2.575   1.222   4.192 -1.7279 -0.1378 -1.0061
 5992SOL     OW29611   4.015   0.393   6.249 -0.0570  0.2393  0.2378
 5992SOL    HW129612   3.954   0.348   6.191 -1.2243  0.9907  0.8782
 5992SOL    HW229613   4.099   0.368   6.210  0.2031  3.1574 -1.1036
 5993SOL     OW29614   0.417   0.299   6.461 -0.0082 -0.0305 -0.4785
 5993SOL    HW129615   0.487   0.348   6.419 -0.0330  1.2975  1.0101
 5993SOL    HW229616   0.406   0.225   6.402 -4.2448  1.1509 -1.1292
 5994SOL     OW29617   0.206   4.071   1.526  0.3899  0.0293 -0.5523
 5994SOL    HW129618   0.162   3.986   1.516  0.5122 -0.0400 -0.5044
 5994SOL    HW229619   0.294   4.047   1.499 -0.0271 -1.1040 -0.9281
 5995SOL     OW29620   4.068   2.089   4.713  0.9542 -0.4837 -0.1474
 5995SOL    HW129621   4.127   2.013   4.715  1.6753  0.0314 -1.3019
 5995SOL    HW229622   4.128   2.162   4.694 -0.9729  1.3040  0.6619
 5996SOL     OW29623   0.477   1.936   4.264  0.4378  0.0088 -0.4307
 5996SOL    HW129624   0.489   1.969   4.175  2.4403 -1.5177 -0.7153
 5996SOL    HW229625   0.465   1.845   4.240 -0.7512 -0.0399  0.3294
 5997SOL     OW29626   0.896   2.125  15.713  0.3449 -0.1819 -0.0009
 5997SOL    HW129627   0.837   2.082  15.651  0.6997  0.0269 -0.4818
 5997SOL    HW229628   0.844   2.196  15.750  0.2618  0.9315 -2.2452
 5998SOL     OW29629   3.966   1.088   0.272  0.2047 -0.1731 -0.1684
 5998SOL    HW129630   4.029   1.056   0.208  0.6576  1.3120 -0.4615
 5998SOL    HW229631   3.967   1.184   0.269  1.2854 -0.1378  1.3101
 5999SOL     OW29632   0.806   0.433   2.003  0.1607  0.0629 -0.2981
 5999SOL    HW129633   0.880   0.423   2.062 -1.7508 -1.4104  1.8771
 5999SOL    HW229634   0.791   0.527   2.004  0.1086  0.0645 -0.9782
 6000SOL     OW29635   2.084   0.844   2.727  1.0541 -0.7924  0.3807
 6000SOL    HW129636   2.067   0.924   2.678  2.2872  0.1500  1.4568
 6000SOL    HW229637   2.043   0.866   2.811 -0.7068  0.4859 -0.8309
 6001SOL     OW29638   2.797   0.648  11.072 -0.3446  0.1703  0.4407
 6001SOL    HW129639   2.704   0.669  11.070 -0.0562  1.4089 -0.2648
 6001SOL    HW229640   2.799   0.552  11.077 -0.6203  0.0689 -1.3153
 6002SOL     OW29641   2.432   4.513   7.851  0.8662 -0.2185 -0.1333
 6002SOL    HW129642   2.430   4.495   7.945 -1.8198  1.7839  0.1801
 6002SOL    HW229643   2.471   4.435   7.811 -0.6228 -0.6759 -0.6686
 6003SOL     OW29644   1.195   3.074   6.803  0.2417  0.2312 -0.1411
 6003SOL    HW129645   1.193   2.997   6.745 -0.2324 -0.0762  0.2816
 6003SOL    HW229646   1.281   3.075   6.845  0.4491  0.5120 -0.5692
 6004SOL     OW29647   2.428   3.253   0.421 -0.1184  0.3020 -0.3079
 6004SOL    HW129648   2.378   3.189   0.370 -0.5078  1.1672 -1.0091
 6004SOL    HW229649   2.493   3.293   0.363 -0.3398 -0.4404 -1.0608
 6005SOL     OW29650   2.233   2.797  11.861  0.3028  0.0729  0.1855
 6005SOL    HW129651   2.306   2.747  11.896 -0.3542  0.8163  2.6106
 6005SOL    HW229652   2.258   2.888  11.877  2.1523 -0.5833  1.0254
 6006SOL     OW29653   3.227   4.435   6.110  0.7304 -0.0446 -0.1266
 6006SOL    HW129654   3.276   4.510   6.078  1.3744 -0.9031 -1.1548
 6006SOL    HW229655   3.214   4.443   6.205  0.9450  0.6125 -0.1530
 6007SOL     OW29656   2.932   4.673   7.059  0.0984  0.3629 -0.2295
 6007SOL    HW129657   2.854   4.640   7.104  1.1080 -0.7046  0.7189
 6007SOL    HW229658   2.978   4.713   7.133  3.7515 -0.5527 -2.0299
 6008SOL     OW29659   3.160   1.351  13.272  0.4385 -0.1452 -0.0243
 6008SOL    HW129660   3.117   1.283  13.220  0.0358  0.0111  0.1012
 6008SOL    HW229661   3.087   1.372  13.330  1.1673  1.2043  0.3946
 6009SOL     OW29662   1.896   2.397   7.485 -0.2514  0.0120 -0.0135
 6009SOL    HW129663   1.838   2.415   7.558 -0.0618  0.5594  0.0042
 6009SOL    HW229664   1.849   2.319   7.456  0.6979  0.3862 -2.6310
 6010SOL     OW29665   0.096   1.281   3.193 -0.2769 -0.2714 -0.9501
 6010SOL    HW129666   0.068   1.265   3.283  0.5384 -1.0637 -0.8345
 6010SOL    HW229667   0.161   1.212   3.178  0.2411 -0.0044  0.0755
 6011SOL     OW29668   2.158   1.452   8.428  0.0652 -0.5383 -0.1908
 6011SOL    HW129669   2.124   1.371   8.465 -0.3412  0.2421  1.1529
 6011SOL    HW229670   2.169   1.505   8.507  0.1623 -2.0576  0.8163
 6012SOL     OW29671   1.549   3.375   1.795 -0.8710  0.0035 -0.0537
 6012SOL    HW129672   1.460   3.399   1.820 -1.4161 -0.7200 -1.2724
 6012SOL    HW229673   1.598   3.447   1.836 -0.4366  0.1963 -0.9202
 6013SOL     OW29674   2.130   4.241   2.043  0.5727 -0.1069 -0.1393
 6013SOL    HW129675   2.124   4.334   2.019 -1.4711 -0.2840 -0.2557
 6013SOL    HW229676   2.215   4.240   2.088  0.4629 -0.4087  0.0583
 6014SOL     OW29677   2.512   0.891   3.888 -0.0724 -0.2130  0.2778
 6014SOL    HW129678   2.598   0.926   3.863 -0.1384 -2.5476 -3.1313
 6014SOL    HW229679   2.537   0.826   3.954 -0.4065 -2.4386 -1.8013
 6015SOL     OW29680   3.793   2.441   5.016 -0.1241  0.5388  0.3918
 6015SOL    HW129681   3.731   2.513   5.027  1.0586  1.9319 -2.0915
 6015SOL    HW229682   3.847   2.467   4.941 -0.6207  0.5386  0.0314
 6016SOL     OW29683   3.002   1.516   6.668  0.1392  0.3185  0.1827
 6016SOL    HW129684   3.097   1.525   6.657  0.1495 -1.4350 -1.1168
 6016SOL    HW229685   2.992   1.500   6.762  2.0736 -0.1577  0.3205
 6017SOL     OW29686   3.558   0.737   3.068  0.5119 -0.2883  0.0895
 6017SOL    HW129687   3.463   0.737   3.059  0.5313  2.4555  0.0770
 6017SOL    HW229688   3.588   0.771   2.984  1.9406 -1.8566 -0.0265
 6018SOL     OW29689   0.942   2.672   0.820 -0.9928 -0.3097 -0.4868
 6018SOL    HW129690   0.885   2.749   0.828 -2.5686 -1.6834  1.4813
 6018SOL    HW229691   1.020   2.686   0.768  0.7183  0.4319  2.2691
 6019SOL     OW29692   0.180   4.073   8.917 -0.2064  0.9493 -0.6913
 6019SOL    HW129693   0.179   4.169   8.923  1.5565  0.8341  1.1821
 6019SOL    HW229694   0.266   4.070   8.959 -1.2319 -0.8581  1.2694
 6020SOL     OW29695   4.341   3.278   3.698 -0.8460 -0.2701 -0.2652
 6020SOL    HW129696   4.408   3.336   3.661  3.0677 -3.3719  1.9471
 6020SOL    HW229697   4.273   3.290   3.632 -1.2003  0.5290  0.2478
 6021SOL     OW29698   2.126   3.033  16.669  1.1066 -0.1868 -0.3515
 6021SOL    HW129699   2.090   2.971  16.733  3.1473  1.3500  2.2934
 6021SOL    HW229700   2.163   3.100  16.726  1.3669  1.0248 -1.9656
 6022SOL     OW29701   1.411   0.977   5.883 -0.1928 -0.0645 -0.7763
 6022SOL    HW129702   1.480   1.031   5.922 -0.8682  1.8504 -2.3027
 6022SOL    HW229703   1.409   0.907   5.948  0.5981  0.1323 -0.5390
 6023SOL     OW29704   3.737   1.155  17.016 -0.1078  0.2633  0.6472
 6023SOL    HW129705   3.793   1.148  17.093  1.0428 -1.2392 -0.3334
 6023SOL    HW229706   3.809   1.153  16.953 -0.8871  0.4109 -0.2483
 6024SOL     OW29707   0.459   4.329   0.310 -0.8002 -0.1308 -0.7251
 6024SOL    HW129708   0.376   4.374   0.293 -2.2628 -2.5621  0.0152
 6024SOL    HW229709   0.516   4.406   0.306 -0.4503 -0.3345  0.2967
 6025SOL     OW29710   1.594   3.327   3.861  0.4547 -0.4029  0.1330
 6025SOL    HW129711   1.628   3.255   3.914  0.9637  0.2352  0.6738
 6025SOL    HW229712   1.544   3.274   3.798 -0.4631  1.2922 -0.5562
 6026SOL     OW29713   2.341   4.501   6.832  0.0674 -0.1829 -0.1922
 6026SOL    HW129714   2.254   4.540   6.833 -0.5845 -1.6433 -0.3751
 6026SOL    HW229715   2.397   4.577   6.849 -0.5122 -0.0563  1.2015
 6027SOL     OW29716   0.173   1.116   7.531 -0.0088 -0.2517 -0.5413
 6027SOL    HW129717   0.170   1.191   7.590 -0.6592 -0.0917 -0.7851
 6027SOL    HW229718   0.084   1.082   7.521 -0.3044  0.3864 -0.0583
 6028SOL     OW29719   1.187   2.615   2.473 -1.2002  0.0367 -0.1421
 6028SOL    HW129720   1.200   2.558   2.548  1.5782 -1.9701 -2.1581
 6028SOL    HW229721   1.238   2.571   2.405  1.5138  1.4102  1.0279
 6029SOL     OW29722   3.256   4.626  15.462  0.0961 -0.1644  0.0047
 6029SOL    HW129723   3.181   4.590  15.510  0.0816  1.0514  0.8825
 6029SOL    HW229724   3.259   4.715  15.496 -2.1756 -0.2739  0.4837
 6030SOL     OW29725   3.308   4.181   0.501 -0.5533 -0.1664 -0.2658
 6030SOL    HW129726   3.240   4.240   0.468 -1.2778 -2.3316 -2.6866
 6030SOL    HW229727   3.315   4.118   0.429 -1.7152  0.9629 -1.3730
 6031SOL     OW29728   2.606   4.282  15.643 -0.4656  0.2823 -0.1835
 6031SOL    HW129729   2.632   4.334  15.568 -1.4725  1.4158  0.2465
 6031SOL    HW229730   2.673   4.311  15.705 -1.2003  0.4824  0.5224
 6032SOL     OW29731   3.928   0.891   8.597  0.1565  0.0068 -0.0520
 6032SOL    HW129732   4.006   0.887   8.542  0.8439  0.6292  0.8875
 6032SOL    HW229733   3.901   0.981   8.575 -1.3523 -0.4372 -0.0074
 6033SOL     OW29734   0.965   2.817   6.642  0.3518  0.8318 -0.2212
 6033SOL    HW129735   1.031   2.769   6.593  1.1639  1.1261  0.5741
 6033SOL    HW229736   0.978   2.908   6.615 -0.0316  1.1640  0.7082
 6034SOL     OW29737   0.752   1.216   3.289  1.1123 -0.3375 -0.0198
 6034SOL    HW129738   0.674   1.166   3.266  0.1614  1.3860 -0.5784
 6034SOL    HW229739   0.790   1.244   3.206 -0.1851  1.7174  0.0583
 6035SOL     OW29740   3.299   2.603   6.973 -0.0079 -0.2832  0.4116
 6035SOL    HW129741   3.236   2.531   6.968  0.0474 -0.4013  1.4547
 6035SOL    HW229742   3.349   2.580   6.895 -1.4487  1.0632 -0.9183
 6036SOL     OW29743   2.510   1.986   7.961 -0.7668 -0.6408  0.4837
 6036SOL    HW129744   2.536   1.909   7.911  2.1023  0.0984  0.8540
 6036SOL    HW229745   2.591   2.036   7.970 -0.0021 -1.2553 -3.1410
 6037SOL     OW29746   0.882   2.971  15.692  0.2449  0.1252 -0.2458
 6037SOL    HW129747   0.812   2.982  15.627  0.1547  1.9811  0.1817
 6037SOL    HW229748   0.943   2.917  15.641  1.0667 -0.4443  1.3547
 6038SOL     OW29749   1.468   1.392   5.658 -0.4002  0.4280  0.0250
 6038SOL    HW129750   1.410   1.446   5.712  1.2755  1.6900  0.5744
 6038SOL    HW229751   1.425   1.307   5.664 -0.4810  0.5731  1.4867
 6039SOL     OW29752   3.827   0.552  12.511  0.2959  0.7155 -0.0622
 6039SOL    HW129753   3.813   0.464  12.476 -0.5118  0.7615  0.1450
 6039SOL    HW229754   3.752   0.564  12.569  0.3457 -0.8463  0.3269
 6040SOL     OW29755   0.300   0.101   4.278  0.4521 -0.6293 -0.1644
 6040SOL    HW129756   0.356   0.089   4.201  0.0491 -1.1884 -0.3643
 6040SOL    HW229757   0.337   0.182   4.314 -1.1621 -0.5917  1.3902
 6041SOL     OW29758   3.241   3.952   2.002 -0.1032 -0.8009  0.3935
 6041SOL    HW129759   3.192   3.881   2.044  0.8632 -0.2132  2.5036
 6041SOL    HW229760   3.163   3.991   1.962  1.0266  1.7979  0.7466
 6042SOL     OW29761   2.890   2.752   4.332  0.4682  0.4414 -0.1759
 6042SOL    HW129762   2.865   2.706   4.252  0.6157 -0.3123  0.2112
 6042SOL    HW229763   2.947   2.683   4.364 -0.0026 -0.3556 -1.0783
 6043SOL     OW29764   0.722   4.250   9.877  0.2540  0.2356  0.0656
 6043SOL    HW129765   0.811   4.226   9.903 -0.4551  0.0357  2.2824
 6043SOL    HW229766   0.700   4.332   9.921  2.9439  0.4008  1.0973
 6044SOL     OW29767   2.366   2.824   3.323  0.2519  0.1960 -0.0779
 6044SOL    HW129768   2.272   2.819   3.340  0.6638  0.1706  2.1967
 6044SOL    HW229769   2.378   2.918   3.339  0.3354  0.0803  0.5335
 6045SOL     OW29770   4.725   0.730   6.570  0.1659  0.0266 -0.1409
 6045SOL    HW129771   4.666   0.687   6.507 -0.2417  0.7457 -0.2512
 6045SOL    HW229772   0.025   0.799   6.512 -2.1583  1.0876 -0.2579
 6046SOL     OW29773   1.747   1.714  11.184 -0.1125 -0.0477  0.3991
 6046SOL    HW129774   1.792   1.632  11.163  0.7991  1.3248 -3.0878
 6046SOL    HW229775   1.792   1.765  11.117 -0.9844  1.8889  1.3043
 6047SOL     OW29776   4.295   3.964  11.688 -0.1082 -0.2450 -0.0521
 6047SOL    HW129777   4.213   3.918  11.707  0.3923 -1.2888 -0.4420
 6047SOL    HW229778   4.248   4.046  11.672 -2.6849 -1.7105 -0.1039
 6048SOL     OW29779   0.174   1.514  14.613  0.3957 -0.4043  0.1678
 6048SOL    HW129780   0.212   1.576  14.550  0.4390 -1.7404 -1.1350
 6048SOL    HW229781   0.208   1.430  14.583  0.4823 -0.9339  1.8002
 6049SOL     OW29782   2.811   2.943   6.845  0.2659 -0.5359 -0.1693
 6049SOL    HW129783   2.853   3.028   6.836 -0.3559 -0.3032 -0.8418
 6049SOL    HW229784   2.724   2.973   6.871 -0.0227  0.2942 -2.0840
 6050SOL     OW29785   3.388   0.856   6.950 -0.1774 -0.1199 -0.4556
 6050SOL    HW129786   3.305   0.895   6.980  0.2837  0.0015  0.6492
 6050SOL    HW229787   3.431   0.934   6.917 -0.3282 -0.9800 -2.6691
 6051SOL     OW29788   1.720   0.254   6.969 -0.1278 -0.1014  0.8889
 6051SOL    HW129789   1.673   0.188   7.019  0.4067 -1.0798  0.1039
 6051SOL    HW229790   1.788   0.211   6.918  0.3006  0.1378  1.2659
 6052SOL     OW29791   1.036   2.154   3.174  0.0719 -0.3638  0.0622
 6052SOL    HW129792   0.997   2.125   3.091 -2.3772 -0.6101  1.3195
 6052SOL    HW229793   1.014   2.248   3.172  1.5869 -0.0200 -0.2691
 6053SOL     OW29794   4.038   0.944   6.610 -0.6791  0.0558 -0.1238
 6053SOL    HW129795   4.029   0.900   6.525  1.7307  0.5712 -0.6476
 6053SOL    HW229796   4.087   0.870   6.646  0.3700  1.0890  0.5735
 6054SOL     OW29797   4.245   3.010  11.160 -0.4166  0.0372  0.0403
 6054SOL    HW129798   4.184   2.943  11.192 -0.2558 -0.8444 -1.4812
 6054SOL    HW229799   4.308   2.949  11.122  0.3561  1.5448 -1.0883
 6055SOL     OW29800   0.149   3.627   2.302 -0.2563  0.1922  0.4677
 6055SOL    HW129801   0.235   3.661   2.327 -0.5146 -0.2277  1.9360
 6055SOL    HW229802   0.133   3.552   2.360 -1.4591 -0.4000 -0.6386
 6056SOL     OW29803   3.239   0.678   9.229  0.3869 -0.3223  0.3530
 6056SOL    HW129804   3.284   0.631   9.159 -1.4902 -2.2040  0.4141
 6056SOL    HW229805   3.227   0.604   9.289  0.3913  0.5776  1.4716
 6057SOL     OW29806   3.305   4.121  11.555 -0.2205  0.0358 -0.1950
 6057SOL    HW129807   3.244   4.189  11.585  0.4658  0.4312  0.3045
 6057SOL    HW229808   3.345   4.160  11.478 -1.9256  1.1484 -0.5160
 6058SOL     OW29809   3.943   1.453   0.664  0.3743  0.3733 -0.5341
 6058SOL    HW129810   3.873   1.478   0.604 -0.8812 -1.4005  0.1900
 6058SOL    HW229811   3.925   1.503   0.744 -1.4343  0.9304 -1.2877
 6059SOL     OW29812   4.612   4.242  16.816  0.3004  0.2222 -0.1967
 6059SOL    HW129813   4.659   4.181  16.759 -1.9069 -1.7021  0.0500
 6059SOL    HW229814   4.537   4.262  16.761  0.6044 -0.6855 -0.9519
 6060SOL     OW29815   1.464   3.191   5.943  0.0946 -0.1838  0.1884
 6060SOL    HW129816   1.518   3.227   5.873 -1.4631  1.6473 -0.0747
 6060SOL    HW229817   1.384   3.163   5.899  0.1407  0.6821 -0.4427
 6061SOL     OW29818   4.432   1.358  13.614 -0.2844  0.4207 -0.0351
 6061SOL    HW129819   4.498   1.418  13.650  0.9961 -0.2148 -1.3324
 6061SOL    HW229820   4.397   1.406  13.539  0.2497  0.6906 -0.1129
 6062SOL     OW29821   1.770   3.090  11.015 -0.1583 -0.0969  0.6517
 6062SOL    HW129822   1.793   2.998  11.003  0.6034  0.3184 -0.9900
 6062SOL    HW229823   1.764   3.128  10.928 -1.4867 -1.2141  0.2562
 6063SOL     OW29824   3.059   0.038   7.279  0.0836 -0.1604 -0.1117
 6063SOL    HW129825   3.005   4.726   7.343  1.1468 -0.3202  0.6857
 6063SOL    HW229826   3.059   0.131   7.301  0.8105 -0.3057  0.5134
 6064SOL     OW29827   0.929   0.919  17.210  0.2762 -0.3441 -0.0632
 6064SOL    HW129828   0.905   0.902  17.119 -0.4299 -0.8299  0.2197
 6064SOL    HW229829   0.989   0.845  17.222  1.6215  0.3665 -2.3905
 6065SOL     OW29830   3.791   3.168   8.579  0.3438 -0.5041  0.4498
 6065SOL    HW129831   3.781   3.249   8.630  2.6517 -0.0718  0.2111
 6065SOL    HW229832   3.727   3.184   8.509  0.1636 -1.2992  0.4294
 6066SOL     OW29833   1.484   2.332   2.643 -0.0790  0.0192  0.0533
 6066SOL    HW129834   1.417   2.324   2.575 -0.7047 -0.9792  0.7886
 6066SOL    HW229835   1.456   2.403   2.701 -1.0538  0.3781 -0.8697
 6067SOL     OW29836   0.762   4.318   9.355 -0.6434 -0.4597  0.1753
 6067SOL    HW129837   0.757   4.414   9.346  2.8278 -0.1085  1.9180
 6067SOL    HW229838   0.852   4.309   9.325 -0.0171  1.8056  1.3280
 6068SOL     OW29839   4.471   1.402   3.439 -0.2028  0.1131 -0.4510
 6068SOL    HW129840   4.550   1.454   3.457 -1.4857  2.5432 -1.9401
 6068SOL    HW229841   4.451   1.428   3.349 -0.3178  3.7122  0.6336
 6069SOL     OW29842   3.059   3.739   6.293  0.0283  0.9385 -0.5694
 6069SOL    HW129843   3.144   3.742   6.249  1.4245 -1.4734  1.9674
 6069SOL    HW229844   3.073   3.650   6.324  1.1802  1.4505  0.3656
 6070SOL     OW29845   3.594   2.455   2.883 -0.3331  0.0622  0.4975
 6070SOL    HW129846   3.518   2.492   2.837  0.7228  2.6654  0.8031
 6070SOL    HW229847   3.570   2.471   2.974  0.7982  0.8804  0.6617
 6071SOL     OW29848   0.155   0.846   8.689  0.3614  0.2795 -0.8519
 6071SOL    HW129849   0.168   0.779   8.757  0.7365  1.1937 -0.0285
 6071SOL    HW229850   0.214   0.912   8.726  1.1054 -0.3613 -0.9019
 6072SOL     OW29851   2.147   2.988   4.421 -0.1925 -0.0668  0.2279
 6072SOL    HW129852   2.054   2.977   4.438 -0.7065  3.0378 -0.6006
 6072SOL    HW229853   2.163   2.940   4.340  1.3371  1.1562 -0.2084
 6073SOL     OW29854   1.256   2.209   2.894  0.3004 -0.1463  0.0844
 6073SOL    HW129855   1.305   2.130   2.918  1.3410  1.1998  2.3860
 6073SOL    HW229856   1.165   2.180   2.897  0.1900  0.1258 -0.7112
 6074SOL     OW29857   3.682   0.280   2.658  0.0707  0.6196 -0.5763
 6074SOL    HW129858   3.649   0.192   2.646  0.3033 -0.0077  3.2197
 6074SOL    HW229859   3.776   0.278   2.637  0.1067  0.7468 -0.4344
 6075SOL     OW29860   1.640   4.511  16.088 -0.1161 -0.3406 -0.1830
 6075SOL    HW129861   1.578   4.492  16.017 -1.5253 -0.4976  1.0751
 6075SOL    HW229862   1.626   4.602  16.115  1.1478 -0.1997 -0.0043
 6076SOL     OW29863   0.687   1.541  16.838  0.7268  0.4745  0.1183
 6076SOL    HW129864   0.625   1.528  16.910  0.6813  0.3921  0.0631
 6076SOL    HW229865   0.633   1.498  16.773  1.4675  1.4195 -1.1206
 6077SOL     OW29866   2.389   2.769   7.755  0.3731  0.1029  0.1377
 6077SOL    HW129867   2.320   2.753   7.820 -0.0760 -0.8335 -0.5725
 6077SOL    HW229868   2.394   2.865   7.752  0.0060  0.0920 -1.0296
 6078SOL     OW29869   4.307   0.219   2.219  0.0329  0.7464 -0.6029
 6078SOL    HW129870   4.360   0.228   2.299  0.9826 -2.8669 -0.8138
 6078SOL    HW229871   4.227   0.269   2.231  1.1696  2.4863 -0.2040
 6079SOL     OW29872   0.688   3.630   9.576 -0.4820 -1.2919 -0.2959
 6079SOL    HW129873   0.609   3.584   9.605 -0.9446  1.3375  2.6164
 6079SOL    HW229874   0.700   3.682   9.655  1.0305 -0.4396 -1.0870
 6080SOL     OW29875   0.785   3.603   4.800  0.0740 -0.6852  0.4505
 6080SOL    HW129876   0.731   3.678   4.825 -1.0004 -1.7347  1.3365
 6080SOL    HW229877   0.724   3.536   4.767 -1.1299  1.1397 -1.0451
 6081SOL     OW29878   4.583   2.190  16.650 -0.0252  0.3166  0.5144
 6081SOL    HW129879   4.494   2.221  16.668 -1.3544 -1.5787 -2.7369
 6081SOL    HW229880   4.635   2.246  16.707 -0.8667  0.5226  1.0844
 6082SOL     OW29881   1.430   4.177   5.338 -0.1231  0.4418  0.0246
 6082SOL    HW129882   1.363   4.203   5.275 -1.4560 -0.9097  0.8981
 6082SOL    HW229883   1.511   4.187   5.287 -1.1968 -0.6983 -1.9079
 6083SOL     OW29884   1.413   2.897   3.249  0.3631  0.2021 -0.0628
 6083SOL    HW129885   1.506   2.884   3.270  0.2609  1.2546  1.1101
 6083SOL    HW229886   1.393   2.804   3.243  0.2495  0.3359 -1.8132
 6084SOL     OW29887   2.777   0.539   5.715  0.3753 -0.4149 -0.1243
 6084SOL    HW129888   2.685   0.521   5.729  0.1841 -0.3541 -1.2474
 6084SOL    HW229889   2.807   0.590   5.790 -1.7965 -1.0039  1.1059
 6085SOL     OW29890   0.692   2.923  11.015 -0.2806  0.3630 -0.2574
 6085SOL    HW129891   0.682   3.014  11.043  1.1963  0.4871 -0.1574
 6085SOL    HW229892   0.647   2.865  11.077  0.8401  0.7937  0.9301
 6086SOL     OW29893   2.482   2.172   4.445 -0.0644 -0.0111  0.1520
 6086SOL    HW129894   2.412   2.167   4.379  1.5649 -0.9040 -1.5211
 6086SOL    HW229895   2.448   2.134   4.526  1.1225 -0.0894  0.6135
 6087SOL     OW29896   1.596   0.951  12.116 -0.1860  0.5802  0.3406
 6087SOL    HW129897   1.580   0.974  12.024  0.8987 -0.4642 -0.1213
 6087SOL    HW229898   1.634   0.864  12.103 -1.8942 -0.3663  1.6413
 6088SOL     OW29899   2.739   3.324   8.414  0.5231  0.5943 -0.4197
 6088SOL    HW129900   2.762   3.416   8.405  3.1903 -0.0365  0.1478
 6088SOL    HW229901   2.791   3.283   8.345  1.0342 -0.4042  0.5737
 6089SOL     OW29902   1.356   0.471  16.802  0.2411 -0.2566  0.3896
 6089SOL    HW129903   1.369   0.390  16.754 -0.4831  0.3712 -0.8549
 6089SOL    HW229904   1.448   0.495  16.817 -0.1872  2.7152 -1.7246
 6090SOL     OW29905   1.416   1.016   5.471  0.0996  0.2245  0.7714
 6090SOL    HW129906   1.472   0.945   5.502 -1.4036 -1.0511  0.5117
 6090SOL    HW229907   1.408   1.060   5.557 -0.8918 -0.5741  1.0884
 6091SOL     OW29908   4.241   3.799   4.671 -0.1017 -0.5070 -0.2944
 6091SOL    HW129909   4.332   3.824   4.681 -0.4638  1.1725 -1.1979
 6091SOL    HW229910   4.247   3.743   4.593  0.5630  0.9608 -1.2953
 6092SOL     OW29911   3.258   0.879   1.743 -0.0078 -0.1718 -0.0497
 6092SOL    HW129912   3.191   0.847   1.804 -0.7988 -0.3812 -1.0207
 6092SOL    HW229913   3.310   0.943   1.792  0.2493 -1.0865  0.8598
 6093SOL     OW29914   3.543   0.573   4.920  0.3960 -0.0774  0.7224
 6093SOL    HW129915   3.517   0.599   5.009 -1.6327  1.2070 -0.2398
 6093SOL    HW229916   3.620   0.626   4.903  1.2065 -1.8927 -1.3730
 6094SOL     OW29917   1.802   4.123  11.287 -0.3506 -0.1101  0.2386
 6094SOL    HW129918   1.861   4.088  11.353  2.6557  2.2357 -1.2205
 6094SOL    HW229919   1.782   4.210  11.321 -0.6054  0.1760 -0.6360
 6095SOL     OW29920   2.594   1.694   6.143 -0.7231  0.3400 -0.4685
 6095SOL    HW129921   2.593   1.741   6.227  1.2409  1.7111 -1.2198
 6095SOL    HW229922   2.569   1.768   6.088  0.4332 -0.5767 -2.2076
 6096SOL     OW29923   1.074   0.248  10.996 -0.3168 -0.5369  0.0626
 6096SOL    HW129924   1.076   0.330  10.948 -0.0594  0.1808  1.3003
 6096SOL    HW229925   1.160   0.246  11.037  0.5671 -0.9793 -1.7865
 6097SOL     OW29926   3.096   0.630   4.034 -0.1779  0.4950 -0.0378
 6097SOL    HW129927   3.118   0.671   3.950 -0.1925 -1.3117 -0.9204
 6097SOL    HW229928   3.140   0.547   4.014  0.5553  1.0803 -0.8834
 6098SOL     OW29929   2.018   0.066  15.961 -0.1531  0.0970 -0.3169
 6098SOL    HW129930   1.984   4.724  16.008 -2.7084  1.3277 -0.1422
 6098SOL    HW229931   1.950   0.093  15.900 -1.0062  0.0999  0.6330
 6099SOL     OW29932   0.701   4.605   5.844  0.0802 -0.4727  0.1336
 6099SOL    HW129933   0.710   4.653   5.762  1.5575 -0.7083  0.1547
 6099SOL    HW229934   0.778   4.633   5.893  1.1489 -0.5951 -1.4665
 6100SOL     OW29935   2.159   0.605  11.444  0.0691  0.1502 -0.8003
 6100SOL    HW129936   2.136   0.696  11.463  0.2664  0.1737 -0.6722
 6100SOL    HW229937   2.138   0.564  11.528 -0.5692  1.9584 -0.0699
 6101SOL     OW29938   4.329   2.388   4.273 -0.5107  0.3194  0.5540
 6101SOL    HW129939   4.364   2.432   4.195  0.1066 -1.0898  0.0329
 6101SOL    HW229940   4.320   2.470   4.321  0.2042  0.9271 -0.3561
 6102SOL     OW29941   0.518   1.709  12.930 -0.1509 -0.3947 -0.2724
 6102SOL    HW129942   0.540   1.689  12.839  0.2606  0.9204 -0.4613
 6102SOL    HW229943   0.439   1.763  12.927 -0.5758 -0.9597  0.8978
 6103SOL     OW29944   4.132   4.209   4.516  0.2950  0.0432  0.0796
 6103SOL    HW129945   4.060   4.228   4.576 -0.5790 -0.1502 -0.9129
 6103SOL    HW229946   4.124   4.282   4.454  1.7334  0.6813  0.6183
 6104SOL     OW29947   1.538   3.728   8.903  0.4445 -0.1578 -0.1937
 6104SOL    HW129948   1.498   3.735   8.989 -1.2736 -1.1546 -0.9035
 6104SOL    HW229949   1.465   3.743   8.843  0.2379 -0.5536 -0.0422
 6105SOL     OW29950   1.349   0.802   5.116 -0.1690 -0.5260 -0.2733
 6105SOL    HW129951   1.337   0.894   5.140 -1.8601 -0.3764 -1.6444
 6105SOL    HW229952   1.418   0.780   5.179 -0.7806 -0.5641  0.3857
 6106SOL     OW29953   1.557   1.179   4.295  0.7458 -0.4611 -0.2220
 6106SOL    HW129954   1.566   1.086   4.275  0.9335 -1.0824  2.8158
 6106SOL    HW229955   1.493   1.175   4.366  0.4764  2.5790 -0.2876
 6107SOL     OW29956   2.122   3.094  11.549 -0.0735 -0.2595 -0.1659
 6107SOL    HW129957   2.145   3.002  11.558  1.0094  0.0840  0.6132
 6107SOL    HW229958   2.030   3.075  11.535 -0.5367  0.1022  2.3491
 6108SOL     OW29959   1.700   4.514  10.467  0.4699  0.5016 -0.0635
 6108SOL    HW129960   1.732   4.430  10.499  1.2524  0.7262 -0.2473
 6108SOL    HW229961   1.682   4.489  10.376  0.9151  0.4478 -0.1360
 6109SOL     OW29962   3.161   3.638   2.998  0.6420 -0.0434  0.1545
 6109SOL    HW129963   3.197   3.726   2.999  0.7416 -0.0857  0.3019
 6109SOL    HW229964   3.203   3.597   3.074 -1.1022  2.7182  2.5947
 6110SOL     OW29965   3.873   2.053   6.828  0.1457  0.0464  0.2665
 6110SOL    HW129966   3.906   1.965   6.814  0.3311 -0.1498  1.9615
 6110SOL    HW229967   3.943   2.094   6.777 -1.0113 -0.6475 -1.8565
 6111SOL     OW29968   2.802   1.264   5.059 -0.7331 -0.8320  0.1848
 6111SOL    HW129969   2.736   1.329   5.034 -0.2484 -0.5133 -0.2934
 6111SOL    HW229970   2.756   1.181   5.061 -1.3939 -0.5076 -0.9397
 6112SOL     OW29971   1.449   0.370   3.597  0.7648  0.0464 -0.3389
 6112SOL    HW129972   1.512   0.380   3.668 -2.3017  1.7026  2.1033
 6112SOL    HW229973   1.379   0.427   3.628  1.9952  1.3800 -0.0574
 6113SOL     OW29974   4.199   2.408   7.692  0.0301  0.4901 -0.3106
 6113SOL    HW129975   4.142   2.459   7.634 -0.0647  0.0003 -0.6480
 6113SOL    HW229976   4.283   2.439   7.659 -0.5597  0.7089 -1.5740
 6114SOL     OW29977   3.659   4.378  17.204 -0.0081  0.2723 -0.2058
 6114SOL    HW129978   3.667   4.448  17.139 -1.6600 -0.2486 -0.9785
 6114SOL    HW229979   3.720   4.322  17.155  0.4115  0.5213  0.0351
 6115SOL     OW29980   3.922   3.885   5.166  0.1111 -0.1809 -0.2998
 6115SOL    HW129981   3.875   3.969   5.166 -0.4285 -0.4800  0.6660
 6115SOL    HW229982   3.849   3.828   5.192 -1.1825  2.0509  0.9685
 6116SOL     OW29983   1.346   4.278   7.900  0.4045 -0.4168 -0.0648
 6116SOL    HW129984   1.405   4.203   7.907 -1.4402 -1.7599  0.8809
 6116SOL    HW229985   1.266   4.227   7.909 -1.3986  1.8446 -3.1184
 6117SOL     OW29986   4.688   2.630   1.464  0.4566 -0.7714 -0.1179
 6117SOL    HW129987   4.722   2.548   1.500  0.9835 -1.4320 -2.0980
 6117SOL    HW229988   4.673   2.688   1.538 -1.9992  0.6098 -1.6890
 6118SOL     OW29989   3.710   3.750  13.638  0.2045 -0.6697  0.5275
 6118SOL    HW129990   3.694   3.841  13.615  0.9413  0.1187  3.0703
 6118SOL    HW229991   3.741   3.717  13.553 -1.4084 -2.8562  0.7912
 6119SOL     OW29992   2.802   3.535   1.451 -0.2605  0.0809  0.0926
 6119SOL    HW129993   2.722   3.586   1.462 -0.0485  0.2717  0.7474
 6119SOL    HW229994   2.838   3.548   1.539 -2.1444 -2.5338  1.2621
 6120SOL     OW29995   3.662   1.204   1.707 -0.0594  0.2898 -0.5728
 6120SOL    HW129996   3.600   1.275   1.721 -1.2664 -1.1323  1.2962
 6120SOL    HW229997   3.744   1.253   1.700  1.0196 -1.5075 -0.6035
 6121SOL     OW29998   1.851   2.428   8.022  0.2507 -0.3577  0.2346
 6121SOL    HW129999   1.791   2.428   8.096  0.6878 -3.6504  0.5718
 6121SOL    HW230000   1.881   2.337   8.015 -0.7378 -0.5867 -1.1254
 6122SOL     OW30001   1.622   0.951   6.075  0.2430  0.0568  0.1326
 6122SOL    HW130002   1.643   0.858   6.080  0.9867  0.2162  0.0247
 6122SOL    HW230003   1.685   0.983   6.010 -0.4410  0.0031 -0.5636
 6123SOL     OW30004   0.550   1.053   3.166  0.6107  0.1222  0.0232
 6123SOL    HW130005   0.581   1.024   3.080  0.4155  2.6014 -0.8705
 6123SOL    HW230006   0.469   1.002   3.171  0.2276  1.0804  3.1635
 6124SOL     OW30007   1.124   1.122  17.301 -0.0590 -0.2623  0.2899
 6124SOL    HW130008   1.183   1.081  17.238 -1.6238 -0.7824 -0.8547
 6124SOL    HW230009   1.050   1.065  17.284 -0.8520  0.7383  0.3525
 6125SOL     OW30010   0.008   2.091   3.289 -0.0048  0.4587  0.6174
 6125SOL    HW130011   4.664   2.146   3.284 -0.5190 -0.3057  0.3546
 6125SOL    HW230012   0.073   2.156   3.262 -1.8040  0.0715 -4.5894
 6126SOL     OW30013   4.495   3.819   6.808 -0.0793  0.6146  0.5278
 6126SOL    HW130014   4.494   3.905   6.850 -0.4457  0.6113  0.5274
 6126SOL    HW230015   4.405   3.794   6.831  0.0867 -2.5028 -2.1277
 6127SOL     OW30016   0.212   3.211  14.977  0.4068 -0.3618 -0.0732
 6127SOL    HW130017   0.293   3.252  15.006 -0.2927 -0.3225  1.8090
 6127SOL    HW230018   0.235   3.139  14.918 -0.3608 -0.0901 -0.6999
 6128SOL     OW30019   1.642   0.922  13.225  0.6947  0.0249  0.6035
 6128SOL    HW130020   1.702   0.974  13.172  0.5625  0.1221  0.5491
 6128SOL    HW230021   1.705   0.856  13.255  0.8432 -0.2696 -0.3361
 6129SOL     OW30022   2.510   2.284   5.549  0.1490 -0.4098 -0.3328
 6129SOL    HW130023   2.472   2.219   5.490 -0.4504 -0.8947  0.5987
 6129SOL    HW230024   2.523   2.225   5.622  1.3066  3.1489  2.3250
 6130SOL     OW30025   2.722   1.499   0.985 -0.1458 -0.4284 -0.2844
 6130SOL    HW130026   2.729   1.523   0.893  0.0806  2.7422  0.5640
 6130SOL    HW230027   2.668   1.421   0.978  1.8463 -1.8758  0.4141
 6131SOL     OW30028   0.773   2.594   2.455  0.1310 -0.4316 -0.1976
 6131SOL    HW130029   0.821   2.590   2.372 -0.4164 -0.0086 -0.5279
 6131SOL    HW230030   0.836   2.606   2.526 -3.4928 -2.4288  3.3409
 6132SOL     OW30031   0.263   2.651   8.764 -0.3978 -0.3054 -0.1648
 6132SOL    HW130032   0.315   2.713   8.713 -0.8413 -0.3993 -0.7300
 6132SOL    HW230033   0.295   2.664   8.853 -0.1677 -0.0751 -0.2832
 6133SOL     OW30034   0.334   3.070   5.840  0.2107 -0.5589  0.2296
 6133SOL    HW130035   0.377   3.029   5.916 -1.0973 -0.8181  0.8224
 6133SOL    HW230036   0.258   3.115   5.875  1.4193  0.8212  1.0643
 6134SOL     OW30037   2.128   1.927  14.417  0.1155  0.4730 -0.8342
 6134SOL    HW130038   2.038   1.902  14.438 -0.0260  0.0840 -1.8909
 6134SOL    HW230039   2.172   1.842  14.417  2.3001  1.6094  0.1845
 6135SOL     OW30040   4.040   2.086  11.405 -0.4376  0.4734  0.1835
 6135SOL    HW130041   3.983   2.162  11.411 -1.8519 -0.5566 -0.2904
 6135SOL    HW230042   3.971   2.020  11.407  0.8076 -0.8263  0.5583
 6136SOL     OW30043   2.918   0.265   5.885 -0.0513 -0.1378 -0.1797
 6136SOL    HW130044   2.996   0.307   5.847 -1.4159  1.7313 -0.9054
 6136SOL    HW230045   2.969   0.230   5.959  0.2355 -1.0173 -0.7952
 6137SOL     OW30046   2.210   3.596  10.181 -0.0488 -0.2439  0.3360
 6137SOL    HW130047   2.144   3.625  10.245  0.7977  3.0831 -0.2932
 6137SOL    HW230048   2.167   3.585  10.096 -1.4818  0.5486  0.9383
 6138SOL     OW30049   1.152   4.457   7.910  0.4745  0.3404 -0.0172
 6138SOL    HW130050   1.134   4.430   8.000  1.5573  1.8802  0.6745
 6138SOL    HW230051   1.224   4.400   7.883 -0.6192 -0.3520 -1.5090
 6139SOL     OW30052   3.715   3.746  16.376  0.1227 -0.1273 -0.2473
 6139SOL    HW130053   3.668   3.828  16.393 -2.1151 -1.2965 -0.8528
 6139SOL    HW230054   3.787   3.777  16.321  1.4091 -0.1446  1.4282
 6140SOL     OW30055   4.099   1.554   6.511 -0.2350  0.3066 -0.8332
 6140SOL    HW130056   4.105   1.563   6.416  1.2654  0.0382 -0.7598
 6140SOL    HW230057   4.174   1.601   6.547 -1.1241  0.6583  0.5378
 6141SOL     OW30058   3.161   2.955   6.423 -0.3848  0.1629  0.1950
 6141SOL    HW130059   3.138   2.903   6.346  0.4535 -2.5152  1.7465
 6141SOL    HW230060   3.165   2.882   6.484 -1.7965  0.9450  1.2187
 6142SOL     OW30061   2.187   2.015   3.559  0.0381  0.0692  0.5783
 6142SOL    HW130062   2.178   2.079   3.629  0.3461 -1.2713  1.8397
 6142SOL    HW230063   2.249   1.954   3.598 -0.0967  0.9881  2.1972
 6143SOL     OW30064   4.062   1.970  12.889 -0.0512 -0.0726 -0.5045
 6143SOL    HW130065   4.030   1.956  12.978 -2.0483 -1.2278 -1.4091
 6143SOL    HW230066   4.014   2.051  12.872  1.6260  1.1899  0.8602
 6144SOL     OW30067   1.095   4.328   7.254 -0.6679 -0.4864 -0.4749
 6144SOL    HW130068   1.042   4.253   7.228  1.2763 -2.0499  0.0657
 6144SOL    HW230069   1.086   4.390   7.181 -0.6909 -1.5136 -1.3443
 6145SOL     OW30070   2.110   4.185  14.114 -0.5569  0.2282  0.0826
 6145SOL    HW130071   2.197   4.213  14.142 -1.2498  0.1969  2.3078
 6145SOL    HW230072   2.145   4.098  14.095 -0.2610  0.7676 -1.8019
 6146SOL     OW30073   0.637   3.601   5.224  0.7043  0.1794  0.7401
 6146SOL    HW130074   0.636   3.639   5.312 -0.6862 -1.6869  1.5180
 6146SOL    HW230075   0.550   3.572   5.197  0.4175  2.1186 -0.4285
 6147SOL     OW30076   0.477   1.997   2.988 -0.3550  0.3484 -0.0448
 6147SOL    HW130077   0.423   2.004   3.067  0.0226  2.5806  0.0041
 6147SOL    HW230078   0.525   1.916   3.002 -1.4481 -0.4856 -1.1330
 6148SOL     OW30079   1.245   2.821   8.258 -0.1732 -0.2534 -0.2806
 6148SOL    HW130080   1.179   2.885   8.287 -0.7718 -0.4076 -1.2703
 6148SOL    HW230081   1.303   2.871   8.200  0.6270 -3.0475 -1.8533
 6149SOL     OW30082   4.516   2.661   6.239  0.2833  0.4831 -0.3218
 6149SOL    HW130083   4.452   2.726   6.211 -0.9268  0.1345  1.6254
 6149SOL    HW230084   4.547   2.623   6.156  0.1778 -3.2097  1.3292
 6150SOL     OW30085   3.968   2.983   0.178  0.2461 -0.0700 -0.1739
 6150SOL    HW130086   3.986   3.049   0.245 -0.7883  1.7001 -1.6522
 6150SOL    HW230087   3.872   2.988   0.177  0.2678 -0.3579 -2.8577
 6151SOL     OW30088   2.573   0.348   2.778  0.2067 -0.0155  0.2860
 6151SOL    HW130089   2.597   0.414   2.713 -0.3628 -0.6691 -0.5942
 6151SOL    HW230090   2.538   0.401   2.850  0.8051  0.0878  0.5004
 6152SOL     OW30091   0.697   2.196   5.870  0.3980  0.1786 -0.2146
 6152SOL    HW130092   0.693   2.141   5.948  2.6386 -0.9985 -0.9103
 6152SOL    HW230093   0.607   2.180   5.841  0.0065 -0.5833  1.4450
 6153SOL     OW30094   1.258   1.071   2.972  0.4115  0.3687  0.2795
 6153SOL    HW130095   1.203   1.080   3.050 -0.0777  0.2035 -0.0450
 6153SOL    HW230096   1.267   1.162   2.944 -0.3891  0.4192  0.1894
 6154SOL     OW30097   1.843   3.855   6.361  0.0849  0.9201  0.2146
 6154SOL    HW130098   1.840   3.891   6.272  0.7319 -0.2608 -0.2782
 6154SOL    HW230099   1.779   3.785   6.350 -0.6162  1.7103 -0.7188
 6155SOL     OW30100   1.098   3.556   9.362  0.1258 -0.1557 -0.5993
 6155SOL    HW130101   1.151   3.611   9.305 -0.1988  2.9073  2.0867
 6155SOL    HW230102   1.153   3.478   9.355 -1.3886 -1.3535  0.6867
 6156SOL     OW30103   2.030   3.049   5.258  0.4154  0.9198  0.1770
 6156SOL    HW130104   1.961   3.083   5.202  0.9878  0.9017 -0.5476
 6156SOL    HW230105   2.024   2.957   5.231  4.0020  0.8089 -0.3383
 6157SOL     OW30106   3.773   0.041   7.396  0.0970 -0.1195  0.5133
 6157SOL    HW130107   3.699   4.725   7.362  0.0758 -0.0764  0.4947
 6157SOL    HW230108   3.834   4.706   7.419  1.0341  0.0696 -1.4156
 6158SOL     OW30109   1.161   3.144   4.346  0.0001 -0.0327  0.1050
 6158SOL    HW130110   1.131   3.054   4.353 -1.3657  0.4247  0.0502
 6158SOL    HW230111   1.219   3.141   4.422  0.0712 -1.7821 -0.0209
 6159SOL     OW30112   2.091   0.058  12.019 -0.1456 -0.3900  0.5245
 6159SOL    HW130113   2.128   0.050  11.931 -3.5446  0.9904 -1.0522
 6159SOL    HW230114   2.095   4.702  12.048  2.9874  0.7145  3.4593
 6160SOL     OW30115   2.207   0.011   1.181  0.6209  0.1767 -0.6488
 6160SOL    HW130116   2.144   4.721   1.248 -0.2326 -0.6039 -1.7467
 6160SOL    HW230117   2.155   4.716   1.107 -0.7314  0.3763  0.2349
 6161SOL     OW30118   2.464   1.224  17.441 -0.4243 -0.4480  0.2188
 6161SOL    HW130119   2.534   1.257  17.496 -2.0288  1.1964  1.2643
 6161SOL    HW230120   2.478   1.260  17.354 -2.9661 -2.6282 -1.0891
 6162SOL     OW30121   0.777   1.364   8.077  0.5705  0.4982  0.4112
 6162SOL    HW130122   0.684   1.385   8.080  0.4657  0.5011 -2.2429
 6162SOL    HW230123   0.798   1.347   8.168 -0.4924 -0.7079  0.4287
 6163SOL     OW30124   0.409   1.735   1.892 -0.0690  0.0036  0.1364
 6163SOL    HW130125   0.343   1.687   1.842  0.0099 -1.1645  1.1488
 6163SOL    HW230126   0.476   1.725   1.825  0.0645  0.9880  0.1290
 6164SOL     OW30127   3.298   2.949  14.756 -0.5264  0.2853 -0.0901
 6164SOL    HW130128   3.371   2.964  14.696 -2.2633  1.2479 -1.9699
 6164SOL    HW230129   3.308   3.027  14.812 -0.2742  1.2848 -1.5430
 6165SOL     OW30130   1.929   3.707   1.993  0.4827  0.5504 -0.2841
 6165SOL    HW130131   1.998   3.713   2.058  2.2050  2.6876 -2.3343
 6165SOL    HW230132   1.916   3.801   1.976 -0.5796  0.4011 -0.2892
 6166SOL     OW30133   0.239   2.336   3.528 -0.0789 -0.7768  0.0342
 6166SOL    HW130134   0.306   2.277   3.496 -1.0169 -3.3776  2.8429
 6166SOL    HW230135   0.255   2.332   3.623  0.9310 -2.9561 -0.2295
 6167SOL     OW30136   3.145   0.935   2.175 -0.2171  0.1230 -0.2583
 6167SOL    HW130137   3.196   0.860   2.204  0.6460  1.0065  0.5204
 6167SOL    HW230138   3.108   0.905   2.092 -1.5331 -0.2154  0.4538
 6168SOL     OW30139   3.230   2.512   5.427 -0.1425 -0.1935  0.1609
 6168SOL    HW130140   3.154   2.556   5.465 -0.1154  0.2656 -0.3062
 6168SOL    HW230141   3.295   2.581   5.425 -2.2618  1.7638 -0.8839
 6169SOL     OW30142   0.314   0.585   3.012  0.7562  0.2194  0.1149
 6169SOL    HW130143   0.223   0.601   2.987  1.1150 -0.3782 -1.5954
 6169SOL    HW230144   0.298   0.505   3.062  2.0401 -0.1748 -0.0811
 6170SOL     OW30145   2.648   2.738   9.712 -0.4950 -0.1837 -0.2263
 6170SOL    HW130146   2.602   2.764   9.792 -0.1032 -3.3568  1.0236
 6170SOL    HW230147   2.635   2.817   9.660  2.5908  1.5026  1.5252
 6171SOL     OW30148   0.500   3.442   3.072 -0.1820  0.4084  0.1737
 6171SOL    HW130149   0.462   3.380   3.010 -0.1242  2.9680 -2.4627
 6171SOL    HW230150   0.465   3.413   3.156 -0.3256  0.5989  0.1798
 6172SOL     OW30151   0.951   2.455   2.781  0.1025  0.3357 -0.3010
 6172SOL    HW130152   0.891   2.387   2.752  0.6680 -1.5822  3.0200
 6172SOL    HW230153   0.951   2.439   2.875 -0.4694 -0.1783 -0.3910
 6173SOL     OW30154   1.984   0.299  16.121  0.0190 -0.0066 -0.5243
 6173SOL    HW130155   1.991   0.227  16.058 -0.1620 -0.8425  0.4093
 6173SOL    HW230156   2.029   0.368  16.073  1.8516 -0.0680  1.0825
 6174SOL     OW30157   1.410   4.400   2.777 -0.0945  0.1873  0.0589
 6174SOL    HW130158   1.506   4.401   2.782 -0.0607 -2.6458 -0.1896
 6174SOL    HW230159   1.402   4.336   2.706  1.7283 -1.2365  1.1298
 6175SOL     OW30160   3.186   3.277   7.960  0.2837 -0.4523  0.4864
 6175SOL    HW130161   3.240   3.221   7.906 -0.4939 -1.6116  0.9111
 6175SOL    HW230162   3.255   3.308   8.018  0.5206  2.5754 -1.4081
 6176SOL     OW30163   4.419   0.314  12.366 -0.0427  0.1927 -0.4971
 6176SOL    HW130164   4.504   0.286  12.330 -0.0051 -0.6591  0.2488
 6176SOL    HW230165   4.360   0.264  12.310  1.9793 -0.7940 -1.7741
 6177SOL     OW30166   0.609   4.636   3.822 -0.5439  0.5064 -0.6528
 6177SOL    HW130167   0.644   4.618   3.735  0.4720 -2.8469  0.4565
 6177SOL    HW230168   0.621   4.551   3.865 -1.0041  0.6969 -0.1496
 6178SOL     OW30169   0.311   1.896   6.098 -0.3759 -0.2273 -0.3387
 6178SOL    HW130170   0.397   1.880   6.136 -0.6791  0.0644  0.4608
 6178SOL    HW230171   0.324   1.862   6.009  1.2779 -2.1121  0.6233
 6179SOL     OW30172   3.720   3.247   1.267  0.2693 -0.7936 -0.2036
 6179SOL    HW130173   3.794   3.307   1.258 -0.3201  0.4124  2.8722
 6179SOL    HW230174   3.760   3.195   1.337 -0.2276 -0.3448  0.4089
 6180SOL     OW30175   0.579   4.691   2.148 -0.5837  0.0288 -0.4186
 6180SOL    HW130176   0.657   0.011   2.138 -1.0201  0.9927  1.4115
 6180SOL    HW230177   0.612   4.602   2.155  0.2469  0.3830  0.0929
 6181SOL     OW30178   2.012   0.369   2.572  0.2856  0.4859 -0.1058
 6181SOL    HW130179   1.990   0.425   2.646 -0.5588 -0.4194  0.3326
 6181SOL    HW230180   1.988   0.282   2.606  0.6713  0.3185 -0.2600
 6182SOL     OW30181   1.822   2.820   2.735 -0.2673 -0.0556  0.0367
 6182SOL    HW130182   1.783   2.899   2.698 -0.1869  0.4830  1.0981
 6182SOL    HW230183   1.757   2.756   2.707  0.0852  1.0754 -3.3840
 6183SOL     OW30184   2.072   0.193   3.338 -0.2243  0.5617 -0.1805
 6183SOL    HW130185   2.153   0.147   3.362  0.8338  2.0723 -0.8427
 6183SOL    HW230186   2.014   0.118   3.349  2.7378 -1.6502  0.2771
 6184SOL     OW30187   2.094   2.905   7.417  0.6625  0.1302  0.0511
 6184SOL    HW130188   2.113   2.867   7.331  3.3553  0.2330  0.5865
 6184SOL    HW230189   2.007   2.941   7.397  0.7493  1.5635  2.2864
 6185SOL     OW30190   3.470   4.354   2.893 -0.0944 -0.3357 -0.8004
 6185SOL    HW130191   3.470   4.273   2.842  1.6783  0.5484 -2.1507
 6185SOL    HW230192   3.527   4.408   2.839  0.4197  1.3727  1.4658
 6186SOL     OW30193   4.388   3.448   2.810  0.4617  0.4725 -0.3414
 6186SOL    HW130194   4.352   3.413   2.891  2.3731 -2.5710 -0.8051
 6186SOL    HW230195   4.397   3.379   2.744  0.7018  0.8260 -0.6777
 6187SOL     OW30196   1.130   1.982  12.574  0.5885  0.4042  0.2878
 6187SOL    HW130197   1.077   2.060  12.561 -0.5928 -0.8228 -2.1241
 6187SOL    HW230198   1.211   2.022  12.543  0.7199 -1.9522 -2.3238
 6188SOL     OW30199   0.732   0.774   2.004  0.0020 -0.6265 -0.1801
 6188SOL    HW130200   0.656   0.789   2.060 -0.8343 -2.2001 -0.8798
 6188SOL    HW230201   0.780   0.855   2.017 -0.3806 -0.4322 -0.0009
 6189SOL     OW30202   3.770   3.181   3.167 -0.0052  0.2117 -0.2217
 6189SOL    HW130203   3.797   3.101   3.121 -2.2083  0.0289 -1.1868
 6189SOL    HW230204   3.824   3.154   3.241  0.6042  0.4361 -0.5787
 6190SOL     OW30205   3.283   0.723   6.080 -0.6762 -0.1478  0.5275
 6190SOL    HW130206   3.272   0.764   5.994  2.4866 -1.2024 -0.3611
 6190SOL    HW230207   3.354   0.782   6.104  1.4273 -2.3565 -0.3184
 6191SOL     OW30208   2.416   3.521   6.494 -0.2936  0.3448 -0.2917
 6191SOL    HW130209   2.476   3.594   6.474  0.3996 -0.0830  0.2170
 6191SOL    HW230210   2.353   3.561   6.554 -0.5402 -0.2858 -0.1306
 6192SOL     OW30211   0.494   1.127   3.456  0.3748  0.6241 -0.2382
 6192SOL    HW130212   0.541   1.044   3.440 -1.4733 -0.8488  2.0245
 6192SOL    HW230213   0.435   1.118   3.381 -1.5738  1.8756  1.1663
 6193SOL     OW30214   1.514   2.759  17.623 -0.2947  0.6335  0.4182
 6193SOL    HW130215   1.496   2.819  17.551  0.8620  1.2801  0.6681
 6193SOL    HW230216   1.427   2.754  17.664 -0.2460 -1.4626  0.2605
 6194SOL     OW30217   2.413   0.783  11.741 -0.9265  0.2668  0.4757
 6194SOL    HW130218   2.383   0.871  11.718 -2.1460 -0.0764  0.7803
 6194SOL    HW230219   2.501   0.799  11.777 -0.8151  2.5556 -0.7942
 6195SOL     OW30220   3.236   0.319   3.347 -0.0608  0.1235  0.2111
 6195SOL    HW130221   3.288   0.241   3.368 -0.0314  0.5273  1.6262
 6195SOL    HW230222   3.271   0.317   3.258  1.7700 -0.6907  0.9570
 6196SOL     OW30223   3.720   2.567   2.468  0.0591  0.8099  0.5809
 6196SOL    HW130224   3.638   2.592   2.426  0.3956  0.7567 -0.1032
 6196SOL    HW230225   3.765   2.651   2.466  1.8182 -0.0318  3.7626
 6197SOL     OW30226   2.298   3.683   6.708 -0.1756  0.4399  0.1856
 6197SOL    HW130227   2.203   3.672   6.702  0.1939 -2.6782 -0.2977
 6197SOL    HW230228   2.301   3.762   6.655  1.4855  0.0707 -0.2678
 6198SOL     OW30229   0.388   4.393   4.936  0.2095  0.4152  0.0373
 6198SOL    HW130230   0.378   4.483   4.903  2.1641  0.9562  0.8933
 6198SOL    HW230231   0.408   4.350   4.852 -0.7282 -0.8518  0.4712
 6199SOL     OW30232   0.511   0.250  17.732  0.3583 -0.4958 -0.1047
 6199SOL    HW130233   0.433   0.230  17.680  0.6403 -1.4297 -0.1670
 6199SOL    HW230234   0.520   0.167   0.042 -2.2024 -0.5996  0.2415
 6200SOL     OW30235   3.273   3.444  15.838  0.0011  0.2137 -0.4352
 6200SOL    HW130236   3.253   3.353  15.861  0.4061 -0.0227 -1.0082
 6200SOL    HW230237   3.350   3.460  15.893 -0.4065  0.0465  0.1916
 6201SOL     OW30238   0.961   3.620  10.160  0.1715 -0.1622 -0.3091
 6201SOL    HW130239   1.053   3.646  10.154  0.1706  0.1309  0.8790
 6201SOL    HW230240   0.946   3.589  10.071 -2.7128  0.6014 -0.0676
 6202SOL     OW30241   0.041   0.523   5.625 -0.3044 -0.1729 -0.3308
 6202SOL    HW130242   4.711   0.556   5.562 -0.6852  1.0063  0.6903
 6202SOL    HW230243   4.729   0.506   5.707  0.8536 -1.1855  0.1107
 6203SOL     OW30244   1.250   3.297  15.977  0.1715 -0.1002  0.3601
 6203SOL    HW130245   1.210   3.211  15.989 -0.3682  0.0245 -0.5181
 6203SOL    HW230246   1.247   3.327  16.068  2.7111  0.6962  0.1716
 6204SOL     OW30247   2.285   1.855   2.312  0.1233  0.6069  0.0323
 6204SOL    HW130248   2.305   1.833   2.221 -4.2399 -0.6868 -0.6294
 6204SOL    HW230249   2.367   1.889   2.347 -0.1392  1.2037  0.0679
 6205SOL     OW30250   4.140   1.537   1.724  0.5475  0.0297  0.9544
 6205SOL    HW130251   4.214   1.550   1.664  0.3879 -1.2806  0.4728
 6205SOL    HW230252   4.074   1.516   1.659  1.8304  1.1103 -0.7214
 6206SOL     OW30253   0.659   3.309   6.214 -0.0207 -0.3044 -0.0539
 6206SOL    HW130254   0.639   3.249   6.143  0.8251 -0.5187 -0.1183
 6206SOL    HW230255   0.746   3.344   6.194  0.4400 -2.8438 -2.3358
 6207SOL     OW30256   3.891   1.024  14.880 -0.1583  0.0886  0.3056
 6207SOL    HW130257   3.866   0.950  14.826  0.5906 -1.0292  1.4872
 6207SOL    HW230258   3.879   0.993  14.970  0.4096  0.3180  0.4611
 6208SOL     OW30259   3.422   2.884   6.809 -0.0301 -0.6131 -0.4611
 6208SOL    HW130260   3.381   2.805   6.846  0.7739  0.0869  1.9623
 6208SOL    HW230261   3.508   2.848   6.790  0.7927  1.7271 -1.1222
 6209SOL     OW30262   3.607   0.017   9.537  0.0783  0.4883  0.4998
 6209SOL    HW130263   3.642   4.684   9.594 -0.9565 -1.1026 -0.7601
 6209SOL    HW230264   3.631   0.098   9.583 -1.2555  0.3160  1.5215
 6210SOL     OW30265   4.013   4.195  11.875 -0.5783 -0.5957 -0.3423
 6210SOL    HW130266   4.027   4.113  11.922  2.6587  0.6215  0.7840
 6210SOL    HW230267   3.961   4.253  11.930  2.4049 -0.3484  2.1543
 6211SOL     OW30268   1.788   0.748  14.141  0.3730  0.1960  0.0669
 6211SOL    HW130269   1.851   0.783  14.078 -1.0054  0.0438 -1.3983
 6211SOL    HW230270   1.707   0.752  14.091  1.8608  1.7518 -2.2327
 6212SOL     OW30271   0.980   0.676   8.915 -0.4585 -0.1796 -0.3744
 6212SOL    HW130272   0.887   0.668   8.936 -0.3208  0.5797  0.5645
 6212SOL    HW230273   1.021   0.652   8.998  0.3349  0.9535 -0.4384
 6213SOL     OW30274   0.028   2.432   0.557  0.0016  0.3710  0.3798
 6213SOL    HW130275   4.703   2.360   0.535  0.1796  0.7322 -1.2406
 6213SOL    HW230276   0.074   2.449   0.475 -1.7206  2.2597 -0.2215
 6214SOL     OW30277   1.627   3.973  14.996 -0.4005  0.2315  0.4344
 6214SOL    HW130278   1.550   3.931  15.035  0.4302 -1.3669  0.3522
 6214SOL    HW230279   1.594   4.008  14.914  0.4556 -1.2796 -0.5544
 6215SOL     OW30280   3.435   0.070   4.831 -0.0822 -0.5001  0.0334
 6215SOL    HW130281   3.399   0.107   4.911 -1.2047 -0.9639 -0.2674
 6215SOL    HW230282   3.474   0.148   4.791  1.1732 -0.8469  0.5610
 6216SOL     OW30283   2.288   0.493   5.652 -0.4388  0.1032  0.5138
 6216SOL    HW130284   2.257   0.534   5.733 -0.4475 -1.6450  1.4018
 6216SOL    HW230285   2.278   0.568   5.594 -2.3909  1.3395  2.4942
 6217SOL     OW30286   4.236   1.202   4.340  0.2149  0.1248 -0.5778
 6217SOL    HW130287   4.179   1.127   4.359 -0.4593  1.1212  1.3471
 6217SOL    HW230288   4.275   1.172   4.258  1.2744 -1.6853  0.5994
 6218SOL     OW30289   3.881   0.265  12.244 -0.0123  0.8268 -0.3961
 6218SOL    HW130290   3.973   0.290  12.249 -0.0192  1.0813 -1.6681
 6218SOL    HW230291   3.839   0.305  12.320  1.7589 -0.4519  1.2711
 6219SOL     OW30292   4.225   3.466   6.770  0.0855 -0.4491  0.3022
 6219SOL    HW130293   4.302   3.474   6.825 -0.6531  1.5294  1.0479
 6219SOL    HW230294   4.190   3.383   6.802  1.0743 -0.5262  1.1847
 6220SOL     OW30295   3.128   0.568   8.185 -0.6191 -0.8066  0.5116
 6220SOL    HW130296   3.065   0.507   8.222 -1.9832  1.1752  1.4714
 6220SOL    HW230297   3.138   0.626   8.261 -2.1945  0.0473  0.0761
 6221SOL     OW30298   0.019   3.600  16.861 -0.1634  0.1596 -0.5267
 6221SOL    HW130299   0.042   3.509  16.841 -1.1901 -0.1095 -0.4988
 6221SOL    HW230300   4.705   3.599  16.944  1.8428 -0.7754  0.6316
 6222SOL     OW30301   2.827   0.551   9.624 -0.9159 -0.8857 -0.1917
 6222SOL    HW130302   2.809   0.460   9.651  2.0948 -0.2209  4.1750
 6222SOL    HW230303   2.780   0.566   9.543  0.3138  2.1525 -0.3305
 6223SOL     OW30304   4.406   4.443   1.343  0.4829  0.6602  0.3098
 6223SOL    HW130305   4.481   4.397   1.381  0.4585 -1.9302 -2.8147
 6223SOL    HW230306   4.435   4.526   1.304 -1.1978  1.5404  0.9298
 6224SOL     OW30307   2.870   0.688  16.017  0.0954  0.1587  0.3860
 6224SOL    HW130308   2.951   0.646  15.988  0.2102 -0.1316  1.1453
 6224SOL    HW230309   2.817   0.609  16.011  0.2464  0.0244  0.8289
 6225SOL     OW30310   1.702   0.364   7.254 -0.3787 -0.3584 -0.9052
 6225SOL    HW130311   1.762   0.298   7.287 -0.6540 -0.7877 -1.2630
 6225SOL    HW230312   1.718   0.369   7.160 -0.1119 -1.6358 -0.9301
 6226SOL     OW30313   1.801   0.824   5.752 -0.1991  0.4191 -0.5518
 6226SOL    HW130314   1.884   0.792   5.787 -0.0685  1.4376  0.0978
 6226SOL    HW230315   1.787   0.902   5.806 -1.7582 -0.6234  0.5700
 6227SOL     OW30316   1.879   4.682   7.031 -0.9903  0.1751  0.1039
 6227SOL    HW130317   1.865   4.692   6.937  0.9798 -2.5239 -0.4662
 6227SOL    HW230318   1.787   4.699   7.053 -1.5598  0.8944 -2.7749
 6228SOL     OW30319   1.463   4.276  14.302 -0.7834 -0.4877  0.7076
 6228SOL    HW130320   1.432   4.258  14.391 -0.6591 -0.5892  0.7309
 6228SOL    HW230321   1.443   4.369  14.296  0.2865 -0.1436  2.4224
 6229SOL     OW30322   1.175   2.917   0.951  0.6847 -0.9293 -0.4222
 6229SOL    HW130323   1.233   2.992   0.945 -1.4672  0.7966  0.1886
 6229SOL    HW230324   1.096   2.969   0.965 -0.2272 -2.2031 -0.7976
 6230SOL     OW30325   0.651   1.012   4.193 -0.0985 -0.0477  0.6042
 6230SOL    HW130326   0.726   0.953   4.181  0.8891  1.7317 -2.1117
 6230SOL    HW230327   0.640   1.017   4.098 -1.1468  0.3090  0.7522
 6231SOL     OW30328   3.076   4.257  10.959  0.1098 -0.2305  0.4175
 6231SOL    HW130329   3.158   4.251  11.007  0.2869 -0.3756  0.1002
 6231SOL    HW230330   3.113   4.223  10.877 -0.6758  1.5311 -0.6640
 6232SOL     OW30331   0.621   4.508   5.264  0.1030  0.3172  0.0975
 6232SOL    HW130332   0.576   4.554   5.335 -0.5601 -0.0854 -0.0627
 6232SOL    HW230333   0.634   4.578   5.199  2.3338 -1.5822 -1.4627
 6233SOL     OW30334   0.178   4.212   7.268  0.1488 -0.2585 -0.3747
 6233SOL    HW130335   0.172   4.304   7.291  0.0747 -0.4966  0.5761
 6233SOL    HW230336   0.173   4.174   7.356  0.0179 -1.5672 -0.9408
 6234SOL     OW30337   1.569   3.872  12.057  0.1419 -0.0590 -0.1909
 6234SOL    HW130338   1.600   3.868  12.147 -0.9749 -0.3181  0.1802
 6234SOL    HW230339   1.474   3.865  12.062  0.2360 -0.2005  1.2467
 6235SOL     OW30340   4.013   4.464  10.259  0.0428 -0.2523 -0.0008
 6235SOL    HW130341   4.096   4.431  10.225  0.5334  1.1765 -0.2045
 6235SOL    HW230342   4.034   4.469  10.352 -2.1159  2.8398  0.3189
 6236SOL     OW30343   1.813   0.866  15.288 -0.7293  0.5287  0.1978
 6236SOL    HW130344   1.851   0.837  15.372  0.4330  1.6327  0.0448
 6236SOL    HW230345   1.864   0.811  15.229 -2.4593 -1.3488  0.4378
 6237SOL     OW30346   1.347   2.075   9.207  0.0454  0.2176  0.3539
 6237SOL    HW130347   1.308   2.162   9.210 -0.2515  0.0969  0.0482
 6237SOL    HW230348   1.318   2.042   9.292 -5.0105 -0.0448 -1.4520
 6238SOL     OW30349   1.517   0.985   1.891  0.1358  0.0237  0.3903
 6238SOL    HW130350   1.459   1.008   1.818  0.0513  2.6257  1.2900
 6238SOL    HW230351   1.472   1.025   1.964  0.4126 -1.8971  1.6168
 6239SOL     OW30352   0.941   2.157   5.461  0.2745  0.2088 -0.0230
 6239SOL    HW130353   0.988   2.141   5.543 -0.4050 -1.0004  0.1227
 6239SOL    HW230354   0.985   2.224   5.407  0.0571  1.1725  0.9938
 6240SOL     OW30355   2.630   0.878   8.245  0.1058 -0.2378 -0.3213
 6240SOL    HW130356   2.680   0.905   8.168  3.1580  0.6376  1.9535
 6240SOL    HW230357   2.683   0.809   8.284  1.5050  0.5557 -0.8007
 6241SOL     OW30358   3.054   1.714   3.926 -0.1525  0.2747  0.7797
 6241SOL    HW130359   3.044   1.804   3.895 -1.6364 -0.1261  0.1050
 6241SOL    HW230360   3.000   1.678   3.856 -1.2037  1.1234  1.1670
 6242SOL     OW30361   1.937   2.747  14.396 -0.0361 -0.2887 -0.0969
 6242SOL    HW130362   1.909   2.838  14.407  1.4330 -0.1274  2.5617
 6242SOL    HW230363   1.928   2.734  14.302 -1.5070  1.2803 -0.1683
 6243SOL     OW30364   1.956   2.622  15.537 -0.0584 -0.5777 -0.4070
 6243SOL    HW130365   1.980   2.711  15.511 -0.5173  0.1949  1.8235
 6243SOL    HW230366   1.861   2.629  15.543  0.0217 -0.0558  0.2673
 6244SOL     OW30367   3.467   0.036   5.288  0.1756  0.0864 -0.4906
 6244SOL    HW130368   3.466   0.009   5.380  1.8797  0.6514 -0.3196
 6244SOL    HW230369   3.561   0.034   5.270  0.2037  0.0929 -0.3474
 6245SOL     OW30370   2.462   3.950   7.354 -0.1246 -0.0574 -0.3207
 6245SOL    HW130371   2.390   3.922   7.411 -0.9989  0.2242 -1.2874
 6245SOL    HW230372   2.414   3.968   7.273  0.7891 -2.5149 -1.3866
 6246SOL     OW30373   1.412   1.413   8.084  0.2231 -0.4113  0.3226
 6246SOL    HW130374   1.338   1.474   8.083 -0.6269 -1.4221  1.1072
 6246SOL    HW230375   1.453   1.435   8.168 -0.6602 -0.5675  0.8038
 6247SOL     OW30376   0.653   2.017   4.967 -0.2626 -0.3403 -0.1070
 6247SOL    HW130377   0.717   2.059   5.023  0.8676  1.7330 -2.9921
 6247SOL    HW230378   0.710   1.953   4.925 -2.0504 -2.0107 -0.0059
 6248SOL     OW30379   3.875   1.351   8.585  0.2844 -0.2552 -0.5864
 6248SOL    HW130380   3.841   1.427   8.538 -0.4635  0.1401  0.5981
 6248SOL    HW230381   3.826   1.366   8.666  1.0715  0.6670 -0.2812
 6249SOL     OW30382   4.158   2.165  13.819 -0.0833  0.1748  0.1500
 6249SOL    HW130383   4.182   2.106  13.748  0.7338  0.1855  0.4169
 6249SOL    HW230384   4.243   2.209  13.827 -0.5749  0.9206  1.3729
 6250SOL     OW30385   4.516   0.228   3.195  0.4937 -0.3037  0.2891
 6250SOL    HW130386   4.458   0.229   3.118 -0.0677  0.8194  0.7238
 6250SOL    HW230387   4.545   0.319   3.191 -0.5184  0.0584  1.2498
 6251SOL     OW30388   1.746   1.432  13.918 -0.4589  0.1063  0.0913
 6251SOL    HW130389   1.685   1.359  13.905 -1.5052  1.0065 -0.0594
 6251SOL    HW230390   1.732   1.484  13.839 -1.6977 -0.8681 -0.3337
 6252SOL     OW30391   2.422   2.765   6.567 -0.1360  0.1520  0.3576
 6252SOL    HW130392   2.468   2.782   6.485 -0.7748  0.6805  0.1039
 6252SOL    HW230393   2.369   2.844   6.559  0.1568  0.4258  1.1213
 6253SOL     OW30394   2.097   4.117   2.995  0.7301  0.2868 -0.3417
 6253SOL    HW130395   2.152   4.060   2.940 -0.3367 -0.1252 -0.9794
 6253SOL    HW230396   2.038   4.050   3.031  0.3309 -0.4007 -2.2791
 6254SOL     OW30397   3.191   1.223  13.956 -0.5829 -0.1194 -0.5010
 6254SOL    HW130398   3.180   1.141  14.004 -1.7346  0.2365 -0.1445
 6254SOL    HW230399   3.129   1.204  13.886 -1.6110  2.4693 -0.3133
 6255SOL     OW30400   3.308   0.458   2.855  0.1160 -0.5636  0.6882
 6255SOL    HW130401   3.252   0.427   2.784  0.2247 -1.4077  0.9740
 6255SOL    HW230402   3.238   0.478   2.917 -0.9630  1.3127 -1.1306
 6256SOL     OW30403   2.834   1.312   8.969  0.1265  0.2451 -0.6606
 6256SOL    HW130404   2.803   1.231   9.011  1.3285  0.5669  0.8362
 6256SOL    HW230405   2.756   1.362   8.945 -0.9731 -0.9961  0.3516
 6257SOL     OW30406   0.133   0.553  15.657  0.1728  0.0465 -0.2776
 6257SOL    HW130407   0.104   0.508  15.736  2.1867 -3.3765 -1.4823
 6257SOL    HW230408   0.054   0.592  15.619 -0.1734 -1.3815 -1.0221
 6258SOL     OW30409   3.363   2.621  13.454  0.6059  0.3267 -0.0708
 6258SOL    HW130410   3.338   2.595  13.543 -1.7047  0.4230 -0.6812
 6258SOL    HW230411   3.433   2.685  13.464 -0.6175  1.6196  0.3035
 6259SOL     OW30412   3.680   2.665   7.766  0.0180 -0.4447 -0.1935
 6259SOL    HW130413   3.648   2.726   7.832  2.0097 -0.5700  0.8973
 6259SOL    HW230414   3.704   2.729   7.700 -1.4507  0.7736  0.4432
 6260SOL     OW30415   1.919   2.682   5.840  0.1845  0.4378  0.4264
 6260SOL    HW130416   1.885   2.736   5.911 -0.9734 -1.0111  0.9520
 6260SOL    HW230417   2.010   2.712   5.851  0.0118  0.0662  2.8372
 6261SOL     OW30418   3.360   0.271   7.411  0.3476 -0.4410 -0.2115
 6261SOL    HW130419   3.413   0.295   7.487 -1.1104 -0.1122  0.7068
 6261SOL    HW230420   3.275   0.250   7.450 -0.3744  2.0949 -0.4258
 6262SOL     OW30421   2.929   1.567   5.311  0.4558  0.2436  0.4053
 6262SOL    HW130422   2.991   1.599   5.376 -0.1238 -0.0261  1.0889
 6262SOL    HW230423   2.860   1.633   5.303 -0.2112 -0.7914 -2.2293
 6263SOL     OW30424   4.019   2.431   0.867  0.3810 -0.1225  0.3576
 6263SOL    HW130425   3.937   2.388   0.845  0.1841  0.3694  0.1332
 6263SOL    HW230426   4.042   2.381   0.945  2.3192  0.4282  0.1578
 6264SOL     OW30427   3.176   0.732   7.818  0.4026 -0.2041  0.5899
 6264SOL    HW130428   3.138   0.656   7.775  1.2771 -0.1951 -0.1968
 6264SOL    HW230429   3.192   0.696   7.905 -1.2566 -0.6906  0.6972
 6265SOL     OW30430   1.043   3.306   6.545 -0.1337  0.3574 -0.3462
 6265SOL    HW130431   1.033   3.384   6.489  0.0094 -0.0065 -0.8790
 6265SOL    HW230432   1.112   3.335   6.605 -0.1947  1.6399 -0.8913
 6266SOL     OW30433   1.891   1.243   9.425 -0.4597  0.1404 -0.0969
 6266SOL    HW130434   1.865   1.176   9.489 -0.4244 -0.7483 -1.0080
 6266SOL    HW230435   1.935   1.183   9.364 -2.0258 -0.3687 -0.7114
 6267SOL     OW30436   3.365   3.763   3.197  0.3137  0.3502 -0.1457
 6267SOL    HW130437   3.275   3.770   3.230  0.1294 -2.1922 -0.1146
 6267SOL    HW230438   3.378   3.669   3.211  1.2125  0.2352 -1.7793
 6268SOL     OW30439   1.299   2.179   7.475  0.4552  0.6474 -0.2581
 6268SOL    HW130440   1.361   2.134   7.418 -0.1200 -0.0699 -0.3237
 6268SOL    HW230441   1.277   2.097   7.518  0.0638  1.7136  1.5645
 6269SOL     OW30442   1.250   3.701  12.568  0.4865 -0.3375 -0.2033
 6269SOL    HW130443   1.180   3.728  12.628  1.0273  1.3471 -0.3232
 6269SOL    HW230444   1.327   3.754  12.585 -1.0636  2.0463 -0.5488
 6270SOL     OW30445   0.680   2.573   0.115 -0.2563 -0.1749 -0.0476
 6270SOL    HW130446   0.760   2.521   0.116  0.7472  1.4235  1.5708
 6270SOL    HW230447   0.723   2.648   0.156  0.9228 -1.6384  1.3584
 6271SOL     OW30448   3.788   3.401  15.655 -0.4494 -0.6428  0.2407
 6271SOL    HW130449   3.796   3.496  15.668 -1.1799 -0.4347 -0.8418
 6271SOL    HW230450   3.693   3.391  15.659 -0.6644  0.6051 -2.0589
 6272SOL     OW30451   4.623   1.428  16.973 -0.1640 -0.5900 -0.1431
 6272SOL    HW130452   4.542   1.469  16.944  0.9146  1.6219 -0.0670
 6272SOL    HW230453   4.614   1.441  17.067 -1.6979  1.2577 -0.5378
 6273SOL     OW30454   3.667   3.957   9.641 -0.3455  0.4061 -0.1041
 6273SOL    HW130455   3.632   4.027   9.586 -0.5461  0.9117  0.6695
 6273SOL    HW230456   3.656   3.881   9.584 -0.9712  0.5244 -0.1436
 6274SOL     OW30457   0.944   1.611  16.937  0.2414  0.6672  0.3668
 6274SOL    HW130458   0.967   1.682  16.878  2.0429 -1.7107 -1.7860
 6274SOL    HW230459   0.851   1.594  16.919  0.3908  1.1446 -0.8388
 6275SOL     OW30460   2.132   1.393   3.840  0.0134  0.1063  0.1036
 6275SOL    HW130461   2.225   1.406   3.859 -0.2395  1.0288  0.7363
 6275SOL    HW230462   2.137   1.349   3.756  0.9767 -0.3467  0.3999
 6276SOL     OW30463   2.018   3.511   6.936 -0.5977 -0.3976  0.4534
 6276SOL    HW130464   2.002   3.572   6.864 -0.9016 -1.1438 -0.1214
 6276SOL    HW230465   2.075   3.570   6.986 -1.5448  1.1672 -0.3275
 6277SOL     OW30466   1.445   1.602   7.102 -0.2476  0.1425  0.0210
 6277SOL    HW130467   1.365   1.629   7.058 -0.1807 -2.1902 -1.6027
 6277SOL    HW230468   1.435   1.507   7.094  0.0980 -0.0085  1.4398
 6278SOL     OW30469   2.991   2.816   7.031 -0.0274  0.1418  0.2815
 6278SOL    HW130470   2.927   2.811   6.960  1.0100  3.0865 -0.8688
 6278SOL    HW230471   2.987   2.726   7.062 -2.9031  0.4178  0.7557
 6279SOL     OW30472   3.516   0.868  12.509  0.7149  0.0946 -0.0418
 6279SOL    HW130473   3.595   0.917  12.484  2.5519 -2.3487  0.9560
 6279SOL    HW230474   3.551   0.806  12.573 -1.2018 -2.4861 -1.5230
 6280SOL     OW30475   0.065   4.716   3.064 -0.2835 -0.0414  0.0658
 6280SOL    HW130476   0.160   4.716   3.080  0.1372 -0.7588 -2.4262
 6280SOL    HW230477   0.050   4.625   3.040 -1.0807  0.0331  0.2941
 6281SOL     OW30478   0.806   4.170   4.177  0.1311 -0.1563  0.3641
 6281SOL    HW130479   0.810   4.180   4.272 -0.2530  2.0993  0.1509
 6281SOL    HW230480   0.816   4.077   4.161 -1.3232 -0.1887 -0.4228
 6282SOL     OW30481   0.257   0.551   3.689 -0.3607 -0.1564  0.1690
 6282SOL    HW130482   0.176   0.524   3.733  1.1430 -1.1818  2.2643
 6282SOL    HW230483   0.215   0.619   3.635 -0.8981  0.4500  1.3543
 6283SOL     OW30484   1.998   0.704   8.790 -0.1528  0.3723 -0.4091
 6283SOL    HW130485   2.069   0.675   8.733 -0.8498  0.3514 -1.2783
 6283SOL    HW230486   1.996   0.640   8.861  2.6798  0.5942 -0.1388
 6284SOL     OW30487   0.348   3.846  11.436 -0.8959  0.1355 -0.7827
 6284SOL    HW130488   0.313   3.813  11.354  1.0731 -0.9233 -1.2023
 6284SOL    HW230489   0.432   3.879  11.404 -0.9991  1.5138  0.3676
 6285SOL     OW30490   0.168   3.602  12.496  0.2731  0.0095 -0.4368
 6285SOL    HW130491   0.204   3.688  12.473  1.2130 -0.4118 -0.5082
 6285SOL    HW230492   0.128   3.620  12.581 -0.6407 -2.2178 -0.4062
 6286SOL     OW30493   2.930   0.066   5.667  0.3355 -0.2657 -0.0502
 6286SOL    HW130494   2.883   0.119   5.603  1.2784  0.6182 -0.0260
 6286SOL    HW230495   2.931   0.133   5.736  2.5299 -0.5720  0.2144
 6287SOL     OW30496   4.701   3.282   9.181 -0.1594 -0.1720  0.5781
 6287SOL    HW130497   0.027   3.221   9.139  0.7997  1.0417  0.1631
 6287SOL    HW230498   0.018   3.362   9.167  0.7182 -0.6728  0.9722
 6288SOL     OW30499   1.822   0.410   8.972  0.1048 -0.2401  0.1823
 6288SOL    HW130500   1.766   0.480   8.938  0.3715 -0.4413 -0.6843
 6288SOL    HW230501   1.885   0.454   9.029  0.7077 -0.7815 -0.0565
 6289SOL     OW30502   2.080   2.680   8.632  0.0474 -0.4957 -0.0052
 6289SOL    HW130503   2.151   2.627   8.669  1.1982  1.2417  0.2817
 6289SOL    HW230504   2.088   2.652   8.541 -0.5108  0.3143 -0.3038
 6290SOL     OW30505   4.469   2.048   6.488 -0.3584 -0.1627  0.1879
 6290SOL    HW130506   4.455   2.015   6.399  1.6148  2.4689 -1.0845
 6290SOL    HW230507   4.386   2.093   6.502  0.5866  1.9355 -1.0090
 6291SOL     OW30508   2.626   0.716   7.614  0.2449  0.0197 -0.0598
 6291SOL    HW130509   2.641   0.779   7.544 -0.5181  0.5999  0.2958
 6291SOL    HW230510   2.687   0.753   7.678  1.6450 -1.5263 -0.4990
 6292SOL     OW30511   2.097   4.523   9.399  0.6509  0.2815  0.5989
 6292SOL    HW130512   2.162   4.541   9.467  1.2250 -2.8752  0.8718
 6292SOL    HW230513   2.133   4.445   9.357  1.1473  0.5625  0.5116
 6293SOL     OW30514   1.113   4.437   9.461 -0.5163  0.8301 -0.7728
 6293SOL    HW130515   1.068   4.390   9.391 -0.9761  0.4608 -0.2295
 6293SOL    HW230516   1.190   4.381   9.456  0.0841  1.3367  2.8010
 6294SOL     OW30517   4.180   3.711   0.154  0.8008 -0.2109  0.5755
 6294SOL    HW130518   4.229   3.630   0.172 -0.4707 -1.5307 -1.8794
 6294SOL    HW230519   4.110   3.704   0.219  0.2619  1.2487  0.1429
 6295SOL     OW30520   4.729   2.082   3.709 -0.0341 -0.2039 -0.4587
 6295SOL    HW130521   0.072   2.053   3.757  1.3032  0.2142 -2.3592
 6295SOL    HW230522   4.710   2.011   3.648  0.7402  1.0644 -2.1758
 6296SOL     OW30523   1.774   0.154   7.709 -0.2049  0.1565 -0.9540
 6296SOL    HW130524   1.800   0.220   7.773  1.4093 -0.8848 -0.5405
 6296SOL    HW230525   1.846   0.091   7.716  0.0937  0.7164  0.9529
 6297SOL     OW30526   0.147   2.562  11.317 -0.0845 -0.0970 -0.6168
 6297SOL    HW130527   0.057   2.578  11.347 -0.0689  0.5851 -0.9386
 6297SOL    HW230528   0.164   2.630  11.252  1.4230 -0.1029 -0.2331
 6298SOL     OW30529   3.313   2.394   2.456 -0.2738  0.2926 -0.1002
 6298SOL    HW130530   3.367   2.402   2.378  1.5300 -0.5633  1.0803
 6298SOL    HW230531   3.272   2.480   2.460  1.1020  0.8479  1.8680
 6299SOL     OW30532   1.841   2.978   9.199  0.1369 -0.0586 -0.2221
 6299SOL    HW130533   1.806   2.933   9.122 -0.2334  0.7675 -0.5352
 6299SOL    HW230534   1.917   3.022   9.161  0.4185 -1.9086 -1.8011
 6300SOL     OW30535   3.827   1.761   0.364  0.2311  0.0187  0.2130
 6300SOL    HW130536   3.915   1.765   0.400  0.4068 -3.6270  0.2051
 6300SOL    HW230537   3.827   1.846   0.320  0.5569  0.5061  1.1477
 6301SOL     OW30538   0.190   2.358  11.489  0.2664 -0.5489  1.1098
 6301SOL    HW130539   0.126   2.391  11.552 -1.7540 -1.7360 -0.3448
 6301SOL    HW230540   0.179   2.420  11.417 -2.4851 -1.1536  1.0017
 6302SOL     OW30541   1.110   0.298   7.944 -0.1017 -0.2669 -0.2641
 6302SOL    HW130542   1.111   0.380   7.992 -1.8696 -0.3691 -0.0608
 6302SOL    HW230543   1.169   0.316   7.871  0.0783 -0.7522 -0.2404
 6303SOL     OW30544   1.387   2.090   5.470 -1.2913  0.2308 -0.7766
 6303SOL    HW130545   1.411   2.171   5.426  0.3634  0.6998  0.9751
 6303SOL    HW230546   1.357   2.051   5.388  1.0240 -0.3232 -1.3634
 6304SOL     OW30547   1.026   3.379  16.570  0.2299  0.0665 -0.3660
 6304SOL    HW130548   1.032   3.307  16.633  1.5894 -0.6512 -1.3097
 6304SOL    HW230549   0.946   3.352  16.525  0.4437  0.4952 -1.0030
 6305SOL     OW30550   1.484   2.881   1.750 -0.8649 -0.3290  0.1211
 6305SOL    HW130551   1.553   2.846   1.693 -0.4359  0.8967 -0.1306
 6305SOL    HW230552   1.429   2.923   1.684  0.5062  1.9335  0.3914
 6306SOL     OW30553   3.864   0.095  17.520 -0.2484 -0.7447 -0.2868
 6306SOL    HW130554   3.872   0.017  17.465  1.1522 -1.2493  0.6239
 6306SOL    HW230555   3.787   0.066  17.567  0.4067  2.2243  2.5963
 6307SOL     OW30556   3.437   4.200   7.174  0.0614  0.3202 -0.4947
 6307SOL    HW130557   3.365   4.137   7.173  1.4121 -1.2883  1.1538
 6307SOL    HW230558   3.432   4.210   7.079 -0.0084 -1.3239 -0.6647
 6308SOL     OW30559   2.555   2.620   0.741  0.5831 -0.2159  0.0488
 6308SOL    HW130560   2.498   2.560   0.693  0.3617 -0.3260  0.4479
 6308SOL    HW230561   2.632   2.604   0.688  0.8894  0.6627  0.2310
 6309SOL     OW30562   0.798   1.888   2.911  0.0220  0.0587 -0.4682
 6309SOL    HW130563   0.870   1.828   2.932 -1.1750 -0.8351  1.0710
 6309SOL    HW230564   0.791   1.877   2.816 -1.3421  0.0382 -0.3607
 6310SOL     OW30565   1.484   2.262   5.146  0.4713  0.5069  0.2110
 6310SOL    HW130566   1.439   2.290   5.066 -1.9701 -0.0793  1.3539
 6310SOL    HW230567   1.543   2.199   5.104  0.8792 -1.4737  3.8029
 6311SOL     OW30568   2.845   3.368   1.820  0.0837  1.0902 -0.1924
 6311SOL    HW130569   2.757   3.338   1.842  0.1158  2.7130  2.0275
 6311SOL    HW230570   2.840   3.429   1.746 -0.1661  0.3147 -0.8131
 6312SOL     OW30571   3.062   4.701   0.535  0.7308 -0.3780 -0.5083
 6312SOL    HW130572   3.055   0.028   0.462 -0.1917 -1.0636 -0.9982
 6312SOL    HW230573   3.016   4.626   0.498  0.3377  0.7774 -2.3769
 6313SOL     OW30574   2.885   2.669   9.636 -0.2218  0.2003 -0.1170
 6313SOL    HW130575   2.898   2.665   9.541 -1.1945 -2.4632 -0.1578
 6313SOL    HW230576   2.791   2.688   9.642  0.3729  3.4505 -1.6147
 6314SOL     OW30577   0.419   4.075   3.975  0.8073 -0.2875  0.0146
 6314SOL    HW130578   0.462   3.991   3.991  0.1407 -0.6749 -0.2164
 6314SOL    HW230579   0.490   4.127   3.939  0.3581  0.1745 -0.2059
 6315SOL     OW30580   2.623   1.325   3.572  0.2827  0.3937  0.1579
 6315SOL    HW130581   2.638   1.231   3.563  0.8413  0.2043  3.0555
 6315SOL    HW230582   2.552   1.328   3.508 -0.1299  0.1609  0.6005
 6316SOL     OW30583   1.459   1.366   4.735 -0.7813  0.4778 -0.3874
 6316SOL    HW130584   1.483   1.274   4.721 -0.7426  0.5406 -0.7405
 6316SOL    HW230585   1.457   1.405   4.647 -0.1797  0.9727 -0.1807
 6317SOL     OW30586   3.831   3.284  15.010  0.7682  0.6752 -0.1288
 6317SOL    HW130587   3.787   3.325  14.935  1.7206 -0.4391 -1.2805
 6317SOL    HW230588   3.768   3.222  15.046  0.1141  2.6573  2.1518
 6318SOL     OW30589   3.224   2.498  16.626  0.9325  0.4154  0.1727
 6318SOL    HW130590   3.247   2.425  16.684  1.6889 -0.6111 -1.4272
 6318SOL    HW230591   3.304   2.511  16.575  0.7838  1.7915  0.2888
 6319SOL     OW30592   1.347   1.426  13.625  0.5578  0.0376 -0.7287
 6319SOL    HW130593   1.334   1.492  13.693  1.2608 -0.6889  0.1199
 6319SOL    HW230594   1.264   1.422  13.579  1.0634  4.1595 -2.0289
 6320SOL     OW30595   1.779   1.118   8.736  0.1821 -0.0157  0.5284
 6320SOL    HW130596   1.741   1.030   8.732 -1.2687  0.6957 -1.5184
 6320SOL    HW230597   1.825   1.123   8.652  0.4411 -1.7900  0.5564
 6321SOL     OW30598   3.698   3.419  14.821 -0.0724  0.0078 -0.1408
 6321SOL    HW130599   3.695   3.506  14.862 -4.5028 -1.2216  2.1485
 6321SOL    HW230600   3.607   3.410  14.792  0.2979 -0.0207 -1.2587
 6322SOL     OW30601   3.100   1.345   6.098  0.3480 -0.4964  0.8565
 6322SOL    HW130602   3.060   1.259   6.110  2.0595 -1.6574 -1.5585
 6322SOL    HW230603   3.191   1.317   6.105 -0.1032 -2.1412  0.1403
 6323SOL     OW30604   1.351   4.657   2.699  0.3744  0.6014  0.0976
 6323SOL    HW130605   1.289   4.618   2.637  1.0645  1.2219 -0.9824
 6323SOL    HW230606   1.405   4.578   2.703 -0.6493 -0.0646  0.9762
 6324SOL     OW30607   1.722   1.273   2.503  0.0667  0.1375 -0.5721
 6324SOL    HW130608   1.655   1.250   2.438 -0.3042 -1.3616  0.3364
 6324SOL    HW230609   1.710   1.211   2.575  0.3023 -0.0735 -0.7153
 6325SOL     OW30610   0.433   2.799   3.296 -0.9839 -0.1042  0.2627
 6325SOL    HW130611   0.396   2.879   3.334 -0.8599  0.9879 -1.8716
 6325SOL    HW230612   0.525   2.814   3.320  0.2116 -1.9662 -3.1498
 6326SOL     OW30613   0.254   1.690   5.153 -0.5710 -0.3968 -0.4488
 6326SOL    HW130614   0.266   1.637   5.074  1.3820 -1.7397  0.7400
 6326SOL    HW230615   0.237   1.779   5.123  0.1072  0.9325  3.1262
 6327SOL     OW30616   3.680   4.356   6.976 -0.3617  0.2085 -0.0286
 6327SOL    HW130617   3.601   4.319   6.936  1.6656 -3.1075 -0.8740
 6327SOL    HW230618   3.670   4.451   6.963 -2.6561  0.0842  0.8096
 6328SOL     OW30619   2.594   2.447   3.492 -0.2808  0.0666 -0.1453
 6328SOL    HW130620   2.553   2.457   3.578 -0.9134 -2.7740 -0.1307
 6328SOL    HW230621   2.684   2.452   3.526 -0.2060 -0.4643 -0.2750
 6329SOL     OW30622   3.666   3.226  13.170 -0.3238 -0.0547 -0.5861
 6329SOL    HW130623   3.587   3.280  13.183 -1.0002 -0.6556 -2.2214
 6329SOL    HW230624   3.644   3.171  13.095  0.5599 -1.0581 -0.1082
 6330SOL     OW30625   1.356   0.346  16.518 -0.3727  0.3586 -0.2140
 6330SOL    HW130626   1.291   0.310  16.456  0.0935 -0.4886 -0.2058
 6330SOL    HW230627   1.362   0.265  16.568 -1.3762  1.2413  1.3478
 6331SOL     OW30628   3.037   0.505   4.900 -0.0681  0.1335  0.3454
 6331SOL    HW130629   3.130   0.522   4.886 -0.3123  1.1006 -0.1362
 6331SOL    HW230630   2.991   0.589   4.903 -1.2922 -0.4915 -0.6399
 6332SOL     OW30631   4.657   2.418   8.600 -0.3458  0.0328 -0.3004
 6332SOL    HW130632   4.679   2.434   8.508  0.4280  0.3369 -0.0636
 6332SOL    HW230633   4.707   2.339   8.617 -0.4296  0.2636  0.9931
 6333SOL     OW30634   4.367   3.215  17.337 -0.0263  0.2094 -0.1758
 6333SOL    HW130635   4.305   3.197  17.265  0.5251 -0.7041 -0.4222
 6333SOL    HW230636   4.443   3.256  17.296  0.1191 -1.6733 -1.7754
 6334SOL     OW30637   1.259   3.427   8.070 -0.7829  0.3370 -0.6799
 6334SOL    HW130638   1.175   3.394   8.101  0.9272 -1.0289  2.4429
 6334SOL    HW230639   1.298   3.350   8.028 -0.4022  0.0407  0.2114
 6335SOL     OW30640   3.925   1.509   8.302  0.5289  0.0292 -0.4492
 6335SOL    HW130641   4.020   1.512   8.314  0.6376  0.0977 -1.3098
 6335SOL    HW230642   3.908   1.603   8.299  1.5919  0.2798  1.6307
 6336SOL     OW30643   2.169   0.021  13.852 -0.4062 -0.0827  0.2404
 6336SOL    HW130644   2.148   4.681  13.908  1.9267 -0.2391  0.8853
 6336SOL    HW230645   2.240   4.720  13.800 -1.1472 -0.4798 -0.4958
 6337SOL     OW30646   1.418   0.915   1.437 -0.0681  0.6340  0.3472
 6337SOL    HW130647   1.478   0.856   1.482  1.3166  1.5234 -0.3344
 6337SOL    HW230648   1.334   0.906   1.483 -0.3644  0.6060 -0.2044
 6338SOL     OW30649   4.410   0.569   8.196  0.6636  0.3445  0.3068
 6338SOL    HW130650   4.350   0.628   8.150 -0.0793 -1.3458 -0.8961
 6338SOL    HW230651   4.416   0.501   8.129 -1.3202  0.9578 -0.5048
 6339SOL     OW30652   0.597   2.328   1.778 -0.2971  0.3210 -0.0264
 6339SOL    HW130653   0.547   2.369   1.708 -1.0752 -0.8453 -0.1612
 6339SOL    HW230654   0.553   2.355   1.859 -2.5806  4.9308 -2.8165
 6340SOL     OW30655   2.318   2.651   9.196 -0.0884 -0.3474 -0.1706
 6340SOL    HW130656   2.226   2.650   9.172 -0.3964  1.3653  0.9921
 6340SOL    HW230657   2.336   2.723   9.135  0.2189 -0.1816  0.1122
 6341SOL     OW30658   3.511   1.203  11.081  0.1302 -0.2173 -0.5391
 6341SOL    HW130659   3.433   1.173  11.034  0.7367 -0.8807 -1.1318
 6341SOL    HW230660   3.565   1.124  11.074 -2.1231 -1.8654  0.7504
 6342SOL     OW30661   2.478   2.771   1.957  0.2164 -0.2102 -0.3119
 6342SOL    HW130662   2.437   2.815   2.031 -2.3841 -2.1527 -0.5625
 6342SOL    HW230663   2.482   2.841   1.892  0.4741  0.3635  0.3276
 6343SOL     OW30664   0.524   3.497   2.403  0.9401  0.5981 -0.4048
 6343SOL    HW130665   0.556   3.510   2.313  0.0581 -0.3568 -0.8603
 6343SOL    HW230666   0.434   3.472   2.385  0.7052 -0.0573  1.8165
 6344SOL     OW30667   0.874   3.230   5.349 -0.2563  0.4475 -0.3995
 6344SOL    HW130668   0.962   3.194   5.345 -1.3944 -2.5263  1.3740
 6344SOL    HW230669   0.848   3.220   5.257  0.1811  2.2014 -0.7265
 6345SOL     OW30670   2.800   2.007   6.746 -0.8314 -0.2147 -0.3601
 6345SOL    HW130671   2.857   2.061   6.692 -1.6811  2.1447  1.1464
 6345SOL    HW230672   2.767   2.068   6.811 -0.3824 -1.4240  0.9983
 6346SOL     OW30673   0.845   3.116  13.900  0.2748 -0.2827 -0.2225
 6346SOL    HW130674   0.852   3.074  13.986  0.6979  0.8500  0.2997
 6346SOL    HW230675   0.783   3.052  13.864  1.0265 -0.3742 -1.3449
 6347SOL     OW30676   2.613   1.141   5.467  0.0184 -0.4337  0.0322
 6347SOL    HW130677   2.550   1.204   5.432  0.2159 -0.6468 -0.7114
 6347SOL    HW230678   2.689   1.199   5.466 -0.9849  0.8907 -0.4023
 6348SOL     OW30679   0.077   2.760   4.184 -0.1048 -0.0419  0.4963
 6348SOL    HW130680   4.719   2.767   4.210 -0.8874  0.7771 -2.5048
 6348SOL    HW230681   0.089   2.667   4.206 -0.4345  0.3667  2.3947
 6349SOL     OW30682   0.014   2.142   8.535  0.6023  0.0796  0.1574
 6349SOL    HW130683   4.725   2.052   8.511 -0.0846 -0.0422  1.2819
 6349SOL    HW230684   4.665   2.184   8.517  1.4381  1.2146 -1.0989
 6350SOL     OW30685   2.151   2.986   6.295  0.3168  0.5673  0.6094
 6350SOL    HW130686   2.245   2.971   6.303  0.0789 -1.2765 -0.1148
 6350SOL    HW230687   2.130   2.938   6.375  0.9666  0.2380  0.5882
 6351SOL     OW30688   3.571   0.471   0.016 -0.4359  0.1613  0.2291
 6351SOL    HW130689   3.651   0.435  17.714 -0.1934  3.6981 -2.6379
 6351SOL    HW230690   3.560   0.552  17.701 -0.0277  0.9628  1.4037
 6352SOL     OW30691   3.066   4.281   0.822 -0.2202  0.0297 -0.5923
 6352SOL    HW130692   3.062   4.190   0.851 -0.2863  0.6165  1.2561
 6352SOL    HW230693   3.025   4.279   0.735 -2.8938 -0.9122  0.7065
 6353SOL     OW30694   0.764   4.568   4.886 -1.0603  0.2044 -0.0109
 6353SOL    HW130695   0.673   4.588   4.910 -0.8569  1.9710 -0.6474
 6353SOL    HW230696   0.792   4.521   4.964  1.1939  3.6242  1.2596
 6354SOL     OW30697   2.122   2.520   1.997 -0.5207  0.0041  0.2021
 6354SOL    HW130698   2.186   2.528   1.925  0.6139 -0.2725  1.1732
 6354SOL    HW230699   2.109   2.611   2.026 -0.8554  0.5966 -1.7622
 6355SOL     OW30700   4.439   3.313   2.062 -0.4708  0.1644  0.6847
 6355SOL    HW130701   4.344   3.321   2.049 -0.6437 -3.1043 -0.1860
 6355SOL    HW230702   4.448   3.368   2.140  1.4751  1.0828 -0.2058
 6356SOL     OW30703   1.086   3.765   9.002 -0.3374 -0.1903 -0.0699
 6356SOL    HW130704   1.138   3.759   9.083  1.5385  0.1168 -1.2554
 6356SOL    HW230705   0.995   3.775   9.029 -1.1326  0.9949 -3.2192
 6357SOL     OW30706   3.380   3.318   5.279  0.0695 -0.2539 -0.5343
 6357SOL    HW130707   3.336   3.242   5.318  0.4801  0.0923  0.6034
 6357SOL    HW230708   3.472   3.293   5.290  0.1895  1.6820  2.8944
 6358SOL     OW30709   2.300   1.948   6.645  0.5300  0.2103 -0.0505
 6358SOL    HW130710   2.219   1.996   6.629  2.2885  2.2367 -2.8642
 6358SOL    HW230711   2.358   1.997   6.587 -0.2419  0.8543 -0.2812
 6359SOL     OW30712   0.801   2.332   7.087  0.4304  0.3331 -0.3133
 6359SOL    HW130713   0.839   2.349   7.001  0.3247 -3.0264 -1.0467
 6359SOL    HW230714   0.878   2.316   7.143  1.1845 -1.0135 -1.7576
 6360SOL     OW30715   3.082   0.072   4.538 -0.0070 -0.1373  0.1853
 6360SOL    HW130716   3.141   0.007   4.500  0.8817  1.0643 -0.4813
 6360SOL    HW230717   2.996   0.043   4.505 -2.7207  3.7486  3.8090
 6361SOL     OW30718   3.606   4.680   6.423 -0.3883 -0.3584  0.2961
 6361SOL    HW130719   3.637   0.013   6.485 -0.1244  0.0733 -0.3028
 6361SOL    HW230720   3.564   0.003   6.359 -0.4676 -1.4597 -0.6242
 6362SOL     OW30721   4.035   0.307  17.531  0.4593 -0.1834  0.1010
 6362SOL    HW130722   3.983   0.228  17.525  0.6182 -0.2033 -1.0567
 6362SOL    HW230723   4.018   0.311  17.625 -0.6724 -1.0834 -0.0774
 6363SOL     OW30724   2.588   3.245   2.444  0.1150 -0.2908  0.2468
 6363SOL    HW130725   2.538   3.237   2.525 -2.5032 -0.6934 -1.4391
 6363SOL    HW230726   2.677   3.228   2.478  0.2181 -1.6451 -0.7076
 6364SOL     OW30727   3.173   0.409   8.640  0.0231 -0.0608 -0.2073
 6364SOL    HW130728   3.240   0.471   8.612 -0.0945 -0.0866 -0.5543
 6364SOL    HW230729   3.094   0.452   8.607  0.2880  0.0593 -0.6957
 6365SOL     OW30730   1.760   4.177  17.006 -0.5944 -0.2327  0.1876
 6365SOL    HW130731   1.782   4.251  16.950 -0.5629 -0.0348  0.4590
 6365SOL    HW230732   1.691   4.219  17.057 -1.4853 -0.3808 -0.8851
 6366SOL     OW30733   3.120   0.376   5.165 -0.4579 -0.4653  1.0020
 6366SOL    HW130734   3.027   0.400   5.174 -0.9603 -1.0570 -2.6891
 6366SOL    HW230735   3.129   0.309   5.098 -0.7965  0.0438  0.4449
 6367SOL     OW30736   0.119   0.195   1.128  0.2688  0.2095 -0.5423
 6367SOL    HW130737   0.085   0.234   1.048 -0.0925  0.4396 -0.2737
 6367SOL    HW230738   0.039   0.177   1.177  0.7700  0.9410  0.5502
 6368SOL     OW30739   4.593   4.221   5.609 -0.0655 -0.3252  0.3751
 6368SOL    HW130740   4.666   4.198   5.666  1.2933  3.3966  0.1081
 6368SOL    HW230741   4.538   4.144   5.597  0.1274 -0.2195 -1.3120
 6369SOL     OW30742   4.486   1.669   0.830  0.3114 -0.2687  0.2460
 6369SOL    HW130743   4.538   1.724   0.771  0.2069 -0.4740 -0.0347
 6369SOL    HW230744   4.544   1.649   0.903 -1.6451  1.4275  2.2657
 6370SOL     OW30745   4.399   3.382   3.946  0.4604  0.2554 -0.2036
 6370SOL    HW130746   4.341   3.450   3.980 -0.4395  0.0083 -1.2383
 6370SOL    HW230747   4.382   3.384   3.852  0.6041  0.1494 -0.2323
 6371SOL     OW30748   2.457   0.063   7.064 -0.3279 -0.3443 -0.0638
 6371SOL    HW130749   2.464   0.149   7.022  0.4660 -1.4871 -2.2497
 6371SOL    HW230750   2.468   0.007   6.988  0.9661 -0.6960  0.3841
 6372SOL     OW30751   3.054   3.439  11.712 -0.0914 -0.4869 -0.2217
 6372SOL    HW130752   3.132   3.480  11.672  1.7590 -1.5375  2.3480
 6372SOL    HW230753   3.077   3.346  11.704 -0.5210 -0.5763 -0.4078
 6373SOL     OW30754   0.744   1.195   7.861 -0.4930 -0.2307 -0.2144
 6373SOL    HW130755   0.781   1.221   7.776  0.1336  0.2902  0.2174
 6373SOL    HW230756   0.782   1.260   7.920 -0.5923 -0.9827  0.6780
 6374SOL     OW30757   3.925   0.255  15.087 -0.2710  0.2711 -0.1604
 6374SOL    HW130758   3.855   0.197  15.056 -1.3569  0.8807  1.1559
 6374SOL    HW230759   3.876   0.284  15.164  1.1942 -0.8401  1.1953
 6375SOL     OW30760   3.468   4.243   3.440  0.5474 -0.0124 -0.0233
 6375SOL    HW130761   3.481   4.298   3.362  1.4110 -0.6987 -0.3615
 6375SOL    HW230762   3.554   4.202   3.449  1.4072  2.4913  3.1516
 6376SOL     OW30763   3.612   3.321   8.085  0.6676  0.5839  0.0962
 6376SOL    HW130764   3.619   3.360   8.172  1.1651  0.0471  0.3022
 6376SOL    HW230765   3.704   3.307   8.061 -0.2758  2.0257 -4.4736
 6377SOL     OW30766   0.211   2.070   2.587  0.1657 -0.2767  0.2950
 6377SOL    HW130767   0.149   2.133   2.549  0.8875  0.6036  0.5880
 6377SOL    HW230768   0.148   2.024   2.643  0.9556 -0.1310  1.2998
 6378SOL     OW30769   2.622   4.558   4.076 -0.1282  0.2103  0.1899
 6378SOL    HW130770   2.587   4.469   4.072  1.6650 -0.3286 -4.8023
 6378SOL    HW230771   2.716   4.546   4.064 -0.3642 -0.5991 -0.9633
 6379SOL     OW30772   2.778   1.025  11.661  0.3139 -0.2471  0.5784
 6379SOL    HW130773   2.790   1.056  11.571  1.6468 -0.0329  0.8280
 6379SOL    HW230774   2.868   1.004  11.684  0.4487  0.4877  0.7281
 6380SOL     OW30775   4.334   0.857   8.542 -0.9564 -0.2829  0.0782
 6380SOL    HW130776   4.348   0.925   8.609 -0.0309  0.2989 -0.7115
 6380SOL    HW230777   4.427   0.836   8.534 -1.2948 -2.5761  2.1483
 6381SOL     OW30778   4.701   4.468   5.562  0.0289 -0.1504  0.5798
 6381SOL    HW130779   0.056   4.436   5.580  1.0180 -0.2787 -4.5038
 6381SOL    HW230780   4.651   4.388   5.580 -1.6974  1.1510  1.5075
 6382SOL     OW30781   3.216   0.202   4.214 -0.6884  0.1266 -0.8190
 6382SOL    HW130782   3.125   0.173   4.221  0.1588 -2.1514  0.6518
 6382SOL    HW230783   3.264   0.122   4.193  0.6176  0.3282  1.4094
 6383SOL     OW30784   3.148   2.713   7.318  0.4698  0.2842  0.3308
 6383SOL    HW130785   3.189   2.773   7.256  0.8158  0.3906  0.6661
 6383SOL    HW230786   3.109   2.641   7.267 -2.9698  0.8127  2.1962
 6384SOL     OW30787   4.515   0.364   8.416  0.2912  0.3872  0.4993
 6384SOL    HW130788   4.448   0.391   8.479  0.5243 -0.1379  0.9689
 6384SOL    HW230789   4.493   0.425   8.345  2.9321  2.5892  1.5990
 6385SOL     OW30790   2.964   0.053   3.869  0.6883  0.1723 -0.4239
 6385SOL    HW130791   2.893   0.104   3.909  1.0094  0.6824 -0.4948
 6385SOL    HW230792   3.018   0.125   3.834  0.6820  0.4325  0.0991
 6386SOL     OW30793   0.566   3.542  17.462 -0.2728 -0.3513 -0.3210
 6386SOL    HW130794   0.603   3.630  17.465  1.3530 -1.1225  2.1789
 6386SOL    HW230795   0.615   3.501  17.533 -1.9706 -1.6842  0.0707
 6387SOL     OW30796   3.314   0.056   7.257  0.1030 -0.3475 -0.3059
 6387SOL    HW130797   3.311   0.126   7.322 -1.6298  1.0985 -1.9361
 6387SOL    HW230798   3.220   0.041   7.246  0.3775 -0.5897 -2.3453
 6388SOL     OW30799   0.657   1.715   0.907  0.4963  0.6214 -0.2289
 6388SOL    HW130800   0.687   1.714   0.998 -0.0950 -1.0884 -0.0561
 6388SOL    HW230801   0.705   1.642   0.868 -1.2522 -0.6682  0.0786
 6389SOL     OW30802   4.589   3.117   9.384 -0.1032  0.0920 -0.3306
 6389SOL    HW130803   4.637   3.157   9.312  0.9177  0.7472  0.6930
 6389SOL    HW230804   4.516   3.177   9.400 -0.8386 -1.0894  0.7650
 6390SOL     OW30805   2.777   4.595   8.641 -0.3908  0.8778 -0.5487
 6390SOL    HW130806   2.784   4.672   8.696 -2.6925 -0.2563  1.3241
 6390SOL    HW230807   2.811   4.616   8.554 -0.8302 -0.9200 -1.1495
 6391SOL     OW30808   0.150   4.034   4.258 -0.4649  0.0226  0.0347
 6391SOL    HW130809   0.212   4.107   4.250 -0.3757 -0.1573 -0.9081
 6391SOL    HW230810   0.203   3.954   4.249 -0.1186  0.1606  0.8494
 6392SOL     OW30811   1.502   1.639   6.192  0.3502  0.2427 -0.3339
 6392SOL    HW130812   1.528   1.666   6.280  2.9502 -1.5007 -0.5717
 6392SOL    HW230813   1.471   1.550   6.210 -0.0481  0.2168 -1.1547
 6393SOL     OW30814   3.374   4.493   8.127  0.3533 -0.5679 -0.5033
 6393SOL    HW130815   3.437   4.508   8.057  0.8165  0.1061  0.0581
 6393SOL    HW230816   3.420   4.526   8.204 -0.0698  0.0909 -0.5296
 6394SOL     OW30817   4.092   0.572   1.258  0.4046 -0.5868  0.4104
 6394SOL    HW130818   4.024   0.623   1.215 -0.1701  1.8665  4.2909
 6394SOL    HW230819   4.082   0.593   1.351  1.2645 -0.9312  0.5809
 6395SOL     OW30820   3.507   3.186   3.442 -0.0288  0.0306 -0.5605
 6395SOL    HW130821   3.594   3.176   3.479 -0.0896  1.5439  0.0005
 6395SOL    HW230822   3.479   3.095   3.452  1.6198 -0.4835 -0.6724
 6396SOL     OW30823   1.604   3.546   4.991  0.3881 -0.2746  0.3827
 6396SOL    HW130824   1.548   3.610   4.947 -0.0837 -0.1216  1.2260
 6396SOL    HW230825   1.561   3.549   5.076  1.4804  2.8009  0.8136
 6397SOL     OW30826   3.841   0.323   0.004 -0.0818  0.0037 -0.1353
 6397SOL    HW130827   3.789   0.258  17.692 -1.8414  0.3344  1.3447
 6397SOL    HW230828   3.856   0.277   0.086 -1.5777  0.0440  0.1620
 6398SOL     OW30829   3.259   4.584   5.008  0.3018  0.0371  0.0834
 6398SOL    HW130830   3.314   4.550   5.079 -0.7144 -0.3722  0.6707
 6398SOL    HW230831   3.178   4.567   5.055  1.7705 -2.2478  1.8127
 6399SOL     OW30832   0.526   0.465   9.808 -0.7176  0.0758  0.1654
 6399SOL    HW130833   0.528   0.371   9.823 -1.0471  0.4008  2.3077
 6399SOL    HW230834   0.557   0.498   9.893  0.1420 -2.6906  0.9097
 6400SOL     OW30835   0.439   0.352   4.353  0.1272  0.8692 -0.3307
 6400SOL    HW130836   0.464   0.299   4.430 -1.0880 -0.5702 -0.9368
 6400SOL    HW230837   0.509   0.319   4.297  1.2422 -1.4923  2.4285
 6401SOL     OW30838   1.827   4.414   5.019 -0.1614 -0.1449 -0.0834
 6401SOL    HW130839   1.801   4.387   4.931  3.6694  0.4073 -1.4139
 6401SOL    HW230840   1.742   4.416   5.062  0.8649  0.4355  1.8921
 6402SOL     OW30841   4.192   0.472   0.120  0.5337 -0.1750  0.2206
 6402SOL    HW130842   4.238   0.500   0.040  1.5268  1.9779  1.5533
 6402SOL    HW230843   4.190   0.377   0.128 -1.2745 -0.1619  0.0497
 6403SOL     OW30844   3.140   2.388   6.075  0.3358 -0.4093 -0.4800
 6403SOL    HW130845   3.144   2.356   5.985  0.7344  1.5445 -1.1726
 6403SOL    HW230846   3.093   2.470   6.062  2.6809  1.0257 -0.1069
 6404SOL     OW30847   1.367   1.100   1.672 -0.1090 -0.0313 -0.1217
 6404SOL    HW130848   1.416   1.074   1.594 -2.0826 -1.2472 -0.9661
 6404SOL    HW230849   1.277   1.089   1.642 -0.5313 -1.5718  1.7185
 6405SOL     OW30850   3.947   2.883   6.450 -0.1802 -0.1244  0.1985
 6405SOL    HW130851   3.917   2.959   6.501  0.6130  0.0560  0.4021
 6405SOL    HW230852   3.864   2.854   6.412  1.7667 -1.0773 -3.2357
 6406SOL     OW30853   2.684   3.703   4.309 -0.3235 -0.8619 -0.3433
 6406SOL    HW130854   2.600   3.692   4.264 -2.0801  1.4643  2.3470
 6406SOL    HW230855   2.674   3.787   4.353 -1.0466 -0.0476 -2.0453
 6407SOL     OW30856   0.104   4.274   1.650 -0.1383  0.1284 -0.5934
 6407SOL    HW130857   0.159   4.318   1.715 -0.5836 -0.7535  0.3896
 6407SOL    HW230858   0.158   4.200   1.623 -0.8283 -1.5469  2.5584
 6408SOL     OW30859   3.666   1.154  16.115 -0.2823 -0.5253 -0.3055
 6408SOL    HW130860   3.701   1.132  16.201 -0.2300  1.5069  0.1821
 6408SOL    HW230861   3.631   1.240  16.141  2.2445  0.5174 -0.3620
 6409SOL     OW30862   1.792   2.094   6.382  0.1122  0.2936 -0.2944
 6409SOL    HW130863   1.820   2.098   6.473 -1.2068  1.4991  0.0618
 6409SOL    HW230864   1.698   2.078   6.393  0.2863  1.3498  2.8765
 6410SOL     OW30865   2.900   2.652   2.982 -0.3851 -0.0021  0.4027
 6410SOL    HW130866   2.836   2.588   3.010 -3.0252  2.6061  0.3417
 6410SOL    HW230867   2.890   2.720   3.049 -2.5239 -1.4783  1.5626
 6411SOL     OW30868   1.155   2.500  10.221  0.3984  0.5352 -0.0703
 6411SOL    HW130869   1.236   2.547  10.242 -0.6446  2.6862 -0.8529
 6411SOL    HW230870   1.183   2.429  10.163 -2.1490  0.5151 -1.2710
 6412SOL     OW30871   2.542   2.293   0.876 -0.3165 -0.1981 -0.0514
 6412SOL    HW130872   2.523   2.319   0.786  1.0611 -0.5349 -0.4391
 6412SOL    HW230873   2.637   2.291   0.862 -0.0219  0.8127  1.7388
 6413SOL     OW30874   1.367   1.717   5.961 -0.5201  0.5897 -0.4113
 6413SOL    HW130875   1.453   1.719   5.918 -0.6902 -0.9565 -0.8034
 6413SOL    HW230876   1.401   1.690   6.046  0.2392  0.2246 -0.8273
 6414SOL     OW30877   2.145   2.052   2.466  0.4820  0.2738  0.2190
 6414SOL    HW130878   2.196   2.126   2.430 -0.7156  0.3416 -1.3216
 6414SOL    HW230879   2.175   1.979   2.412 -0.6529 -0.0273  0.0134
 6415SOL     OW30880   4.658   0.643   2.697 -0.0194 -0.2316 -0.4326
 6415SOL    HW130881   4.579   0.623   2.647 -0.9743  0.8735  0.6413
 6415SOL    HW230882   4.661   0.571   2.759  0.2950  0.1446 -0.0135
 6416SOL     OW30883   3.433   3.114   8.747 -0.0104  0.3780 -0.0440
 6416SOL    HW130884   3.489   3.191   8.735  0.9103 -0.0732  1.3267
 6416SOL    HW230885   3.497   3.045   8.727  0.7884  0.5316  1.9176
 6417SOL     OW30886   2.157   2.436   1.541  0.7882  0.2276  0.2257
 6417SOL    HW130887   2.169   2.354   1.589 -3.5150  0.7166  2.0667
 6417SOL    HW230888   2.176   2.408   1.451  0.2357 -1.9922  0.7855
 6418SOL     OW30889   1.082   0.868   2.258  0.2945 -0.5322 -0.0918
 6418SOL    HW130890   1.107   0.959   2.277  1.6690 -0.0909 -3.9117
 6418SOL    HW230891   0.987   0.884   2.256 -0.1944 -3.1247  4.5132
 6419SOL     OW30892   2.572   2.004   4.171 -0.7567 -0.5495 -0.3142
 6419SOL    HW130893   2.540   1.986   4.259  2.1559  0.0415  0.8807
 6419SOL    HW230894   2.666   1.993   4.184 -0.6555  1.5804  0.7154
 6420SOL     OW30895   0.053   2.443  12.331 -0.4121  0.2663  0.2679
 6420SOL    HW130896   0.146   2.455  12.313 -0.4496 -0.1933 -0.2385
 6420SOL    HW230897   0.013   2.394  12.259  1.4940 -1.3375  0.2969
 6421SOL     OW30898   3.060   0.644   7.522 -0.5316  0.0232  0.0223
 6421SOL    HW130899   3.023   0.720   7.478  0.5395  1.1331  1.0554
 6421SOL    HW230900   2.977   0.597   7.527 -0.5364  0.0506  0.1932
 6422SOL     OW30901   2.874   0.453   5.220 -0.0100 -0.2031  0.7156
 6422SOL    HW130902   2.813   0.474   5.291 -0.3353 -0.6235  0.5616
 6422SOL    HW230903   2.896   0.544   5.199 -1.8667 -0.5060 -2.5483
 6423SOL     OW30904   0.254   1.069   3.265 -0.4136  0.6432  0.3377
 6423SOL    HW130905   0.269   0.992   3.211  0.0178  1.2108 -0.3579
 6423SOL    HW230906   0.173   1.040   3.308  0.2131 -2.5990 -0.6541
 6424SOL     OW30907   0.697   2.947   7.370  0.1132 -0.1180  0.5166
 6424SOL    HW130908   0.781   2.928   7.329 -0.6486  1.8905 -2.0041
 6424SOL    HW230909   0.659   3.010   7.307 -1.2126 -0.8870  0.5452
 6425SOL     OW30910   0.125   0.514   6.221  0.0204  0.0053  0.8620
 6425SOL    HW130911   0.068   0.585   6.251 -1.9541 -0.8762 -0.7686
 6425SOL    HW230912   0.202   0.534   6.273  0.4208  0.0852  0.2480
 6426SOL     OW30913   2.753   0.706   6.666  0.2433  0.1579 -0.0713
 6426SOL    HW130914   2.684   0.662   6.617  2.2649 -1.5187 -1.4721
 6426SOL    HW230915   2.733   0.676   6.754  2.1524 -1.0438 -0.0441
 6427SOL     OW30916   1.364   0.064   6.327  0.3448  0.4550  0.4937
 6427SOL    HW130917   1.454   0.088   6.304 -0.0754 -1.6046 -3.2135
 6427SOL    HW230918   1.348   0.115   6.407 -1.8501 -0.8424  0.8802
 6428SOL     OW30919   2.123   4.353  10.911  0.2072 -0.0192 -0.2763
 6428SOL    HW130920   2.206   4.324  10.876  1.3603 -1.1142  3.3738
 6428SOL    HW230921   2.101   4.429  10.856  1.3104  0.3441 -0.2129
 6429SOL     OW30922   1.278   4.446   7.575  0.2896 -0.4450  0.1556
 6429SOL    HW130923   1.276   4.516   7.640 -0.0806  1.6415 -2.1017
 6429SOL    HW230924   1.186   4.428   7.557 -0.2842  1.6572  1.0917
 6430SOL     OW30925   3.161   1.717   2.522  0.0708 -0.3100  0.5524
 6430SOL    HW130926   3.237   1.660   2.522  0.0631 -0.3193 -1.4923
 6430SOL    HW230927   3.120   1.699   2.607 -0.4004 -0.6728  0.2504
 6431SOL     OW30928   2.055   2.188   7.722  0.3159 -0.2486 -0.1934
 6431SOL    HW130929   2.133   2.134   7.731 -0.0021 -0.7331 -0.3357
 6431SOL    HW230930   1.997   2.122   7.684 -1.6223  0.6232  1.2533
 6432SOL     OW30931   2.403   4.169   2.597 -0.4857 -0.4422  0.2125
 6432SOL    HW130932   2.435   4.083   2.623 -1.1394 -0.3291  1.4327
 6432SOL    HW230933   2.469   4.221   2.644 -0.1488  0.2036 -0.9788
 6433SOL     OW30934   1.967   3.362   2.684  0.1465  0.4874  0.1150
 6433SOL    HW130935   1.873   3.353   2.674  0.1352 -0.0347  0.6252
 6433SOL    HW230936   1.979   3.456   2.672  1.1440  0.5644  1.6333
 6434SOL     OW30937   3.930   0.605   5.037  0.4057 -0.0793 -0.0341
 6434SOL    HW130938   4.016   0.563   5.046  0.6928  0.5957  0.4295
 6434SOL    HW230939   3.937   0.682   5.094 -1.1766  0.7389 -0.9561
 6435SOL     OW30940   0.990   2.138   9.525  0.6762  0.1855 -0.2939
 6435SOL    HW130941   0.967   2.230   9.513 -2.0291 -0.4862 -0.3562
 6435SOL    HW230942   0.906   2.098   9.548  1.4245 -0.9238  0.5391
 6436SOL     OW30943   2.578   0.746   4.106 -0.0647  0.2665  0.4975
 6436SOL    HW130944   2.616   0.818   4.155  0.5266  0.5235 -0.3427
 6436SOL    HW230945   2.656   0.709   4.065  0.3405  0.7384  0.8439
 6437SOL     OW30946   3.912   2.506   7.739  0.2815  0.0028 -0.3721
 6437SOL    HW130947   3.840   2.559   7.775  0.9906 -0.2199  1.4070
 6437SOL    HW230948   3.906   2.437   7.805 -0.4983  1.0103  0.6333
 6438SOL     OW30949   3.421   3.031   7.605 -0.0288  0.0166 -0.9150
 6438SOL    HW130950   3.485   3.091   7.568  0.2754 -0.8422 -1.7847
 6438SOL    HW230951   3.397   2.980   7.527  2.9976 -1.4673 -0.8708
 6439SOL     OW30952   2.883   2.176   2.215  0.1583 -0.5338 -0.1089
 6439SOL    HW130953   2.913   2.088   2.192  0.4209 -0.9143  1.6843
 6439SOL    HW230954   2.962   2.212   2.255  0.3450 -0.9542 -0.0986
 6440SOL     OW30955   0.319   2.279  14.980 -0.1010 -0.1206 -0.3309
 6440SOL    HW130956   0.359   2.346  15.035 -1.6039 -0.4373  1.1360
 6440SOL    HW230957   0.343   2.307  14.891 -1.6465  0.9584 -0.4190
 6441SOL     OW30958   2.140   0.320  13.598  0.2739 -0.6113  0.1530
 6441SOL    HW130959   2.082   0.289  13.668 -0.6110 -0.0265 -0.3190
 6441SOL    HW230960   2.075   0.337  13.529 -1.0619 -1.1887  1.2673
 6442SOL     OW30961   2.003   0.954   4.856  0.0187  0.4822 -0.3334
 6442SOL    HW130962   2.041   0.945   4.943 -0.3361 -1.2778 -0.3623
 6442SOL    HW230963   1.918   0.917   4.880 -0.9029  2.8697  0.0677
 6443SOL     OW30964   3.177   1.368   8.789 -0.4050 -0.0599 -1.0105
 6443SOL    HW130965   3.190   1.463   8.783 -0.0043  0.0868  2.4080
 6443SOL    HW230966   3.189   1.355   8.695 -0.3870  0.1459 -1.0380
 6444SOL     OW30967   0.254   1.326   6.531  0.1757  0.0313  0.2612
 6444SOL    HW130968   0.276   1.380   6.607 -0.8443 -0.5839  0.9969
 6444SOL    HW230969   0.344   1.309   6.505 -0.4255 -0.8518 -1.2112
 6445SOL     OW30970   0.395   0.973   2.444 -0.2504 -0.1685  0.0890
 6445SOL    HW130971   0.366   0.903   2.386  1.2915 -0.5029 -0.2849
 6445SOL    HW230972   0.375   0.943   2.533 -2.0284 -0.1052 -0.2862
 6446SOL     OW30973   4.644   4.121   4.862  0.1762 -0.3717  0.3151
 6446SOL    HW130974   4.615   4.088   4.947  0.9227  2.8096  1.7794
 6446SOL    HW230975   4.635   4.043   4.807 -2.8060 -0.1568  0.4984
 6447SOL     OW30976   2.247   0.876  17.463 -0.4083  0.3092  0.1724
 6447SOL    HW130977   2.159   0.837  17.464 -0.7164  0.9422 -1.5110
 6447SOL    HW230978   2.236   0.946  17.527 -0.9595 -0.1550  0.5867
 6448SOL     OW30979   2.965   1.215  16.025  0.6550 -0.1554 -0.2928
 6448SOL    HW130980   2.874   1.246  16.021 -0.0501 -2.7229 -3.6809
 6448SOL    HW230981   2.944   1.128  16.057 -0.2487  0.1374 -0.0864
 6449SOL     OW30982   0.902   0.352   7.295 -0.7113 -0.6332 -0.0587
 6449SOL    HW130983   0.850   0.355   7.214  1.8387 -1.7486 -1.7320
 6449SOL    HW230984   0.855   0.421   7.342 -0.7336 -1.2854  0.8620
 6450SOL     OW30985   1.506   2.392   7.877  0.6965 -0.6818 -0.4119
 6450SOL    HW130986   1.561   2.327   7.920 -0.4181 -2.5899 -1.9178
 6450SOL    HW230987   1.436   2.394   7.943 -0.2997 -0.6188 -1.4764
 6451SOL     OW30988   2.527   1.844  15.105  0.3781  0.5937  0.2282
 6451SOL    HW130989   2.510   1.824  15.197 -0.5887  1.1592  0.1740
 6451SOL    HW230990   2.501   1.766  15.056 -2.3539  1.1353  0.8339
 6452SOL     OW30991   3.480   2.433  16.134  0.3131  0.1995 -0.2677
 6452SOL    HW130992   3.461   2.340  16.145  4.0745 -0.4954  0.3458
 6452SOL    HW230993   3.573   2.430  16.154  0.1089  2.1502  1.0920
 6453SOL     OW30994   1.341   2.407   7.591  0.0278 -0.0944 -0.0529
 6453SOL    HW130995   1.314   2.330   7.541  3.9560 -0.7487 -1.1857
 6453SOL    HW230996   1.269   2.466   7.569 -1.6408 -3.1181 -2.7136
 6454SOL     OW30997   0.488   3.136   3.959 -0.0430 -0.2324 -0.3078
 6454SOL    HW130998   0.397   3.140   3.988  0.8753 -0.7207  2.7113
 6454SOL    HW230999   0.529   3.216   3.989  0.5977 -0.5791 -0.2583
 6455SOL     OW31000   4.067   4.202   8.322  0.1084  0.3419 -0.8281
 6455SOL    HW131001   4.051   4.211   8.228 -2.4573 -1.0894 -0.5333
 6455SOL    HW231002   4.142   4.257   8.342  0.0363  0.1089  0.0977
 6456SOL     OW31003   0.727   2.636   8.969  0.5258 -0.5925  0.3601
 6456SOL    HW131004   0.676   2.647   8.889  2.1828 -0.4572 -0.6892
 6456SOL    HW231005   0.668   2.579   9.018 -1.1378  0.7078 -0.1349
 6457SOL     OW31006   3.576   4.064   4.837  0.0472  0.3951 -0.4532
 6457SOL    HW131007   3.584   4.153   4.803  0.4658  0.9187  1.0143
 6457SOL    HW231008   3.621   4.018   4.766  0.1543 -0.4311  0.1334
 6458SOL     OW31009   1.633   1.385   4.164 -0.4028 -0.2285 -0.0230
 6458SOL    HW131010   1.582   1.314   4.204  1.0607 -0.7012  1.0063
 6458SOL    HW231011   1.709   1.336   4.133  0.2081  1.8621 -1.7857
 6459SOL     OW31012   2.810   3.873   5.289  0.1305 -0.2090  0.0595
 6459SOL    HW131013   2.751   3.822   5.235  0.9647 -2.8949  1.6848
 6459SOL    HW231014   2.799   3.842   5.379 -0.5661 -1.3851 -0.4386
 6460SOL     OW31015   1.050   1.619  13.167 -0.2009  0.0709  0.1537
 6460SOL    HW131016   1.087   1.608  13.079  1.2121 -2.2396  1.0494
 6460SOL    HW231017   1.093   1.545  13.210  0.6562  1.4790  1.7018
 6461SOL     OW31018   3.727   0.309   5.238  0.1871 -0.3076 -0.2599
 6461SOL    HW131019   3.707   0.319   5.145 -1.8399 -1.4946  0.0346
 6461SOL    HW231020   3.642   0.325   5.280  2.3742  2.5617  3.0532
 6462SOL     OW31021   1.909   0.146  14.104  0.2887  0.1761 -0.5656
 6462SOL    HW131022   1.900   0.229  14.151 -0.1128 -0.6694  0.8418
 6462SOL    HW231023   1.907   0.084  14.177 -1.0463  1.2926  0.3499
 6463SOL     OW31024   4.573   2.115   5.039 -0.0300  0.7389  0.4984
 6463SOL    HW131025   4.492   2.103   5.089  0.2158 -0.3476  0.6346
 6463SOL    HW231026   4.614   2.036   5.075 -0.1065  0.1685 -0.6915
 6464SOL     OW31027   0.036   2.931   3.412  0.2584  0.0949  0.0103
 6464SOL    HW131028   0.078   2.890   3.488 -0.5001 -0.1952  0.2745
 6464SOL    HW231029   4.678   2.905   3.414  0.5035 -0.7745  0.0875
 6465SOL     OW31030   2.722   3.534   0.824 -0.0701  0.2585 -0.0556
 6465SOL    HW131031   2.634   3.498   0.822  0.3359 -0.8204  1.2612
 6465SOL    HW231032   2.779   3.462   0.852 -1.5415 -0.7767  0.3181
 6466SOL     OW31033   4.282   1.765   5.732  0.2596  0.1440 -0.4604
 6466SOL    HW131034   4.295   1.838   5.671 -2.5979 -0.5659 -1.9521
 6466SOL    HW231035   4.355   1.708   5.706  0.5818  1.0851 -1.6288
 6467SOL     OW31036   2.283   1.120   9.454  0.3223  0.2996  0.1500
 6467SOL    HW131037   2.352   1.176   9.419 -0.7039 -1.1037 -4.0799
 6467SOL    HW231038   2.342   1.050   9.480 -0.3651  0.1096  1.1754
 6468SOL     OW31039   4.497   2.687   5.895  0.3139 -0.1185  0.8622
 6468SOL    HW131040   4.477   2.758   5.957  1.8809  2.1808 -1.2309
 6468SOL    HW231041   4.553   2.620   5.934 -0.1590 -2.2981 -2.2588
 6469SOL     OW31042   4.691   1.420   2.772  0.0466  0.5104 -0.3358
 6469SOL    HW131043   0.050   1.440   2.771  0.1722 -0.0227  1.0252
 6469SOL    HW231044   4.659   1.510   2.769 -0.2736  0.4656  1.7256
 6470SOL     OW31045   4.628   1.581   4.213 -0.1996  0.4353  0.1842
 6470SOL    HW131046   4.629   1.605   4.120 -1.3263  2.5675  0.7430
 6470SOL    HW231047   4.546   1.533   4.228  1.9315 -2.4465  2.7277
 6471SOL     OW31048   2.673   2.076  15.211  0.5182 -0.3155 -0.0500
 6471SOL    HW131049   2.628   1.996  15.186  1.9437 -1.6470  1.6522
 6471SOL    HW231050   2.655   2.134  15.137 -1.1856  0.5161  1.0020
 6472SOL     OW31051   4.167   1.206   0.941  0.5097 -0.1588  0.1756
 6472SOL    HW131052   4.175   1.289   0.896 -1.3970  0.3219  0.7451
 6472SOL    HW231053   4.244   1.154   0.919  0.4414 -0.1483 -0.0859
 6473SOL     OW31054   4.447   1.750   4.545  0.4050  0.2918  0.3602
 6473SOL    HW131055   4.352   1.746   4.537  0.5818 -1.4639 -0.8794
 6473SOL    HW231056   4.483   1.774   4.459 -0.9166 -0.1240 -0.3116
 6474SOL     OW31057   2.388   4.288   4.776  0.0876  0.4670  0.1399
 6474SOL    HW131058   2.478   4.291   4.807  0.4082  0.2226 -0.7565
 6474SOL    HW231059   2.339   4.351   4.829 -1.2717 -0.9982  0.6417
 6475SOL     OW31060   0.492   2.159   3.455  0.2984 -0.3146  0.3972
 6475SOL    HW131061   0.561   2.168   3.389  1.8928 -2.1897  1.8000
 6475SOL    HW231062   0.538   2.172   3.538 -0.8135  3.9736  0.3403
 6476SOL     OW31063   0.678   0.737   6.257  0.2523 -0.4130 -0.0611
 6476SOL    HW131064   0.633   0.708   6.178 -1.6056  0.6320  0.6012
 6476SOL    HW231065   0.742   0.668   6.275 -0.6953 -1.4174 -0.5405
 6477SOL     OW31066   2.822   0.830   3.491  0.1673  0.0341 -0.0439
 6477SOL    HW131067   2.741   0.782   3.472 -0.0480 -0.1937  1.4740
 6477SOL    HW231068   2.859   0.774   3.559  0.8401  1.7037  0.9549
 6478SOL     OW31069   2.345   3.548   2.827 -0.1053  0.3315  0.5647
 6478SOL    HW131070   2.290   3.589   2.760  2.0749 -0.3477 -1.6043
 6478SOL    HW231071   2.396   3.625   2.853 -0.7725  0.6649  0.9065
 6479SOL     OW31072   0.398   2.318   7.237 -0.3952 -0.3374  0.2669
 6479SOL    HW131073   0.438   2.337   7.152 -1.0909 -0.1334 -0.0138
 6479SOL    HW231074   0.464   2.333   7.304  1.0166 -1.7396 -0.8067
 6480SOL     OW31075   1.756   3.616   1.669 -0.7397 -0.1896 -0.6097
 6480SOL    HW131076   1.777   3.705   1.697 -0.2726 -0.2836 -0.6552
 6480SOL    HW231077   1.713   3.583   1.748 -0.4627  1.0688  0.0706
 6481SOL     OW31078   2.579   0.040  15.753 -0.4081 -0.3231 -0.0745
 6481SOL    HW131079   2.549   0.019  15.665  0.4916 -0.7375 -0.2785
 6481SOL    HW231080   2.498   0.054  15.802  1.1708  2.3630  1.7424
 6482SOL     OW31081   0.222   0.119   5.439  0.1930 -0.0628  0.5605
 6482SOL    HW131082   0.262   0.046   5.391  2.0616  0.9563  0.5610
 6482SOL    HW231083   0.129   0.098   5.441  0.4959 -1.4208  0.6326
 6483SOL     OW31084   2.241   4.652   4.715 -0.3722  0.5242 -0.4468
 6483SOL    HW131085   2.250   4.571   4.765  3.1901 -0.0040 -1.9522
 6483SOL    HW231086   2.150   4.651   4.687  0.0669  1.2677 -1.8984
 6484SOL     OW31087   1.008   2.598   9.286  0.1917  0.4452  0.5869
 6484SOL    HW131088   1.034   2.680   9.329 -0.4895  0.4982  0.8902
 6484SOL    HW231089   0.966   2.543   9.351  1.4942  0.7531  1.7068
 6485SOL     OW31090   4.127   1.088   3.664 -0.3211 -0.1458  0.1025
 6485SOL    HW131091   4.142   1.176   3.630  0.4703 -1.5038 -3.0634
 6485SOL    HW231092   4.164   1.042   3.589  0.9306  0.0361  0.6032
 6486SOL     OW31093   4.569   0.146   8.660 -0.1164  0.3499  0.2663
 6486SOL    HW131094   4.507   0.179   8.595  1.4899  2.7025 -0.0714
 6486SOL    HW231095   4.545   0.053   8.651 -1.9645  0.7274  1.1575
 6487SOL     OW31096   2.337   1.502   1.584  0.1187 -0.2858  0.1353
 6487SOL    HW131097   2.331   1.588   1.625 -1.8210  0.6363 -2.0750
 6487SOL    HW231098   2.320   1.519   1.492  1.6935 -2.2107 -0.4981
 6488SOL     OW31099   3.127   0.717   5.276 -0.1847 -0.4072 -0.0463
 6488SOL    HW131100   3.035   0.710   5.252 -0.6355  1.3464  1.1627
 6488SOL    HW231101   3.130   0.778   5.351 -0.6328 -1.1045  0.5382
 6489SOL     OW31102   0.032   3.516   7.923 -0.1143 -0.3888 -0.2214
 6489SOL    HW131103   4.723   3.532   8.008  1.0289  0.4697  0.2040
 6489SOL    HW231104   0.117   3.497   7.964 -0.9223 -1.0734  1.1435
 6490SOL     OW31105   4.404   3.617   1.235  0.3703 -0.2634  0.7292
 6490SOL    HW131106   4.453   3.668   1.170 -1.5455  0.0519 -0.4646
 6490SOL    HW231107   4.460   3.540   1.244  3.0226  1.5871  0.1707
 6491SOL     OW31108   3.757   2.191   3.112  0.4876  0.0384 -0.1887
 6491SOL    HW131109   3.811   2.195   3.191  2.0743 -1.2616 -1.1943
 6491SOL    HW231110   3.672   2.199   3.154  0.0789 -0.4278 -0.9375
 6492SOL     OW31111   1.183   3.519   2.388 -0.4614 -0.4932 -0.2841
 6492SOL    HW131112   1.118   3.468   2.436  0.2669 -0.8334  0.3372
 6492SOL    HW231113   1.236   3.560   2.457 -0.2801  0.5577 -1.0418
 6493SOL     OW31114   0.411   4.572   8.452  0.1789 -0.1109 -0.1492
 6493SOL    HW131115   0.402   4.621   8.534 -0.5075  0.7016 -0.7041
 6493SOL    HW231116   0.474   4.608   8.390 -0.5500 -0.9640 -1.3927
 6494SOL     OW31117   1.970   4.242   5.405 -0.0393 -0.1279 -0.1357
 6494SOL    HW131118   2.029   4.248   5.330 -1.4200 -1.7721 -1.3413
 6494SOL    HW231119   2.025   4.243   5.483 -0.0170  0.3800 -0.1525
 6495SOL     OW31120   3.592   1.153   7.874 -0.0838  0.2870  0.7089
 6495SOL    HW131121   3.543   1.081   7.834  0.2875 -1.1718  2.9026
 6495SOL    HW231122   3.542   1.225   7.836 -2.0513 -0.8267  1.2093
 6496SOL     OW31123   1.503   0.661   4.711 -0.0824  0.4833  0.2129
 6496SOL    HW131124   1.429   0.600   4.711  0.9774 -0.7941 -2.5072
 6496SOL    HW231125   1.567   0.619   4.655 -0.4760  1.6077 -1.0921
 6497SOL     OW31126   3.647   2.230  16.710  0.3522  0.0771 -0.1835
 6497SOL    HW131127   3.625   2.297  16.646 -1.3035 -0.0867  0.2263
 6497SOL    HW231128   3.714   2.282  16.754  1.6855 -1.5784 -0.2474
 6498SOL     OW31129   3.838   0.085   7.008 -0.3577  0.0655  0.2097
 6498SOL    HW131130   3.905   0.025   7.040  2.3433  1.6510 -2.5201
 6498SOL    HW231131   3.810   0.133   7.086 -0.9642  0.2282 -0.1015
 6499SOL     OW31132   1.952   2.892   7.850 -0.1414 -0.4376 -0.2444
 6499SOL    HW131133   2.042   2.904   7.881  0.2806 -1.5186 -1.0620
 6499SOL    HW231134   1.933   2.808   7.892 -2.1595  0.0051 -0.2481
 6500SOL     OW31135   0.581   0.253   7.710  0.0630  0.1639 -1.1109
 6500SOL    HW131136   0.665   0.298   7.700  0.5767 -0.3154  1.0035
 6500SOL    HW231137   0.571   0.214   7.623 -0.0618  1.1363 -1.5314
 6501SOL     OW31138   1.118   4.335   4.729  0.2881  0.3822 -0.0100
 6501SOL    HW131139   1.039   4.334   4.675  1.1612  1.6664 -1.3140
 6501SOL    HW231140   1.156   4.249   4.711  1.8300  1.4579 -1.9056
 6502SOL     OW31141   0.577   1.865   7.924 -0.5125  0.0128 -0.0513
 6502SOL    HW131142   0.550   1.920   7.998  1.2687  0.7266  0.0743
 6502SOL    HW231143   0.532   1.920   7.860  3.3780  0.6738 -2.2284
 6503SOL     OW31144   0.546   1.252   0.470  0.1559 -0.4375  0.0188
 6503SOL    HW131145   0.512   1.191   0.404  0.6012 -1.7925  1.0412
 6503SOL    HW231146   0.588   1.317   0.413 -0.6432 -0.0511 -0.1343
 6504SOL     OW31147   4.613   0.695   3.747 -0.3794 -0.6455  0.4965
 6504SOL    HW131148   4.665   0.723   3.823 -1.1926  0.7254  0.5470
 6504SOL    HW231149   4.642   0.604   3.742  0.5319 -0.3018 -0.5415
 6505SOL     OW31150   1.639   4.034   1.153  0.1111 -0.2708 -0.4245
 6505SOL    HW131151   1.671   4.054   1.065 -0.9872  2.2350 -0.2647
 6505SOL    HW231152   1.647   3.940   1.167 -0.2937 -0.0673  1.1099
 6506SOL     OW31153   2.335   2.358   3.387  0.3120 -0.1942  0.4441
 6506SOL    HW131154   2.359   2.267   3.372 -0.7793 -0.3307 -0.4237
 6506SOL    HW231155   2.408   2.390   3.440  1.7765 -1.1980 -0.9420
 6507SOL     OW31156   0.053   2.429   1.213 -0.3789  0.1060  0.5425
 6507SOL    HW131157   4.696   2.428   1.240 -0.0436  1.8942  1.7151
 6507SOL    HW231158   0.088   2.413   1.300  0.6405 -1.0689 -0.0936
 6508SOL     OW31159   2.448   2.073  13.768 -0.3353  0.4829  0.3027
 6508SOL    HW131160   2.434   2.016  13.844  1.7827  0.3632  0.6013
 6508SOL    HW231161   2.414   2.012  13.702 -0.6102 -0.8390  1.6477
 6509SOL     OW31162   1.469   0.347   5.054  0.3425 -0.3402 -0.0972
 6509SOL    HW131163   1.395   0.303   5.012  1.4513 -1.2270 -1.1157
 6509SOL    HW231164   1.415   0.399   5.114  1.1779 -0.6180  0.9046
 6510SOL     OW31165   3.577   1.416   8.080 -0.0036 -0.7989  0.3328
 6510SOL    HW131166   3.596   1.496   8.031 -3.9684  1.8025  3.0073
 6510SOL    HW231167   3.482   1.422   8.080 -0.0152 -1.0162 -0.9138
 6511SOL     OW31168   3.376   0.038  13.380  0.4340  0.1035 -0.0704
 6511SOL    HW131169   3.332   0.115  13.414  0.3735 -0.7958  1.9069
 6511SOL    HW231170   3.301   4.720  13.351  1.9428 -1.5669 -0.9981
 6512SOL     OW31171   2.252   3.709   5.527 -0.2546 -0.1143 -0.0597
 6512SOL    HW131172   2.280   3.620   5.510 -0.8798 -0.0589 -1.3234
 6512SOL    HW231173   2.169   3.685   5.568  0.1374 -1.5397 -0.1092
 6513SOL     OW31174   1.713   1.257  16.738 -0.5727 -0.1744  0.5274
 6513SOL    HW131175   1.808   1.266  16.728 -0.6560  1.4008  1.0422
 6513SOL    HW231176   1.687   1.326  16.677  2.2819  1.1783  0.8364
 6514SOL     OW31177   0.585   3.152  14.391  0.3244  0.2642  0.2762
 6514SOL    HW131178   0.562   3.208  14.317 -1.5053  0.6333  1.1323
 6514SOL    HW231179   0.622   3.216  14.451 -2.7880  0.0647  2.4112
 6515SOL     OW31180   4.671   2.961   4.442  0.3711 -0.5966 -0.4291
 6515SOL    HW131181   4.629   2.891   4.492 -1.1868  0.5594 -0.1252
 6515SOL    HW231182   4.599   3.022   4.457 -0.3229 -1.2734 -1.0384
 6516SOL     OW31183   4.142   4.488   4.752  0.7051  0.1778  0.1766
 6516SOL    HW131184   4.100   4.489   4.666  0.4423  0.4356  0.3099
 6516SOL    HW231185   4.216   4.428   4.754 -0.5568 -1.3717  0.2962
 6517SOL     OW31186   1.606   0.061  11.191 -0.3823 -0.3498 -0.3080
 6517SOL    HW131187   1.695   0.083  11.165 -0.2960  0.8610  1.0382
 6517SOL    HW231188   1.573   0.142  11.230 -1.2939 -0.6789 -0.4033
 6518SOL     OW31189   1.027   0.873   3.462  0.9316 -0.3390 -0.0841
 6518SOL    HW131190   0.976   0.880   3.381  0.3058 -2.5892  0.1190
 6518SOL    HW231191   0.966   0.834   3.524 -1.9651  1.7050 -1.6128
 6519SOL     OW31192   0.490   1.471   2.546 -0.2627 -0.0707  0.1945
 6519SOL    HW131193   0.524   1.391   2.505 -2.3084 -0.7067 -0.2977
 6519SOL    HW231194   0.575   1.493   2.583 -0.1338 -0.7220  0.2913
 6520SOL     OW31195   0.890   0.793  14.681  0.2367  0.2597 -0.0030
 6520SOL    HW131196   0.882   0.837  14.766  0.0103 -0.6169  0.4284
 6520SOL    HW231197   0.971   0.829  14.646  0.0410 -0.2608 -0.9703
 6521SOL     OW31198   4.227   4.078   3.718 -0.5213 -0.1510  0.1304
 6521SOL    HW131199   4.322   4.085   3.718 -0.6039  0.9837 -0.3756
 6521SOL    HW231200   4.220   4.010   3.651 -1.8018  0.2957 -0.1866
 6522SOL     OW31201   3.060   3.417   6.335 -0.1052  0.2158  0.3423
 6522SOL    HW131202   3.103   3.333   6.320  1.1292  0.7088  1.1377
 6522SOL    HW231203   3.004   3.422   6.257  0.1905  1.8379  0.2409
 6523SOL     OW31204   2.087   2.737   6.175  0.1926  0.1649  0.0295
 6523SOL    HW131205   2.116   2.818   6.216 -1.1091  0.2649  0.7320
 6523SOL    HW231206   1.995   2.762   6.183  0.5634  1.0922  1.2663
 6524SOL     OW31207   3.322   4.353  15.014  0.4777 -0.1750 -0.5484
 6524SOL    HW131208   3.322   4.413  15.088 -0.8779 -0.3821 -0.3857
 6524SOL    HW231209   3.245   4.297  15.025 -1.1369  1.3898 -3.8910
 6525SOL     OW31210   0.742   1.796   5.239 -0.1471  0.3324 -0.7529
 6525SOL    HW131211   0.654   1.832   5.233  0.0857  0.9783 -0.3944
 6525SOL    HW231212   0.798   1.862   5.197  0.1456  1.1737  0.9400
 6526SOL     OW31213   2.132   1.548  14.625 -0.3583  0.8123  0.5123
 6526SOL    HW131214   2.175   1.539  14.710 -2.4288 -0.5485  1.4241
 6526SOL    HW231215   2.127   1.461  14.586  1.9312  0.3050  1.3600
 6527SOL     OW31216   2.250   2.125   2.061  0.1643 -0.1998 -0.2509
 6527SOL    HW131217   2.340   2.120   2.091 -0.1195 -0.2388  0.5890
 6527SOL    HW231218   2.217   2.044   2.100 -0.2817  0.8192  1.4880
 6528SOL     OW31219   4.099   0.603   6.412  0.3117 -0.0045  0.7961
 6528SOL    HW131220   4.019   0.654   6.422 -0.3720 -0.9832  0.3316
 6528SOL    HW231221   4.066   0.521   6.375 -0.0733  0.7969 -0.6076
 6529SOL     OW31222   1.545   1.941  16.051 -0.2572  0.1832  0.7347
 6529SOL    HW131223   1.639   1.923  16.055 -0.3214 -0.3142  0.0201
 6529SOL    HW231224   1.545   2.032  16.021 -0.0073  0.1566  0.6506
 6530SOL     OW31225   1.404   4.528  14.284  0.7509 -0.4240 -0.5017
 6530SOL    HW131226   1.405   4.620  14.312  3.2670 -0.9497  1.1994
 6530SOL    HW231227   1.470   4.522  14.214  3.2403 -1.2310  1.9116
 6531SOL     OW31228   1.273   2.000   1.641 -0.5006 -0.0496  0.1520
 6531SOL    HW131229   1.297   2.012   1.733  3.3828 -0.6436 -0.8123
 6531SOL    HW231230   1.226   1.917   1.642 -2.0612  0.8299 -0.5004
 6532SOL     OW31231   2.607   0.421   8.176  0.7369 -0.2736  0.0478
 6532SOL    HW131232   2.585   0.347   8.120 -0.4695 -0.5746  0.9245
 6532SOL    HW231233   2.546   0.401   8.247  0.7595 -2.3045 -0.5101
 6533SOL     OW31234   3.190   0.831  13.931 -0.0848 -0.5378  0.2316
 6533SOL    HW131235   3.273   0.874  13.911 -0.2711 -1.0044 -1.5669
 6533SOL    HW231236   3.137   0.896  13.884 -0.1454 -0.7115  0.0568
 6534SOL     OW31237   1.767   1.411  12.529  0.0106 -0.0590  0.2895
 6534SOL    HW131238   1.813   1.334  12.494 -1.9136 -1.1927  0.2812
 6534SOL    HW231239   1.706   1.367  12.588  0.5380 -1.1018  0.0798
 6535SOL     OW31240   2.034   4.108   6.925 -0.4857  0.0380 -0.6064
 6535SOL    HW131241   1.950   4.141   6.956  0.5163  1.5406  0.5412
 6535SOL    HW231242   2.018   4.015   6.939  2.5500 -0.0171  2.4271
 6536SOL     OW31243   1.891   2.490  12.242  0.1878 -0.0634  0.4480
 6536SOL    HW131244   1.914   2.440  12.163  0.7956  2.3566 -0.9209
 6536SOL    HW231245   1.845   2.425  12.295 -0.1427  1.9933  2.6641
 6537SOL     OW31246   0.591   3.919  11.362 -0.2090  0.4185  0.1134
 6537SOL    HW131247   0.576   3.954  11.274 -0.4361 -0.6714 -0.2846
 6537SOL    HW231248   0.685   3.905  11.355 -0.3457 -1.0912  1.5633
 6538SOL     OW31249   0.576   0.350   1.892  0.0103 -0.8218  0.1289
 6538SOL    HW131250   0.584   0.265   1.849 -0.6841 -0.8352  0.0157
 6538SOL    HW231251   0.650   0.362   1.951  0.5841  0.7430 -0.9344
 6539SOL     OW31252   1.696   1.794   8.644 -0.4055 -0.0268 -0.0342
 6539SOL    HW131253   1.668   1.874   8.688 -0.2278  1.3191 -2.3283
 6539SOL    HW231254   1.610   1.753   8.643 -0.2532 -0.3552  0.9465
 6540SOL     OW31255   0.002   3.056   3.828  0.4545  0.2823 -0.1051
 6540SOL    HW131256   4.679   2.997   3.877  0.7988 -0.6018 -0.7802
 6540SOL    HW231257   0.075   3.055   3.891 -0.0462  0.6409  0.4870
 6541SOL     OW31258   1.816   0.594   6.899 -0.5387  0.4029  0.6327
 6541SOL    HW131259   1.791   0.682   6.872 -2.4987 -0.2135  0.3961
 6541SOL    HW231260   1.898   0.622   6.941 -0.6502  0.9492  0.4879
 6542SOL     OW31261   4.091   1.761  13.686 -0.5953 -0.5079 -0.3221
 6542SOL    HW131262   4.165   1.754  13.626 -2.5256 -0.1833 -2.7594
 6542SOL    HW231263   4.058   1.846  13.654  1.2561 -0.2965 -1.6975
 6543SOL     OW31264   0.082   3.793  16.696  0.5384 -0.1458  0.1412
 6543SOL    HW131265   0.162   3.799  16.748  0.2378 -0.2174  0.6205
 6543SOL    HW231266   0.045   3.718  16.742 -0.5842  0.9423  1.0474
 6544SOL     OW31267   3.176   1.919   6.566  0.3209 -0.1280 -0.0853
 6544SOL    HW131268   3.119   1.871   6.627  0.5209 -1.9895 -1.3698
 6544SOL    HW231269   3.214   1.976   6.633  0.3760  0.0968 -0.3095
 6545SOL     OW31270   2.828   4.331  15.790 -0.4232  0.6071  0.5189
 6545SOL    HW131271   2.826   4.239  15.819 -2.8282  0.7265  0.7200
 6545SOL    HW231272   2.813   4.382  15.870 -1.4712  2.5216 -0.9012
 6546SOL     OW31273   4.610   2.255   6.076 -0.0609 -0.4730 -0.2144
 6546SOL    HW131274   4.556   2.179   6.051 -0.6003  0.2073 -1.1209
 6546SOL    HW231275   4.588   2.248   6.169 -0.4089  0.9785 -0.1913
 6547SOL     OW31276   2.640   2.650  12.995  1.2465  0.1587  0.6028
 6547SOL    HW131277   2.611   2.611  12.912  0.6783  0.0101  0.8769
 6547SOL    HW231278   2.634   2.581  13.060  0.3332 -1.7064 -1.4448
 6548SOL     OW31279   4.085   0.973  10.875 -0.0711  0.3983  0.4929
 6548SOL    HW131280   4.038   1.049  10.842 -1.6480 -0.6767  0.2761
 6548SOL    HW231281   4.023   0.937  10.939 -0.3208  0.2173  0.1456
 6549SOL     OW31282   1.178   2.963   2.931  0.5262 -0.6693 -0.2220
 6549SOL    HW131283   1.083   2.955   2.930  0.4323  0.5135 -0.3026
 6549SOL    HW231284   1.200   2.870   2.938 -0.8710 -1.0368 -0.7873
 6550SOL     OW31285   4.441   3.763   9.265 -0.5283 -0.0791  0.1051
 6550SOL    HW131286   4.470   3.814   9.340  2.0905 -2.1180  0.4950
 6550SOL    HW231287   4.371   3.822   9.236 -1.3052 -0.3743  1.3850
 6551SOL     OW31288   1.731   2.824   9.002  0.2291  0.2634 -0.1187
 6551SOL    HW131289   1.755   2.862   8.918 -0.6600  0.6485 -0.2019
 6551SOL    HW231290   1.677   2.747   8.986 -1.0290  1.3375 -1.0036
 6552SOL     OW31291   2.069   1.443  11.946 -0.0556 -0.2506  0.7365
 6552SOL    HW131292   1.984   1.400  11.961 -1.2753  1.5161 -1.1017
 6552SOL    HW231293   2.119   1.370  11.911 -0.4015 -0.6422  1.0502
 6553SOL     OW31294   2.820   3.304   1.291 -0.1830 -0.2173 -0.2208
 6553SOL    HW131295   2.735   3.323   1.252  0.6570 -0.5583 -2.1870
 6553SOL    HW231296   2.820   3.380   1.349 -1.5986 -1.6422  1.6763
 6554SOL     OW31297   4.198   0.950  11.199  0.7271  0.4386  0.3508
 6554SOL    HW131298   4.175   0.871  11.152  2.8388 -0.8134  1.4155
 6554SOL    HW231299   4.293   0.944  11.203  0.6395 -2.1994 -1.7454
 6555SOL     OW31300   2.844   0.624   6.334  0.0746  0.3190 -0.1555
 6555SOL    HW131301   2.813   0.714   6.333 -0.3339  0.1955  1.5339
 6555SOL    HW231302   2.874   0.614   6.244 -1.6309 -0.2888 -0.6423
 6556SOL     OW31303   0.756   0.390  14.690  0.7751  0.2614 -0.5256
 6556SOL    HW131304   0.848   0.368  14.705  0.4236 -0.5097  0.4742
 6556SOL    HW231305   0.757   0.338  14.611 -0.7392 -0.4382 -0.0835
 6557SOL     OW31306   0.448   3.089   8.089 -0.5629 -0.1423  0.5183
 6557SOL    HW131307   0.395   3.151   8.039 -0.4123 -0.2319  0.2443
 6557SOL    HW231308   0.406   3.087   8.175 -1.9723 -0.7589 -0.1884
 6558SOL     OW31309   0.322   2.967  10.765 -0.0749 -0.1331  0.0320
 6558SOL    HW131310   0.377   2.992  10.840 -0.6282  1.3135 -0.0463
 6558SOL    HW231311   0.244   3.022  10.763 -0.7340 -1.0980 -1.0061
 6559SOL     OW31312   1.995   0.593   6.137 -0.1463  0.3849  0.1779
 6559SOL    HW131313   2.006   0.501   6.163  0.8380  0.8171  1.3118
 6559SOL    HW231314   1.995   0.583   6.042  0.0372  0.7057  0.1457
 6560SOL     OW31315   2.205   3.674   3.659  0.2645 -0.0314  0.1372
 6560SOL    HW131316   2.263   3.739   3.620  0.9167 -0.1842  0.8446
 6560SOL    HW231317   2.174   3.709   3.743  0.5085  1.4918 -0.4202
 6561SOL     OW31318   3.726   4.521   6.206 -0.4327  0.0056 -0.6715
 6561SOL    HW131319   3.806   4.570   6.188 -0.8003  1.1020  0.6598
 6561SOL    HW231320   3.696   4.574   6.280 -1.6381 -1.4100 -0.1391
 6562SOL     OW31321   3.618   2.524  13.350 -0.2826  0.6443  0.3161
 6562SOL    HW131322   3.524   2.543  13.344 -0.2461 -0.4602 -3.4676
 6562SOL    HW231323   3.635   2.590  13.418  0.2798  0.0822  0.7160
 6563SOL     OW31324   1.033   2.382   6.935 -0.9482  0.2054  0.4208
 6563SOL    HW131325   1.065   2.404   6.847 -0.2328 -2.0913  0.1009
 6563SOL    HW231326   1.003   2.470   6.955  0.8078  0.7933  0.4652
 6564SOL     OW31327   2.519   2.865   9.432  0.3234 -0.3799  0.4221
 6564SOL    HW131328   2.474   2.781   9.437  1.2053 -0.7935  1.3998
 6564SOL    HW231329   2.569   2.857   9.351 -1.3260 -1.3848 -0.5071
 6565SOL     OW31330   3.996   0.274   5.271 -0.0126  0.5398 -0.5252
 6565SOL    HW131331   3.905   0.303   5.269 -0.4936 -0.8609  2.0296
 6565SOL    HW231332   4.000   0.243   5.180  0.5546  0.1079 -0.3581
 6566SOL     OW31333   1.137   0.521   8.731 -0.0278 -0.6323  0.3023
 6566SOL    HW131334   1.091   0.575   8.795 -1.4466 -1.5053  0.0431
 6566SOL    HW231335   1.088   0.439   8.739 -2.4981  0.6770 -1.4292
 6567SOL     OW31336   3.007   3.871  10.399  0.2983 -0.5885  0.2605
 6567SOL    HW131337   3.050   3.956  10.388  0.5546 -0.4060  2.7605
 6567SOL    HW231338   3.037   3.848  10.487  1.4370  0.9155  0.2620
 6568SOL     OW31339   4.239   0.338  16.369  0.0010 -0.7618 -0.3378
 6568SOL    HW131340   4.301   0.346  16.296  0.3755  2.3950  0.3067
 6568SOL    HW231341   4.195   0.423  16.358  1.8494  0.1938 -0.2715
 6569SOL     OW31342   4.366   4.597   6.593  0.3206 -0.1299  0.2391
 6569SOL    HW131343   4.422   4.546   6.651 -2.1208  0.1065  2.8507
 6569SOL    HW231344   4.322   4.657   6.654  2.8362  1.6826  0.2454
 6570SOL     OW31345   4.001   2.281   8.298  0.6195  0.3377  0.0922
 6570SOL    HW131346   4.010   2.211   8.233  1.6093 -0.5791  1.2329
 6570SOL    HW231347   3.980   2.352   8.237 -0.7022 -1.2537 -1.3008
 6571SOL     OW31348   2.248   4.364   2.294  0.0875 -1.0031  0.7391
 6571SOL    HW131349   2.169   4.400   2.333 -0.5806 -0.4487 -1.1608
 6571SOL    HW231350   2.329   4.406   2.325  0.7198 -1.7785  0.1308
 6572SOL     OW31351   1.846   0.048   2.372  0.5658  0.0099  0.6234
 6572SOL    HW131352   1.871   0.081   2.286 -0.0350  1.5704  1.0516
 6572SOL    HW231353   1.862   4.690   2.353 -1.0167 -0.2667  0.6179
 6573SOL     OW31354   1.950   3.219   4.131  0.5638  0.2037 -0.1599
 6573SOL    HW131355   1.992   3.277   4.068 -2.5320  3.0826  0.4620
 6573SOL    HW231356   1.932   3.151   4.066  2.8845  0.6286 -1.2598
 6574SOL     OW31357   0.375   0.300   2.499  0.0634 -0.5537  0.0439
 6574SOL    HW131358   0.281   0.284   2.500 -0.2054  1.0778  1.1590
 6574SOL    HW231359   0.391   0.249   2.420  1.7013  0.5652 -0.3635
 6575SOL     OW31360   2.641   1.398   1.895 -0.1193  0.5416  0.3524
 6575SOL    HW131361   2.670   1.380   1.985 -0.2505 -1.6251 -0.0509
 6575SOL    HW231362   2.546   1.405   1.885 -0.1114 -2.6852 -1.9588
 6576SOL     OW31363   3.502   1.401   6.300 -0.3010 -0.0081  0.5795
 6576SOL    HW131364   3.429   1.457   6.276 -1.4434 -1.7101  0.0739
 6576SOL    HW231365   3.463   1.350   6.371  3.0660 -0.9562  1.7468
 6577SOL     OW31366   0.206   2.484   6.034  0.7635  0.3835  0.2032
 6577SOL    HW131367   0.283   2.516   6.081  0.1241  0.8299  0.9526
 6577SOL    HW231368   0.245   2.475   5.947  0.6177 -0.6070  0.2485
 6578SOL     OW31369   0.074   2.310  16.765  0.3223  0.1428  0.3371
 6578SOL    HW131370   0.086   2.344  16.676  0.9131 -0.8601  0.0325
 6578SOL    HW231371   0.116   2.223  16.767 -0.9522 -0.5051 -0.9033
 6579SOL     OW31372   1.042   2.281  15.342 -0.1186 -0.1240  0.1385
 6579SOL    HW131373   1.049   2.367  15.301  1.7258 -0.9636 -1.3256
 6579SOL    HW231374   1.130   2.258  15.371 -0.2213  0.1800  0.6882
 6580SOL     OW31375   2.010   3.435  16.743 -0.7139 -0.0776 -0.0948
 6580SOL    HW131376   2.038   3.344  16.732 -1.9290 -0.3582 -0.8298
 6580SOL    HW231377   2.007   3.437  16.838  0.8340 -1.4034 -0.0202
 6581SOL     OW31378   0.055   2.678   3.912 -0.6028 -0.4195  0.1016
 6581SOL    HW131379   4.712   2.647   3.866 -1.4323  1.2575  0.3503
 6581SOL    HW231380   0.018   2.732   3.982 -0.6006  1.4615 -1.3507
 6582SOL     OW31381   4.445   2.961   2.984 -0.2465 -0.0732  0.1857
 6582SOL    HW131382   4.478   2.871   2.993 -1.7283 -0.4227  2.0742
 6582SOL    HW231383   4.378   2.948   2.917  0.3590  2.1585 -0.8455
 6583SOL     OW31384   3.192   4.072   5.828  0.2716 -0.0096  0.0998
 6583SOL    HW131385   3.182   4.072   5.733  1.7202  1.8058 -0.0531
 6583SOL    HW231386   3.251   4.146   5.839  0.6920 -0.3911  0.3915
 6584SOL     OW31387   1.439   3.098   6.928  0.1676 -0.4480 -0.0539
 6584SOL    HW131388   1.472   3.150   7.001 -0.2093 -0.1521 -0.0944
 6584SOL    HW231389   1.516   3.046   6.906  0.0043  0.0321 -1.7688
 6585SOL     OW31390   3.775   1.584   6.053  0.5254 -0.0894  0.8600
 6585SOL    HW131391   3.869   1.600   6.049  0.2054  1.4635 -0.2473
 6585SOL    HW231392   3.783   1.494   6.083 -0.3043 -0.4851 -0.1262
 6586SOL     OW31393   4.437   0.375  16.915 -0.5062  0.8646 -0.1186
 6586SOL    HW131394   4.410   0.436  16.983  1.6674  2.1563 -0.3921
 6586SOL    HW231395   4.531   0.393  16.920 -0.2402 -0.1108 -1.5776
 6587SOL     OW31396   3.660   2.068   8.520 -0.0430 -0.7353  0.1180
 6587SOL    HW131397   3.737   2.037   8.472  0.0658 -0.7430  0.2989
 6587SOL    HW231398   3.700   2.091   8.604  1.1657  2.1299 -1.2598
 6588SOL     OW31399   4.112   1.661   8.930  0.8891  0.2598 -0.1103
 6588SOL    HW131400   4.170   1.674   8.856 -1.3842 -1.4218 -2.1800
 6588SOL    HW231401   4.177   1.683   8.997 -0.8974  0.7911  1.4377
 6589SOL     OW31402   2.129   4.060  14.860 -0.1928 -0.0859  0.3645
 6589SOL    HW131403   2.054   4.038  14.916  0.3331 -2.0762  0.3147
 6589SOL    HW231404   2.101   4.140  14.816  1.0324  0.0289 -0.1826
 6590SOL     OW31405   0.764   2.814   4.583  0.2310 -0.5501 -0.3149
 6590SOL    HW131406   0.731   2.787   4.669 -0.0345  1.2826  0.1504
 6590SOL    HW231407   0.738   2.906   4.580  1.5042 -0.1350  1.2239
 6591SOL     OW31408   0.846   3.076   8.232  0.2514  0.4402  0.3341
 6591SOL    HW131409   0.817   3.083   8.141  0.7192  0.4518  0.1814
 6591SOL    HW231410   0.923   3.133   8.229  1.5324 -1.2927  0.2328
 6592SOL     OW31411   4.451   0.450   7.234 -0.2961  0.5430  0.2860
 6592SOL    HW131412   4.410   0.509   7.171 -0.5138  0.9910  0.8513
 6592SOL    HW231413   4.391   0.377   7.249  1.6984 -0.8321  1.6085
 6593SOL     OW31414   0.232   3.563   5.556  0.4012 -0.7099 -0.0476
 6593SOL    HW131415   0.210   3.508   5.480  1.4077 -0.5329 -0.4777
 6593SOL    HW231416   0.156   3.571   5.613 -0.6758  0.9754 -1.6798
 6594SOL     OW31417   1.212   0.943   7.052 -0.1909  0.3022  0.0164
 6594SOL    HW131418   1.193   0.850   7.049  0.1848  0.2289 -0.1135
 6594SOL    HW231419   1.144   0.983   7.106  0.6746  0.3079  1.0997
 6595SOL     OW31420   3.398   2.568   7.488 -0.2650 -0.0037 -0.7531
 6595SOL    HW131421   3.346   2.489   7.473  0.7676 -1.1855  1.8894
 6595SOL    HW231422   3.358   2.600   7.570  1.5004  0.0522  0.0859
 6596SOL     OW31423   0.156   0.019   7.034  0.4809 -0.3175 -0.4884
 6596SOL    HW131424   0.205   0.071   6.969  0.0306  1.2637  0.4447
 6596SOL    HW231425   0.159   4.664   7.001  0.4256  0.5375 -2.8166
 6597SOL     OW31426   1.510   4.713   3.295 -0.2156  0.3217 -0.2284
 6597SOL    HW131427   1.450   4.724   3.369 -1.8093 -0.9028 -1.3522
 6597SOL    HW231428   1.449   4.700   3.222 -0.4828 -0.8913  0.2055
 6598SOL     OW31429   0.887   1.395   5.683 -0.3136 -0.3879  0.1013
 6598SOL    HW131430   0.938   1.459   5.632 -0.9498 -0.1063 -0.1828
 6598SOL    HW231431   0.797   1.401   5.652 -0.1383  1.8225 -0.0067
 6599SOL     OW31432   4.363   4.138   3.120  0.3072 -0.1282  0.4081
 6599SOL    HW131433   4.290   4.177   3.072 -0.1796  0.5250  1.6823
 6599SOL    HW231434   4.375   4.060   3.066 -2.4841 -1.2294  1.3710
 6600SOL     OW31435   2.078   0.214   9.154  0.4298 -0.2808  0.0568
 6600SOL    HW131436   2.030   0.146   9.201 -2.4175  2.2869  0.8047
 6600SOL    HW231437   2.060   0.195   9.061  2.8708  3.1974 -1.1214
 6601SOL     OW31438   4.645   1.114   6.292 -0.4540 -0.0211 -0.6526
 6601SOL    HW131439   4.630   1.137   6.383 -1.4907  1.5306 -1.2067
 6601SOL    HW231440   4.709   1.182   6.267  0.3977 -0.3560  0.6253
 6602SOL     OW31441   4.179   1.634   4.548 -0.4414  0.2303 -0.3110
 6602SOL    HW131442   4.190   1.542   4.526  0.0678  0.2682 -0.2088
 6602SOL    HW231443   4.096   1.656   4.506  0.6411 -0.8645 -2.9736
 6603SOL     OW31444   1.011   2.868   5.357 -0.1971 -0.0723 -0.2870
 6603SOL    HW131445   1.082   2.931   5.357  0.3124 -0.6446 -1.0935
 6603SOL    HW231446   0.936   2.910   5.399  1.3257  0.2066  2.1517
 6604SOL     OW31447   3.106   0.644   5.793 -0.1534 -0.5499 -0.0016
 6604SOL    HW131448   3.112   0.548   5.796 -3.1258 -0.7034  0.7405
 6604SOL    HW231449   3.174   0.655   5.726 -0.4530 -3.4242 -0.7854
 6605SOL     OW31450   4.300   4.228   5.363  0.0558 -0.1688 -0.4154
 6605SOL    HW131451   4.210   4.230   5.330 -0.0182 -0.1386 -0.2104
 6605SOL    HW231452   4.290   4.181   5.446 -1.3105 -0.4412 -0.7247
 6606SOL     OW31453   3.189   4.134   3.398 -0.1651  0.0477  0.1168
 6606SOL    HW131454   3.094   4.124   3.400  0.0142 -2.1002 -2.1877
 6606SOL    HW231455   3.212   4.210   3.452  1.2991 -0.1466 -0.2461
 6607SOL     OW31456   1.776   3.655   9.952  0.5087  0.2095  0.5962
 6607SOL    HW131457   1.848   3.716   9.969  0.5700  0.3485 -0.1690
 6607SOL    HW231458   1.741   3.688   9.869 -1.3020 -0.8193  0.9357
 6608SOL     OW31459   3.700   2.164   5.873  0.4738  1.1470  0.1914
 6608SOL    HW131460   3.634   2.172   5.804  1.5652  1.7043 -0.7930
 6608SOL    HW231461   3.665   2.230   5.933  1.4408  0.3359  1.6224
 6609SOL     OW31462   2.908   3.072   1.089  0.1606 -0.2879  0.0564
 6609SOL    HW131463   2.937   3.129   1.161  2.4885 -0.4633 -0.7341
 6609SOL    HW231464   2.813   3.071   1.098  0.1693  2.9650  0.3517
 6610SOL     OW31465   2.554   2.218   5.239 -0.1156 -0.1517 -0.6969
 6610SOL    HW131466   2.473   2.169   5.251  0.2627 -0.2278  1.5864
 6610SOL    HW231467   2.551   2.272   5.318 -1.5513 -1.1049 -0.0988
 6611SOL     OW31468   4.626   4.049  17.523  0.3875  0.0506  0.1202
 6611SOL    HW131469   4.599   4.115  17.459  0.6627  1.4836  1.4869
 6611SOL    HW231470   4.692   4.100  17.570 -0.2200  1.1902 -0.2602
 6612SOL     OW31471   0.478   0.685   8.244 -0.2823  0.7802 -0.1532
 6612SOL    HW131472   0.537   0.759   8.256  0.2612  0.0200  1.7900
 6612SOL    HW231473   0.433   0.679   8.328 -1.0102  0.1329 -0.5871
 6613SOL     OW31474   2.892   1.555   1.183 -0.3149 -0.5694  0.0812
 6613SOL    HW131475   2.827   1.539   1.114  0.6309 -1.9257 -0.4978
 6613SOL    HW231476   2.918   1.643   1.153 -1.4662  0.2972  1.6538
 6614SOL     OW31477   1.739   3.260   7.346 -0.0817  0.2712  0.8780
 6614SOL    HW131478   1.804   3.322   7.312 -1.6129  1.4234  0.0582
 6614SOL    HW231479   1.697   3.313   7.414 -0.1324  1.0652  0.2244
 6615SOL     OW31480   2.191   2.908   1.792  0.3581  0.0398  0.4435
 6615SOL    HW131481   2.106   2.951   1.800  0.5424  0.4884 -0.0349
 6615SOL    HW231482   2.183   2.844   1.721  1.2819 -0.0691  0.4295
 6616SOL     OW31483   1.307   1.751   0.520 -0.8738 -0.2899  0.3202
 6616SOL    HW131484   1.362   1.675   0.540  0.7089  0.8472  0.2952
 6616SOL    HW231485   1.332   1.781   0.433 -1.3750 -0.9476 -0.0541
 6617SOL     OW31486   0.079   0.798  16.649  0.2998  0.1775 -0.1733
 6617SOL    HW131487   0.127   0.813  16.731  0.5308 -0.0721 -0.2615
 6617SOL    HW231488   4.727   0.832  16.672  1.0796  1.4639  0.8509
 6618SOL     OW31489   3.419   1.114   6.759 -0.2607 -0.1161  0.5848
 6618SOL    HW131490   3.436   1.053   6.687 -2.9808 -1.8946  1.4446
 6618SOL    HW231491   3.511   1.140   6.771 -0.4724  1.3645 -1.0490
 6619SOL     OW31492   3.536   1.783   8.555 -0.2122  0.5217  0.3358
 6619SOL    HW131493   3.538   1.817   8.644 -1.7253  2.4011 -0.3422
 6619SOL    HW231494   3.567   1.857   8.503  0.0998  1.5772  2.0546
 6620SOL     OW31495   2.900   3.063  15.011  0.4489  0.2708 -0.1125
 6620SOL    HW131496   2.855   3.145  14.992  1.9435  1.1211  0.0149
 6620SOL    HW231497   2.932   3.032  14.927 -2.7530  1.1262 -1.6359
 6621SOL     OW31498   2.626   3.523  17.020  0.5001 -0.5003 -0.2295
 6621SOL    HW131499   2.722   3.528  17.013  0.5633  0.4616  1.1297
 6621SOL    HW231500   2.606   3.535  16.928  1.8992 -0.5115 -0.5374
 6622SOL     OW31501   2.323   1.702   7.243  0.0947  0.1728 -0.3141
 6622SOL    HW131502   2.312   1.688   7.149 -1.9231 -1.1041  0.1062
 6622SOL    HW231503   2.246   1.758   7.255  1.0196  1.2957  0.4300
 6623SOL     OW31504   0.659   3.791  17.491  0.8294  0.9628 -0.0532
 6623SOL    HW131505   0.730   3.764  17.549  1.6541  2.1537 -0.5047
 6623SOL    HW231506   0.635   3.862  17.550  1.5387  1.0322  0.1525
 6624SOL     OW31507   0.255   3.370   3.734 -0.0786  0.1995  0.5767
 6624SOL    HW131508   0.228   3.364   3.825  1.5228 -1.5484  0.9359
 6624SOL    HW231509   0.240   3.462   3.710 -0.2944  0.2809  1.0196
 6625SOL     OW31510   4.087   1.345   1.515  0.1046  0.5248  0.2966
 6625SOL    HW131511   4.175   1.314   1.534 -0.1852 -0.2057  0.4376
 6625SOL    HW231512   4.104   1.402   1.439 -0.4874  0.4689  0.1240
 6626SOL     OW31513   3.916   3.773   6.986  0.0589 -0.1028 -0.5274
 6626SOL    HW131514   3.914   3.857   6.939  0.9401 -0.3607 -1.0229
 6626SOL    HW231515   4.004   3.777   7.023 -0.2725  1.0989  0.1546
 6627SOL     OW31516   0.594   2.396   9.078 -0.1338 -0.4607 -0.1890
 6627SOL    HW131517   0.662   2.356   9.133 -0.7239 -3.4929 -1.6654
 6627SOL    HW231518   0.519   2.363   9.127 -0.4758 -0.4759 -0.7254
 6628SOL     OW31519   3.513   0.181   7.048 -0.0262  0.3154  0.4096
 6628SOL    HW131520   3.585   0.221   7.096  2.1408 -1.3695 -1.4358
 6628SOL    HW231521   3.446   0.180   7.117 -0.2997  1.0665  0.1556
 6629SOL     OW31522   4.250   3.773   6.920 -0.0246 -0.2001 -0.1861
 6629SOL    HW131523   4.219   3.700   6.973  0.0947 -0.4657 -0.4789
 6629SOL    HW231524   4.217   3.845   6.973  1.4761 -0.0307  0.5251
 6630SOL     OW31525   0.838   3.241   3.894 -0.1290 -0.3669  0.0605
 6630SOL    HW131526   0.795   3.182   3.832 -0.2892 -1.3823  1.1327
 6630SOL    HW231527   0.891   3.186   3.951 -1.0480 -1.8137 -0.4909
 6631SOL     OW31528   1.418   3.415   9.071  0.7010  0.1602  0.2333
 6631SOL    HW131529   1.364   3.445   8.998 -0.6756 -2.0498  0.3639
 6631SOL    HW231530   1.471   3.350   9.025  1.0663  0.9975 -0.5442
 6632SOL     OW31531   3.557   4.074   5.103  0.5044 -0.2424 -0.1916
 6632SOL    HW131532   3.573   4.054   5.011 -2.3069  0.4775 -0.8387
 6632SOL    HW231533   3.509   4.154   5.083  0.6462 -0.2768 -0.6622
 6633SOL     OW31534   2.279   2.230   1.352  0.0999  0.0879 -0.0447
 6633SOL    HW131535   2.327   2.201   1.430 -1.5021  0.3704  1.0306
 6633SOL    HW231536   2.350   2.262   1.296 -1.2307 -0.3212 -1.9553
 6634SOL     OW31537   0.854   1.341   0.962  0.6058 -0.2613  0.5906
 6634SOL    HW131538   0.812   1.255   0.966 -1.7676  0.8673 -0.1574
 6634SOL    HW231539   0.878   1.353   1.054 -0.9334  1.1469  0.8089
 6635SOL     OW31540   1.476   2.365   5.402 -0.2159 -0.1834 -0.0839
 6635SOL    HW131541   1.417   2.440   5.402  2.3288  1.7712  1.2068
 6635SOL    HW231542   1.496   2.350   5.309 -0.7181  1.4318 -0.4377
 6636SOL     OW31543   2.879   2.017  15.664 -0.0703  0.2056  0.1706
 6636SOL    HW131544   2.940   2.048  15.597  0.6421  0.6871  1.0494
 6636SOL    HW231545   2.811   1.986  15.604  1.8440 -3.3477 -0.1597
 6637SOL     OW31546   4.054   2.980   2.060 -0.1542  0.1721  0.4154
 6637SOL    HW131547   4.049   2.890   2.029 -2.7263  0.7543 -0.8664
 6637SOL    HW231548   3.994   3.030   2.005  2.3520 -0.0025 -2.4748
 6638SOL     OW31549   2.934   3.590   3.146 -0.4196  0.5924  0.5453
 6638SOL    HW131550   2.878   3.549   3.081  0.2252 -2.1120  1.6822
 6638SOL    HW231551   3.024   3.588   3.112 -0.6850  1.5981 -0.2196
 6639SOL     OW31552   4.713   0.239   7.075  0.2703  0.3368 -0.0847
 6639SOL    HW131553   0.015   0.307   7.132  1.7213  0.5563 -1.2518
 6639SOL    HW231554   0.035   0.164   7.091  0.4005  0.6889  1.0815
 6640SOL     OW31555   0.389   2.061   2.382  0.1826  0.2084  0.1349
 6640SOL    HW131556   0.315   2.049   2.442  0.2956  0.2747  0.2870
 6640SOL    HW231557   0.397   1.970   2.351 -2.2553  0.9653 -2.6774
 6641SOL     OW31558   2.513   1.639   2.838 -0.3544 -0.1990  0.1975
 6641SOL    HW131559   2.537   1.566   2.782  0.1883 -0.2692  0.5224
 6641SOL    HW231560   2.565   1.612   2.914  0.2448  0.1385 -0.0910
 6642SOL     OW31561   0.011   0.117  11.232  0.1932 -0.3860 -0.7713
 6642SOL    HW131562   0.003   0.104  11.137  2.9990  0.5026 -1.1336
 6642SOL    HW231563   4.676   0.177  11.257 -0.0650 -0.1474 -2.0211
 6643SOL     OW31564   1.063   1.652   4.457 -0.6358  0.3004 -0.1542
 6643SOL    HW131565   1.020   1.657   4.371 -0.4861  3.6858 -0.0030
 6643SOL    HW231566   1.154   1.628   4.439  0.1026  1.3893  2.2411
 6644SOL     OW31567   2.277   2.594   6.708  0.1758 -0.1731 -0.5362
 6644SOL    HW131568   2.343   2.650   6.667  0.4379  0.8833  1.3206
 6644SOL    HW231569   2.333   2.542   6.765 -0.6921 -1.6103 -0.9923
 6645SOL     OW31570   3.503   3.833   0.548 -0.0090 -0.2161 -0.7397
 6645SOL    HW131571   3.485   3.803   0.459  2.9878  0.9746 -1.7538
 6645SOL    HW231572   3.527   3.924   0.532  0.2167  0.0063  0.8261
 6646SOL     OW31573   4.459   0.216   2.449  0.4562  0.4967  0.0275
 6646SOL    HW131574   4.414   0.276   2.508  0.6397  1.1768 -0.5177
 6646SOL    HW231575   4.494   0.145   2.503 -0.0191 -0.6490 -1.1687
 6647SOL     OW31576   2.323   4.634  13.037  0.0621 -0.1330 -0.0270
 6647SOL    HW131577   2.390   4.673  13.092  0.6997 -1.5919  0.2322
 6647SOL    HW231578   2.249   4.654  13.094 -1.1342 -1.5867 -1.0448
 6648SOL     OW31579   2.030   2.603   1.285  0.3234  0.5649 -0.1355
 6648SOL    HW131580   1.984   2.520   1.283 -0.3106  0.9182 -0.2010
 6648SOL    HW231581   2.048   2.625   1.194  0.3475 -0.8414 -0.4634
 6649SOL     OW31582   0.418   1.483   4.393 -0.2013 -0.2535 -0.3581
 6649SOL    HW131583   0.335   1.498   4.438 -0.5712 -0.7660 -0.8610
 6649SOL    HW231584   0.413   1.392   4.364  0.3181 -0.0366 -1.1311
 6650SOL     OW31585   3.543   3.247   2.277  0.1704  0.4544 -0.4454
 6650SOL    HW131586   3.625   3.255   2.229 -0.3912  1.1198 -1.3131
 6650SOL    HW231587   3.540   3.328   2.329 -0.4706 -0.1472  0.4499
 6651SOL     OW31588   0.392   3.245   2.703 -0.0000  0.1025 -0.0852
 6651SOL    HW131589   0.345   3.261   2.621  2.1801 -4.1222 -2.1793
 6651SOL    HW231590   0.343   3.293   2.770  1.5229  1.1621  0.2797
 6652SOL     OW31591   3.544   3.604   7.577  0.2093 -0.2877 -0.2701
 6652SOL    HW131592   3.578   3.539   7.638  2.4468  1.1460  0.0114
 6652SOL    HW231593   3.472   3.559   7.532  0.9919 -1.3397 -0.4580
 6653SOL     OW31594   4.513   1.951   4.709  0.0653  0.4812 -0.7060
 6653SOL    HW131595   4.522   1.880   4.644  1.3300 -0.5718  0.6330
 6653SOL    HW231596   4.478   1.899   4.781 -1.0674 -0.8626 -2.2098
 6654SOL     OW31597   1.183   3.764   7.343  0.4636 -0.0824  0.1682
 6654SOL    HW131598   1.199   3.706   7.418  2.9047 -0.4271 -0.6368
 6654SOL    HW231599   1.087   3.769   7.336  0.6026  1.9654 -0.4047
 6655SOL     OW31600   2.570   0.300   2.059  0.1390  0.0844  0.5483
 6655SOL    HW131601   2.555   0.255   1.976 -1.2823 -0.1228  0.9063
 6655SOL    HW231602   2.559   0.388   2.022 -1.0200  0.4225  1.6769
 6656SOL     OW31603   2.539   2.223   9.777  0.0827  0.1394  0.3329
 6656SOL    HW131604   2.599   2.196   9.708  0.2702  2.1020 -0.2548
 6656SOL    HW231605   2.529   2.313   9.745 -0.7553  0.0619  0.3671
 6657SOL     OW31606   0.530   1.841   6.743  0.5892  0.2334 -0.2480
 6657SOL    HW131607   0.503   1.845   6.651 -0.1312 -0.4452 -0.0688
 6657SOL    HW231608   0.542   1.934   6.762  0.8949  0.6579 -2.4558
 6658SOL     OW31609   3.688   1.222   9.286  0.8304  0.0755 -0.5923
 6658SOL    HW131610   3.625   1.153   9.310  1.2808 -0.4305 -0.8677
 6658SOL    HW231611   3.633   1.295   9.258 -2.4463 -1.1107  2.5979
 6659SOL     OW31612   0.185   1.264   8.881 -0.4946 -0.4758  0.1300
 6659SOL    HW131613   0.092   1.241   8.875 -0.6884  0.2285  0.4069
 6659SOL    HW231614   0.193   1.301   8.969 -2.2781  0.3533 -0.0556
 6660SOL     OW31615   3.234   4.494  15.219  0.2845  0.4030 -0.4844
 6660SOL    HW131616   3.270   4.545  15.291  0.1918  1.4689 -1.1919
 6660SOL    HW231617   3.152   4.538  15.200 -0.3097 -0.2899  0.4883
 6661SOL     OW31618   4.375   1.967   3.406  0.0700 -0.6148  0.0863
 6661SOL    HW131619   4.457   1.918   3.399  0.6908  0.3060  0.9718
 6661SOL    HW231620   4.411   2.055   3.411 -0.4496 -0.3816 -0.3466
 6662SOL     OW31621   4.035   1.696   1.452 -0.3753  0.4013 -0.6154
 6662SOL    HW131622   4.080   1.617   1.422 -2.4585 -0.5102 -1.3500
 6662SOL    HW231623   4.103   1.736   1.507 -0.7139  2.3875 -1.6435
 6663SOL     OW31624   1.513   0.943  12.759 -0.1522  0.6168 -0.0530
 6663SOL    HW131625   1.426   0.968  12.789  0.1163 -0.0801  1.3060
 6663SOL    HW231626   1.561   0.948  12.842  1.7586 -1.4941 -1.0425
 6664SOL     OW31627   2.819   3.169   3.337 -0.4644  0.1788  0.1360
 6664SOL    HW131628   2.914   3.154   3.338 -0.2765  1.2115 -1.7406
 6664SOL    HW231629   2.801   3.152   3.430 -3.4549 -0.1154 -0.5050
 6665SOL     OW31630   0.279   1.512   4.911 -0.2931 -0.0355 -0.1307
 6665SOL    HW131631   0.191   1.497   4.875  1.0383 -0.7737 -3.0686
 6665SOL    HW231632   0.323   1.564   4.844  0.5190  0.8624  1.0942
 6666SOL     OW31633   1.159   0.518   5.786  0.0659 -0.2309 -0.2379
 6666SOL    HW131634   1.115   0.450   5.838  3.8348 -2.1486  0.4611
 6666SOL    HW231635   1.247   0.481   5.772  0.3181  0.9680 -1.8523
 6667SOL     OW31636   3.153   0.796   7.123 -0.3939  0.4733 -0.2353
 6667SOL    HW131637   3.196   0.778   7.206  0.0811 -2.0475 -1.0153
 6667SOL    HW231638   3.204   0.737   7.067  0.2037  1.2703 -0.5193
 6668SOL     OW31639   3.981   0.854   6.111  0.1225 -0.0507 -0.6183
 6668SOL    HW131640   3.921   0.880   6.041  1.2728  0.3118 -1.4493
 6668SOL    HW231641   4.010   0.939   6.142 -0.8109  0.2558 -0.5785
 6669SOL     OW31642   3.894   0.361   3.039 -0.1328 -0.8906  0.4452
 6669SOL    HW131643   3.910   0.317   3.123  0.5594  2.1353  1.8893
 6669SOL    HW231644   3.826   0.417   3.076  0.1840 -1.0586  1.2889
 6670SOL     OW31645   3.234   1.687   7.751  0.4713 -0.1567  0.1256
 6670SOL    HW131646   3.207   1.778   7.742  0.6057  0.0757  1.9316
 6670SOL    HW231647   3.164   1.651   7.806 -1.2081 -1.3411 -2.8187
 6671SOL     OW31648   3.058   3.596   2.405 -0.4818 -0.6599 -0.1463
 6671SOL    HW131649   3.106   3.676   2.385 -0.3485 -1.0060 -1.2428
 6671SOL    HW231650   2.971   3.608   2.368 -0.3436  3.5773  0.9580
 6672SOL     OW31651   1.092   3.826   2.576  0.7891 -0.7272  0.0685
 6672SOL    HW131652   1.095   3.813   2.481 -2.8449 -2.4644  0.1936
 6672SOL    HW231653   1.104   3.921   2.586 -0.9915 -0.2708 -2.1197
 6673SOL     OW31654   0.841   4.306   0.598 -0.0555  0.4354 -0.3728
 6673SOL    HW131655   0.887   4.262   0.527 -0.5882 -1.3826  0.3903
 6673SOL    HW231656   0.790   4.231   0.630  0.6807 -0.2700 -0.8752
 6674SOL     OW31657   3.153   4.611  10.663 -0.0096  0.1714  0.5862
 6674SOL    HW131658   3.131   4.676  10.730 -1.6081  0.7008 -0.4554
 6674SOL    HW231659   3.206   4.557  10.722  0.2304 -2.2775 -1.8808
 6675SOL     OW31660   0.453   0.815   5.791  0.1211  0.3151  0.9610
 6675SOL    HW131661   0.407   0.743   5.750  0.7565  0.4774 -0.0459
 6675SOL    HW231662   0.384   0.859   5.840 -0.7483  1.3202 -1.2114
 6676SOL     OW31663   3.708   3.185  14.632 -0.0511  0.1128  0.0703
 6676SOL    HW131664   3.748   3.225  14.709 -0.3494  2.7461 -1.1641
 6676SOL    HW231665   3.652   3.257  14.604 -0.0661 -0.1664 -0.6182
 6677SOL     OW31666   2.726   0.544   5.443 -0.6438  0.1492  0.6265
 6677SOL    HW131667   2.678   0.627   5.438 -1.7307 -0.4945  0.2384
 6677SOL    HW231668   2.791   0.562   5.511 -0.5727 -0.6413  0.7695
 6678SOL     OW31669   0.672   3.557   2.183 -0.2917  0.3519 -0.5114
 6678SOL    HW131670   0.645   3.518   2.099  0.7847  1.0210 -1.1768
 6678SOL    HW231671   0.765   3.576   2.168  0.0113  0.0430  1.0678
 6679SOL     OW31672   1.911   4.102   6.068  0.1455  0.1001 -0.2195
 6679SOL    HW131673   2.006   4.096   6.062 -0.1231 -3.2906 -0.9769
 6679SOL    HW231674   1.887   4.010   6.071 -0.0100  0.0988 -1.8316
 6680SOL     OW31675   0.045   2.401   0.823 -0.4831 -0.3750  0.2547
 6680SOL    HW131676   0.034   2.428   0.731  0.1087 -2.5029 -0.4555
 6680SOL    HW231677   4.708   2.456   0.853 -0.8260 -0.7899  0.2034
 6681SOL     OW31678   0.109   3.096   1.583  0.1841  0.1293  0.2170
 6681SOL    HW131679   0.116   3.188   1.610 -1.4142  0.1363  0.5739
 6681SOL    HW231680   0.016   3.090   1.562 -0.2964  0.3855  2.3478
 6682SOL     OW31681   2.684   1.187   1.697  0.6022  0.2236 -0.1102
 6682SOL    HW131682   2.678   1.237   1.779  2.3546  1.2373 -0.6086
 6682SOL    HW231683   2.653   1.245   1.628  2.2600 -0.9365 -1.8144
 6683SOL     OW31684   1.515   3.497   4.039 -0.0209  0.4567  0.0942
 6683SOL    HW131685   1.552   3.456   3.960  0.6120  0.6005  0.3205
 6683SOL    HW231686   1.452   3.431   4.069  1.0575 -0.1650  0.9609
 6684SOL     OW31687   3.060   4.279   6.783  0.2820 -0.2192  0.3420
 6684SOL    HW131688   3.011   4.206   6.821  1.5129  0.3682  3.0953
 6684SOL    HW231689   3.084   4.327   6.862 -0.9885 -0.1231  0.6672
 6685SOL     OW31690   1.008   1.902   2.672 -0.3884  0.1234 -0.4339
 6685SOL    HW131691   0.962   1.966   2.618  0.1150  1.9671  1.3527
 6685SOL    HW231692   0.957   1.826   2.644 -0.8243 -0.8063  2.8980
 6686SOL     OW31693   1.495   3.660   8.443 -0.7409 -0.2814  0.1853
 6686SOL    HW131694   1.507   3.584   8.500  1.1489  0.7863  1.2039
 6686SOL    HW231695   1.516   3.630   8.355  0.4552 -1.7485  0.9638
 6687SOL     OW31696   3.104   3.685   5.574 -0.1367  0.1714 -0.1138
 6687SOL    HW131697   3.192   3.721   5.581 -0.8277  1.4531  1.8809
 6687SOL    HW231698   3.126   3.595   5.548 -1.4023 -0.7117  1.8586
 6688SOL     OW31699   3.177   3.470   5.988  0.7290 -0.6052  0.1904
 6688SOL    HW131700   3.137   3.556   5.975  0.6052 -1.0360 -2.4226
 6688SOL    HW231701   3.114   3.415   5.940  0.9547 -0.6989  0.0007
 6689SOL     OW31702   0.379   0.818   1.577 -0.2832  0.2924  0.0544
 6689SOL    HW131703   0.459   0.785   1.618  0.7389  2.1364 -0.4648
 6689SOL    HW231704   0.366   0.907   1.610 -2.0824  0.6473 -1.6084
 6690SOL     OW31705   4.379   3.192  10.965 -0.3408  0.2705  0.3135
 6690SOL    HW131706   4.325   3.255  10.917 -1.4015 -0.7971  0.1006
 6690SOL    HW231707   4.325   3.171  11.041 -1.5053  0.8026 -0.3645
 6691SOL     OW31708   0.021   3.555   5.758 -0.4270 -0.4285  0.1589
 6691SOL    HW131709   4.719   3.631   5.804 -1.3048 -0.2810 -0.7759
 6691SOL    HW231710   4.694   3.486   5.782 -1.0544  1.3235  3.6009
 6692SOL     OW31711   4.331   0.508   7.600 -0.5246 -0.0819  0.3345
 6692SOL    HW131712   4.353   0.425   7.557 -1.8447  0.4939 -1.4559
 6692SOL    HW231713   4.402   0.529   7.661 -0.0593  1.7979 -0.8549
 6693SOL     OW31714   1.632   3.099  16.968 -0.3961 -0.0193  0.2176
 6693SOL    HW131715   1.561   3.113  16.907 -1.2903  1.8824  1.7066
 6693SOL    HW231716   1.655   3.009  16.943 -1.3447 -0.5457  1.1964
 6694SOL     OW31717   0.154   3.049   4.258 -0.3256 -0.2177  0.5258
 6694SOL    HW131718   0.085   3.055   4.324  0.5361  0.0872  1.4013
 6694SOL    HW231719   0.180   2.957   4.268 -0.4592 -0.4169 -0.9735
 6695SOL     OW31720   0.143   2.820   0.823 -0.0081  0.3997 -0.5466
 6695SOL    HW131721   0.144   2.743   0.879 -0.4008 -0.8487 -2.2737
 6695SOL    HW231722   0.145   2.884   0.894  0.1454  0.7327 -0.8514
 6696SOL     OW31723   0.940   1.959   6.145 -0.0990 -0.1346 -0.0719
 6696SOL    HW131724   1.026   2.001   6.154 -0.1764 -0.0843  0.4449
 6696SOL    HW231725   0.930   1.945   6.051  0.8772  1.3129 -0.3877
 6697SOL     OW31726   0.283   2.127  16.755 -0.0499  0.2977  0.1336
 6697SOL    HW131727   0.374   2.127  16.727 -0.1369  0.7515 -0.1562
 6697SOL    HW231728   0.240   2.096  16.675 -1.2881 -1.4071  1.4463
 6698SOL     OW31729   0.510   2.542   4.600  0.2622  0.0109 -0.2572
 6698SOL    HW131730   0.417   2.564   4.593  0.4562  0.6942 -0.7380
 6698SOL    HW231731   0.543   2.606   4.664 -1.4084  0.3433  0.2559
 6699SOL     OW31732   4.394   3.621   3.041  0.3462 -0.0949  0.2674
 6699SOL    HW131733   4.428   3.706   3.012 -1.1120  0.7258  0.9381
 6699SOL    HW231734   4.374   3.582   2.957  0.3429  0.9275 -0.2145
 6700SOL     OW31735   0.259   3.438  12.200 -0.1905 -0.2781 -0.0683
 6700SOL    HW131736   0.196   3.466  12.134  1.9318 -0.4937 -2.1581
 6700SOL    HW231737   0.256   3.343  12.190 -3.0808 -0.1919  0.1032
 6701SOL     OW31738   1.398   0.335  11.575  0.2951  0.1946 -0.2437
 6701SOL    HW131739   1.405   0.419  11.621  1.2212  0.9581 -1.7957
 6701SOL    HW231740   1.308   0.320  11.605  0.2686  0.9186  0.0385
 6702SOL     OW31741   1.202   0.274   9.253 -0.2323  0.8258 -0.0858
 6702SOL    HW131742   1.145   0.222   9.196  1.5112 -0.4905 -0.6526
 6702SOL    HW231743   1.155   0.261   9.335 -0.5164  0.6559 -0.2733
 6703SOL     OW31744   3.052   2.869   5.161  0.0768 -0.2717  0.3296
 6703SOL    HW131745   3.083   2.950   5.120  0.2853 -0.6843 -0.3398
 6703SOL    HW231746   3.038   2.886   5.254  1.1498 -0.0133  0.4399
 6704SOL     OW31747   1.372   3.724  16.765 -0.9824 -0.5034  0.0461
 6704SOL    HW131748   1.319   3.704  16.688 -2.5882 -0.2616  1.0870
 6704SOL    HW231749   1.461   3.717  16.730  0.0047  2.3371  1.9767
 6705SOL     OW31750   3.156   4.590   0.198  0.1860 -0.3152  0.2506
 6705SOL    HW131751   3.169   4.643   0.119  1.0030 -0.7748  0.0739
 6705SOL    HW231752   3.249   4.569   0.211  0.0236  0.6841  2.8656
 6706SOL     OW31753   2.826   0.570   7.934 -0.6138  0.3095  0.1329
 6706SOL    HW131754   2.902   0.554   7.989 -0.5556  2.6039  0.6837
 6706SOL    HW231755   2.818   0.478   7.906 -1.5501  0.8198 -1.2631
 6707SOL     OW31756   1.993   1.499   7.210 -0.1840 -0.5369  0.0949
 6707SOL    HW131757   2.052   1.573   7.225  0.4339 -0.9652 -0.2100
 6707SOL    HW231758   1.938   1.540   7.142  1.5683  2.3727  0.4312
 6708SOL     OW31759   3.380   4.297   5.919 -0.0930 -0.1691 -0.1727
 6708SOL    HW131760   3.463   4.343   5.927 -1.6817  2.7829 -0.4946
 6708SOL    HW231761   3.320   4.332   5.985 -0.7092 -3.6027  1.1059
 6709SOL     OW31762   0.962   4.487  10.077  0.1650 -0.3435  0.1979
 6709SOL    HW131763   0.918   4.548  10.136  0.1479 -0.1053 -0.0602
 6709SOL    HW231764   0.974   4.421  10.145 -1.0334 -2.0847 -1.2450
 6710SOL     OW31765   1.809   0.909   5.119 -0.0413  0.0921  0.5323
 6710SOL    HW131766   1.850   0.990   5.150 -0.3008  0.1301  0.7778
 6710SOL    HW231767   1.878   0.844   5.132  0.1227 -0.3534 -2.6260
 6711SOL     OW31768   0.539   4.270   5.149  0.5422 -0.3155  0.6033
 6711SOL    HW131769   0.579   4.348   5.187 -1.0690  0.5609  0.4678
 6711SOL    HW231770   0.490   4.308   5.077  1.4960  2.6735  1.5377
 6712SOL     OW31771   2.576   2.557   5.703  0.4788  0.2789  0.3201
 6712SOL    HW131772   2.664   2.529   5.727 -0.2382 -1.3782  1.0202
 6712SOL    HW231773   2.562   2.492   5.634 -0.4711  0.6618  0.1542
 6713SOL     OW31774   0.597   2.129   4.044  0.3584  0.2042  0.2659
 6713SOL    HW131775   0.624   2.195   3.980 -0.6622 -0.7968 -1.1988
 6713SOL    HW231776   0.537   2.172   4.106  1.7208 -0.6497  2.1879
 6714SOL     OW31777   1.530   4.213   7.546  0.0568 -0.3446  0.0363
 6714SOL    HW131778   1.476   4.291   7.556  0.2880 -0.0974 -0.6479
 6714SOL    HW231779   1.533   4.206   7.450  1.6005 -0.2663  0.0710
 6715SOL     OW31780   1.638   2.580   1.592 -0.5700  0.1371  0.7421
 6715SOL    HW131781   1.562   2.553   1.540 -0.3591 -2.0267  1.5399
 6715SOL    HW231782   1.703   2.520   1.556 -1.9302 -0.6890 -0.3517
 6716SOL     OW31783   4.270   1.199   3.182  0.0798 -0.1454  0.1167
 6716SOL    HW131784   4.314   1.215   3.099 -1.0610  1.6867 -0.1440
 6716SOL    HW231785   4.336   1.205   3.251 -0.9467  2.1228  0.9077
 6717SOL     OW31786   3.225   2.809   2.689  0.1956  0.0253 -0.4472
 6717SOL    HW131787   3.184   2.769   2.765 -1.9153 -0.8129 -2.0170
 6717SOL    HW231788   3.196   2.900   2.692 -1.5384 -0.6041  1.4332
 6718SOL     OW31789   0.100   4.098   3.636  0.3437  0.4531 -0.0996
 6718SOL    HW131790   0.135   4.046   3.708  0.2390  1.3689  0.6035
 6718SOL    HW231791   0.066   4.169   3.690  0.4671  1.4814 -1.3768
 6719SOL     OW31792   1.557   1.238  11.944  0.5863  0.3416 -0.5977
 6719SOL    HW131793   1.514   1.260  11.861  1.6712  0.9428 -0.9955
 6719SOL    HW231794   1.484   1.244  12.006  0.2239 -3.3765 -0.6745
 6720SOL     OW31795   3.444   2.988  13.426  0.0402  0.2195 -0.1891
 6720SOL    HW131796   3.405   2.987  13.338 -2.4663  1.7614  0.9189
 6720SOL    HW231797   3.391   3.053  13.472  1.6009  1.9689 -0.8746
 6721SOL     OW31798   3.259   1.654   8.816  0.0700  0.1553 -0.2588
 6721SOL    HW131799   3.233   1.741   8.845  2.3003  0.8271 -0.3027
 6721SOL    HW231800   3.256   1.662   8.721  0.0332 -2.8907 -0.5265
 6722SOL     OW31801   4.210   0.516   5.137 -0.3933 -0.2709  0.1040
 6722SOL    HW131802   4.241   0.483   5.222 -1.5072  0.5076  0.8048
 6722SOL    HW231803   4.214   0.436   5.085 -1.5878  0.7177 -1.4959
 6723SOL     OW31804   0.674   0.242   4.531 -0.1801 -0.2298  0.0781
 6723SOL    HW131805   0.725   0.321   4.511  2.0214 -2.1508 -2.0022
 6723SOL    HW231806   0.662   0.242   4.626 -2.0919  0.5850 -0.1668
 6724SOL     OW31807   1.262   2.929   5.268 -0.1054  0.3584 -0.1554
 6724SOL    HW131808   1.350   2.961   5.288  0.1814 -0.6434  0.2011
 6724SOL    HW231809   1.245   2.970   5.184 -1.1088 -1.4173 -0.8254
 6725SOL     OW31810   1.759   0.715  13.393 -0.0651 -0.4429  0.5269
 6725SOL    HW131811   1.689   0.659  13.360 -0.4768  0.6751 -0.5035
 6725SOL    HW231812   1.770   0.691  13.485  0.8820 -3.2642 -0.3152
 6726SOL     OW31813   3.696   4.495   4.552 -0.0770  0.2617 -1.1311
 6726SOL    HW131814   3.776   4.536   4.583 -1.3798  0.5504  1.8702
 6726SOL    HW231815   3.649   4.570   4.517 -3.2264 -0.6770  1.0014
 6727SOL     OW31816   1.635   1.775   3.371  0.2597  0.5942 -0.1003
 6727SOL    HW131817   1.670   1.853   3.329 -1.4122  1.9917  1.0674
 6727SOL    HW231818   1.600   1.827   3.444 -0.1898 -1.0519  0.8578
 6728SOL     OW31819   0.320   1.878   9.329  0.1161  0.3144 -0.0801
 6728SOL    HW131820   0.256   1.819   9.289  2.1089 -1.1487 -1.1005
 6728SOL    HW231821   0.281   1.957   9.291 -0.5234 -0.4234 -0.9481
 6729SOL     OW31822   2.830   3.288   4.891  0.0109 -0.9733 -0.4215
 6729SOL    HW131823   2.852   3.344   4.965  0.0626 -0.3959 -0.8744
 6729SOL    HW231824   2.848   3.341   4.813  0.9575  1.4916  1.4995
 6730SOL     OW31825   0.001   0.387  14.183 -0.4088  0.0964  0.1534
 6730SOL    HW131826   4.720   0.322  14.252 -0.7176  0.9039  0.8560
 6730SOL    HW231827   4.719   0.470  14.229  0.2183 -0.3826  1.2432
 6731SOL     OW31828   1.975   1.681  13.261 -0.3600 -0.3433 -0.0792
 6731SOL    HW131829   1.899   1.626  13.281 -0.2248 -0.2467  0.6922
 6731SOL    HW231830   1.933   1.760  13.227  1.0859  0.0802 -0.9014
 6732SOL     OW31831   1.978   0.516   0.570  0.0323  0.2974 -0.5507
 6732SOL    HW131832   1.981   0.600   0.524  0.1355  1.1613  1.0221
 6732SOL    HW231833   1.936   0.544   0.652  2.7708 -1.1508  1.3759
 6733SOL     OW31834   1.351   2.554   2.260 -0.2694 -0.1956  0.1989
 6733SOL    HW131835   1.446   2.561   2.274 -0.5987  0.5883  2.0063
 6733SOL    HW231836   1.348   2.482   2.198  3.1764  0.7352 -1.0348
 6734SOL     OW31837   0.689   1.663   5.965  0.2064 -0.1486  0.1287
 6734SOL    HW131838   0.644   1.580   5.947 -2.6032  0.9020  2.1757
 6734SOL    HW231839   0.688   1.699   5.876  0.8790 -0.6231 -0.0719
 6735SOL     OW31840   3.199   2.274   1.812 -0.2239  0.8064  0.2246
 6735SOL    HW131841   3.108   2.243   1.808  0.3132 -0.4325 -2.4597
 6735SOL    HW231842   3.223   2.277   1.719  1.7065  0.9170  0.7237
 6736SOL     OW31843   3.314   1.580   6.203 -0.2861 -0.3250 -0.4113
 6736SOL    HW131844   3.359   1.661   6.179 -1.0664 -0.0990 -1.1277
 6736SOL    HW231845   3.241   1.609   6.258 -0.2876 -0.9357 -0.0954
 6737SOL     OW31846   1.686   2.084   7.226  0.4763  0.1939 -0.0406
 6737SOL    HW131847   1.603   2.057   7.266 -0.3644  0.6236 -1.5055
 6737SOL    HW231848   1.728   2.114   7.307 -0.0274  1.3013 -0.1952
 6738SOL     OW31849   0.715   1.843   2.646 -0.2171  0.0896 -0.6646
 6738SOL    HW131850   0.697   1.928   2.606 -2.5855 -0.7399 -1.4025
 6738SOL    HW231851   0.626   1.808   2.655  0.4241 -0.9617  1.4527
 6739SOL     OW31852   0.365   0.169   0.582  0.2470  0.4609 -0.2718
 6739SOL    HW131853   0.315   0.182   0.501 -3.4676  0.3717  2.0021
 6739SOL    HW231854   0.300   0.191   0.649  2.2578  0.3140  1.6888
 6740SOL     OW31855   4.427   1.706   7.431 -0.0748  0.3841  1.0021
 6740SOL    HW131856   4.332   1.702   7.439 -0.3803 -0.7922 -3.1434
 6740SOL    HW231857   4.450   1.614   7.416 -0.6700 -0.1452  3.3046
 6741SOL     OW31858   1.564   0.028   1.927 -0.0276 -0.3400 -0.3454
 6741SOL    HW131859   1.548   0.010   1.835  0.8469  3.0447 -1.1957
 6741SOL    HW231860   1.593   4.677   1.959  1.5494  1.2603  2.5457
 6742SOL     OW31861   4.525   3.233   4.126  0.2247  0.4729 -0.2507
 6742SOL    HW131862   4.510   3.144   4.094 -1.4259  1.5485 -2.4668
 6742SOL    HW231863   4.454   3.280   4.081  0.0424 -0.9641 -1.4699
 6743SOL     OW31864   4.494   0.182  11.844  0.1506  0.0907  0.5016
 6743SOL    HW131865   4.513   0.214  11.932  0.2305 -1.6148  1.1014
 6743SOL    HW231866   4.453   0.257  11.801  0.8637 -0.8378 -1.7971
 6744SOL     OW31867   0.650   3.330   9.789 -0.2644 -0.3954 -0.0146
 6744SOL    HW131868   0.615   3.254   9.836 -0.5764 -0.2312  0.0210
 6744SOL    HW231869   0.725   3.283   9.752  0.3904 -0.5722  1.5280
 6745SOL     OW31870   2.203   3.319   6.788  0.1179  0.6656  0.0411
 6745SOL    HW131871   2.189   3.334   6.694 -1.5607 -1.7422 -0.1088
 6745SOL    HW231872   2.122   3.357   6.822  0.6775  1.8986 -0.0153
 6746SOL     OW31873   3.705   2.904   8.356  0.1693  0.1800  0.1321
 6746SOL    HW131874   3.790   2.909   8.399  0.8519 -0.3809 -1.1533
 6746SOL    HW231875   3.684   2.993   8.328  0.7677 -0.4318 -2.2606
 6747SOL     OW31876   0.339   2.955   1.049 -0.2672  0.4695  0.6388
 6747SOL    HW131877   0.277   2.929   1.118 -2.4010 -0.4964 -1.6312
 6747SOL    HW231878   0.407   2.888   1.042 -0.4249  0.2606  1.0895
 6748SOL     OW31879   1.947   3.465   3.292 -0.4226  0.3433  0.0249
 6748SOL    HW131880   1.896   3.447   3.213  0.0064 -1.9692  0.2710
 6748SOL    HW231881   2.024   3.409   3.285 -1.7061 -1.2828 -1.0966
 6749SOL     OW31882   4.448   1.940   7.289 -0.1506 -0.3647 -0.5944
 6749SOL    HW131883   4.452   1.852   7.327 -0.7921  0.0236  0.3853
 6749SOL    HW231884   4.419   1.928   7.199 -0.9006 -2.4152 -0.0730
 6750SOL     OW31885   3.296   3.177  12.461  0.4385  0.1668 -0.2240
 6750SOL    HW131886   3.235   3.156  12.532  0.4920 -0.4474 -0.3648
 6750SOL    HW231887   3.326   3.096  12.422  1.5240  1.2721 -1.6563
 6751SOL     OW31888   4.021   4.168   0.557  0.2005  0.2917  0.7012
 6751SOL    HW131889   3.945   4.193   0.609 -0.4586  0.7446 -0.4690
 6751SOL    HW231890   3.975   4.123   0.486 -0.2613  1.4809  0.2423
 6752SOL     OW31891   4.403   3.594   5.521  0.2227 -0.1476 -0.3197
 6752SOL    HW131892   4.322   3.642   5.541  0.7343  0.3669  0.5364
 6752SOL    HW231893   4.460   3.637   5.585 -0.1072  1.0052 -0.8059
 6753SOL     OW31894   4.564   2.623   0.843 -0.1678  0.2498  0.2755
 6753SOL    HW131895   4.562   2.716   0.867  2.5732  0.2588  0.4258
 6753SOL    HW231896   4.483   2.601   0.890  1.0483 -2.2079  1.2156
 6754SOL     OW31897   4.341   2.357  13.882  0.8047  0.8845 -0.8110
 6754SOL    HW131898   4.400   2.344  13.956  1.1951 -0.3532 -1.3344
 6754SOL    HW231899   4.267   2.375  13.939  0.2800  1.7032 -1.7493
 6755SOL     OW31900   4.566   0.660  16.904 -0.1777 -0.0574  0.0602
 6755SOL    HW131901   4.474   0.668  16.878  0.2969  0.6437 -1.4199
 6755SOL    HW231902   4.597   0.610  16.828  0.6140  0.0877  0.2943
 6756SOL     OW31903   1.989   4.672  11.483 -0.2083  0.0052  0.2106
 6756SOL    HW131904   1.913   4.727  11.502 -0.8516 -1.1228  0.8866
 6756SOL    HW231905   1.976   4.681  11.389  0.8821  1.2232  0.1800
 6757SOL     OW31906   0.754   0.064   0.457 -0.4920 -0.2286  0.0814
 6757SOL    HW131907   0.848   0.075   0.441 -0.3846  0.1848  0.9870
 6757SOL    HW231908   0.730   0.157   0.457  0.7939  0.1160 -1.7140
 6758SOL     OW31909   2.180   2.008   7.364  0.5534  0.5010  0.1696
 6758SOL    HW131910   2.233   2.010   7.444  3.0641  0.7795 -1.5104
 6758SOL    HW231911   2.157   2.101   7.359  1.2229  0.7409  1.8387
 6759SOL     OW31912   2.893   4.209   0.576  0.5716 -0.3090 -0.1354
 6759SOL    HW131913   2.941   4.169   0.504  1.1483  0.0404  0.0590
 6759SOL    HW231914   2.834   4.134   0.590 -0.5088  1.1912  3.3931
 6760SOL     OW31915   1.025   3.206   9.053  0.3156 -0.1132 -0.1096
 6760SOL    HW131916   1.082   3.130   9.043 -0.6090 -0.7794 -0.3126
 6760SOL    HW231917   0.941   3.163   9.070  1.0648 -1.2712  0.6738
 6761SOL     OW31918   4.280   1.853  13.493 -0.0602 -0.4619  0.6595
 6761SOL    HW131919   4.265   1.938  13.535  0.4922 -0.2863  0.4927
 6761SOL    HW231920   4.344   1.878  13.426  1.0099 -0.0184  1.8650
 6762SOL     OW31921   3.727   4.417  17.500 -0.1141 -0.1872 -0.3514
 6762SOL    HW131922   3.822   4.409  17.507 -0.2744 -2.1550 -0.3261
 6762SOL    HW231923   3.718   4.455  17.413  1.2280 -2.2652 -1.4037
 6763SOL     OW31924   0.920   3.488   8.867 -0.2369  0.0030  0.0479
 6763SOL    HW131925   0.869   3.518   8.942  0.7312  0.2052  0.6255
 6763SOL    HW231926   0.949   3.567   8.822  2.5788 -0.2665  1.3637
 6764SOL     OW31927   3.407   4.426   7.623  0.1400 -0.2179  0.0774
 6764SOL    HW131928   3.394   4.521   7.622 -2.1472 -0.5180 -0.1417
 6764SOL    HW231929   3.489   4.420   7.574  1.1423  1.2140  1.5719
 6765SOL     OW31930   0.638   0.271   4.179  0.2282 -0.1128  0.0215
 6765SOL    HW131931   0.642   0.346   4.119  2.3925 -2.7808 -3.1419
 6765SOL    HW231932   0.679   0.201   4.130  0.1489 -0.9889  1.2084
 6766SOL     OW31933   2.770   3.157   1.529 -0.2480 -0.0157 -0.7529
 6766SOL    HW131934   2.688   3.107   1.526 -0.8819  0.9809 -0.2589
 6766SOL    HW231935   2.789   3.199   1.445 -2.3373 -2.0338 -2.2380
 6767SOL     OW31936   0.654   1.627   4.279 -0.0323 -0.5496  0.0343
 6767SOL    HW131937   0.612   1.541   4.282 -0.3314 -0.4780 -1.9120
 6767SOL    HW231938   0.577   1.673   4.310  0.2418  1.2167 -1.9040
 6768SOL     OW31939   2.896   3.061   8.655 -0.6258  0.7628 -0.4603
 6768SOL    HW131940   2.983   3.086   8.685 -1.0468  0.9796  0.5996
 6768SOL    HW231941   2.910   3.080   8.562 -1.8256  0.8021 -0.6343
 6769SOL     OW31942   4.155   4.405   9.376 -0.4124 -0.1576  0.5729
 6769SOL    HW131943   4.224   4.415   9.311 -0.3247  2.8322  1.1351
 6769SOL    HW231944   4.199   4.419   9.460 -1.5929 -1.1410  1.3555
 6770SOL     OW31945   0.322   1.498   6.742  0.0876 -0.3634 -0.0508
 6770SOL    HW131946   0.316   1.514   6.836 -0.2046 -1.4542  0.1147
 6770SOL    HW231947   0.289   1.584   6.715 -0.4822 -0.3407  0.7151
 6771SOL     OW31948   1.526   0.651  14.470 -0.3257  0.4095  0.7196
 6771SOL    HW131949   1.433   0.664  14.487 -0.0114  1.9629  1.2724
 6771SOL    HW231950   1.554   0.742  14.482  0.4370  0.3163 -0.2481
 6772SOL     OW31951   2.238   3.792   8.163  0.0019 -0.2629 -0.1274
 6772SOL    HW131952   2.255   3.765   8.073 -1.3999 -0.7953 -0.2378
 6772SOL    HW231953   2.320   3.762   8.201 -1.7479 -1.9002  2.3101
 6773SOL     OW31954   3.969   3.616   8.334  0.2030  0.1723 -0.0451
 6773SOL    HW131955   4.030   3.547   8.308 -1.1275 -0.6823 -0.9273
 6773SOL    HW231956   3.964   3.588   8.426 -0.5434 -0.5721 -0.3045
 6774SOL     OW31957   1.046   0.532   1.190 -0.3754  0.0111 -0.1447
 6774SOL    HW131958   1.019   0.578   1.110 -0.2216 -1.0328 -0.8038
 6774SOL    HW231959   1.110   0.590   1.232 -1.5674 -0.9115  2.9417
 6775SOL     OW31960   1.501   3.839   3.453 -0.2250  0.0580  0.6852
 6775SOL    HW131961   1.532   3.773   3.515  1.5000 -1.3064 -1.6292
 6775SOL    HW231962   1.430   3.875   3.505 -1.4042  1.2010 -1.7246
 6776SOL     OW31963   3.797   0.942   9.549  0.0917 -0.1686 -0.4163
 6776SOL    HW131964   3.717   0.890   9.550  0.1057 -0.1948 -0.5936
 6776SOL    HW231965   3.777   1.016   9.492 -0.5945 -0.2458 -0.2753
 6777SOL     OW31966   1.603   3.774   7.809 -0.1752 -0.0619 -0.2517
 6777SOL    HW131967   1.583   3.682   7.791 -0.5375 -0.4089  1.9247
 6777SOL    HW231968   1.697   3.777   7.794 -0.2135 -0.6247 -0.6011
 6778SOL     OW31969   0.544   4.589   0.378  0.3479 -0.1813 -0.1961
 6778SOL    HW131970   0.569   4.559   0.465 -1.1066  1.2675  0.7238
 6778SOL    HW231971   0.607   4.661   0.370 -0.7089  0.5900 -1.6101
 6779SOL     OW31972   4.539   3.899   9.503 -0.3757  0.0023 -0.0627
 6779SOL    HW131973   4.464   3.862   9.551 -0.7294  0.0937 -0.5454
 6779SOL    HW231974   4.615   3.878   9.557 -0.2239 -1.1697 -0.7171
 6780SOL     OW31975   3.835   3.141   2.426 -0.1489  0.4330  0.1182
 6780SOL    HW131976   3.833   3.077   2.355 -0.6648  2.1799 -1.4266
 6780SOL    HW231977   3.800   3.218   2.381  0.2935  1.1342  0.9664
 6781SOL     OW31978   0.659   4.351   5.961  0.7393 -0.2022 -0.3935
 6781SOL    HW131979   0.685   4.425   5.907 -1.4355  0.3814 -0.6409
 6781SOL    HW231980   0.704   4.276   5.921  1.9842  0.6377 -0.5592
 6782SOL     OW31981   4.112   0.895   8.386  0.0703 -0.2722 -0.0860
 6782SOL    HW131982   4.198   0.912   8.424 -0.7091 -2.4883  2.6226
 6782SOL    HW231983   4.118   0.970   8.327 -2.9739  0.9627  1.1554
 6783SOL     OW31984   2.002   3.919   8.092 -0.1052  0.5036  0.1175
 6783SOL    HW131985   2.047   4.000   8.115 -0.2626  0.4215  0.7230
 6783SOL    HW231986   2.052   3.857   8.146  1.3802  0.0102 -1.8426
 6784SOL     OW31987   2.869   2.629  12.772  0.8777 -0.5469  0.0265
 6784SOL    HW131988   2.890   2.595  12.859  2.1180 -0.9878 -0.4382
 6784SOL    HW231989   2.886   2.552  12.718 -0.1336  0.3081 -1.4922
 6785SOL     OW31990   4.166   4.439   8.471  0.5138  0.5891 -0.2575
 6785SOL    HW131991   4.090   4.494   8.494  0.7181  0.9223 -0.3723
 6785SOL    HW231992   4.216   4.457   8.551 -1.3780 -1.4372  1.3758
 6786SOL     OW31993   1.990   0.228  13.831 -0.7941 -0.5402  0.1798
 6786SOL    HW131994   2.059   0.162  13.833  0.3775  0.6672 -0.7267
 6786SOL    HW231995   1.963   0.226  13.923 -0.0776  1.2977  0.4294
 6787SOL     OW31996   2.972   2.046   7.997 -0.5542 -0.1978  0.3177
 6787SOL    HW131997   2.983   1.953   7.975  2.0725  0.3066 -0.5437
 6787SOL    HW231998   3.003   2.092   7.919 -0.8260 -1.4171 -0.5069
 6788SOL     OW31999   0.340   2.846  10.519  0.4197  1.0714  0.6131
 6788SOL    HW132000   0.433   2.865  10.532  0.6472  0.2504  0.1771
 6788SOL    HW232001   0.307   2.870  10.605 -1.2970  0.2857  0.1749
 6789SOL     OW32002   4.021   1.081   3.014  0.1369  0.2164 -0.4769
 6789SOL    HW132003   4.014   1.176   3.018  2.4933  0.3977 -0.8671
 6789SOL    HW232004   3.933   1.044   3.018  0.1051  0.2658 -0.6970
 6790SOL     OW32005   0.299   4.154   5.332  0.1014  0.3284  0.1179
 6790SOL    HW132006   0.347   4.104   5.398  0.1652  0.8360  0.4540
 6790SOL    HW232007   0.368   4.169   5.267  1.7853  0.4453  1.9187
 6791SOL     OW32008   4.510   1.319   3.715 -0.4991 -0.3706  0.0618
 6791SOL    HW132009   4.499   1.412   3.736  0.8508  0.3703 -2.4344
 6791SOL    HW232010   4.495   1.329   3.621 -0.6177 -0.7306  0.0434
 6792SOL     OW32011   0.621   2.095   6.115  0.1888 -0.2660 -0.7223
 6792SOL    HW132012   0.540   2.145   6.104 -0.9756 -0.8512  4.8083
 6792SOL    HW232013   0.611   2.021   6.175 -1.3398  1.7150  1.4625
 6793SOL     OW32014   0.991   4.596   2.013  0.2296 -0.0748 -0.5771
 6793SOL    HW132015   1.014   4.523   1.956  2.3499  0.5879 -0.5466
 6793SOL    HW232016   0.916   4.556   2.058  0.9598 -0.2655  0.4507
 6794SOL     OW32017   1.066   2.635   6.452  0.2928 -0.2865  0.0533
 6794SOL    HW132018   1.115   2.707   6.412 -1.4191  1.7337  1.5605
 6794SOL    HW232019   1.101   2.562   6.401 -1.4613 -2.2482  1.6760
 6795SOL     OW32020   0.524   3.041  15.650 -0.0573  0.0223  0.2251
 6795SOL    HW132021   0.597   3.018  15.593 -1.7385  2.1980 -2.7895
 6795SOL    HW232022   0.506   2.956  15.692  0.1076 -0.4213 -0.6061
 6796SOL     OW32023   1.201   1.935   7.505 -0.4242  0.3678 -0.2626
 6796SOL    HW132024   1.234   1.860   7.455 -0.3596 -0.5282  1.1344
 6796SOL    HW232025   1.138   1.882   7.554  0.7593 -0.8206 -0.0379
 6797SOL     OW32026   2.124   1.331   3.037 -0.0868 -0.1590  0.5809
 6797SOL    HW132027   2.151   1.417   3.002  3.1149 -0.0628  3.2849
 6797SOL    HW232028   2.041   1.314   2.993 -0.8555  2.3464  1.0582
 6798SOL     OW32029   4.162   3.991   4.119  0.0219 -0.3368  0.2853
 6798SOL    HW132030   4.152   4.086   4.112 -3.0217 -0.7341 -0.7818
 6798SOL    HW232031   4.249   3.980   4.081 -0.6223 -1.1837 -0.9075
 6799SOL     OW32032   1.909   2.562   7.085  0.5978  0.5113 -0.0726
 6799SOL    HW132033   1.943   2.588   7.171 -0.1694 -2.1036  1.0177
 6799SOL    HW232034   1.867   2.480   7.111  0.8308 -0.0452 -1.4693
 6800SOL     OW32035   4.042   2.310   9.770 -0.0526  0.3032  0.4033
 6800SOL    HW132036   3.979   2.309   9.842  0.2826  1.6535  0.7155
 6800SOL    HW232037   4.011   2.377   9.708  0.9404  0.6027  0.2403
 6801SOL     OW32038   2.551   0.359   5.730  0.2201  0.1366  0.2264
 6801SOL    HW132039   2.467   0.400   5.709  0.6503  1.8821  1.9543
 6801SOL    HW232040   2.530   0.270   5.700  1.6723 -0.1969  0.2219
 6802SOL     OW32041   3.286   3.389   6.726  0.4823  0.1752  0.1648
 6802SOL    HW132042   3.321   3.415   6.812 -0.3068  0.0888  0.5186
 6802SOL    HW232043   3.338   3.318   6.690 -0.0110 -0.3274  0.4415
 6803SOL     OW32044   1.612   4.286   7.253  0.2321  0.3981  0.5684
 6803SOL    HW132045   1.523   4.253   7.257  0.9152 -1.5740 -1.1757
 6803SOL    HW232046   1.601   4.354   7.187  0.0941 -3.1907 -3.0520
 6804SOL     OW32047   3.748   3.697   5.237 -0.2320 -0.1976  0.1393
 6804SOL    HW132048   3.667   3.721   5.282 -0.8924 -1.6560 -0.2697
 6804SOL    HW232049   3.711   3.637   5.173  1.2174 -1.0916  0.1535
 6805SOL     OW32050   0.857   1.517  16.453  0.3002  0.7005  0.4352
 6805SOL    HW132051   0.915   1.515  16.377 -0.7561  0.9500 -0.3753
 6805SOL    HW232052   0.913   1.522  16.531 -0.9364  2.3306  1.2296
 6806SOL     OW32053   0.408   3.662   9.447 -0.1106  0.0145 -0.3014
 6806SOL    HW132054   0.420   3.599   9.517 -0.9124  0.7557  0.4970
 6806SOL    HW232055   0.440   3.742   9.489  0.4975 -1.4064  1.9216
 6807SOL     OW32056   0.099   2.284   3.079  0.4216  0.0897 -0.0457
 6807SOL    HW132057   0.043   2.360   3.094 -0.3551  0.0588 -2.7872
 6807SOL    HW232058   0.159   2.331   3.022 -0.2363  0.2354 -0.6230
 6808SOL     OW32059   0.299   1.328  10.501 -0.3164  0.3545 -0.0227
 6808SOL    HW132060   0.272   1.317  10.592  1.7028 -0.6863  0.4445
 6808SOL    HW232061   0.273   1.418  10.478 -3.3305  0.3073  3.0584
 6809SOL     OW32062   3.920   1.610   2.980  0.4985  0.2466  0.1641
 6809SOL    HW132063   3.907   1.644   2.891  0.5481 -0.1212  0.0156
 6809SOL    HW232064   3.995   1.658   3.015  0.0990 -0.3919  1.8979
 6810SOL     OW32065   3.192   1.986   7.762 -0.1129  0.3113 -0.1162
 6810SOL    HW132066   3.191   2.076   7.795  1.6333 -0.0842  1.0278
 6810SOL    HW232067   3.172   2.007   7.671  0.3092  2.4055  0.2726
 6811SOL     OW32068   2.066   2.267   7.334  0.3862  0.0156 -0.4129
 6811SOL    HW132069   1.993   2.274   7.272 -0.2283 -1.3170  0.1518
 6811SOL    HW232070   2.027   2.318   7.404 -1.2204 -0.0012 -1.2873
 6812SOL     OW32071   3.651   1.177  16.412 -0.2470  0.1412 -0.5075
 6812SOL    HW132072   3.653   1.082  16.413 -0.0301  0.1528 -0.0599
 6812SOL    HW232073   3.669   1.200  16.503  1.6940 -0.4434 -0.7565
 6813SOL     OW32074   0.270   3.830   9.776 -0.0288  0.5057  0.6497
 6813SOL    HW132075   0.294   3.907   9.827  2.8818 -0.6122  0.9617
 6813SOL    HW232076   0.238   3.776   9.848 -0.0576  2.1018  1.8373
 6814SOL     OW32077   4.629   1.206   8.408  0.6158  0.3580  0.1345
 6814SOL    HW132078   4.690   1.161   8.467  0.8734  2.2892  1.3633
 6814SOL    HW232079   4.542   1.194   8.445 -0.1695 -2.1157 -2.5108
 6815SOL     OW32080   4.499   1.172  11.718 -0.2316 -0.3269  0.1150
 6815SOL    HW132081   4.540   1.258  11.715  0.2354 -0.5823 -1.2377
 6815SOL    HW232082   4.484   1.159  11.811  0.6152 -0.8187  0.1822
 6816SOL     OW32083   4.234   1.058   4.834 -0.1221 -0.0772 -0.0827
 6816SOL    HW132084   4.271   1.116   4.901 -0.1478  0.4738 -0.5534
 6816SOL    HW232085   4.167   1.110   4.791 -1.4655  0.8845  3.1878
 6817SOL     OW32086   2.855   2.730  11.252  0.2857 -0.4722  0.0440
 6817SOL    HW132087   2.864   2.697  11.163 -0.0991 -2.2983  0.6855
 6817SOL    HW232088   2.947   2.757  11.259 -0.7953  3.1121  0.5770
 6818SOL     OW32089   1.283   3.257   6.174  0.6880 -0.3002  0.0148
 6818SOL    HW132090   1.251   3.326   6.116 -0.1499 -2.2883 -1.8788
 6818SOL    HW232091   1.374   3.263   6.145  0.3950  3.2599 -0.2255
 6819SOL     OW32092   2.169   0.649   4.275  0.0933  0.1386 -0.5636
 6819SOL    HW132093   2.137   0.724   4.225  0.7974 -0.0894 -1.3479
 6819SOL    HW232094   2.240   0.628   4.214  1.2186  0.3757  0.6498
 6820SOL     OW32095   1.856   1.778   4.941  0.7351  0.0798  0.3789
 6820SOL    HW132096   1.832   1.725   4.865 -0.1927  2.5818 -1.1033
 6820SOL    HW232097   1.769   1.807   4.966 -0.9303 -1.8998 -3.1129
 6821SOL     OW32098   4.572   0.567   7.740  0.2671  0.4477 -0.0263
 6821SOL    HW132099   4.599   0.562   7.648  0.9713 -2.8663  0.3664
 6821SOL    HW232100   4.534   0.655   7.744  0.0484  0.2665  2.0572
 6822SOL     OW32101   4.583   0.042   2.891 -0.5372 -0.5481  0.4137
 6822SOL    HW132102   4.641   0.035   2.967 -0.1353  0.4685  0.1921
 6822SOL    HW232103   4.527   0.114   2.920  0.2038 -0.2690  1.1343
 6823SOL     OW32104   2.798   1.387   7.177  0.5596 -0.0770  0.1890
 6823SOL    HW132105   2.880   1.432   7.196  0.9699 -0.6807 -0.1695
 6823SOL    HW232106   2.736   1.457   7.199  0.2259 -0.4115  0.3064
 6824SOL     OW32107   2.412   4.572   7.523 -0.1534  0.2182 -0.0638
 6824SOL    HW132108   2.341   4.527   7.569 -1.7145  2.0572 -0.6758
 6824SOL    HW232109   2.360   4.609   7.452  0.8487  2.9271  0.6293
 6825SOL     OW32110   2.425   0.284   5.278 -0.2051  0.2308  0.5585
 6825SOL    HW132111   2.372   0.206   5.291 -0.2989  0.3727  1.0152
 6825SOL    HW232112   2.511   0.255   5.308  0.8643  0.1012 -2.6325
 6826SOL     OW32113   2.834   2.892   3.091  0.2483 -0.2621 -0.4711
 6826SOL    HW132114   2.749   2.916   3.127  0.8403  1.9446 -0.5389
 6826SOL    HW232115   2.878   2.977   3.085  0.5559 -0.2781  1.6966
 6827SOL     OW32116   0.737   0.631   9.049  0.8629  0.6170 -0.1682
 6827SOL    HW132117   0.751   0.540   9.025 -0.0765  1.1420 -2.6805
 6827SOL    HW232118   0.742   0.622   9.144  1.8256 -1.0449 -0.3710
 6828SOL     OW32119   1.474   1.090  16.111 -0.2305  0.2114 -0.9754
 6828SOL    HW132120   1.438   1.032  16.044  1.4494 -2.9688  0.8784
 6828SOL    HW232121   1.472   1.171  16.060 -1.7047 -1.4864 -3.6470
 6829SOL     OW32122   4.466   4.044   9.807  0.2090 -0.0413  0.4177
 6829SOL    HW132123   4.384   4.088   9.784  0.1247  0.7514  2.1957
 6829SOL    HW232124   4.532   4.112   9.796 -0.3889  0.7124  1.4695
 6830SOL     OW32125   3.559   3.376  14.358  0.5359 -0.0330  0.0840
 6830SOL    HW132126   3.573   3.462  14.399 -1.9047  2.1240 -3.5815
 6830SOL    HW232127   3.469   3.348  14.374  0.7998  1.3428  3.8769
 6831SOL     OW32128   2.259   1.278   4.791  0.0003  0.4681  0.3852
 6831SOL    HW132129   2.343   1.273   4.836  0.5939  1.4706 -0.6048
 6831SOL    HW232130   2.288   1.253   4.703  0.2032  0.8411  0.3418
 6832SOL     OW32131   0.795   2.132   8.528  0.2438 -0.4429 -0.4310
 6832SOL    HW132132   0.752   2.092   8.604  4.4976 -1.5160  1.4447
 6832SOL    HW232133   0.734   2.096   8.464  0.9079 -2.9491  0.3480
 6833SOL     OW32134   4.316   0.903   3.033 -0.4917  0.4060  0.4276
 6833SOL    HW132135   4.260   0.851   3.090 -0.5204  0.2398  0.2504
 6833SOL    HW232136   4.299   0.985   3.079  0.6883  1.4320 -0.9499
 6834SOL     OW32137   0.446   0.442   8.652 -0.8268  1.0601  0.0232
 6834SOL    HW132138   0.449   0.360   8.602 -2.4726  1.1244 -0.1746
 6834SOL    HW232139   0.377   0.420   8.715 -0.3050  3.2127  1.3463
 6835SOL     OW32140   2.159   0.695   5.802  0.3719  0.1806 -0.1638
 6835SOL    HW132141   2.171   0.784   5.769 -0.4118  1.0937  1.9857
 6835SOL    HW232142   2.183   0.710   5.894  0.5999  1.0925 -0.3763
 6836SOL     OW32143   1.627   0.218   5.241  0.2927 -0.1282  0.6465
 6836SOL    HW132144   1.579   0.255   5.167 -0.2447 -1.4378  0.3558
 6836SOL    HW232145   1.621   0.123   5.228 -2.4448  0.4440 -2.3945
 6837SOL     OW32146   3.316   0.924   9.142 -0.3187  0.5477 -0.8287
 6837SOL    HW132147   3.276   0.845   9.178  0.1697  1.5924  1.9906
 6837SOL    HW232148   3.380   0.929   9.214 -1.7279  0.5954  0.4085
 6838SOL     OW32149   2.037   3.375  11.642  0.3326 -0.0755 -0.1395
 6838SOL    HW132150   1.960   3.433  11.642  0.3278 -0.0790  0.2646
 6838SOL    HW232151   1.991   3.292  11.651 -0.2658  0.2310 -0.3413
 6839SOL     OW32152   0.738   2.814   7.063 -0.2914  0.6859  0.2780
 6839SOL    HW132153   0.760   2.830   6.971  0.4400  1.4326  0.5859
 6839SOL    HW232154   0.736   2.905   7.093  0.2446  0.8748 -0.2688
 6840SOL     OW32155   2.771   2.829  10.813 -0.5566  0.5113 -0.2014
 6840SOL    HW132156   2.827   2.758  10.782 -1.2534  0.0091 -0.2925
 6840SOL    HW232157   2.781   2.815  10.908 -1.1430  0.0508 -0.2028
 6841SOL     OW32158   1.022   1.796   7.654  0.5254 -0.5234 -0.4365
 6841SOL    HW132159   0.955   1.821   7.717  0.3950 -0.3389 -0.6478
 6841SOL    HW232160   0.995   1.706   7.635  1.6248 -1.0049  0.3029
 6842SOL     OW32161   2.592   3.960   8.921  0.2723  0.3374  0.4205
 6842SOL    HW132162   2.606   3.868   8.899 -1.8114  0.1517 -0.0993
 6842SOL    HW232163   2.581   4.002   8.836 -0.4100  0.2047  0.4429
 6843SOL     OW32164   1.291   1.890   5.270  0.3207  0.3685  0.0071
 6843SOL    HW132165   1.329   1.904   5.183 -2.2518 -0.3542 -1.2260
 6843SOL    HW232166   1.241   1.971   5.280 -0.2820 -0.0060 -0.0035
 6844SOL     OW32167   2.095   2.328   8.257  0.0647  0.5110  0.1721
 6844SOL    HW132168   2.064   2.298   8.171 -0.5033 -0.6151  0.7562
 6844SOL    HW232169   2.165   2.264   8.274 -0.1893  0.6110  1.5711
 6845SOL     OW32170   2.734   2.746   5.444 -0.3679  0.4330  0.4282
 6845SOL    HW132171   2.708   2.656   5.423 -0.8933  0.7549 -0.2988
 6845SOL    HW232172   2.650   2.771   5.483 -0.3468 -0.8373  1.3024
 6846SOL     OW32173   2.000   3.207   2.151  0.6881 -0.0869 -0.1548
 6846SOL    HW132174   2.089   3.205   2.116  1.2577 -1.3077  1.3421
 6846SOL    HW232175   2.014   3.153   2.229  0.1307  0.1652  0.1209
 6847SOL     OW32176   0.802   3.738   9.031  0.0834 -0.1857 -0.0886
 6847SOL    HW132177   0.727   3.787   9.067 -0.5414 -0.4814 -0.9763
 6847SOL    HW232178   0.787   3.654   9.074  1.3159  1.2005  3.1121
 6848SOL     OW32179   4.129   1.477   5.599 -0.0287 -0.3767 -0.2994
 6848SOL    HW132180   4.179   1.395   5.602  1.5920  0.5920 -0.7071
 6848SOL    HW232181   4.206   1.533   5.606  0.2689 -0.4376 -3.0901
 6849SOL     OW32182   2.233   0.272  14.106  0.4893 -0.4033 -0.8211
 6849SOL    HW132183   2.217   0.327  14.029 -1.1075 -2.0621 -1.6654
 6849SOL    HW232184   2.226   0.188  14.061  0.3816 -1.0095  0.3321
 6850SOL     OW32185   2.293   1.402   7.355 -0.5573 -0.5236 -0.7562
 6850SOL    HW132186   2.267   1.492   7.370 -0.3255  0.1152 -4.0688
 6850SOL    HW232187   2.376   1.394   7.403 -0.8977  1.8384  0.2131
 6851SOL     OW32188   0.421   2.902   6.690 -0.1420  0.0509  0.6917
 6851SOL    HW132189   0.422   2.892   6.594  1.1585  0.4915  0.6605
 6851SOL    HW232190   0.337   2.859   6.708  0.2489 -0.7677  0.5982
 6852SOL     OW32191   2.258   2.857   4.184  0.0121 -0.7419 -0.0364
 6852SOL    HW132192   2.237   2.885   4.095  1.5620  0.2169 -0.1046
 6852SOL    HW232193   2.334   2.805   4.159  1.4884  1.8068 -0.8425
 6853SOL     OW32194   1.092   1.407  13.552 -0.2766 -0.4666 -0.1018
 6853SOL    HW132195   1.123   1.323  13.517  2.6692 -0.1969  1.8403
 6853SOL    HW232196   1.000   1.386  13.564  0.0005 -0.7569  1.5035
 6854SOL     OW32197   3.076   1.667  17.518  0.3560 -0.6250 -0.3736
 6854SOL    HW132198   3.167   1.692  17.529  1.0604 -3.0465 -0.6133
 6854SOL    HW232199   3.084   1.598  17.453 -1.9575 -1.5139  0.2765
 6855SOL     OW32200   3.693   3.007   4.333  0.0345 -0.8515  0.3580
 6855SOL    HW132201   3.747   3.085   4.317 -2.3674  0.7786  0.1757
 6855SOL    HW232202   3.606   3.047   4.334  0.4095  0.0368 -1.5680
 6856SOL     OW32203   1.986   3.508  12.251  0.4131  0.0508 -0.1088
 6856SOL    HW132204   2.046   3.446  12.293 -0.7786 -0.3913  0.9449
 6856SOL    HW232205   2.016   3.519  12.161  0.7477 -3.3443 -0.4054
 6857SOL     OW32206   3.212   3.306  10.415 -0.2539 -0.3430 -0.0607
 6857SOL    HW132207   3.276   3.348  10.357  0.1000 -2.4167 -1.1990
 6857SOL    HW232208   3.253   3.227  10.451 -0.1627 -0.8280 -1.2293
 6858SOL     OW32209   1.104   1.645   5.911 -0.4606 -0.0367 -0.9385
 6858SOL    HW132210   1.143   1.584   5.848  1.7551  2.2689 -1.7869
 6858SOL    HW232211   1.186   1.671   5.951 -0.8777 -0.3952  0.1420
 6859SOL     OW32212   0.064   1.033   8.535  0.2129 -0.0639  0.2575
 6859SOL    HW132213   0.093   0.968   8.599 -0.9853 -0.5935  0.2747
 6859SOL    HW232214   0.136   1.039   8.473  0.4197  0.4205  0.5483
 6860SOL     OW32215   4.415   0.881   4.210 -0.0864 -0.2467  0.2179
 6860SOL    HW132216   4.321   0.882   4.225 -0.3709  0.0633 -1.6169
 6860SOL    HW232217   4.428   0.974   4.190 -0.3791  0.0630  1.4351
 6861SOL     OW32218   0.660   1.690   8.709  0.5191  0.2018 -0.0977
 6861SOL    HW132219   0.575   1.652   8.684  0.1479  0.4580  0.7732
 6861SOL    HW232220   0.642   1.752   8.779  1.5361  1.0827 -0.6242
 6862SOL     OW32221   4.207   2.311   1.762 -0.0860 -0.6479 -0.3264
 6862SOL    HW132222   4.184   2.221   1.738 -1.2555 -0.2353 -0.7649
 6862SOL    HW232223   4.299   2.301   1.736  0.5353  0.7017  1.3518
 6863SOL     OW32224   0.515   3.047  14.045  0.4321 -0.1024  0.0560
 6863SOL    HW132225   0.483   2.966  14.004  2.1309 -0.4795 -0.5036
 6863SOL    HW232226   0.501   3.038  14.139 -2.4304 -0.0677 -0.3604
 6864SOL     OW32227   0.547   0.503  15.091  0.3109  0.3992 -0.0379
 6864SOL    HW132228   0.523   0.492  14.999 -0.8125  0.4699  0.2468
 6864SOL    HW232229   0.486   0.441  15.130  0.8713  0.1615  0.4660
 6865SOL     OW32230   0.839   1.339   7.645  0.1665  0.0910  0.0966
 6865SOL    HW132231   0.809   1.322   7.556  1.3157 -1.6050  0.0291
 6865SOL    HW232232   0.777   1.409   7.666 -1.3236 -0.7134 -1.6640
 6866SOL     OW32233   3.967   2.481   8.925 -0.2773 -0.0386  0.3551
 6866SOL    HW132234   4.044   2.509   8.975 -0.5431  1.1204  0.1246
 6866SOL    HW232235   3.977   2.538   8.849 -2.0836  1.2124  1.0544
 6867SOL     OW32236   3.054   3.420   9.536  0.2588 -0.3258  0.7548
 6867SOL    HW132237   3.060   3.335   9.492 -1.1389  0.6658 -1.3353
 6867SOL    HW232238   3.054   3.479   9.461  2.0853  1.0746  1.8659
 6868SOL     OW32239   2.374   3.718   9.728  0.2112  0.5639  0.5890
 6868SOL    HW132240   2.410   3.639   9.768 -0.6891 -0.4510 -0.5937
 6868SOL    HW232241   2.312   3.681   9.665  1.4306 -2.2143  1.0026
 6869SOL     OW32242   4.668   4.110  14.784  0.3964 -0.2072  0.0419
 6869SOL    HW132243   4.589   4.061  14.764  0.3620 -0.2606  0.3072
 6869SOL    HW232244   4.721   4.096  14.706 -0.0279 -0.4310 -0.2044
 6870SOL     OW32245   2.396   3.247   6.402  0.0239  0.6428 -0.2055
 6870SOL    HW132246   2.485   3.244   6.365 -0.1045  0.9901 -0.5464
 6870SOL    HW232247   2.394   3.341   6.418  1.9584  0.2605  2.4460
 6871SOL     OW32248   2.350   3.447  16.860  0.7359  0.2513  0.7564
 6871SOL    HW132249   2.356   3.540  16.839  0.5303  0.1973  0.4406
 6871SOL    HW232250   2.344   3.398  16.778  0.2975  0.2494  0.7879
 6872SOL     OW32251   3.500   0.986  11.875  0.5425 -0.0011  0.0922
 6872SOL    HW132252   3.495   0.892  11.861  0.7967  0.3692 -2.4882
 6872SOL    HW232253   3.547   0.995  11.958  0.3319 -0.5856  0.2704
 6873SOL     OW32254   3.820   0.334   4.588  0.0141 -0.2946  0.3490
 6873SOL    HW132255   3.852   0.288   4.666  1.0321 -4.2681 -2.4369
 6873SOL    HW232256   3.823   0.269   4.518 -0.9460  1.8893 -1.6899
 6874SOL     OW32257   2.387   3.500   8.443 -0.4666  0.1335 -0.1440
 6874SOL    HW132258   2.313   3.519   8.385 -0.8416 -0.0786  0.2694
 6874SOL    HW232259   2.439   3.581   8.446 -1.8914  0.9875  1.5526
 6875SOL     OW32260   2.020   2.647   7.623  0.0834  0.0961 -0.1411
 6875SOL    HW132261   2.004   2.563   7.666 -1.3018  1.1596  1.4303
 6875SOL    HW232262   2.082   2.691   7.681  0.0579  2.9074 -2.2785
 6876SOL     OW32263   1.619   3.823  13.733 -0.2320 -0.3157 -0.4592
 6876SOL    HW132264   1.600   3.870  13.652  1.0535 -0.0652 -0.6126
 6876SOL    HW232265   1.560   3.875  13.787  0.2419 -1.9930  1.6660
 6877SOL     OW32266   1.625   0.645   7.278 -0.8171  0.4280 -0.0566
 6877SOL    HW132267   1.704   0.696   7.263 -0.4208  0.7091  3.0107
 6877SOL    HW232268   1.649   0.553   7.287  0.7401  0.6962 -1.5678
 6878SOL     OW32269   1.394   2.340   8.139 -0.2812  0.3872  0.0874
 6878SOL    HW132270   1.346   2.261   8.165 -0.8852  0.5895 -0.3911
 6878SOL    HW232271   1.329   2.410   8.149  0.6432  1.2044  0.2944
 6879SOL     OW32272   0.307   3.827   3.747 -0.1616 -0.1263 -0.4870
 6879SOL    HW132273   0.261   3.902   3.787 -0.1260  0.8836 -2.2957
 6879SOL    HW232274   0.389   3.834   3.795 -0.5328  1.7366 -0.0797
 6880SOL     OW32275   3.299   1.862   9.128 -0.3555  0.1077  0.0687
 6880SOL    HW132276   3.383   1.823   9.151  0.2548  0.8748 -0.8596
 6880SOL    HW232277   3.320   1.925   9.059  1.5967  0.0819  0.6347
 6881SOL     OW32278   1.065   3.507   9.665  0.3413 -0.1171  0.0475
 6881SOL    HW132279   1.050   3.533   9.574  0.0838  0.3240  0.2177
 6881SOL    HW232280   1.141   3.450   9.656 -0.7795 -1.6450  0.1464
 6882SOL     OW32281   2.626   3.276   9.529  0.1905  0.3719 -0.0019
 6882SOL    HW132282   2.661   3.344   9.586  1.2460 -0.7611  0.7109
 6882SOL    HW232283   2.591   3.334   9.461 -0.1427  0.2351  0.0566
 6883SOL     OW32284   2.667   3.504  11.512  0.2071  0.5636  0.1663
 6883SOL    HW132285   2.636   3.421  11.549 -0.7866  0.2348 -1.4529
 6883SOL    HW232286   2.588   3.558  11.507  0.3155  0.5182 -1.9321
 6884SOL     OW32287   4.664   1.818   0.661 -0.0854  0.2230 -0.4191
 6884SOL    HW132288   4.734   1.881   0.680 -0.6699  0.4788  0.8743
 6884SOL    HW232289   4.637   1.837   0.571 -1.7276  1.6825  0.3815
 6885SOL     OW32290   1.777   3.815   9.127  0.4571  0.6758 -0.0519
 6885SOL    HW132291   1.770   3.719   9.128  1.4266  0.5943 -0.5434
 6885SOL    HW232292   1.855   3.823   9.072 -0.8105 -0.0876 -2.0026
 6886SOL     OW32293   2.054   1.080   5.735  0.0726  0.3939  0.3200
 6886SOL    HW132294   2.145   1.056   5.720 -0.2744 -0.9013  0.2704
 6886SOL    HW232295   2.043   1.149   5.668 -1.0571  1.2507  1.3840
 6887SOL     OW32296   0.049   3.229   2.700 -0.0839 -0.7777 -0.2794
 6887SOL    HW132297   4.700   3.192   2.732  0.2865 -0.3082  1.2472
 6887SOL    HW232298   0.059   3.309   2.752  1.7867 -0.2885 -1.4194
 6888SOL     OW32299   2.325   0.904   7.361 -0.2950  0.4314 -0.3226
 6888SOL    HW132300   2.397   0.962   7.386  0.9913 -1.2196 -0.1570
 6888SOL    HW232301   2.304   0.946   7.278 -2.0834  1.3952  0.6368
 6889SOL     OW32302   3.749   3.129   6.455  0.1107 -0.1905  0.5179
 6889SOL    HW132303   3.830   3.178   6.440 -0.4784  0.9391  1.0446
 6889SOL    HW232304   3.689   3.198   6.425  2.3605  0.9528 -1.3213
 6890SOL     OW32305   0.982   0.490   4.251  0.0722  0.0727  0.2394
 6890SOL    HW132306   0.977   0.479   4.156 -1.4212 -0.5978  0.3995
 6890SOL    HW232307   1.029   0.410   4.276 -0.7450 -0.3160  0.5305
 6891SOL     OW32308   0.469   3.906   9.592  0.1067 -0.1663  0.3684
 6891SOL    HW132309   0.400   3.893   9.658 -1.3886 -1.9320 -1.5135
 6891SOL    HW232310   0.525   3.963   9.644  0.0508 -0.1692  0.4321
 6892SOL     OW32311   1.586   3.089   7.582  0.1212 -0.0660  0.0132
 6892SOL    HW132312   1.510   3.046   7.543 -0.8822  1.9627 -0.3114
 6892SOL    HW232313   1.661   3.036   7.558  1.2580  1.5638 -0.0428
 6893SOL     OW32314   1.303   0.160   4.981 -0.5218 -0.0947  0.4853
 6893SOL    HW132315   1.245   0.084   4.985 -0.4474 -0.1721  0.0934
 6893SOL    HW232316   1.321   0.160   4.887 -0.5079 -1.1946  0.4848
 6894SOL     OW32317   3.982   0.139   3.874 -0.3816  0.2480  0.0911
 6894SOL    HW132318   3.913   0.181   3.823 -1.2710  0.6718  1.6574
 6894SOL    HW232319   3.925   0.092   3.935 -0.0808 -0.0242  0.1651
 6895SOL     OW32320   3.008   3.780   7.516 -0.4815  0.1384 -0.0997
 6895SOL    HW132321   2.927   3.830   7.508 -0.2687  0.6607  1.0482
 6895SOL    HW232322   3.067   3.834   7.464 -0.2303  0.8338  0.9104
 6896SOL     OW32323   2.141   3.602   8.339  0.6321  0.0553 -0.4500
 6896SOL    HW132324   2.079   3.627   8.407  0.1462 -0.0742 -0.8503
 6896SOL    HW232325   2.186   3.684   8.317  0.6812  0.7977  2.4629
 6897SOL     OW32326   0.997   0.515  10.392 -0.4204  0.1441  0.3967
 6897SOL    HW132327   0.990   0.589  10.453  1.3669  1.0989 -0.5479
 6897SOL    HW232328   1.091   0.499  10.400 -0.4304 -0.6047 -0.9104
 6898SOL     OW32329   4.296   2.184   5.830  0.1208 -0.4412  0.3606
 6898SOL    HW132330   4.267   2.269   5.796  0.2758 -0.6687 -0.3288
 6898SOL    HW232331   4.232   2.166   5.899 -0.7413  4.6389  0.9347
 6899SOL     OW32332   3.462   2.291   5.990  0.4524  0.1454  0.1590
 6899SOL    HW132333   3.407   2.310   5.914  0.8200  0.4706 -0.0309
 6899SOL    HW232334   3.411   2.216   6.018  0.8318 -0.5250 -0.9412
 6900SOL     OW32335   2.354   3.507   8.064 -0.4570 -0.0263  0.0802
 6900SOL    HW132336   2.318   3.566   7.997  0.1970  2.1649  1.6634
 6900SOL    HW232337   2.445   3.535   8.063 -0.3545 -0.3836 -1.0836
 6901SOL     OW32338   0.854   4.584  12.224  0.0706  0.0807  0.1021
 6901SOL    HW132339   0.878   4.492  12.239 -1.6608 -0.5279 -0.8796
 6901SOL    HW232340   0.797   4.563  12.150  1.1632 -0.5455 -0.5630
 6902SOL     OW32341   1.721   1.415   9.314  0.3971 -0.5704 -0.0907
 6902SOL    HW132342   1.663   1.355   9.268  0.4893 -0.2874 -0.5728
 6902SOL    HW232343   1.785   1.352   9.348  1.4675 -0.8224 -2.5853
 6903SOL     OW32344   1.560   2.256  10.916 -0.4378  0.0071 -0.2446
 6903SOL    HW132345   1.578   2.178  10.968 -0.6211 -0.7649 -1.3554
 6903SOL    HW232346   1.636   2.251  10.859 -1.1719 -0.3559 -1.1832
 6904SOL     OW32347   3.823   4.435  15.189 -0.2839 -0.0349 -0.0666
 6904SOL    HW132348   3.778   4.476  15.262  0.3363  0.2579  0.1500
 6904SOL    HW232349   3.753   4.438  15.124  0.5524  1.3572 -0.9183
 6905SOL     OW32350   3.873   0.891   0.934 -0.2372  0.6322 -0.0931
 6905SOL    HW132351   3.918   0.957   0.881 -1.1821  0.2946 -1.3335
 6905SOL    HW232352   3.783   0.884   0.902 -1.0052 -0.6887  2.4187
 6906SOL     OW32353   1.038   0.848   6.206 -0.6022 -0.3988  0.0703
 6906SOL    HW132354   1.057   0.767   6.157 -0.1570  0.1847 -0.7199
 6906SOL    HW232355   1.085   0.916   6.157  2.7104 -0.9978  2.4151
 6907SOL     OW32356   1.422   3.759   2.270  0.1237 -0.4858  0.4227
 6907SOL    HW132357   1.411   3.732   2.361 -1.1581 -1.4731 -0.0276
 6907SOL    HW232358   1.476   3.837   2.280 -0.0843 -0.0455 -1.8760
 6908SOL     OW32359   3.922   2.504   5.719  0.3101  0.0169  0.0434
 6908SOL    HW132360   3.898   2.557   5.643 -2.0654 -0.7197  0.2793
 6908SOL    HW232361   3.863   2.536   5.787  2.0539 -0.4556  1.7862
 6909SOL     OW32362   1.284   1.948   4.595  0.1175 -0.2119  0.3395
 6909SOL    HW132363   1.279   1.875   4.657 -0.1913 -1.3466 -1.0269
 6909SOL    HW232364   1.378   1.947   4.578 -0.3968  1.2231 -2.4447
 6910SOL     OW32365   1.297   1.824   6.270  0.4236 -0.1715 -0.1429
 6910SOL    HW132366   1.265   1.880   6.199 -1.1298 -1.9624 -0.8511
 6910SOL    HW232367   1.332   1.747   6.224  0.5351 -0.5543  0.5812
 6911SOL     OW32368   3.293   2.166   7.158  0.1796 -0.0517 -0.5898
 6911SOL    HW132369   3.287   2.140   7.250 -2.7160 -1.7783 -1.2875
 6911SOL    HW232370   3.383   2.194   7.141 -0.3277  0.8248 -1.8784
 6912SOL     OW32371   0.188   0.557  15.986  0.1489 -0.0906 -0.2246
 6912SOL    HW132372   0.160   0.499  16.057 -0.4847 -1.4420 -1.5805
 6912SOL    HW232373   0.103   0.600  15.969  0.0963 -0.0377  0.1742
 6913SOL     OW32374   0.889   0.672   7.434  0.0493  0.0351  0.2128
 6913SOL    HW132375   0.868   0.672   7.341  2.2406 -0.6878 -0.2904
 6913SOL    HW232376   0.823   0.725   7.478  1.2190 -0.3675  2.4821
 6914SOL     OW32377   0.860   1.280   6.865  0.1475 -0.0111 -0.0940
 6914SOL    HW132378   0.944   1.236   6.850  0.3660  0.0411  0.9942
 6914SOL    HW232379   0.872   1.357   6.810  2.3701 -0.3755 -0.1489
 6915SOL     OW32380   4.029   3.401  12.962 -0.4135 -0.4541 -0.2141
 6915SOL    HW132381   3.990   3.424  12.878 -1.6110 -0.0462  0.4658
 6915SOL    HW232382   3.975   3.432  13.034  1.2599  0.6588  0.5409
 6916SOL     OW32383   0.202   2.477   4.315 -0.2367  0.1339 -0.1491
 6916SOL    HW132384   0.189   2.440   4.227  4.2224  0.3207 -0.9135
 6916SOL    HW232385   0.209   2.398   4.369  1.7113  1.1863  1.1466
 6917SOL     OW32386   1.778   4.538   7.895 -0.1514 -0.0385 -0.0634
 6917SOL    HW132387   1.761   4.458   7.946 -0.7680 -0.3815 -0.7905
 6917SOL    HW232388   1.819   4.509   7.813  0.3628 -1.2443  0.6238
 6918SOL     OW32389   1.212   2.630  16.275  0.3057  0.0304  0.1918
 6918SOL    HW132390   1.134   2.686  16.275  0.2005 -0.1221  0.7416
 6918SOL    HW232391   1.273   2.695  16.310 -0.7370  1.4314 -0.5563
 6919SOL     OW32392   1.986   3.202  10.277  0.3858 -1.0994  0.1749
 6919SOL    HW132393   1.996   3.244  10.363  0.7556 -1.7356  0.4448
 6919SOL    HW232394   1.944   3.121  10.305 -5.7118  1.9447 -0.1418
 6920SOL     OW32395   4.546   0.328  12.081 -0.5289 -0.1081 -0.1313
 6920SOL    HW132396   4.536   0.413  12.125 -0.9654 -0.6000  0.7211
 6920SOL    HW232397   4.626   0.291  12.118 -0.4462 -0.2409 -0.4402
 6921SOL     OW32398   0.046   3.583   7.171  0.0477 -0.1480 -0.3087
 6921SOL    HW132399   0.051   3.678   7.178 -0.2338 -0.1032 -0.7109
 6921SOL    HW232400   0.121   3.552   7.120  0.1736 -3.3875  1.8035
 6922SOL     OW32401   0.848   3.474   9.181  0.4793 -0.0649  0.4836
 6922SOL    HW132402   0.906   3.530   9.234  1.5981  1.2175 -2.1158
 6922SOL    HW232403   0.903   3.395   9.176  0.3700 -0.0309 -1.3209
 6923SOL     OW32404   1.657   3.885   4.383  0.1231 -0.0340 -0.6144
 6923SOL    HW132405   1.636   3.852   4.296  0.4533 -0.4014 -0.5565
 6923SOL    HW232406   1.669   3.800   4.427 -0.1808  1.0306  1.5492
 6924SOL     OW32407   1.714   0.432   6.016  0.2586  0.1682 -0.2837
 6924SOL    HW132408   1.760   0.358   6.055  0.1977  0.0408 -0.4528
 6924SOL    HW232409   1.741   0.424   5.924  0.9513 -0.5082 -0.0260
 6925SOL     OW32410   2.162   3.123  13.448  0.5191 -0.2674 -0.0706
 6925SOL    HW132411   2.182   3.032  13.424  1.8535  0.1570 -0.5588
 6925SOL    HW232412   2.066   3.122  13.444  0.5055  1.0266  0.0664
 6926SOL     OW32413   3.257   0.245   7.645 -0.0557 -0.0730  0.8523
 6926SOL    HW132414   3.274   0.303   7.718 -2.8855  1.2587  0.4496
 6926SOL    HW232415   3.213   0.168   7.682 -0.0656 -0.1916  0.5936
 6927SOL     OW32416   2.036   2.933  11.201  0.2685  0.5076 -0.2553
 6927SOL    HW132417   1.976   2.859  11.207  0.1055  0.7065  0.5086
 6927SOL    HW232418   2.120   2.900  11.233  0.4047  1.8209  0.7634
 6928SOL     OW32419   1.222   4.520   2.493  0.2288  0.2227 -0.1107
 6928SOL    HW132420   1.173   4.594   2.456 -0.5224  0.7862  1.9351
 6928SOL    HW232421   1.275   4.498   2.417 -0.4923 -1.7577 -0.0331
 6929SOL     OW32422   2.517   0.763  17.153 -0.0242 -0.5368 -0.4613
 6929SOL    HW132423   2.535   0.856  17.164 -0.8743 -0.4682  0.3113
 6929SOL    HW232424   2.424   0.756  17.131 -0.3233 -1.8010  1.1950
 6930SOL     OW32425   3.648   1.698   4.374  0.1586 -0.2374  0.3199
 6930SOL    HW132426   3.605   1.772   4.416  0.1156 -0.7001  1.0852
 6930SOL    HW232427   3.590   1.627   4.402 -1.2817  2.0469  3.0864
 6931SOL     OW32428   2.988   0.871   8.942 -0.0161  0.3561 -0.2319
 6931SOL    HW132429   3.016   0.962   8.941  0.6703  0.1449 -0.6821
 6931SOL    HW232430   3.070   0.829   8.915  1.5050  3.3818 -0.3363
 6932SOL     OW32431   3.961   3.200  15.606  0.3454 -0.0784 -0.0099
 6932SOL    HW132432   3.903   3.275  15.622  1.5529  0.5749  1.2686
 6932SOL    HW232433   4.027   3.230  15.544 -0.3468  3.0432  0.7375
 6933SOL     OW32434   4.480   4.187   2.425 -0.0785  0.6952 -0.3534
 6933SOL    HW132435   4.387   4.177   2.406 -0.1798 -1.0576  1.0750
 6933SOL    HW232436   4.499   4.199   2.332 -3.7117  0.5613 -1.1333
 6934SOL     OW32437   3.310   1.059  14.146  0.0715 -0.7042  0.2255
 6934SOL    HW132438   3.362   1.052  14.066  1.7729  0.3825  1.2484
 6934SOL    HW232439   3.362   1.113  14.205  0.8129 -0.5718 -0.5514
 6935SOL     OW32440   1.035   0.587   3.115  0.0276 -0.3112  0.2151
 6935SOL    HW132441   1.098   0.528   3.156 -0.5878 -1.8532 -1.0315
 6935SOL    HW232442   1.089   0.660   3.084  1.8222 -2.3309 -1.3763
 6936SOL     OW32443   2.167   2.010   8.937  0.2853  0.4162 -0.3972
 6936SOL    HW132444   2.137   1.929   8.896  0.5911 -0.2009  0.5957
 6936SOL    HW232445   2.159   1.996   9.031 -1.0929 -1.5730 -0.8226
 6937SOL     OW32446   3.618   3.749   7.873 -0.4816 -0.2542  0.4732
 6937SOL    HW132447   3.597   3.755   7.966  0.0761  0.9305  0.5227
 6937SOL    HW232448   3.528   3.752   7.840  0.1767 -2.2077 -1.5425
 6938SOL     OW32449   4.533   3.031   2.132 -0.6723  0.1325  0.5041
 6938SOL    HW132450   4.498   3.120   2.137 -1.0262  0.0231 -0.0214
 6938SOL    HW232451   4.594   3.039   2.059  0.4311 -2.0100  1.2082
 6939SOL     OW32452   4.725   1.908   7.234 -0.5284  0.0202 -0.2541
 6939SOL    HW132453   0.017   1.866   7.316 -2.2060  1.1044  0.8324
 6939SOL    HW232454   4.640   1.941   7.262  0.8119  1.9237  1.5488
 6940SOL     OW32455   2.158   0.464  14.310  0.3417  0.2488 -0.5498
 6940SOL    HW132456   2.163   0.432  14.220 -1.1839 -1.2567 -0.1021
 6940SOL    HW232457   2.211   0.542  14.293 -0.3340 -0.1845 -4.7653
 6941SOL     OW32458   2.171   4.005   7.300  0.2115 -0.4714  0.1514
 6941SOL    HW132459   2.083   4.002   7.262 -0.4667  2.9156  1.3766
 6941SOL    HW232460   2.174   3.917   7.336 -1.0294 -0.4099  0.4237
 6942SOL     OW32461   1.218   0.452   3.926  0.0120 -0.4263  0.1251
 6942SOL    HW132462   1.184   0.541   3.920  0.9033 -0.0424  0.5997
 6942SOL    HW232463   1.312   0.470   3.918 -0.0555 -0.1620 -0.0913
 6943SOL     OW32464   0.322   2.401   2.978 -0.2191  0.5952 -0.3616
 6943SOL    HW132465   0.415   2.402   2.956  0.1851 -1.6976  1.2876
 6943SOL    HW232466   0.283   2.467   2.921  2.0478  1.6567 -0.6636
 6944SOL     OW32467   3.556   0.934   5.636  1.2011  0.2753  0.0515
 6944SOL    HW132468   3.503   1.013   5.638  1.8554  0.7328 -0.6120
 6944SOL    HW232469   3.523   0.894   5.556  1.5354 -0.6723  0.3879
 6945SOL     OW32470   1.069   3.009  15.367 -0.2333  0.2844 -0.5069
 6945SOL    HW132471   1.095   2.992  15.457  1.4815  2.3121 -0.6105
 6945SOL    HW232472   1.031   3.096  15.375  0.5750  0.4352  1.7083
 6946SOL     OW32473   3.437   1.395   1.777 -0.0700 -0.2044  0.0891
 6946SOL    HW132474   3.451   1.461   1.710  0.3326 -0.8182 -0.4393
 6946SOL    HW232475   3.395   1.448   1.844 -1.8970 -1.1854 -0.2634
 6947SOL     OW32476   2.900   1.509   4.344 -0.3445  0.0030  0.0223
 6947SOL    HW132477   2.877   1.597   4.373  0.4447 -0.5074  2.2240
 6947SOL    HW232478   2.884   1.522   4.251  4.0694  0.8436 -0.6418
 6948SOL     OW32479   1.258   3.351  14.753  0.6566 -0.4699 -0.3611
 6948SOL    HW132480   1.333   3.411  14.748  0.8777 -0.6268  0.9592
 6948SOL    HW232481   1.276   3.294  14.678  0.5824 -0.9489 -0.0123
 6949SOL     OW32482   2.039   1.617   6.959 -0.2950  0.0218 -0.7598
 6949SOL    HW132483   2.029   1.582   6.871  2.3576  0.5954 -1.2994
 6949SOL    HW232484   2.128   1.650   6.974  0.2338 -1.4115 -0.8315
 6950SOL     OW32485   1.613   1.254   7.964 -0.1717  0.1330 -0.7970
 6950SOL    HW132486   1.545   1.292   8.019 -1.6361  0.3211 -2.7462
 6950SOL    HW232487   1.564   1.177   7.934 -1.2318  0.7631 -0.6941
 6951SOL     OW32488   4.662   4.533   6.281  0.0819 -0.6763 -0.7807
 6951SOL    HW132489   4.663   4.442   6.310 -0.9254 -0.0769  1.1276
 6951SOL    HW232490   4.609   4.526   6.202  0.6762  1.1820 -1.3488
 6952SOL     OW32491   0.773   2.049   0.175 -0.0104  0.1969 -0.5486
 6952SOL    HW132492   0.705   1.994   0.214  0.4842 -0.0283 -0.0008
 6952SOL    HW232493   0.775   2.124   0.234  0.9808 -1.8295  2.0346
 6953SOL     OW32494   0.912   3.857  16.673 -0.1702 -0.7137  0.2243
 6953SOL    HW132495   0.891   3.949  16.691 -0.5904 -0.5951 -0.8947
 6953SOL    HW232496   0.841   3.824  16.729 -0.1323 -0.5544  0.3673
 6954SOL     OW32497   1.675   2.395   8.214  0.0460 -0.2549  0.2025
 6954SOL    HW132498   1.580   2.401   8.201  0.0773  1.4638  0.8194
 6954SOL    HW232499   1.676   2.309   8.257 -0.8564 -0.8743 -0.9946
 6955SOL     OW32500   1.610   0.126   2.727 -0.1882 -0.0732  0.3790
 6955SOL    HW132501   1.537   0.065   2.733 -0.1217 -0.2124 -0.2543
 6955SOL    HW232502   1.581   0.181   2.654  0.0858  0.0300  0.3481
 6956SOL     OW32503   1.662   4.278   2.123  0.4058 -0.5205  0.8446
 6956SOL    HW132504   1.637   4.225   2.199  1.7814 -2.7724 -0.2937
 6956SOL    HW232505   1.630   4.222   2.053 -0.0985 -2.0226  2.2686
 6957SOL     OW32506   3.715   1.493   3.120  0.0500 -0.0331  0.5621
 6957SOL    HW132507   3.710   1.454   3.033 -0.5232 -0.1602  0.6506
 6957SOL    HW232508   3.798   1.539   3.112 -0.7471  1.1194 -1.0521
 6958SOL     OW32509   1.008   2.060   6.713 -0.0350 -0.0562  0.1384
 6958SOL    HW132510   0.968   2.034   6.796 -0.7945  2.4733  0.5630
 6958SOL    HW232511   0.938   2.116   6.681  0.6945 -0.3296 -1.9172
 6959SOL     OW32512   3.345   1.780  16.508  0.1068 -0.0015 -0.2101
 6959SOL    HW132513   3.307   1.850  16.560  0.0350  1.3681 -2.1071
 6959SOL    HW232514   3.269   1.744  16.462 -1.0611  1.1042  0.8989
 6960SOL     OW32515   2.717   0.696   4.745 -0.1093 -0.3369 -0.4625
 6960SOL    HW132516   2.659   0.760   4.702 -0.3802  0.0423  0.4746
 6960SOL    HW232517   2.650   0.670   4.808 -0.5437  2.3537  0.1790
 6961SOL     OW32518   0.470   1.760   3.463 -0.0731  0.0734  0.5136
 6961SOL    HW132519   0.433   1.824   3.402 -1.7366 -0.7129  0.6910
 6961SOL    HW232520   0.475   1.816   3.541 -0.8211 -1.1406  1.4356
 6962SOL     OW32521   4.734   0.586  14.614  0.2292 -0.8225  0.4818
 6962SOL    HW132522   4.666   0.591  14.682  1.4684  0.0754  1.6765
 6962SOL    HW232523   0.005   0.494  14.589  0.6174 -0.5380 -0.4679
 6963SOL     OW32524   4.682   3.021   1.211 -0.5028  0.4780 -0.1925
 6963SOL    HW132525   4.634   3.039   1.292 -1.3529 -1.5400 -0.2539
 6963SOL    HW232526   4.714   3.108   1.186 -1.5297  1.1786  0.9553
 6964SOL     OW32527   3.691   0.981   4.364 -0.5563  0.4885 -0.2074
 6964SOL    HW132528   3.739   1.038   4.423 -0.5807  0.2499  0.0439
 6964SOL    HW232529   3.601   1.011   4.377 -1.2615 -1.2836 -0.9323
 6965SOL     OW32530   1.033   2.891   4.412  0.8185 -0.1002 -0.0839
 6965SOL    HW132531   1.058   2.850   4.495  0.7766  0.9292  0.4410
 6965SOL    HW232532   0.966   2.827   4.388  0.0948  0.0874  1.4385
 6966SOL     OW32533   3.673   2.251  13.380 -0.2290 -0.3439  0.0356
 6966SOL    HW132534   3.670   2.343  13.354 -0.9707  0.4513  3.0049
 6966SOL    HW232535   3.602   2.221  13.323 -0.8832  0.1012  0.6139
 6967SOL     OW32536   2.416   0.141   1.305 -0.1023 -0.4359  0.0910
 6967SOL    HW132537   2.376   0.225   1.329  0.7880  0.0815 -0.2564
 6967SOL    HW232538   2.340   0.088   1.279 -0.6230  0.2210  0.2600
 6968SOL     OW32539   0.119   2.357   2.117 -0.6768 -0.1272  0.0068
 6968SOL    HW132540   0.134   2.405   2.198 -0.2613  2.1566 -1.4014
 6968SOL    HW232541   0.109   2.269   2.153  0.1447 -0.8083 -1.4371
 6969SOL     OW32542   0.699   4.100  14.963 -0.2137 -0.2988 -0.2971
 6969SOL    HW132543   0.748   4.073  15.041  0.6176 -0.6505 -0.9376
 6969SOL    HW232544   0.777   4.137  14.921 -0.9685 -0.5933 -1.9186
 6970SOL     OW32545   2.874   2.503   3.559  0.3231 -0.3280  0.2066
 6970SOL    HW132546   2.871   2.585   3.508 -0.7468  0.3617  1.3814
 6970SOL    HW232547   2.920   2.538   3.635  2.7809 -3.1630  0.0142
 6971SOL     OW32548   0.150   1.300  13.829  0.4697 -0.0533 -0.2269
 6971SOL    HW132549   0.202   1.237  13.878  1.8521  1.1944 -0.0783
 6971SOL    HW232550   0.122   1.240  13.760  0.2267 -0.1141 -0.0742
 6972SOL     OW32551   2.301   0.449  17.648 -0.3065  0.2184 -0.4206
 6972SOL    HW132552   2.393   0.448  17.623  0.3414 -0.2747  1.9787
 6972SOL    HW232553   2.293   0.396  17.727  3.0273  0.3975  0.0239
 6973SOL     OW32554   2.642   3.225   3.984 -0.6465 -0.3189  0.4286
 6973SOL    HW132555   2.729   3.233   4.021 -0.8479  0.6568  0.7011
 6973SOL    HW232556   2.614   3.312   4.015 -1.0279 -0.3695  0.2342
 6974SOL     OW32557   2.539   0.041   2.429  0.5336 -0.1140 -0.6347
 6974SOL    HW132558   2.511   0.057   2.519 -1.3600 -1.8061 -0.9503
 6974SOL    HW232559   2.513   0.126   2.393 -1.0808 -0.8492 -1.1629
 6975SOL     OW32560   4.088   0.435   2.770 -0.0174  0.2213  0.0738
 6975SOL    HW132561   4.036   0.480   2.702 -0.2783  0.6484  0.5567
 6975SOL    HW232562   4.027   0.366   2.797  0.6079  0.3384  1.7302
 6976SOL     OW32563   0.626   2.772  13.879  0.1205  0.2063 -0.0463
 6976SOL    HW132564   0.680   2.826  13.820 -0.2305 -3.0063 -3.3024
 6976SOL    HW232565   0.535   2.802  13.879 -0.1987 -0.7725  0.1262
 6977SOL     OW32566   0.179   3.054   8.573  0.3868  0.0298 -0.2019
 6977SOL    HW132567   0.245   2.987   8.593  0.1197  0.2106  1.2756
 6977SOL    HW232568   0.189   3.114   8.647  0.3154 -3.0144  2.2750
 6978SOL     OW32569   2.608   3.662   5.355  0.1068 -0.0270  0.2518
 6978SOL    HW132570   2.643   3.635   5.270 -0.3742 -0.8737  0.3274
 6978SOL    HW232571   2.593   3.573   5.385 -0.7389  0.0806  0.1237
 6979SOL     OW32572   0.057   3.503   9.750 -0.0575  0.1459 -0.7781
 6979SOL    HW132573   0.006   3.455   9.815  1.2802 -1.1241 -0.6511
 6979SOL    HW232574   0.118   3.544   9.811 -1.9967  0.1963  1.1087
 6980SOL     OW32575   1.424   3.312   2.576 -0.0615  0.1679 -0.1110
 6980SOL    HW132576   1.472   3.296   2.495 -0.2689  4.4362 -1.0890
 6980SOL    HW232577   1.403   3.224   2.607  0.2519  0.6296  1.4256
 6981SOL     OW32578   3.725   1.325   6.159 -0.0952  0.3255 -0.4735
 6981SOL    HW132579   3.791   1.318   6.227  0.4407 -1.8808 -1.2008
 6981SOL    HW232580   3.656   1.373   6.204 -1.3827 -2.0172  0.0628
 6982SOL     OW32581   1.881   1.964   4.319  0.0734 -0.4687 -0.0751
 6982SOL    HW132582   1.840   1.878   4.322  3.1006 -1.8576  1.7160
 6982SOL    HW232583   1.891   1.962   4.223 -0.9407 -0.3707 -0.1770
 6983SOL     OW32584   0.264   1.505   5.393 -0.2953  0.3118 -0.4954
 6983SOL    HW132585   0.247   1.553   5.312 -0.5501 -1.2315 -1.3576
 6983SOL    HW232586   0.358   1.487   5.383 -0.5474 -0.6956 -1.0233
 6984SOL     OW32587   2.795   1.971   5.627  0.3357 -0.2338  0.1806
 6984SOL    HW132588   2.714   1.942   5.586  2.7795 -3.6378 -2.2408
 6984SOL    HW232589   2.860   1.942   5.562  1.1092 -1.0520  1.3164
 6985SOL     OW32590   0.744   2.159   3.771  0.5062 -0.1780 -0.3942
 6985SOL    HW132591   0.722   2.252   3.765  2.3656  0.2853 -0.0817
 6985SOL    HW232592   0.788   2.148   3.687 -0.5127  0.5211 -1.0124
 6986SOL     OW32593   3.398   0.361   1.586 -0.0354 -0.3916 -0.4044
 6986SOL    HW132594   3.348   0.289   1.624  0.9473 -1.7436 -1.7044
 6986SOL    HW232595   3.488   0.328   1.596  0.1366  0.0257 -0.5937
 6987SOL     OW32596   4.401   3.011   7.450 -0.1278 -0.3419  0.0744
 6987SOL    HW132597   4.475   3.060   7.485 -2.1277  2.9652 -0.3885
 6987SOL    HW232598   4.378   2.958   7.526  0.8341 -0.2632  0.4103
 6988SOL     OW32599   1.110   3.478   3.996 -0.0794  0.2919 -0.4484
 6988SOL    HW132600   1.110   3.396   3.946 -0.5370 -0.0150  0.0563
 6988SOL    HW232601   1.155   3.531   3.929 -0.6519  1.0975 -0.1886
 6989SOL     OW32602   2.195   4.374   3.987  0.0572 -0.0415 -0.2384
 6989SOL    HW132603   2.102   4.375   3.962  0.3837  0.4412 -1.4151
 6989SOL    HW232604   2.208   4.450   4.044  2.3465 -0.4704 -0.2165
 6990SOL     OW32605   0.450   1.470   1.043 -0.0835  0.2183 -0.1516
 6990SOL    HW132606   0.441   1.447   0.951  2.6230 -3.0572  0.4296
 6990SOL    HW232607   0.459   1.566   1.041 -0.2992  0.2199 -0.9063
 6991SOL     OW32608   2.517   0.327   7.805  0.2953 -0.9078 -0.1688
 6991SOL    HW132609   2.487   0.396   7.745 -1.4000 -1.9542 -0.5172
 6991SOL    HW232610   2.610   0.346   7.817 -0.3069  1.3833  0.9316
 6992SOL     OW32611   0.843   0.275   5.321 -0.4795 -0.6715  0.1263
 6992SOL    HW132612   0.805   0.336   5.258  1.6250 -0.7882 -1.2694
 6992SOL    HW232613   0.911   0.323   5.369  0.1363  1.0235 -2.4120
 6993SOL     OW32614   1.050   1.792  14.615  0.4170  0.0535  0.3567
 6993SOL    HW132615   0.970   1.784  14.667  0.3228 -0.4158  0.1366
 6993SOL    HW232616   1.102   1.758  14.688 -0.9771 -0.4813  1.1019
 6994SOL     OW32617   2.416   0.084   6.263  0.0323 -0.5051  0.0245
 6994SOL    HW132618   2.396   4.729   6.291 -1.8146 -0.0866  0.0272
 6994SOL    HW232619   2.432   0.066   6.170 -0.0656  0.0236 -0.0943
 6995SOL     OW32620   0.282   3.943   7.042  0.2452 -0.0461  0.1116
 6995SOL    HW132621   0.280   3.962   6.948  0.6605  1.1618  0.3431
 6995SOL    HW232622   0.349   3.876   7.036 -0.1183 -0.1760 -2.3723
 6996SOL     OW32623   4.444   4.505   4.165 -0.0709 -0.1400  0.4118
 6996SOL    HW132624   4.357   4.470   4.186 -1.9320  2.0049 -3.4907
 6996SOL    HW232625   4.433   4.589   4.210 -1.1587 -0.5770  0.9677
 6997SOL     OW32626   0.529   1.320   8.033  0.0502 -0.0946  0.4485
 6997SOL    HW132627   0.588   1.248   8.012  2.5207  1.8116  0.8009
 6997SOL    HW232628   0.483   1.324   7.949  3.7331 -1.0513 -1.5956
 6998SOL     OW32629   2.495   1.838   4.395 -0.3759  0.5529 -0.5693
 6998SOL    HW132630   2.403   1.843   4.371 -0.5882 -1.5924 -0.2334
 6998SOL    HW232631   2.480   1.870   4.484 -1.7121  0.5950 -0.8122
 6999SOL     OW32632   3.492   1.856   6.660  0.1181  1.0518 -0.2214
 6999SOL    HW132633   3.490   1.796   6.585 -0.8734 -0.4032  0.9691
 6999SOL    HW232634   3.410   1.826   6.701  0.7663 -1.3370 -0.6458
 7000SOL     OW32635   1.423   2.118   4.104 -0.4508 -0.0446  0.4849
 7000SOL    HW132636   1.469   2.035   4.118 -1.7354 -0.8551 -0.0998
 7000SOL    HW232637   1.347   2.103   4.160 -0.3846 -1.8473  0.0888
 7001SOL     OW32638   0.164   2.479   7.284  0.3637 -0.5470 -0.4745
 7001SOL    HW132639   0.257   2.464   7.267  0.5578 -0.2660  0.3505
 7001SOL    HW232640   0.148   2.398   7.331 -0.5102  0.2750  0.6201
 7002SOL     OW32641   0.317   1.738   1.640  0.5519 -0.7351 -0.2521
 7002SOL    HW132642   0.389   1.691   1.599  0.4087  0.9239 -2.3881
 7002SOL    HW232643   0.325   1.827   1.607  1.6794  0.1217  2.3324
 7003SOL     OW32644   3.561   0.778   1.905 -0.3038  0.1696  0.3014
 7003SOL    HW132645   3.579   0.866   1.872 -0.9165  0.4840  0.8157
 7003SOL    HW232646   3.630   0.731   1.857  0.9155  0.1692  2.0427
 7004SOL     OW32647   4.633   4.170   1.375  0.0550  0.1215  0.7023
 7004SOL    HW132648   4.607   4.178   1.283 -1.6393  0.8864  1.2340
 7004SOL    HW232649   4.612   4.079   1.396  0.8046 -0.3549 -0.6382
 7005SOL     OW32650   1.342   1.693   4.727  0.5914 -0.4400 -0.1857
 7005SOL    HW132651   1.324   1.690   4.632 -1.4855  0.0326  0.1862
 7005SOL    HW232652   1.414   1.755   4.732  2.0122 -2.1905  0.9869
 7006SOL     OW32653   0.248   0.500   4.206  1.1245  0.2193  0.2275
 7006SOL    HW132654   0.330   0.546   4.186  1.1475  0.4776  0.9360
 7006SOL    HW232655   0.273   0.427   4.263  0.0869  0.5836  1.1228
 7007SOL     OW32656   0.211   3.685  14.502 -0.1367  0.3367 -0.8319
 7007SOL    HW132657   0.239   3.768  14.465 -2.1970  1.9652  1.2276
 7007SOL    HW232658   0.282   3.651  14.556 -0.7073  0.9358  0.3032
 7008SOL     OW32659   1.190   3.002   4.068 -0.0050  0.3748  0.0888
 7008SOL    HW132660   1.098   2.988   4.091 -0.1998  2.7228  0.6938
 7008SOL    HW232661   1.216   3.052   4.145  1.2428  1.2298 -0.8900
 7009SOL     OW32662   1.515   2.423   4.719  0.4967  0.5122 -0.0940
 7009SOL    HW132663   1.562   2.377   4.649  0.3062  2.0764 -1.2395
 7009SOL    HW232664   1.577   2.415   4.791  0.8688  3.0186 -0.1481
 7010SOL     OW32665   2.005   4.353   6.731  0.0854 -0.0340 -0.0875
 7010SOL    HW132666   1.934   4.309   6.683  0.3562  0.6717 -1.1296
 7010SOL    HW232667   2.046   4.275   6.770  1.6354  1.8361  2.0141
 7011SOL     OW32668   1.306   3.147   4.588  0.3754  0.1068  0.4366
 7011SOL    HW132669   1.391   3.131   4.630  0.1647  0.3239  0.9499
 7011SOL    HW232670   1.253   3.148   4.667  1.7024  3.8254  1.3033
 7012SOL     OW32671   4.391   3.992   1.980 -0.1835 -0.2291 -0.0170
 7012SOL    HW132672   4.315   3.934   1.970 -2.1524  2.1109  1.3235
 7012SOL    HW232673   4.348   4.076   1.969 -0.5059 -0.3988 -0.0561
 7013SOL     OW32674   1.681   0.292   4.651  0.5762 -0.3598  0.6116
 7013SOL    HW132675   1.705   0.370   4.600 -1.2546  0.3485  0.8252
 7013SOL    HW232676   1.738   0.225   4.613  0.5786 -0.2283  0.3788
 7014SOL     OW32677   3.770   2.066   2.045  0.0319 -1.0750  0.3669
 7014SOL    HW132678   3.796   2.056   2.136  0.7409 -0.4207  0.2282
 7014SOL    HW232679   3.735   2.154   2.058 -1.3287 -1.1251 -2.9332
 7015SOL     OW32680   4.414   0.970  16.303  0.2486  0.0252  0.6966
 7015SOL    HW132681   4.491   0.935  16.259  0.4521 -0.3651  1.3622
 7015SOL    HW232682   4.339   0.922  16.268 -0.4645  0.0114  2.2419
 7016SOL     OW32683   4.619   1.648   3.560  0.1114  0.5568  0.2712
 7016SOL    HW132684   4.641   1.740   3.548 -0.8226  0.5279 -1.7231
 7016SOL    HW232685   4.712   1.627   3.560  0.0878  0.4378  0.7572
 7017SOL     OW32686   2.129   0.268   4.211  0.2001  0.4922  0.2622
 7017SOL    HW132687   2.121   0.179   4.176 -0.4650  0.7880 -0.3311
 7017SOL    HW232688   2.096   0.326   4.143 -1.2508 -0.7806 -0.1390
 7018SOL     OW32689   3.276   4.158   6.621  0.2158  0.0899 -0.1007
 7018SOL    HW132690   3.240   4.069   6.619  2.6071 -0.8564 -2.0067
 7018SOL    HW232691   3.213   4.197   6.682  0.0796 -2.3198  1.3066
 7019SOL     OW32692   1.198   2.599  17.568 -0.4350  0.1310 -0.3596
 7019SOL    HW132693   1.179   2.545  17.645  0.8531  0.8773  0.4736
 7019SOL    HW232694   1.113   2.633  17.541 -0.8850 -0.0416  0.8355
 7020SOL     OW32695   0.501   3.827   6.128  0.1397  0.6225 -0.1927
 7020SOL    HW132696   0.439   3.826   6.056 -2.2018 -1.6447  1.8620
 7020SOL    HW232697   0.473   3.746   6.170 -0.7160  0.1468 -1.6983
 7021SOL     OW32698   1.753   3.531  16.717  0.3145  0.1444 -0.6664
 7021SOL    HW132699   1.839   3.490  16.729 -0.1406 -1.0436 -1.5043
 7021SOL    HW232700   1.709   3.484  16.788 -1.4866  0.3823 -1.6479
 7022SOL     OW32701   1.723   0.164   3.348  0.3463 -0.3115  0.0548
 7022SOL    HW132702   1.765   0.078   3.361 -3.5635 -2.1110  0.8917
 7022SOL    HW232703   1.651   0.129   3.295  2.2184 -1.9100 -1.4418
 7023SOL     OW32704   1.592   4.680   1.638  0.3439 -0.0388  0.0770
 7023SOL    HW132705   1.661   4.733   1.598 -0.2388 -0.1730 -1.1252
 7023SOL    HW232706   1.639   4.616   1.691  1.2538  0.4846 -0.1149
 7024SOL     OW32707   2.678   1.199   9.960 -0.0601  0.0412 -0.0620
 7024SOL    HW132708   2.760   1.168   9.922  0.0921  0.6527 -0.2363
 7024SOL    HW232709   2.703   1.259  10.030  0.7050 -1.5609  1.0332
 7025SOL     OW32710   0.656   4.510  17.732  0.1420 -0.0303  0.5042
 7025SOL    HW132711   0.682   4.568  17.661  1.6392  1.2039  2.0720
 7025SOL    HW232712   0.737   4.510   0.046  0.3360  2.6742  0.1884
 7026SOL     OW32713   2.630   1.855  10.543 -0.0184  0.1272 -0.0073
 7026SOL    HW132714   2.570   1.781  10.531 -0.9300  0.6354  1.2867
 7026SOL    HW232715   2.633   1.890  10.454  3.0869 -0.0811  0.0178
 7027SOL     OW32716   0.469   0.976  14.330  0.4236 -0.4979 -0.1033
 7027SOL    HW132717   0.381   0.946  14.304  1.4874 -2.3039 -1.5938
 7027SOL    HW232718   0.445   1.035  14.401 -1.8975  1.5122 -2.5303
 7028SOL     OW32719   3.121   4.212   5.136 -0.3227  0.1512  0.5738
 7028SOL    HW132720   3.104   4.120   5.116 -0.0394 -0.2290  2.0907
 7028SOL    HW232721   3.202   4.227   5.087 -0.4994  0.2027  0.2975
 7029SOL     OW32722   2.908   1.442   6.929 -0.2125 -0.6735  0.2409
 7029SOL    HW132723   2.981   1.440   6.991  0.3073 -2.0195 -0.4188
 7029SOL    HW232724   2.876   1.352   6.922 -2.1119 -0.0394  0.8386
 7030SOL     OW32725   3.635   2.962   5.088  0.4132  0.5757 -0.3214
 7030SOL    HW132726   3.552   2.970   5.041 -0.1690 -0.5422  0.5167
 7030SOL    HW232727   3.642   3.053   5.116 -2.7548  0.2069  1.6176
 7031SOL     OW32728   1.139   3.738  17.259  0.5928 -0.3970  0.3315
 7031SOL    HW132729   1.150   3.733  17.164 -1.4692  1.4713 -0.0090
 7031SOL    HW232730   1.047   3.716  17.273  0.0233  1.5729 -0.2698
 7032SOL     OW32731   0.725   4.379   1.762 -0.4421 -0.0212 -0.2115
 7032SOL    HW132732   0.809   4.342   1.734 -0.7710  0.3854 -1.7673
 7032SOL    HW232733   0.688   4.302   1.805  2.3017 -0.0359  2.1236
 7033SOL     OW32734   4.055   3.608   7.890  0.3213  0.4025 -0.4984
 7033SOL    HW132735   3.983   3.556   7.853  0.7751 -0.7178  0.1916
 7033SOL    HW232736   4.017   3.646   7.970  0.1603  0.5103 -0.6256
 7034SOL     OW32737   0.732   1.714   1.203 -0.0799  0.1878  0.1039
 7034SOL    HW132738   0.796   1.657   1.248  0.1792 -1.5528 -2.4539
 7034SOL    HW232739   0.657   1.716   1.262  0.2743 -0.5442  0.5909
 7035SOL     OW32740   2.593   1.341   7.485  0.0063 -0.3038  0.2678
 7035SOL    HW132741   2.658   1.304   7.546  0.2915  1.2943  0.9597
 7035SOL    HW232742   2.647   1.387   7.421 -0.7128 -0.9585 -0.7958
 7036SOL     OW32743   2.790   1.910  15.423 -0.1223 -0.3558 -0.2334
 7036SOL    HW132744   2.777   1.970  15.350 -0.6252 -0.3711 -0.1548
 7036SOL    HW232745   2.705   1.866  15.421  0.8765 -2.4059  3.3939
 7037SOL     OW32746   3.086   2.145   6.986  0.4501 -0.6082 -0.4098
 7037SOL    HW132747   3.149   2.149   7.059  2.2219 -0.9926 -1.9062
 7037SOL    HW232748   3.067   2.238   6.971 -0.6537 -0.9045 -0.8088
 7038SOL     OW32749   2.536   3.126   5.245  0.2532 -0.0437 -0.0164
 7038SOL    HW132750   2.455   3.167   5.274  0.4190  0.4005 -0.1778
 7038SOL    HW232751   2.505   3.053   5.191  0.1048  0.8116 -1.0772
 7039SOL     OW32752   3.111   1.643   4.992  0.2375  0.5732 -0.5958
 7039SOL    HW132753   3.017   1.655   5.005  0.2604 -1.7592  1.7893
 7039SOL    HW232754   3.111   1.548   4.987 -3.5322  0.2994  4.6047
 7040SOL     OW32755   3.814   1.035   7.984 -0.2419  0.5946 -0.0913
 7040SOL    HW132756   3.798   0.953   7.937  0.7685  0.2517  0.1525
 7040SOL    HW232757   3.741   1.088   7.954 -0.3262  0.5630  0.0614
 7041SOL     OW32758   0.788   1.844  11.409 -0.0919 -0.1673 -0.1427
 7041SOL    HW132759   0.779   1.939  11.424 -4.2951 -0.6731  0.5604
 7041SOL    HW232760   0.698   1.817  11.428 -1.5428  4.2452 -0.6975
 7042SOL     OW32761   3.120   4.243   9.103  0.9449 -0.0348  0.4292
 7042SOL    HW132762   3.082   4.162   9.069 -0.7181  0.3283  1.4426
 7042SOL    HW232763   3.198   4.238   9.047 -0.5065 -0.5005 -1.5739
 7043SOL     OW32764   3.245   4.400  11.565  0.1268 -0.2683 -0.0816
 7043SOL    HW132765   3.168   4.394  11.622  0.0691 -0.1746 -0.1493
 7043SOL    HW232766   3.290   4.470  11.612 -1.0147 -1.0775  2.2110
 7044SOL     OW32767   4.572   3.593   6.700  0.0689 -0.7471  0.2679
 7044SOL    HW132768   4.548   3.674   6.744 -0.7281 -0.4616 -0.6956
 7044SOL    HW232769   4.502   3.544   6.743 -0.4644 -0.2034  0.0266
 7045SOL     OW32770   4.480   3.776  16.363  0.2106 -0.1096  0.5238
 7045SOL    HW132771   4.408   3.789  16.425  0.4810 -0.8176  0.9767
 7045SOL    HW232772   4.523   3.861  16.369 -0.8146  0.3540  1.3879
 7046SOL     OW32773   0.058   4.595   2.638 -0.3451  0.6038 -0.5033
 7046SOL    HW132774   0.009   4.515   2.623 -1.3347  1.4847 -1.9240
 7046SOL    HW232775   0.147   4.575   2.607  0.3182 -0.5228  2.0717
 7047SOL     OW32776   2.604   4.315  14.923 -0.5402  0.2540  0.5264
 7047SOL    HW132777   2.583   4.221  14.928  1.3185 -0.1455  0.7885
 7047SOL    HW232778   2.615   4.319  15.018  0.6657 -0.5308  0.4254
 7048SOL     OW32779   4.141   0.389   6.728  0.3033  0.5150 -0.1718
 7048SOL    HW132780   4.080   0.463   6.723  1.5890  1.4127 -2.4522
 7048SOL    HW232781   4.103   0.330   6.662 -0.1466  0.6311 -0.0164
 7049SOL     OW32782   1.741   0.839   8.718  0.5260 -0.2991 -0.0395
 7049SOL    HW132783   1.673   0.816   8.782  1.4193  0.8976  1.3380
 7049SOL    HW232784   1.800   0.764   8.719 -0.5193 -1.1410 -2.5249
 7050SOL     OW32785   1.374   2.066  14.568  0.3988  0.5275  0.4680
 7050SOL    HW132786   1.311   2.038  14.635  0.1464 -1.1242 -0.4449
 7050SOL    HW232787   1.455   2.066  14.620  0.7950 -4.3208 -0.0893
 7051SOL     OW32788   4.321   2.246   9.713  0.5539  0.3821 -0.5536
 7051SOL    HW132789   4.294   2.184   9.646 -1.4334  1.2528 -0.5527
 7051SOL    HW232790   4.239   2.262   9.760 -0.2119  0.7487 -1.9955
 7052SOL     OW32791   0.649   0.154   7.198 -0.7928  0.1212 -0.3636
 7052SOL    HW132792   0.590   0.101   7.144 -1.9687  0.4595  0.5770
 7052SOL    HW232793   0.697   0.210   7.138 -0.6423 -0.9499 -1.2338
 7053SOL     OW32794   1.713   4.167   9.102 -0.5488  0.0101  0.1746
 7053SOL    HW132795   1.695   4.139   9.192  2.1353 -0.3685  0.5963
 7053SOL    HW232796   1.638   4.224   9.090 -1.0597 -0.2437  2.1496
 7054SOL     OW32797   0.820   0.675   8.530  0.5753 -0.4916 -0.0442
 7054SOL    HW132798   0.812   0.580   8.523 -1.5850 -0.1239 -2.5558
 7054SOL    HW232799   0.751   0.695   8.592 -0.0714 -1.7407 -0.3733
 7055SOL     OW32800   3.810   1.410   1.574 -0.2487 -0.3261 -0.2506
 7055SOL    HW132801   3.896   1.396   1.534  0.1808  3.5136 -0.6229
 7055SOL    HW232802   3.765   1.408   1.489 -0.8877  0.2386  0.0849
 7056SOL     OW32803   0.640   0.317  11.690  1.1211 -0.0041 -0.3215
 7056SOL    HW132804   0.633   0.344  11.781 -4.2041  1.7459 -1.2385
 7056SOL    HW232805   0.556   0.348  11.656 -0.1719 -1.6830  1.2940
 7057SOL     OW32806   3.526   0.812   0.335 -0.1310 -0.3034  0.0605
 7057SOL    HW132807   3.564   0.895   0.365 -0.8966 -0.2878  1.0060
 7057SOL    HW232808   3.599   0.752   0.355  2.4642  2.7017 -0.4549
 7058SOL     OW32809   0.840   0.789   0.192 -0.5371  0.0914  0.1176
 7058SOL    HW132810   0.760   0.754   0.152 -0.7972 -0.2725  0.9450
 7058SOL    HW232811   0.899   0.751   0.128  0.9340 -1.4528  2.4237
 7059SOL     OW32812   2.506   0.705  10.728  0.5191 -0.4678 -0.1035
 7059SOL    HW132813   2.470   0.787  10.762 -1.7296 -1.0028 -1.1638
 7059SOL    HW232814   2.544   0.735  10.645 -0.6097  2.2240  0.3630
 7060SOL     OW32815   0.286   2.780   5.934 -0.3617 -0.3090 -0.3442
 7060SOL    HW132816   0.357   2.739   5.985  0.5131  0.3280 -1.0479
 7060SOL    HW232817   0.224   2.790   6.005 -1.2906  3.1161 -1.6352
 7061SOL     OW32818   1.089   2.272   8.016 -0.4808 -0.1492  0.2179
 7061SOL    HW132819   1.134   2.202   8.063  2.1940  1.8418  0.6749
 7061SOL    HW232820   1.043   2.313   8.090  0.0643 -1.1099  1.0868
 7062SOL     OW32821   1.999   3.697   3.466 -0.5596  0.2158  0.4050
 7062SOL    HW132822   1.978   3.633   3.399 -0.3381 -2.0481  2.5021
 7062SOL    HW232823   2.094   3.701   3.460 -0.6680  2.2477 -0.1914
 7063SOL     OW32824   3.501   4.018   4.111 -0.2063  0.1148 -0.2399
 7063SOL    HW132825   3.491   4.037   4.017 -0.2483  1.3142  0.0071
 7063SOL    HW232826   3.595   4.023   4.124 -0.4540  0.9398  1.2014
 7064SOL     OW32827   3.554   3.481   8.370 -0.4943 -0.0259 -0.5028
 7064SOL    HW132828   3.463   3.487   8.399 -0.5630 -1.1433 -0.4905
 7064SOL    HW232829   3.598   3.560   8.400 -1.5582  1.1033 -1.8908
 7065SOL     OW32830   2.873   3.361   6.129  0.7786 -0.0124 -0.0537
 7065SOL    HW132831   2.935   3.339   6.060 -0.1363 -1.1770 -0.5248
 7065SOL    HW232832   2.863   3.456   6.125 -0.6994 -0.1257  0.5950
 7066SOL     OW32833   1.812   0.435  14.118  0.4382 -0.4761 -1.1314
 7066SOL    HW132834   1.752   0.407  14.187  2.2492 -2.0612 -0.1923
 7066SOL    HW232835   1.793   0.529  14.129 -0.1176 -0.4797 -2.1459
 7067SOL     OW32836   2.514   3.006   1.527 -0.0061 -0.0599 -0.3055
 7067SOL    HW132837   2.486   2.921   1.562 -0.4472  0.7864  1.3607
 7067SOL    HW232838   2.467   3.066   1.584  0.3420  0.5906 -0.6937
 7068SOL     OW32839   0.036   2.072   0.086  0.0034 -0.1471 -0.5522
 7068SOL    HW132840   0.036   1.979   0.063 -2.1894 -0.3510  0.2780
 7068SOL    HW232841   0.072   2.075   0.175  0.7464 -0.5666 -0.8326
 7069SOL     OW32842   3.372   4.024  13.498  0.2813 -0.2493 -0.5048
 7069SOL    HW132843   3.344   4.110  13.530  1.4647 -0.3120  0.7018
 7069SOL    HW232844   3.297   4.003  13.442  0.5052  1.5431 -1.4766
 7070SOL     OW32845   2.295   0.599   5.303 -0.0681 -0.1704 -0.1813
 7070SOL    HW132846   2.210   0.565   5.328 -0.3410 -0.6809 -1.7642
 7070SOL    HW232847   2.345   0.518   5.293  0.8323  0.5300 -1.4307
 7071SOL     OW32848   0.297   4.462   2.316 -0.5185 -0.8458  0.1245
 7071SOL    HW132849   0.319   4.371   2.336  1.1276 -0.4653  0.1009
 7071SOL    HW232850   0.315   4.456   2.222  2.9366 -0.9891  0.7672
 7072SOL     OW32851   4.529   2.488   2.190  0.3766 -0.4111 -0.2962
 7072SOL    HW132852   4.477   2.565   2.216 -0.5110 -0.8549 -0.7646
 7072SOL    HW232853   4.616   2.505   2.225 -0.0270 -0.6996  0.8446
 7073SOL     OW32854   2.479   2.071   3.602 -0.0571 -0.1372 -0.3890
 7073SOL    HW132855   2.441   2.100   3.519 -3.1742 -1.5670  0.5483
 7073SOL    HW232856   2.505   1.984   3.572 -0.7878 -0.6147  0.3715
 7074SOL     OW32857   2.041   2.149  12.848  0.0629 -0.2012  0.4047
 7074SOL    HW132858   2.054   2.098  12.929  1.0313  0.6547  0.8018
 7074SOL    HW232859   1.967   2.096  12.819 -0.4299  0.9049 -0.3324
 7075SOL     OW32860   2.089   2.773   9.123 -0.7396 -0.1505  0.8496
 7075SOL    HW132861   2.051   2.751   9.039  1.1055 -2.5353  0.6134
 7075SOL    HW232862   2.011   2.808   9.165 -1.5609  0.6069 -1.3098
 7076SOL     OW32863   2.680   1.197   6.757  0.3335 -0.4173  0.6045
 7076SOL    HW132864   2.760   1.224   6.713 -2.2398  5.0615 -0.6576
 7076SOL    HW232865   2.715   1.174   6.843 -1.7564  0.3962  1.6700
 7077SOL     OW32866   1.487   0.991   3.210  0.4877  0.5016  0.4023
 7077SOL    HW132867   1.542   1.046   3.265  1.6219 -2.0043  1.7751
 7077SOL    HW232868   1.407   0.986   3.262  0.3064 -0.5310  0.0279
 7078SOL     OW32869   4.544   3.683  10.344  0.4760 -0.0896  0.1202
 7078SOL    HW132870   4.556   3.628  10.267  1.4038  1.4336 -0.8139
 7078SOL    HW232871   4.581   3.620  10.406  0.0648 -0.1710  0.2862
 7079SOL     OW32872   1.274   4.404   6.963  0.1420  0.6352  0.8344
 7079SOL    HW132873   1.238   4.461   7.031  1.3889  3.5775 -0.9389
 7079SOL    HW232874   1.255   4.452   6.882 -1.3334  1.8730  1.9156
 7080SOL     OW32875   4.067   4.065  15.877 -0.2428 -0.0596  0.0219
 7080SOL    HW132876   4.159   4.089  15.863  0.3976 -1.7069  1.4415
 7080SOL    HW232877   4.023   4.132  15.825  0.7545 -0.1675 -0.9691
 7081SOL     OW32878   2.148   0.680  16.454 -0.4948 -0.5484  0.3462
 7081SOL    HW132879   2.077   0.708  16.512 -0.1410 -0.8270  0.9127
 7081SOL    HW232880   2.112   0.597  16.422  1.4603 -0.0905 -3.0572
 7082SOL     OW32881   1.186   2.462   0.864  0.1605  0.1955 -0.2958
 7082SOL    HW132882   1.244   2.412   0.921 -0.1320 -0.3255 -0.4566
 7082SOL    HW232883   1.173   2.408   0.786  2.7106 -1.9376  0.7781
 7083SOL     OW32884   0.203   3.143   9.108 -0.0101  0.2105  0.3775
 7083SOL    HW132885   0.251   3.222   9.084  0.2367 -0.4786 -1.3950
 7083SOL    HW232886   0.245   3.120   9.191  0.6555  0.4133  0.0981
 7084SOL     OW32887   1.263   0.741   0.220  0.1288 -0.4222  0.1274
 7084SOL    HW132888   1.208   0.767   0.294 -1.6065 -1.0354 -0.9420
 7084SOL    HW232889   1.192   0.710   0.163  1.0042 -1.4367 -0.4164
 7085SOL     OW32890   1.548   0.535   8.870 -0.1173  0.0682 -0.7022
 7085SOL    HW132891   1.472   0.525   8.928  0.1455 -1.6877 -0.6641
 7085SOL    HW232892   1.589   0.610   8.912 -1.4402 -0.4071  1.5008
 7086SOL     OW32893   3.839   2.494   6.088 -0.4150 -0.7024 -0.0660
 7086SOL    HW132894   3.929   2.466   6.104  0.7282  1.6023 -2.3329
 7086SOL    HW232895   3.804   2.457   6.168 -1.8988 -0.4861 -0.6165
 7087SOL     OW32896   3.748   2.042   2.893 -0.5004 -0.4127  0.0944
 7087SOL    HW132897   3.656   2.016   2.896 -0.8104  0.7548  0.9847
 7087SOL    HW232898   3.738   2.119   2.949  0.7260  0.1256 -0.4268
 7088SOL     OW32899   4.427   2.269   6.701 -0.2367  0.0554  0.4779
 7088SOL    HW132900   4.381   2.286   6.618  0.3271 -2.1574 -0.2845
 7088SOL    HW232901   4.397   2.179   6.714  2.8071 -1.2388 -1.2926
 7089SOL     OW32902   2.119   3.543   6.060  0.0980 -0.1793  0.2266
 7089SOL    HW132903   2.189   3.583   6.009 -1.6863  2.0976 -0.4154
 7089SOL    HW232904   2.161   3.465   6.098 -1.9266 -0.7941  1.1990
 7090SOL     OW32905   1.079   1.261   0.795 -0.0598  0.0109  0.6993
 7090SOL    HW132906   1.077   1.180   0.846  1.6950 -1.0584 -0.9022
 7090SOL    HW232907   1.007   1.299   0.845  0.0146  1.2914 -0.1840
 7091SOL     OW32908   2.617   4.582  15.014  0.1234  0.1999  0.2464
 7091SOL    HW132909   2.681   4.616  15.077 -0.0658 -0.6256  0.8966
 7091SOL    HW232910   2.663   4.597  14.932  1.4716 -0.6145  0.8540
 7092SOL     OW32911   0.054   0.773  10.834  0.4670 -0.2262 -0.2316
 7092SOL    HW132912   4.703   0.751  10.871 -0.0679 -0.6730 -1.7479
 7092SOL    HW232913   0.064   0.694  10.781 -3.2966 -0.5454 -0.4758
 7093SOL     OW32914   0.825   2.106  15.393 -0.6829 -0.3409  0.4496
 7093SOL    HW132915   0.768   2.137  15.322  0.7321 -0.0089 -0.5488
 7093SOL    HW232916   0.906   2.141  15.356 -0.2974 -2.6302 -0.8299
 7094SOL     OW32917   0.580   4.511   9.964  0.2431 -0.3120  0.0201
 7094SOL    HW132918   0.488   4.485   9.962 -0.0533  0.7575 -0.6435
 7094SOL    HW232919   0.589   4.552   9.877 -1.7682 -2.4762 -1.2052
 7095SOL     OW32920   0.624   2.889   5.235 -0.3529 -0.0743  0.5006
 7095SOL    HW132921   0.657   2.799   5.237  3.4126  1.2281 -1.5674
 7095SOL    HW232922   0.700   2.948   5.234 -0.1322 -0.3795 -1.8316
 7096SOL     OW32923   2.670   0.269   7.473 -0.3879 -0.0726  0.5966
 7096SOL    HW132924   2.703   0.196   7.422  0.9491  0.4756  0.6886
 7096SOL    HW232925   2.579   0.241   7.479 -0.2529 -0.5534  0.2824
 7097SOL     OW32926   1.565   1.371   7.679 -0.3094 -0.1945  0.4069
 7097SOL    HW132927   1.575   1.333   7.767 -0.2887 -2.1216 -0.4320
 7097SOL    HW232928   1.655   1.374   7.648 -1.4699  1.7491 -2.8008
 7098SOL     OW32929   2.837   1.182   0.140 -0.0569  0.4516  0.0631
 7098SOL    HW132930   2.911   1.217   0.090 -1.4765  0.8928 -1.7524
 7098SOL    HW232931   2.839   1.254   0.204  1.5900 -0.0958  0.6357
 7099SOL     OW32932   0.777   4.535   3.128  0.5095 -0.7017  0.2362
 7099SOL    HW132933   0.696   4.537   3.179 -1.2963  2.0579 -2.7395
 7099SOL    HW232934   0.806   4.445   3.146  2.4217  0.2409  1.8175
 7100SOL     OW32935   4.026   1.663   5.383 -0.6296 -0.7950  0.1139
 7100SOL    HW132936   4.051   1.607   5.457  1.9599  0.5991  0.3040
 7100SOL    HW232937   4.026   1.600   5.311 -0.6038  1.2207 -1.6267
 7101SOL     OW32938   0.186   1.834   5.396  0.5070  0.1575  0.5395
 7101SOL    HW132939   0.212   1.791   5.315 -1.5587 -0.9318  0.4537
 7101SOL    HW232940   0.257   1.813   5.455 -0.5714 -1.0072  1.4169
 7102SOL     OW32941   1.484   3.491  17.089 -0.1103  0.1396  0.7487
 7102SOL    HW132942   1.443   3.451  17.166 -2.5338 -0.3315 -0.7662
 7102SOL    HW232943   1.415   3.511  17.025 -0.1613  1.3536  1.1760
 7103SOL     OW32944   0.431   3.397   8.867  0.0807  0.2039 -0.8038
 7103SOL    HW132945   0.507   3.448   8.840  1.1038 -0.8806  0.0182
 7103SOL    HW232946   0.424   3.429   8.957 -1.9417  1.0590 -1.2570
 7104SOL     OW32947   1.057   1.172   5.828 -0.3439 -0.2024  0.2902
 7104SOL    HW132948   1.023   1.083   5.818  0.0771 -0.4365  0.9527
 7104SOL    HW232949   0.974   1.215   5.850 -0.3203 -0.1037  0.1866
 7105SOL     OW32950   3.414   1.585   2.691  0.2848 -0.2292  0.4005
 7105SOL    HW132951   3.432   1.621   2.604 -0.2420 -1.6255 -0.2941
 7105SOL    HW232952   3.396   1.670   2.730 -1.5026  0.0127 -0.9186
 7106SOL     OW32953   1.607   1.698   0.355  0.3771 -0.5665  0.3896
 7106SOL    HW132954   1.565   1.688   0.440 -1.7467  0.4027 -0.5480
 7106SOL    HW232955   1.556   1.623   0.323 -0.7379 -0.5144  2.0482
 7107SOL     OW32956   4.503   0.544   5.534  0.2362  0.2225  0.7204
 7107SOL    HW132957   4.515   0.565   5.442 -0.1755 -0.5941  0.4769
 7107SOL    HW232958   4.413   0.576   5.540  0.6791  1.7921 -1.0680
 7108SOL     OW32959   3.182   3.991   2.603  0.4717 -0.1201  0.4591
 7108SOL    HW132960   3.170   4.009   2.696 -3.1996  0.6493 -0.1352
 7108SOL    HW232961   3.239   4.063   2.578  1.0226 -0.8036 -0.2785
 7109SOL     OW32962   3.494   4.387   3.179  0.1090 -0.3535  0.4986
 7109SOL    HW132963   3.504   4.346   3.093 -2.0248  0.1820 -0.0118
 7109SOL    HW232964   3.540   4.469   3.165  0.1176 -0.4347  0.0704
 7110SOL     OW32965   2.907   2.184  10.555 -0.1911 -0.2436 -0.1956
 7110SOL    HW132966   2.924   2.228  10.638 -0.9246  0.9679 -0.6833
 7110SOL    HW232967   2.812   2.181  10.544 -0.3233 -2.1014  1.3666
 7111SOL     OW32968   2.590   2.519   6.469  0.1828 -0.0098  0.7181
 7111SOL    HW132969   2.511   2.567   6.444  1.1318  0.3759 -1.5118
 7111SOL    HW232970   2.646   2.595   6.455  0.0240  0.3959  2.2392
 7112SOL     OW32971   3.134   3.349  13.326  0.3600  0.3432  0.0428
 7112SOL    HW132972   3.092   3.383  13.247 -2.2130 -1.0986  0.7764
 7112SOL    HW232973   3.099   3.412  13.390  1.6081 -0.9611  1.9999
 7113SOL     OW32974   2.097   0.235   7.024  0.3871  0.1728 -0.4083
 7113SOL    HW132975   2.121   0.247   7.116 -2.7695  0.1281  0.4163
 7113SOL    HW232976   2.125   0.320   6.990 -1.9032  0.6595 -1.0720
 7114SOL     OW32977   3.558   2.013   5.413 -0.9437  0.4964  0.7080
 7114SOL    HW132978   3.622   1.953   5.373 -0.9387  0.5994  0.5591
 7114SOL    HW232979   3.553   2.090   5.357 -0.5539  1.3309  1.8389
 7115SOL     OW32980   1.487   2.985   9.159  0.1792 -0.3703 -0.0701
 7115SOL    HW132981   1.514   3.034   9.081 -0.0669 -2.4949 -1.4707
 7115SOL    HW232982   1.512   2.897   9.132 -0.5072 -0.2104 -1.2604
 7116SOL     OW32983   0.608   3.528   8.067 -0.1088  0.7671  0.2816
 7116SOL    HW132984   0.665   3.548   8.141  0.9237  0.6823 -0.4982
 7116SOL    HW232985   0.525   3.537   8.114 -0.5679 -2.2599  0.0375
 7117SOL     OW32986   3.154   3.734  17.607  0.0266 -0.4361  0.1738
 7117SOL    HW132987   3.166   3.646  17.570  3.0845  0.3183 -0.5867
 7117SOL    HW232988   3.109   3.776  17.534  0.1860 -0.3594  0.1206
 7118SOL     OW32989   2.344   0.885   2.854  0.1359 -0.4353  0.2614
 7118SOL    HW132990   2.258   0.858   2.885 -0.4174 -0.4277 -1.2983
 7118SOL    HW232991   2.324   0.963   2.804  1.3092  0.2331  0.8378
 7119SOL     OW32992   2.326   2.743  10.070 -0.0596  0.0237  0.0612
 7119SOL    HW132993   2.297   2.734  10.161  2.1997  3.0439  1.0808
 7119SOL    HW232994   2.257   2.688  10.034  0.7580 -0.9905  0.0346
 7120SOL     OW32995   0.590   1.746   7.585  0.2289  0.5100 -0.2738
 7120SOL    HW132996   0.502   1.774   7.609 -0.0616  0.4886 -1.3146
 7120SOL    HW232997   0.637   1.829   7.586 -0.3391  0.8445 -1.6499
 7121SOL     OW32998   3.033   3.805   2.088 -0.0796 -0.3113  0.2646
 7121SOL    HW132999   2.997   3.745   2.024  0.0313 -1.5020  1.3284
 7121SOL    HW233000   2.958   3.859   2.113 -1.6349 -2.0312 -0.7625
 7122SOL     OW33001   3.091   1.122   8.883  0.3041 -0.4983  0.1570
 7122SOL    HW133002   3.185   1.103   8.884  0.5640  0.6849 -1.4453
 7122SOL    HW233003   3.095   1.209   8.843  2.1013 -0.2149  0.9805
 7123SOL     OW33004   1.355   2.961   1.505  0.5181 -0.5685  0.1590
 7123SOL    HW133005   1.275   3.012   1.494  1.0348 -0.2100 -1.9905
 7123SOL    HW233006   1.372   2.939   1.414 -1.2052 -0.9222 -0.0725
 7124SOL     OW33007   0.899   3.524   0.716 -0.2352 -0.1961  0.3477
 7124SOL    HW133008   0.816   3.517   0.670  0.6736  2.8190 -1.7141
 7124SOL    HW233009   0.876   3.568   0.798 -2.1567  1.3139 -1.0102
 7125SOL     OW33010   0.426   2.074   1.833  0.4562 -0.2870  0.4442
 7125SOL    HW133011   0.424   2.037   1.921 -0.4374 -1.3673 -0.0263
 7125SOL    HW233012   0.506   2.127   1.842 -0.1986  0.6554  0.6813
 7126SOL     OW33013   1.799   0.879   1.555 -0.4318  0.3015 -0.1231
 7126SOL    HW133014   1.784   0.966   1.590 -1.5976  1.6651 -4.0475
 7126SOL    HW233015   1.815   0.832   1.637 -0.1251  0.0123 -0.3481
 7127SOL     OW33016   2.825   1.731   2.716  0.3696 -0.4218 -0.2873
 7127SOL    HW133017   2.819   1.804   2.655 -0.8790  1.1279  1.6934
 7127SOL    HW233018   2.757   1.673   2.681  0.8332 -1.9347  1.3222
 7128SOL     OW33019   4.429   0.406   7.970  0.7811  0.1925  0.4273
 7128SOL    HW133020   4.445   0.488   7.923  0.5320  1.1251  1.9464
 7128SOL    HW233021   4.498   0.354   7.929  0.4989  0.0877  0.0864
 7129SOL     OW33022   0.584   4.114   4.839  0.4096 -0.6787 -0.4563
 7129SOL    HW133023   0.677   4.133   4.852 -0.0614  2.3905 -1.5088
 7129SOL    HW233024   0.553   4.179   4.776 -0.3848  1.5435  2.2547
 7130SOL     OW33025   4.252   2.606   8.253 -0.9395  0.3457 -0.7243
 7130SOL    HW133026   4.263   2.698   8.277 -2.3185  0.5398 -0.8515
 7130SOL    HW233027   4.341   2.570   8.253 -0.4030  1.6589 -0.8962
 7131SOL     OW33028   3.853   2.657   8.133 -0.8438  0.0442 -0.4811
 7131SOL    HW133029   3.917   2.586   8.126 -0.5361  0.5665 -3.3267
 7131SOL    HW233030   3.894   2.712   8.200 -0.0817  0.0941 -0.9904
 7132SOL     OW33031   0.163   1.330   9.143 -0.2720  0.3222  0.2432
 7132SOL    HW133032   0.091   1.393   9.148  1.4900  2.4947 -1.6439
 7132SOL    HW233033   0.224   1.374   9.203  1.6058 -0.4038 -1.1442
 7133SOL     OW33034   1.944   0.391   8.368  0.0329  0.0972  0.5647
 7133SOL    HW133035   1.880   0.324   8.392  0.0402  0.4858  1.6495
 7133SOL    HW233036   1.902   0.472   8.397 -1.8751 -0.2658 -1.1791
 7134SOL     OW33037   0.610   1.087   2.243 -0.3637  0.1653  0.7233
 7134SOL    HW133038   0.591   1.004   2.286 -0.8572 -0.9570 -1.6625
 7134SOL    HW233039   0.680   1.065   2.182 -0.2115  0.2308  0.8753
 7135SOL     OW33040   0.935   0.471  13.266  0.1103  0.2536 -0.5788
 7135SOL    HW133041   0.962   0.383  13.293 -3.9186  0.1081  3.0794
 7135SOL    HW233042   0.960   0.526  13.341  0.4135  1.8793 -1.8733
 7136SOL     OW33043   1.756   0.334  13.668 -0.2716  0.5401 -0.0797
 7136SOL    HW133044   1.669   0.295  13.659  0.1552 -0.9197  2.0694
 7136SOL    HW233045   1.813   0.274  13.620 -1.4796  0.4078 -1.3790
 7137SOL     OW33046   0.491   0.367   5.417 -0.3635 -0.0776 -0.0257
 7137SOL    HW133047   0.427   0.364   5.488 -0.5534  3.4613 -0.0706
 7137SOL    HW233048   0.577   0.346   5.453  0.7800 -0.5765 -2.9999
 7138SOL     OW33049   3.138   3.127   5.159  0.2236  0.2187 -0.2695
 7138SOL    HW133050   3.142   3.222   5.170 -1.7457  0.3228 -0.4307
 7138SOL    HW233051   3.195   3.106   5.232 -1.1876 -0.5496  0.6153
 7139SOL     OW33052   4.000   2.494   5.282 -0.0168 -0.1541 -0.5988
 7139SOL    HW133053   3.945   2.449   5.217 -0.5016 -0.7161  0.2028
 7139SOL    HW233054   4.012   2.421   5.343 -1.2347 -1.1955 -1.6038
 7140SOL     OW33055   4.380   1.581   8.520 -0.2428 -0.1485  0.1847
 7140SOL    HW133056   4.471   1.563   8.545 -0.6381  0.0038  1.7089
 7140SOL    HW233057   4.341   1.494   8.515 -0.6967  0.0413  0.4342
 7141SOL     OW33058   4.581   3.426   1.305 -0.0039  0.3530 -0.2196
 7141SOL    HW133059   4.645   3.428   1.377  1.2463 -0.3160 -1.3146
 7141SOL    HW233060   4.623   3.374   1.237 -1.0886  0.0511 -0.6535
 7142SOL     OW33061   2.159   2.203   6.114 -0.0304 -0.0572 -0.2280
 7142SOL    HW133062   2.069   2.215   6.145 -0.5135 -1.1529 -1.2194
 7142SOL    HW233063   2.204   2.259   6.177  0.5074  2.2630 -2.6409
 7143SOL     OW33064   1.538   4.227   9.444  0.1498  0.3919 -0.2996
 7143SOL    HW133065   1.626   4.264   9.439 -0.3819  1.9732  2.0609
 7143SOL    HW233066   1.549   4.148   9.391  0.0536  0.4015 -0.3346
 7144SOL     OW33067   0.082   1.638   8.231 -0.3086 -0.0732 -0.4502
 7144SOL    HW133068   0.080   1.572   8.301  1.3959  2.8785  2.3570
 7144SOL    HW233069   0.038   1.587   8.163 -0.3912  0.2459 -0.6315
 7145SOL     OW33070   2.244   1.594   2.994 -0.1254  0.5919  0.3365
 7145SOL    HW133071   2.278   1.629   2.911 -1.3556  0.3147 -0.2722
 7145SOL    HW233072   2.316   1.564   3.050  0.1730  0.5458 -0.0704
 7146SOL     OW33073   2.370   1.548   8.228 -0.9973  0.6063 -0.1322
 7146SOL    HW133074   2.450   1.556   8.280  0.3406 -2.2754 -1.7541
 7146SOL    HW233075   2.303   1.502   8.279 -1.0945 -1.7771 -2.4587
 7147SOL     OW33076   4.385   1.971   6.231  0.3498 -0.2913  0.1012
 7147SOL    HW133077   4.406   1.894   6.178 -1.5360 -1.4487  1.0346
 7147SOL    HW233078   4.309   2.007   6.185 -1.2517 -3.3048  0.4023
 7148SOL     OW33079   2.033   3.922   8.742 -0.4638 -0.6136 -0.3387
 7148SOL    HW133080   1.938   3.913   8.755 -0.1982  3.0786  3.9125
 7148SOL    HW233081   2.062   3.903   8.831 -0.4684  2.0895  0.2399
 7149SOL     OW33082   3.278   1.805  17.304  0.0137 -0.0871 -0.1029
 7149SOL    HW133083   3.313   1.780  17.390  0.0874  0.6644  0.0854
 7149SOL    HW233084   3.265   1.718  17.267  2.3397  0.1184 -1.3730
 7150SOL     OW33085   2.177   2.600  15.005 -0.4551 -0.4822  0.2022
 7150SOL    HW133086   2.200   2.629  15.093  1.8453  0.9419 -0.8563
 7150SOL    HW233087   2.225   2.518  15.004  0.0355 -0.1680 -2.2245
 7151SOL     OW33088   0.754   2.683   2.100 -0.0115  0.1633  0.0474
 7151SOL    HW133089   0.786   2.593   2.089 -0.6060  0.0101 -0.4840
 7151SOL    HW233090   0.813   2.734   2.156  0.3155  0.5854 -0.6897
 7152SOL     OW33091   3.763   1.931   5.252 -0.4588  0.0338  0.3172
 7152SOL    HW133092   3.802   1.864   5.196 -1.0618  1.3194 -1.6597
 7152SOL    HW233093   3.765   1.999   5.184  0.3544  0.0268  0.3334
 7153SOL     OW33094   3.322   1.054   4.014  0.5616  0.4424  0.5687
 7153SOL    HW133095   3.295   1.019   3.929 -2.3206  0.0601  1.6681
 7153SOL    HW233096   3.340   1.145   3.992  1.2738  0.5699  1.6434
 7154SOL     OW33097   3.627   1.696  11.498  0.5484  0.1946  0.0820
 7154SOL    HW133098   3.715   1.733  11.492 -0.5504  2.6820 -0.5874
 7154SOL    HW233099   3.648   1.625  11.560 -1.5992  0.9093  1.5972
 7155SOL     OW33100   1.344   2.095   5.891  0.2114  0.5288 -0.4607
 7155SOL    HW133101   1.414   2.051   5.939  1.3530  0.6298 -2.0253
 7155SOL    HW233102   1.315   2.028   5.829  0.5415 -0.1024  0.0705
 7156SOL     OW33103   3.671   0.734   6.281  0.3387 -0.5570  0.1331
 7156SOL    HW133104   3.702   0.734   6.191 -0.1460 -1.6970 -0.0399
 7156SOL    HW233105   3.639   0.644   6.287  0.2352 -0.5958 -1.2036
 7157SOL     OW33106   4.591   2.775   1.724 -0.2626  0.6537  0.1682
 7157SOL    HW133107   4.546   2.858   1.710  1.3373  1.3584 -0.7584
 7157SOL    HW233108   4.654   2.799   1.792  0.0625  1.4067 -0.4074
 7158SOL     OW33109   2.293   3.828   8.708  0.3746 -0.2337 -0.2188
 7158SOL    HW133110   2.363   3.890   8.688 -0.1268 -0.2856 -2.1220
 7158SOL    HW233111   2.217   3.885   8.721 -1.6488 -3.1818  0.8651
 7159SOL     OW33112   4.585   4.354   4.756  0.0575 -0.8116 -0.0812
 7159SOL    HW133113   4.637   4.278   4.781 -0.0560  0.1388  2.9926
 7159SOL    HW233114   4.496   4.327   4.777 -0.5796  0.4376 -1.1319
 7160SOL     OW33115   2.658   3.912   4.488  0.2946 -0.1198 -0.0004
 7160SOL    HW133116   2.565   3.926   4.471  0.3959 -1.5300 -1.6775
 7160SOL    HW233117   2.648   3.867   4.572  0.9125  2.3051  1.3799
 7161SOL     OW33118   3.289   4.457  10.833  0.1559 -0.5648  0.4219
 7161SOL    HW133119   3.281   4.482  10.925 -0.4101 -0.0525  0.2391
 7161SOL    HW233120   3.349   4.384  10.846  1.2725  0.7549  2.5263
 7162SOL     OW33121   1.107   4.386   9.883 -0.2542  0.0663 -0.6341
 7162SOL    HW133122   1.065   4.301   9.898 -1.2159  0.7240  0.4095
 7162SOL    HW233123   1.045   4.432   9.940  0.6569  0.2899  0.1847
 7163SOL     OW33124   3.177   1.202   6.897 -0.3070 -0.2876  0.6931
 7163SOL    HW133125   3.255   1.177   6.847 -0.1303  1.6213 -0.0035
 7163SOL    HW233126   3.195   1.149   6.974  0.8198 -0.7805  0.0892
 7164SOL     OW33127   1.656   3.260   7.796 -0.2418 -0.3212 -0.0922
 7164SOL    HW133128   1.671   3.193   7.862  0.1185  1.7964  1.9964
 7164SOL    HW233129   1.598   3.210   7.739 -1.4080 -1.1212  1.8003
 7165SOL     OW33130   2.975   2.865  12.725  0.2654 -0.0131 -0.3791
 7165SOL    HW133131   2.915   2.897  12.793  0.9561  1.1044 -0.2864
 7165SOL    HW233132   2.951   2.772  12.724  2.4261 -0.5684 -1.0799
 7166SOL     OW33133   4.065   4.439  14.214  0.3132 -0.7985  0.2641
 7166SOL    HW133134   3.979   4.464  14.180  0.7889  1.4043  0.6849
 7166SOL    HW233135   4.045   4.421  14.306  1.2879  3.9390  1.4027
 7167SOL     OW33136   3.301   1.867   7.062  0.0771  0.0496  0.0147
 7167SOL    HW133137   3.374   1.907   7.108 -1.4341  1.5084  1.1517
 7167SOL    HW233138   3.288   1.912   6.978 -1.4497 -2.3497 -1.0558
 7168SOL     OW33139   0.261   2.641   7.705 -0.0285 -0.0141 -0.4786
 7168SOL    HW133140   0.351   2.612   7.694 -0.4718 -1.2357 -0.8382
 7168SOL    HW233141   0.264   2.710   7.639  0.4001  0.1995 -0.2421
 7169SOL     OW33142   3.226   0.180  17.652 -0.1888  0.1132  0.2625
 7169SOL    HW133143   3.174   0.261  17.654  0.1239  0.3390 -1.0349
 7169SOL    HW233144   3.166   0.121  17.698 -0.1606  0.7055  1.0537
 7170SOL     OW33145   0.218   4.604   8.203  0.1008 -0.0385  0.4440
 7170SOL    HW133146   0.185   4.663   8.271  1.1929  2.1479 -0.9227
 7170SOL    HW233147   0.132   4.579   8.170 -0.1256  0.0349  0.9869
 7171SOL     OW33148   4.500   1.572   1.400  0.3421  0.3985  0.7983
 7171SOL    HW133149   4.486   1.483   1.368 -0.9963  0.7321  0.4766
 7171SOL    HW233150   4.594   1.586   1.390  0.4437 -0.5819  0.3008
 7172SOL     OW33151   3.678   4.173   5.757  0.4128  0.6581  0.1431
 7172SOL    HW133152   3.649   4.237   5.822 -0.4453 -0.1113  0.5214
 7172SOL    HW233153   3.606   4.191   5.696  1.2361  0.7046 -0.8110
 7173SOL     OW33154   2.839   3.815   2.815 -0.1807  0.0661 -0.2814
 7173SOL    HW133155   2.902   3.845   2.881 -0.8120  1.0876 -0.1499
 7173SOL    HW233156   2.893   3.747   2.775 -1.2277  0.1519 -1.8435
 7174SOL     OW33157   2.284   3.729   9.358  0.0648 -0.4367  0.4643
 7174SOL    HW133158   2.302   3.671   9.284  2.5329 -1.4776  1.8741
 7174SOL    HW233159   2.357   3.790   9.365 -0.1630 -0.2829  1.5365
 7175SOL     OW33160   2.280   3.169  12.232 -0.3441 -0.1067 -0.0294
 7175SOL    HW133161   2.192   3.187  12.263 -0.4865  0.0935 -0.5510
 7175SOL    HW233162   2.320   3.254  12.250 -2.2481  1.0583 -1.2865
 7176SOL     OW33163   0.968   3.347   2.813 -0.4034  0.6420  0.4327
 7176SOL    HW133164   1.063   3.351   2.814 -0.3750  0.0440 -0.1172
 7176SOL    HW233165   0.957   3.423   2.755 -0.5826  0.8459  0.7301
 7177SOL     OW33166   2.744   2.392   2.497  0.0438 -0.0285  0.1332
 7177SOL    HW133167   2.812   2.451   2.528  0.4644 -1.4764  1.9891
 7177SOL    HW233168   2.683   2.456   2.461  1.5045  0.2315 -1.8313
 7178SOL     OW33169   4.366   0.590  16.170 -0.0243 -0.0030  0.6011
 7178SOL    HW133170   4.400   0.501  16.172  1.4985  0.6114  1.8520
 7178SOL    HW233171   4.431   0.635  16.115 -0.3814 -1.1530 -0.7575
 7179SOL     OW33172   0.270   1.994   3.427 -0.0494 -0.2727  0.0590
 7179SOL    HW133173   0.260   1.995   3.332  2.1635  2.9091 -0.1444
 7179SOL    HW233174   0.345   2.052   3.440  0.7912 -0.9006 -2.0338
 7180SOL     OW33175   0.576   2.883   4.116  0.0925 -0.7568 -0.0358
 7180SOL    HW133176   0.566   2.964   4.066 -0.0894  1.4677  3.6048
 7180SOL    HW233177   0.492   2.838   4.109  0.1134 -0.5104 -1.8465
 7181SOL     OW33178   4.401   1.786   1.885  0.0716 -0.1542 -0.0727
 7181SOL    HW133179   4.414   1.879   1.864  0.9844  0.4181  3.0027
 7181SOL    HW233180   4.491   1.754   1.876  0.0740  0.1119 -0.9771
 7182SOL     OW33181   0.254   0.810   9.222  0.6871 -0.4684  0.7052
 7182SOL    HW133182   0.178   0.776   9.175  0.4767  1.3650 -0.2984
 7182SOL    HW233183   0.228   0.901   9.236 -1.0038 -0.7660 -0.4961
 7183SOL     OW33184   0.723   4.317   7.674  0.7063 -0.5101  0.3419
 7183SOL    HW133185   0.696   4.297   7.764  1.8167 -0.5494  0.6623
 7183SOL    HW233186   0.814   4.287   7.675  0.7343 -0.3644  1.6438
 7184SOL     OW33187   1.767   1.531   8.725 -0.1448 -0.0162  0.0035
 7184SOL    HW133188   1.775   1.487   8.640 -1.3971  0.2355 -0.2454
 7184SOL    HW233189   1.786   1.618   8.689 -0.7720 -0.1833 -0.7135
 7185SOL     OW33190   3.374   2.333  16.842  0.3345 -0.1099 -0.3617
 7185SOL    HW133191   3.386   2.287  16.925  1.0115 -2.7589 -1.9140
 7185SOL    HW233192   3.460   2.350  16.806  0.4689 -1.2585 -0.5977
 7186SOL     OW33193   2.323   4.381  15.548  0.0647  0.0582 -0.1167
 7186SOL    HW133194   2.365   4.429  15.620 -0.8855 -0.5485  0.8305
 7186SOL    HW233195   2.383   4.404  15.477  1.9702  0.5883  1.6423
 7187SOL     OW33196   1.246   2.035   4.341  0.5908  0.5485  0.0618
 7187SOL    HW133197   1.256   2.009   4.432 -0.4589  2.1787  0.6338
 7187SOL    HW233198   1.226   1.953   4.296 -0.2559  0.2599  0.9674
 7188SOL     OW33199   4.538   3.616   5.228 -0.3779  0.0308 -0.0077
 7188SOL    HW133200   4.564   3.708   5.234  1.0816 -0.3152 -1.2251
 7188SOL    HW233201   4.499   3.607   5.315  0.5104 -0.5439  0.3209
 7189SOL     OW33202   2.762   4.489   1.577  0.1235 -0.2862  0.1519
 7189SOL    HW133203   2.754   4.451   1.489 -0.3886 -1.0278  0.5157
 7189SOL    HW233204   2.706   4.427   1.624  1.6286 -1.1610  0.8188
 7190SOL     OW33205   2.618   0.025   4.941 -0.2412  0.2213 -0.3668
 7190SOL    HW133206   2.528   0.057   4.942 -0.1538  0.3903  1.9060
 7190SOL    HW233207   2.617   4.711   5.023 -0.5635 -0.6602 -0.8825
 7191SOL     OW33208   0.026   3.580   0.961  0.5013  0.1125  0.0316
 7191SOL    HW133209   0.017   3.649   1.027  0.1875  0.0684  0.0353
 7191SOL    HW233210   0.032   3.624   0.876 -0.6970 -0.6430 -0.4505
 7192SOL     OW33211   4.386   2.699   4.916 -0.1097 -0.7096  0.5892
 7192SOL    HW133212   4.420   2.778   4.873  0.6072 -1.8711 -1.0064
 7192SOL    HW233213   4.295   2.704   4.889 -0.1660 -0.5900  0.8068
 7193SOL     OW33214   4.592   0.523   7.450 -0.0057 -0.4221 -0.7311
 7193SOL    HW133215   4.658   0.483   7.393  0.7925  1.3246 -1.0703
 7193SOL    HW233216   4.523   0.520   7.385  1.9444 -1.6710 -2.7445
 7194SOL     OW33217   0.720   4.134   2.499  0.3573  0.0585 -0.1924
 7194SOL    HW133218   0.669   4.077   2.442  1.1640  0.3645 -1.2250
 7194SOL    HW233219   0.674   4.120   2.581  4.1321  1.5009  2.1448
 7195SOL     OW33220   4.621   1.310  13.916 -0.3285 -0.0037 -0.3445
 7195SOL    HW133221   4.605   1.393  13.873  1.6412  0.2427 -0.5919
 7195SOL    HW233222   4.716   1.310  13.930 -0.3453  0.5346 -0.2284
 7196SOL     OW33223   2.744   4.716  11.457  0.2196 -0.3446  0.0054
 7196SOL    HW133224   2.658   0.023  11.467  0.6704  1.1825 -2.5371
 7196SOL    HW233225   2.778   4.726  11.546  0.3876  0.0855 -0.1100
 7197SOL     OW33226   0.080   1.815   2.454  0.3004 -0.2489  0.2718
 7197SOL    HW133227   0.053   1.877   2.522  2.2769  0.6271  0.2603
 7197SOL    HW233228   0.044   1.733   2.488  0.4536 -0.4195  0.0256
 7198SOL     OW33229   0.142   4.473   5.935  0.4002 -0.2669 -0.0339
 7198SOL    HW133230   0.070   4.527   5.964 -0.8862 -2.7024  1.2751
 7198SOL    HW233231   0.197   4.542   5.898  0.9075 -1.3640 -1.3768
 7199SOL     OW33232   1.805   0.189   1.273 -0.8267 -0.2066  0.3284
 7199SOL    HW133233   1.783   0.176   1.181  0.9134 -1.5296  0.0863
 7199SOL    HW233234   1.720   0.220   1.302 -0.5506 -0.5100  1.4524
 7200SOL     OW33235   0.160   3.210   5.996  0.2513 -0.5454  0.8333
 7200SOL    HW133236   0.095   3.196   6.065 -2.1981 -0.0932 -1.3987
 7200SOL    HW233237   0.201   3.293   6.020 -0.5554 -0.0981  0.6775
 7201SOL     OW33238   0.905   2.358   3.040 -0.0587  0.2465  1.3458
 7201SOL    HW133239   0.879   2.439   3.083 -0.0561  0.9831 -0.0246
 7201SOL    HW233240   0.818   2.324   3.021  0.0258  0.8464 -0.1445
 7202SOL     OW33241   1.511   1.345   6.299 -0.4379  0.4618 -0.1493
 7202SOL    HW133242   1.522   1.323   6.392  2.5408  0.5140 -0.4728
 7202SOL    HW233243   1.463   1.267   6.271  0.6795 -0.8207  1.4554
 7203SOL     OW33244   1.774   0.616  13.685  0.1247  0.4254 -0.4739
 7203SOL    HW133245   1.748   0.524  13.692  1.3463  0.1731  0.7501
 7203SOL    HW233246   1.687   0.651  13.703 -0.0683 -0.9434  1.2204
 7204SOL     OW33247   4.045   0.017   1.634  0.7626  0.0494 -0.2261
 7204SOL    HW133248   4.001   0.006   1.718 -1.8053  2.0711 -1.3299
 7204SOL    HW233249   3.981   4.711   1.575  0.0658 -0.3179  0.7626
 7205SOL     OW33250   2.868   2.279  14.627 -0.2259  0.3652  0.1070
 7205SOL    HW133251   2.942   2.337  14.643 -1.6507  1.4897  2.6058
 7205SOL    HW233252   2.847   2.309  14.539 -1.6779  0.6392  0.5396
 7206SOL     OW33253   4.152   2.028   9.803 -0.3870 -0.2184  0.3946
 7206SOL    HW133254   4.074   2.083   9.811 -0.9551 -0.8658 -0.7917
 7206SOL    HW233255   4.137   1.966   9.732 -0.2513  1.7369 -1.3193
 7207SOL     OW33256   1.818   1.106   2.940 -0.1208  0.3136  0.7799
 7207SOL    HW133257   1.799   1.157   3.018 -0.1988 -1.8099  2.1356
 7207SOL    HW233258   1.828   1.184   2.884  0.4138 -0.7069 -0.5471
 7208SOL     OW33259   0.418   2.587   9.294 -0.2488  0.0695 -0.3426
 7208SOL    HW133260   0.475   2.584   9.371  0.5584 -0.3488 -0.9617
 7208SOL    HW233261   0.379   2.675   9.296  0.2556  0.3292 -1.7075
 7209SOL     OW33262   2.912   0.201   4.274  0.1819 -0.2444 -0.7152
 7209SOL    HW133263   2.909   0.264   4.346  0.3517  1.6965 -2.4067
 7209SOL    HW233264   2.867   0.131   4.321  0.2300  1.0795  1.2973
 7210SOL     OW33265   1.658   4.643   7.325 -0.6200 -0.1765 -0.2495
 7210SOL    HW133266   1.641   4.613   7.415 -0.5283 -0.5282 -0.3486
 7210SOL    HW233267   1.669   4.552   7.298 -0.9836 -1.2091  3.0398
 7211SOL     OW33268   1.486   0.870   8.308  0.0013 -0.2218 -1.2041
 7211SOL    HW133269   1.481   0.775   8.299 -0.8771 -0.2650 -0.3357
 7211SOL    HW233270   1.510   0.876   8.400 -1.1678 -0.0886 -0.8989
 7212SOL     OW33271   0.042   1.726   4.421 -0.1579 -0.0863 -0.2387
 7212SOL    HW133272   4.715   1.798   4.435  1.3685  1.5490 -2.0581
 7212SOL    HW233273   4.724   1.667   4.368 -1.2492 -0.3315  1.1321
 7213SOL     OW33274   3.396   3.994   3.816 -0.3978 -0.3647 -0.1717
 7213SOL    HW133275   3.309   3.974   3.781 -0.5445  0.7429 -0.4519
 7213SOL    HW233276   3.456   3.956   3.751  0.8183 -0.5466  1.0527
 7214SOL     OW33277   0.781   2.552   8.186  0.7782 -0.0434  0.6759
 7214SOL    HW133278   0.829   2.600   8.118 -0.8296  3.5323  2.0987
 7214SOL    HW233279   0.689   2.577   8.183 -0.1851 -3.6854 -0.5408
 7215SOL     OW33280   2.443   0.983   8.831 -0.4522 -0.0187 -0.1908
 7215SOL    HW133281   2.382   0.986   8.905 -1.5497 -3.6956 -0.9408
 7215SOL    HW233282   2.458   1.075   8.808 -0.5630 -0.2578 -1.2397
 7216SOL     OW33283   0.311   1.578   5.700 -0.1130  0.1063  0.0064
 7216SOL    HW133284   0.230   1.572   5.650  0.6537  1.2520 -1.3535
 7216SOL    HW233285   0.359   1.638   5.644 -0.3682  1.3707  1.1388
 7217SOL     OW33286   3.982   2.406   2.187 -0.1848  0.2475 -0.1498
 7217SOL    HW133287   3.962   2.334   2.247  3.0093  0.4386  1.1818
 7217SOL    HW233288   3.980   2.354   2.107  1.0622 -1.3404  0.8473
 7218SOL     OW33289   4.513   1.337  14.612 -0.3147  0.4387  0.2403
 7218SOL    HW133290   4.420   1.356  14.623  0.0074  1.4072  1.3047
 7218SOL    HW233291   4.534   1.304  14.699  2.7681  0.9767 -0.3078
 7219SOL     OW33292   2.881   3.836   9.880  0.2378  0.0253 -0.5020
 7219SOL    HW133293   2.922   3.750   9.892  0.1555  0.0628  0.0297
 7219SOL    HW233294   2.900   3.867   9.968  0.9658  1.8651 -1.2985
 7220SOL     OW33295   3.026   1.361   3.999  0.4280 -0.3260  0.1589
 7220SOL    HW133296   3.110   1.362   4.045  1.0289 -0.8424 -0.9095
 7220SOL    HW233297   2.995   1.272   4.012  0.2431 -0.0281  1.7357
 7221SOL     OW33298   4.397   4.229   6.717  0.0506  0.0307 -0.0185
 7221SOL    HW133299   4.457   4.303   6.704 -1.6294  1.2401 -0.9564
 7221SOL    HW233300   4.455   4.174   6.771 -0.6083 -0.5364  0.1090
 7222SOL     OW33301   0.029   0.895   7.734 -0.9650  0.3462 -0.0497
 7222SOL    HW133302   0.044   0.808   7.697  0.5893  0.6176 -0.0578
 7222SOL    HW233303   0.028   0.946   7.653 -0.3162 -1.3483 -1.1266
 7223SOL     OW33304   2.363   3.868   3.565  1.2039 -0.1122  0.2999
 7223SOL    HW133305   2.435   3.898   3.509 -0.0902 -1.7140 -2.2387
 7223SOL    HW233306   2.343   3.949   3.611  1.6451  1.1476 -1.7280
 7224SOL     OW33307   1.606   3.974   9.292 -0.3880  0.2042  0.2642
 7224SOL    HW133308   1.680   3.962   9.351  0.1536  1.5496 -0.1643
 7224SOL    HW233309   1.628   3.905   9.229 -1.6777 -0.0963  0.1293
 7225SOL     OW33310   0.447   3.896   2.922  0.0691  0.5158 -0.2555
 7225SOL    HW133311   0.510   3.841   2.968 -1.1587  0.5929  1.5002
 7225SOL    HW233312   0.377   3.895   2.987  1.3125 -1.7189  1.0050
 7226SOL     OW33313   2.439   0.440   3.147  0.7721  0.2412 -0.5335
 7226SOL    HW133314   2.505   0.377   3.116  1.5645  1.0174 -0.4136
 7226SOL    HW233315   2.356   0.393   3.141 -0.3518  2.0739  0.7469
 7227SOL     OW33316   0.848   4.475   6.922 -0.1763  0.2890  0.1302
 7227SOL    HW133317   0.806   4.493   7.006 -1.2624 -2.8570  0.2781
 7227SOL    HW233318   0.907   4.551   6.924 -2.0500  1.7642 -0.5375
 7228SOL     OW33319   2.261   0.594   8.294  0.2110 -0.2096  0.2193
 7228SOL    HW133320   2.337   0.626   8.246 -1.0795  0.5758 -1.2733
 7228SOL    HW233321   2.195   0.649   8.254 -0.4160 -0.4595  0.9191
 7229SOL     OW33322   2.846   0.763  17.165 -0.3975 -0.0150 -0.2646
 7229SOL    HW133323   2.799   0.733  17.243 -0.0850  0.5650  0.1427
 7229SOL    HW233324   2.815   0.695  17.104 -2.8846  1.3982 -0.5524
 7230SOL     OW33325   3.643   0.968  13.165  0.3422  0.5013  0.0670
 7230SOL    HW133326   3.644   0.930  13.077  0.9670  1.0243 -0.1562
 7230SOL    HW233327   3.732   1.004  13.170 -0.1199  1.5410  0.7048
 7231SOL     OW33328   0.487   2.718   2.021  0.4820  0.1223 -0.2478
 7231SOL    HW133329   0.451   2.766   2.095  1.0512  0.9486 -0.5018
 7231SOL    HW233330   0.580   2.711   2.040  0.2532 -0.6530  0.5526
 7232SOL     OW33331   3.627   2.047   8.003 -0.0171 -0.4161  0.0390
 7232SOL    HW133332   3.557   1.984   7.982 -0.2157  0.1249 -0.9227
 7232SOL    HW233333   3.599   2.116   7.943 -0.9006 -0.6808  0.1429
 7233SOL     OW33334   3.746   0.769  17.380 -0.1743 -0.3235  0.0258
 7233SOL    HW133335   3.783   0.857  17.388  2.7769 -1.5554 -0.2063
 7233SOL    HW233336   3.717   0.768  17.289 -0.9676  0.6837  0.2635
 7234SOL     OW33337   0.919   4.625   7.361 -0.3524  0.1088 -0.1547
 7234SOL    HW133338   0.901   4.549   7.416  1.1016 -1.2456 -1.5394
 7234SOL    HW233339   0.979   4.680   7.411 -1.2891  0.7628  0.2328
 7235SOL     OW33340   4.276   3.979  10.385  0.0119 -0.5495  0.4494
 7235SOL    HW133341   4.354   3.988  10.331 -1.5044  0.8369 -1.5217
 7235SOL    HW233342   4.257   4.069  10.413 -0.7513 -1.0675  1.6003
 7236SOL     OW33343   3.609   1.755   3.545  0.5279  0.4687 -0.1301
 7236SOL    HW133344   3.514   1.751   3.530  0.3582 -0.8298  1.3111
 7236SOL    HW233345   3.614   1.817   3.618  1.6987  1.6097 -1.1916
 7237SOL     OW33346   1.220   3.307   3.217  0.3466  0.1718  0.0282
 7237SOL    HW133347   1.180   3.233   3.263  1.2667 -1.3039 -1.5201
 7237SOL    HW233348   1.270   3.343   3.290 -0.0813  2.7760 -0.9600
 7238SOL     OW33349   1.055   1.299   8.195  0.3460  0.4014  0.4770
 7238SOL    HW133350   1.094   1.378   8.157  0.2185  1.2173  2.0656
 7238SOL    HW233351   0.970   1.328   8.228  1.0529  2.2190  0.6762
 7239SOL     OW33352   0.423   1.776   5.549  0.3591  0.3671 -0.3986
 7239SOL    HW133353   0.432   1.869   5.568  2.8513  0.3970 -1.7733
 7239SOL    HW233354   0.496   1.771   5.488  3.1240  1.1961  2.8780
 7240SOL     OW33355   3.438   1.705   5.713 -0.3341  1.1410 -0.0625
 7240SOL    HW133356   3.509   1.657   5.671  0.3350  2.4518 -0.4138
 7240SOL    HW233357   3.387   1.647   5.770 -0.9384  0.8385 -0.9273
 7241SOL     OW33358   2.518   4.211   7.485  0.0166  0.3444  0.0721
 7241SOL    HW133359   2.515   4.123   7.446  0.0123 -0.0768  0.9968
 7241SOL    HW233360   2.457   4.260   7.431 -0.3469 -1.1020 -0.8348
 7242SOL     OW33361   2.300   1.653  12.537 -0.9333  0.5825 -0.0638
 7242SOL    HW133362   2.373   1.623  12.591  1.0990  1.1618 -2.4868
 7242SOL    HW233363   2.243   1.685  12.606 -1.5201 -2.5487  0.9099
 7243SOL     OW33364   4.592   3.232   6.435 -0.0632  0.9616 -0.2772
 7243SOL    HW133365   4.583   3.203   6.526 -1.2188  0.1211 -0.6726
 7243SOL    HW233366   4.666   3.291   6.453  1.3259 -0.6706 -0.6827
 7244SOL     OW33367   0.396   0.321   6.955  0.0162 -0.4323  0.9041
 7244SOL    HW133368   0.379   0.336   6.863 -2.1160 -1.1043  1.1997
 7244SOL    HW233369   0.404   0.225   6.958  1.2102 -0.3819 -0.9602
 7245SOL     OW33370   3.748   4.023   9.303 -0.2420  0.6768  0.6024
 7245SOL    HW133371   3.673   4.049   9.357 -0.0877  0.4311  0.9323
 7245SOL    HW233372   3.826   4.031   9.357  0.7689  1.2188 -0.9466
 7246SOL     OW33373   1.939   2.719   2.299 -0.9866 -0.1364 -0.4503
 7246SOL    HW133374   1.872   2.710   2.232  2.0994 -0.8600 -3.4350
 7246SOL    HW233375   2.007   2.715   2.232 -1.1304 -3.0359 -0.4101
 7247SOL     OW33376   1.802   0.132  11.503  0.7971 -0.0995 -0.4636
 7247SOL    HW133377   1.730   0.150  11.563 -0.6585  1.0278 -2.5311
 7247SOL    HW233378   1.828   0.223  11.486  0.6072  0.0492  0.0435
 7248SOL     OW33379   4.562   2.248  13.502  0.9684  0.4443 -0.1253
 7248SOL    HW133380   4.618   2.323  13.520  2.0227  0.3273 -2.8225
 7248SOL    HW233381   4.512   2.264  13.422 -0.7379  0.7036  0.9910
 7249SOL     OW33382   2.979   0.922   5.532 -0.1272  0.0342 -0.1035
 7249SOL    HW133383   2.983   1.015   5.554 -1.9848  0.1918 -0.4075
 7249SOL    HW233384   2.973   0.876   5.616 -0.7868 -0.5428 -0.4657
 7250SOL     OW33385   1.670   4.479   5.385 -0.5125 -0.1619 -0.7478
 7250SOL    HW133386   1.643   4.461   5.475  0.5133 -0.7736 -0.5629
 7250SOL    HW233387   1.647   4.394   5.347  0.1914 -0.5790 -0.2475
 7251SOL     OW33388   2.098   0.849  14.224  0.7172  0.2798 -0.0081
 7251SOL    HW133389   2.148   0.771  14.201 -0.8872 -1.2651  1.7513
 7251SOL    HW233390   2.048   0.861  14.143 -0.7359 -1.8446  0.5809
 7252SOL     OW33391   2.282   1.668   6.652 -0.1018  0.3023 -0.2035
 7252SOL    HW133392   2.290   1.763   6.658 -2.4241  0.4483  0.4808
 7252SOL    HW233393   2.350   1.646   6.588 -0.8603  1.6444 -1.4643
 7253SOL     OW33394   2.053   0.555   7.829 -0.0435  0.3248  0.4762
 7253SOL    HW133395   2.144   0.541   7.855  0.2812  0.8486 -0.3672
 7253SOL    HW233396   2.037   0.640   7.869  1.2504  1.4460 -1.4016
 7254SOL     OW33397   1.499   3.896   7.433 -0.1262  0.4397 -0.2591
 7254SOL    HW133398   1.422   3.952   7.442  0.6965  1.2467  1.7392
 7254SOL    HW233399   1.462   3.808   7.443  3.1164 -1.0130 -0.8826
 7255SOL     OW33400   3.870   0.244   4.863 -0.4584 -0.1527  0.3707
 7255SOL    HW133401   3.776   0.262   4.869 -0.3505  1.2394 -2.0837
 7255SOL    HW233402   3.875   0.179   4.934 -1.5343  0.0043  0.5980
 7256SOL     OW33403   1.684   0.436  16.344  0.3420 -0.0061 -0.3690
 7256SOL    HW133404   1.691   0.478  16.258  2.2800 -1.3314 -0.8505
 7256SOL    HW233405   1.628   0.364  16.315 -0.6684  1.1242 -1.2147
 7257SOL     OW33406   4.003   2.268   1.938  0.5921 -0.1968 -0.2222
 7257SOL    HW133407   4.080   2.297   1.888  0.8764  1.0054  0.9292
 7257SOL    HW233408   3.967   2.209   1.871 -1.8319  2.5121 -1.2795
 7258SOL     OW33409   0.338   0.781   8.466 -0.7769  0.2869  0.2524
 7258SOL    HW133410   0.310   0.862   8.425  1.4639  0.6053 -0.6301
 7258SOL    HW233411   0.332   0.803   8.559 -0.9209 -0.7473  0.4847
 7259SOL     OW33412   4.700   0.301  15.898 -0.2716 -0.1239 -0.1990
 7259SOL    HW133413   4.638   0.242  15.941  0.0021 -0.3092 -0.0532
 7259SOL    HW233414   4.679   0.384  15.941 -1.8785  0.3226 -1.8702
 7260SOL     OW33415   0.832   0.663   1.568  0.4036 -0.2290 -0.1299
 7260SOL    HW133416   0.874   0.600   1.626  0.1556 -0.0431  0.2517
 7260SOL    HW233417   0.760   0.695   1.622  1.3774  1.3687  0.2184
 7261SOL     OW33418   2.504   1.635   6.495 -0.1431 -0.0226  0.0341
 7261SOL    HW133419   2.595   1.629   6.526  0.6501  1.7639 -1.8983
 7261SOL    HW233420   2.502   1.581   6.416 -0.7045  0.1367 -0.0538
 7262SOL     OW33421   3.655   2.099   6.646 -0.3646  0.0841  0.0150
 7262SOL    HW133422   3.594   2.026   6.641  1.4808 -1.7520  4.4959
 7262SOL    HW233423   3.727   2.058   6.693 -4.0148 -2.5018  3.3527
 7263SOL     OW33424   2.240   2.403   6.303  0.4517 -0.2124 -1.3123
 7263SOL    HW133425   2.252   2.396   6.398 -1.2923 -1.5566 -1.2016
 7263SOL    HW233426   2.171   2.469   6.296 -1.4418 -2.0056  0.6068
 7264SOL     OW33427   1.658   2.571   2.764  0.4786  0.4075  0.5075
 7264SOL    HW133428   1.633   2.611   2.847 -1.2202  0.0284  0.1880
 7264SOL    HW233429   1.687   2.483   2.786  0.4502  0.6733  1.5694
 7265SOL     OW33430   0.201   0.084   0.218  0.1703 -0.4244  0.5239
 7265SOL    HW133431   0.189   4.724   0.231 -1.1557 -0.1325  1.3825
 7265SOL    HW233432   0.206   0.077   0.123 -0.0804 -0.1318  0.4919
 7266SOL     OW33433   1.363   3.532   3.677 -0.0211  0.0038 -0.5364
 7266SOL    HW133434   1.284   3.543   3.730  1.6373  0.3467  1.8933
 7266SOL    HW233435   1.386   3.441   3.694  0.1142  0.1867  0.2926
 7267SOL     OW33436   2.941   1.254   1.626 -0.2442  0.1199 -0.2665
 7267SOL    HW133437   2.863   1.211   1.591 -0.7326  1.3058 -0.6398
 7267SOL    HW233438   2.993   1.236   1.547 -1.0765  0.4624 -0.8873
 7268SOL     OW33439   2.456   1.573   4.269  0.1758 -0.3340 -0.0455
 7268SOL    HW133440   2.505   1.570   4.187 -0.6329  3.3603 -0.6475
 7268SOL    HW233441   2.458   1.661   4.307 -3.7678 -0.8036  1.2208
 7269SOL     OW33442   4.065   3.636   4.844  0.2891  0.6793  0.5468
 7269SOL    HW133443   4.135   3.685   4.889 -0.3931 -0.3894  2.7704
 7269SOL    HW233444   4.110   3.599   4.769  0.5429  2.9805 -0.4502
 7270SOL     OW33445   0.683   2.008   6.501  0.8700  0.3609  0.1436
 7270SOL    HW133446   0.741   2.081   6.481  0.5760  1.0801  1.9656
 7270SOL    HW233447   0.727   1.941   6.448 -2.2258 -0.8375 -0.9323
 7271SOL     OW33448   4.677   0.294   7.797 -0.2501 -0.2978  0.1224
 7271SOL    HW133449   0.026   0.280   7.751  0.2059 -0.7339  1.0785
 7271SOL    HW233450   4.671   0.389   7.784 -0.5970 -0.5731 -1.6893
 7272SOL     OW33451   1.431   2.997  17.507 -0.3641 -0.6383  0.3330
 7272SOL    HW133452   1.452   3.022  17.416 -3.7965 -0.9543 -0.5556
 7272SOL    HW233453   1.473   3.072  17.550  1.2692 -1.7301  0.6021
 7273SOL     OW33454   0.933   0.102  12.122  0.2694  0.3290  0.1737
 7273SOL    HW133455   0.899   0.019  12.157 -0.1699 -0.1457 -1.3986
 7273SOL    HW233456   1.028   0.088  12.122 -0.0260 -1.6043 -0.5916
 7274SOL     OW33457   1.764   4.565   8.261  0.3094 -0.5880  0.1075
 7274SOL    HW133458   1.858   4.584   8.267  0.1326  0.0188  1.0047
 7274SOL    HW233459   1.767   4.470   8.249  0.4535 -0.4836 -0.6933
 7275SOL     OW33460   0.391   0.906  12.530  0.2885 -0.2914  0.0714
 7275SOL    HW133461   0.422   0.847  12.461  0.6783 -0.3129  0.2717
 7275SOL    HW233462   0.368   0.981  12.475  0.9363  0.9617  1.5362
 7276SOL     OW33463   2.417   0.687   8.818  0.1888  0.0470  1.0166
 7276SOL    HW133464   2.423   0.782   8.821  2.8626 -0.1100  0.7302
 7276SOL    HW233465   2.438   0.661   8.907  1.8639  1.1992  0.9473
 7277SOL     OW33466   1.700   2.108   4.697  0.2060  0.1039  0.0061
 7277SOL    HW133467   1.664   2.113   4.608 -1.4497  0.0030  0.6768
 7277SOL    HW233468   1.791   2.091   4.672  0.1127 -0.3281 -0.0359
 7278SOL     OW33469   0.144   2.356   4.655 -0.2088 -0.1805 -0.1189
 7278SOL    HW133470   0.139   2.451   4.655  0.3402 -0.1536  0.6179
 7278SOL    HW233471   0.134   2.349   4.750  0.1456  1.3064  0.0309
 7279SOL     OW33472   4.585   3.604   7.367 -0.1133 -0.2791  0.0448
 7279SOL    HW133473   4.656   3.583   7.306  0.1061  0.6380 -0.0142
 7279SOL    HW233474   4.500   3.594   7.325  0.2171 -1.7196 -0.2833
 7280SOL     OW33475   1.499   3.391   8.522  0.1545  0.1440 -0.1534
 7280SOL    HW133476   1.463   3.330   8.586  1.5563 -1.0075 -0.4712
 7280SOL    HW233477   1.420   3.395   8.468 -0.5973 -0.6875  0.9027
 7281SOL     OW33478   4.430   3.257   8.418 -0.1618 -0.2042  0.3936
 7281SOL    HW133479   4.491   3.327   8.442 -0.3407 -0.1717  0.7571
 7281SOL    HW233480   4.449   3.257   8.324 -1.1721  0.9870  0.1911
 7282SOL     OW33481   2.582   1.688  13.930  0.2345 -0.2832 -0.1374
 7282SOL    HW133482   2.525   1.762  13.950  3.0989  1.4348  1.5543
 7282SOL    HW233483   2.572   1.637  14.010 -1.6184  2.1718  1.2052
 7283SOL     OW33484   2.243   3.107   4.663  0.3673 -0.1110 -0.3446
 7283SOL    HW133485   2.202   3.061   4.590 -1.4939 -0.2857  0.8072
 7283SOL    HW233486   2.326   3.092   4.618  0.3597  0.4183 -0.5325
 7284SOL     OW33487   1.161   0.697   7.568 -0.8505 -0.2927 -0.0188
 7284SOL    HW133488   1.137   0.696   7.475 -0.2918 -0.3969 -0.1653
 7284SOL    HW233489   1.100   0.627   7.590  0.1115 -1.3637 -0.7360
 7285SOL     OW33490   1.517   1.362  16.564 -0.4280 -0.0484  0.4688
 7285SOL    HW133491   1.524   1.302  16.490 -0.5826  0.6409 -0.1009
 7285SOL    HW233492   1.519   1.443  16.513 -1.4266  2.9547  5.2256
 7286SOL     OW33493   2.569   0.856  17.686  0.1279 -0.3689  0.4610
 7286SOL    HW133494   2.538   0.838  17.597 -0.7927  0.0713  0.6990
 7286SOL    HW233495   2.614   0.775  17.710  0.4995 -0.2377  0.1979
 7287SOL     OW33496   2.191   1.396   5.950 -0.0223 -0.5148  0.2971
 7287SOL    HW133497   2.169   1.488   5.931 -1.8256 -1.2206 -1.0092
 7287SOL    HW233498   2.286   1.400   5.937  0.1527  0.7132  1.9182
 7288SOL     OW33499   2.556   0.990  15.631 -0.0924  0.2577  0.2870
 7288SOL    HW133500   2.504   0.924  15.677  0.9341 -1.5432 -1.1346
 7288SOL    HW233501   2.610   1.032  15.698 -1.0935 -1.6060  2.2445
 7289SOL     OW33502   1.227   2.963   9.068  0.1307  0.1463 -0.5724
 7289SOL    HW133503   1.197   2.915   9.145 -0.0240  0.5479 -0.3823
 7289SOL    HW233504   1.310   2.996   9.103 -0.1158  0.3343 -0.1647
 7290SOL     OW33505   4.488   0.985  14.043  0.2986 -0.0887  0.3389
 7290SOL    HW133506   4.405   0.939  14.045 -0.2953  0.9037 -1.4849
 7290SOL    HW233507   4.471   1.043  13.968 -1.2855 -1.4677 -0.3570
 7291SOL     OW33508   2.413   2.748  10.708 -0.3348 -0.3186 -0.9457
 7291SOL    HW133509   2.405   2.833  10.752  0.6023 -1.0466  0.6288
 7291SOL    HW233510   2.390   2.688  10.779  2.4202  1.8181  1.7986
 7292SOL     OW33511   4.135   4.286   8.871  0.0356  0.1251  0.0767
 7292SOL    HW133512   4.185   4.368   8.866  1.0608 -0.4801  0.4114
 7292SOL    HW233513   4.047   4.311   8.898  0.7988  3.0580 -0.0663
 7293SOL     OW33514   4.686   3.205   2.318 -0.4738  0.3730 -0.1860
 7293SOL    HW133515   4.720   3.243   2.399 -0.7792 -0.6975  0.4360
 7293SOL    HW233516   4.644   3.128   2.356  0.8450  0.3262  1.1467
 7294SOL     OW33517   2.572   3.492   4.029 -0.5050 -0.3439  0.4465
 7294SOL    HW133518   2.485   3.513   3.997 -0.3330  0.1995  0.3313
 7294SOL    HW233519   2.547   3.521   4.117  3.3681  0.6413  1.2550
 7295SOL     OW33520   2.057   2.451  10.807  0.0450  0.6479 -0.3284
 7295SOL    HW133521   1.961   2.443  10.807  0.0923  0.0498 -1.1893
 7295SOL    HW233522   2.080   2.410  10.723 -1.0800 -0.1997 -0.2254
 7296SOL     OW33523   3.528   1.716   6.110  0.3713 -0.4608  0.6208
 7296SOL    HW133524   3.606   1.663   6.095  0.3379 -0.3352  0.0015
 7296SOL    HW233525   3.496   1.731   6.021  1.6018 -0.0773  0.2511
 7297SOL     OW33526   4.190   2.521   6.092  0.0157 -0.0397 -0.5896
 7297SOL    HW133527   4.165   2.582   6.022 -0.6630  1.2429  0.7710
 7297SOL    HW233528   4.160   2.574   6.165  1.2919 -1.2473  0.8086
 7298SOL     OW33529   4.016   3.665   0.359 -0.1302  0.3325  0.4456
 7298SOL    HW133530   3.945   3.605   0.384  0.2889  0.0456  0.9276
 7298SOL    HW233531   4.085   3.626   0.412 -0.3623 -0.9222 -0.1618
 7299SOL     OW33532   4.038   3.206   8.714 -0.7700 -0.1067  0.1761
 7299SOL    HW133533   4.116   3.215   8.660 -1.3917 -1.8268 -0.9934
 7299SOL    HW233534   3.966   3.198   8.652 -2.0069 -0.3220  1.6379
 7300SOL     OW33535   0.207   4.595  12.236  0.6902 -0.2028 -0.6191
 7300SOL    HW133536   0.175   4.516  12.191 -0.4912 -0.8801  1.4206
 7300SOL    HW233537   0.124   4.627  12.272  1.8306  0.8556  1.0617
 7301SOL     OW33538   3.929   1.496   4.748 -0.2914  0.2041 -0.2480
 7301SOL    HW133539   3.856   1.490   4.809 -0.1047 -0.1850 -0.0576
 7301SOL    HW233540   3.929   1.590   4.732 -0.4835  0.1157 -0.7639
 7302SOL     OW33541   1.261   2.731   8.601  0.2040 -0.4117 -0.8673
 7302SOL    HW133542   1.289   2.755   8.689  2.8527  0.4955 -1.9613
 7302SOL    HW233543   1.198   2.800   8.585  0.5897 -0.6032 -3.1359
 7303SOL     OW33544   0.507   3.090   9.146  0.1369  0.0748 -0.0375
 7303SOL    HW133545   0.490   3.183   9.158 -1.5294  0.0226 -2.0100
 7303SOL    HW233546   0.469   3.045   9.222  1.2604  0.0057  0.4871
 7304SOL     OW33547   3.140   2.756   3.943 -0.3055  0.4908 -0.1784
 7304SOL    HW133548   3.214   2.801   3.984  0.4477 -1.0835  0.1739
 7304SOL    HW233549   3.165   2.667   3.967  0.4505  0.7616  0.0545
 7305SOL     OW33550   1.088   0.586   4.604  0.5101  0.1529 -0.1571
 7305SOL    HW133551   1.023   0.637   4.652  0.1221  0.3829 -0.9200
 7305SOL    HW233552   1.094   0.659   4.542 -0.8532  1.0564  0.7632
 7306SOL     OW33553   2.386   1.365   1.838  0.3837  0.1816 -0.3089
 7306SOL    HW133554   2.350   1.282   1.869 -1.5560  1.0705 -0.1776
 7306SOL    HW233555   2.335   1.390   1.760  3.0427 -1.0936 -2.4446
 7307SOL     OW33556   1.909   2.469   4.694 -0.2434 -0.4119  0.0983
 7307SOL    HW133557   1.852   2.545   4.690 -0.6129 -0.6497  0.9237
 7307SOL    HW233558   1.879   2.420   4.617  0.0969 -2.0690  1.0198
 7308SOL     OW33559   1.784   3.974   6.600 -0.5670 -0.3272  0.2272
 7308SOL    HW133560   1.804   3.933   6.516 -1.4462 -0.0661 -0.1152
 7308SOL    HW233561   1.690   3.959   6.612 -0.3232  0.0698  2.4961
 7309SOL     OW33562   1.482   2.081   7.986  0.1409  0.6220  0.3986
 7309SOL    HW133563   1.502   1.993   8.020  0.0320  0.7504  0.7987
 7309SOL    HW233564   1.429   2.119   8.056 -0.2663  2.2292 -0.7996
 7310SOL     OW33565   1.878   2.391   7.752 -0.5632 -0.3969  0.2798
 7310SOL    HW133566   1.873   2.423   7.842 -1.2637  1.0647 -0.2752
 7310SOL    HW233567   1.933   2.314   7.762 -0.1859 -0.1973 -0.2380
 7311SOL     OW33568   1.110   4.716   4.169  0.8361  0.1188  0.0942
 7311SOL    HW133569   1.153   0.012   4.088 -1.5050  0.1971 -1.1166
 7311SOL    HW233570   1.106   0.066   4.215 -0.0264  0.8720 -1.3271
 7312SOL     OW33571   2.504   3.142  11.372 -0.5575 -0.3747  0.2402
 7312SOL    HW133572   2.574   3.132  11.308 -0.9381  0.4862 -0.3197
 7312SOL    HW233573   2.452   3.061  11.370 -0.0113 -0.6952 -0.8094
 7313SOL     OW33574   0.005   3.904   3.269 -0.5931  0.1196 -0.2911
 7313SOL    HW133575   0.004   3.894   3.174  3.6806  2.6275 -0.5528
 7313SOL    HW233576   4.716   3.997   3.273 -1.2607 -0.0523 -0.0914
 7314SOL     OW33577   1.871   2.798   6.913  0.3208 -0.0484  0.5568
 7314SOL    HW133578   1.888   2.728   6.976 -1.4058 -1.4766 -0.5723
 7314SOL    HW233579   1.922   2.759   6.841  0.7889  1.2074  0.1979
 7315SOL     OW33580   3.775   2.642  17.610 -0.4275  0.2654 -0.3677
 7315SOL    HW133581   3.813   2.723  17.576  0.1261 -0.2874 -1.0849
 7315SOL    HW233582   3.689   2.677  17.632 -0.5125 -0.1007 -0.1147
 7316SOL     OW33583   3.856   4.293  16.981 -0.6670  0.7881  0.0990
 7316SOL    HW133584   3.856   4.202  17.011 -0.5785  1.0456  0.8662
 7316SOL    HW233585   3.764   4.297  16.954 -0.7530 -0.0603  0.2849
 7317SOL     OW33586   3.294   3.059   5.377  0.6191 -0.1983  0.4203
 7317SOL    HW133587   3.339   3.076   5.459 -0.2899  3.2857  0.1987
 7317SOL    HW233588   3.335   2.974   5.359 -1.6018 -1.2739  0.5678
 7318SOL     OW33589   1.289   0.268   2.121 -0.0552 -0.7137  0.3825
 7318SOL    HW133590   1.224   0.200   2.101 -0.4993 -0.4610  0.9698
 7318SOL    HW233591   1.361   0.213   2.150  1.5150  0.0223 -2.1388
 7319SOL     OW33592   2.301   2.080   7.828  0.1744  0.1992  0.4222
 7319SOL    HW133593   2.265   2.137   7.896  0.7683  1.5676 -0.4095
 7319SOL    HW233594   2.380   2.044   7.869  0.2457  0.0715  0.1761
 7320SOL     OW33595   3.647   0.561   1.107  0.3900 -0.3837 -0.3662
 7320SOL    HW133596   3.563   0.575   1.151  1.4101  0.8201  1.2039
 7320SOL    HW233597   3.689   0.641   1.138 -2.2940  1.1966 -0.8320
 7321SOL     OW33598   1.229   1.369   3.292  0.5894 -0.5162 -0.4000
 7321SOL    HW133599   1.210   1.440   3.353  2.1128 -0.4010 -0.0581
 7321SOL    HW233600   1.311   1.396   3.251  0.0303  0.7210 -0.7015
 7322SOL     OW33601   2.271   0.406   0.214 -0.1519  0.2869  0.5361
 7322SOL    HW133602   2.246   0.388   0.305 -1.3339 -2.1723 -0.2852
 7322SOL    HW233603   2.366   0.412   0.227 -0.4394 -0.6715  3.0600
 7323SOL     OW33604   0.015   2.994   8.978 -0.0328  0.3276  0.0042
 7323SOL    HW133605   0.082   3.013   9.044  0.4611 -1.9869  0.1693
 7323SOL    HW233606   0.030   3.062   8.912 -0.6067  0.8262  0.3910
 7324SOL     OW33607   2.925   3.266   7.381 -0.0550  0.1642  0.4388
 7324SOL    HW133608   2.961   3.231   7.462 -1.5397 -1.6780  0.3131
 7324SOL    HW233609   2.960   3.199   7.321 -1.4395  0.0472 -0.2240
 7325SOL     OW33610   4.694   3.725  14.201  0.3137  0.0205  0.1979
 7325SOL    HW133611   4.658   3.731  14.112 -1.2299 -2.1645  0.6887
 7325SOL    HW233612   0.040   3.675  14.184  0.7352  0.1068  1.9726
 7326SOL     OW33613   2.247   0.970  13.870 -0.2053 -0.6457 -0.2714
 7326SOL    HW133614   2.311   0.931  13.929 -0.7271  0.2215  0.8689
 7326SOL    HW233615   2.277   1.061  13.873 -2.2421  0.0093  0.4701
 7327SOL     OW33616   4.724   2.139   9.605  0.3918  0.2040  0.2216
 7327SOL    HW133617   4.668   2.082   9.657  0.8128 -0.3093  0.1036
 7327SOL    HW233618   4.659   2.199   9.569 -1.3771 -0.4854  2.2897
 7328SOL     OW33619   0.067   3.858   2.539  0.3355 -0.2906 -0.5736
 7328SOL    HW133620   0.066   3.796   2.466  0.9001 -1.0456  0.0578
 7328SOL    HW233621   0.151   3.903   2.532 -0.5381  1.6961  2.1259
 7329SOL     OW33622   3.813   0.809   1.513  0.1269 -0.4360  0.4497
 7329SOL    HW133623   3.856   0.839   1.433 -0.9350  0.3273  0.1616
 7329SOL    HW233624   3.735   0.864   1.511 -0.5630 -1.4822 -1.3751
 7330SOL     OW33625   1.112   1.229   5.549 -0.1623 -0.0579  0.2079
 7330SOL    HW133626   1.040   1.182   5.508  0.8190  0.7819 -2.5005
 7330SOL    HW233627   1.081   1.250   5.637 -0.0586 -1.7839  0.6497
 7331SOL     OW33628   1.816   3.846   8.395  0.2265 -0.5988  0.3008
 7331SOL    HW133629   1.812   3.756   8.362 -1.0844 -0.5059  0.2081
 7331SOL    HW233630   1.800   3.831   8.488 -0.5580  0.6591  0.3709
 7332SOL     OW33631   0.026   0.753  14.389  0.5642  0.0633 -0.2920
 7332SOL    HW133632   0.021   0.694  14.464 -1.6326  1.4032  0.6287
 7332SOL    HW233633   4.685   0.724  14.337  0.6543 -0.7889  0.0478
 7333SOL     OW33634   2.561   3.436   7.406 -0.6482 -0.6980 -0.0395
 7333SOL    HW133635   2.654   3.453   7.421 -0.1835 -2.5617 -0.7984
 7333SOL    HW233636   2.563   3.376   7.331  1.6416  0.0999 -0.6087
 7334SOL     OW33637   2.215   0.319   6.685 -0.2575 -0.0074  0.4252
 7334SOL    HW133638   2.231   0.252   6.618  0.3800 -0.9204  1.4867
 7334SOL    HW233639   2.180   0.386   6.626 -1.5160  0.0370  1.2262
 7335SOL     OW33640   2.325   2.751   5.300 -0.2068 -0.3071  0.1486
 7335SOL    HW133641   2.312   2.795   5.216  1.0342  0.1782  0.2067
 7335SOL    HW233642   2.391   2.689   5.269 -0.4532 -0.3900 -0.2027
 7336SOL     OW33643   3.758   3.007   7.125 -0.4488 -0.2037 -0.0320
 7336SOL    HW133644   3.774   3.078   7.187  0.1733 -0.1449 -0.2578
 7336SOL    HW233645   3.756   2.931   7.184 -1.7578  0.4963  0.8370
 7337SOL     OW33646   0.834   3.071   8.571 -0.1409 -0.1485  0.2370
 7337SOL    HW133647   0.811   3.112   8.654  1.3758  3.5285 -1.1904
 7337SOL    HW233648   0.870   3.147   8.526 -0.1253 -0.4138 -0.2076
 7338SOL     OW33649   0.700   4.081   7.883  0.2527  0.1908  0.4625
 7338SOL    HW133650   0.767   4.017   7.859  1.5101  1.7900 -0.2860
 7338SOL    HW233651   0.695   4.065   7.977  0.2309 -0.1643  0.3988
 7339SOL     OW33652   1.939   4.690   3.353  0.0962  0.4939  0.2743
 7339SOL    HW133653   1.872   4.630   3.319  1.4951 -1.5327  1.1096
 7339SOL    HW233654   1.962   4.665   3.443 -0.5890  0.0021  0.3187
 7340SOL     OW33655   2.351   3.144  16.988 -0.1296  0.5041 -0.3164
 7340SOL    HW133656   2.288   3.099  17.044 -0.9269  2.0437  0.0048
 7340SOL    HW233657   2.366   3.091  16.910 -1.2087  1.9299 -1.5019
 7341SOL     OW33658   1.923   1.434   3.370 -0.2488 -0.1123 -0.2226
 7341SOL    HW133659   1.993   1.391   3.321  1.3776  0.3785  1.6650
 7341SOL    HW233660   1.967   1.519   3.369 -0.6557  0.0881 -1.0222
 7342SOL     OW33661   1.242   4.377  13.648 -0.2941  0.1238  0.4329
 7342SOL    HW133662   1.281   4.402  13.732 -0.6575  1.7949  0.1143
 7342SOL    HW233663   1.273   4.288  13.631  1.5905  1.0742 -1.0575
 7343SOL     OW33664   2.340   1.831   2.029  0.0005 -0.1881  0.0463
 7343SOL    HW133665   2.320   1.751   1.980  0.2066 -0.3342  0.2014
 7343SOL    HW233666   2.435   1.830   2.019 -0.4300  0.0727 -3.7697
 7344SOL     OW33667   0.835   4.041   6.304  0.1656 -0.0242  0.0490
 7344SOL    HW133668   0.883   4.021   6.384  0.8612  0.5041 -0.2349
 7344SOL    HW233669   0.743   4.032   6.326  0.0895  1.3587  0.3457
 7345SOL     OW33670   1.374   2.580  10.049  0.3717  0.6147  0.1096
 7345SOL    HW133671   1.423   2.521   9.991 -1.0351 -1.0133  0.5809
 7345SOL    HW233672   1.327   2.631   9.984 -1.0201  1.7297  2.0019
 7346SOL     OW33673   3.481   0.893   8.271 -0.4531 -0.8439  0.4357
 7346SOL    HW133674   3.536   0.830   8.224 -1.4651 -1.7246  0.4418
 7346SOL    HW233675   3.499   0.975   8.225  1.1403 -0.6506  1.4078
 7347SOL     OW33676   3.008   2.293   1.419  0.1137  0.0461 -0.6217
 7347SOL    HW133677   3.090   2.342   1.423  0.1821 -0.0509 -0.8842
 7347SOL    HW233678   3.035   2.211   1.461 -2.0741 -0.8904 -1.0569
 7348SOL     OW33679   1.850   1.715   1.406  0.0762  0.6398  0.6505
 7348SOL    HW133680   1.775   1.758   1.446  0.4532  2.1471 -0.2265
 7348SOL    HW233681   1.912   1.701   1.477  0.5434  1.2490  0.3643
 7349SOL     OW33682   3.936   0.101   5.668 -0.0860 -0.4967 -0.1058
 7349SOL    HW133683   3.964   0.040   5.736  1.2031  0.8598  0.5740
 7349SOL    HW233684   4.005   0.166   5.678 -3.0762  2.2871  2.3502
 7350SOL     OW33685   3.263   3.840  15.221  0.5317 -0.0990 -0.6895
 7350SOL    HW133686   3.315   3.759  15.227 -1.2641 -0.9927  2.7043
 7350SOL    HW233687   3.174   3.810  15.203  1.2270 -2.5981 -0.0120
 7351SOL     OW33688   2.719   1.076   9.061 -0.4786 -0.0654 -0.6963
 7351SOL    HW133689   2.654   1.135   9.100  1.5013  1.9257 -0.4361
 7351SOL    HW233690   2.767   1.068   9.143  1.0742  0.7367 -1.5403
 7352SOL     OW33691   2.127   0.620   3.436 -0.0723  0.1611 -0.0268
 7352SOL    HW133692   2.205   0.675   3.438 -0.5329  0.8269 -0.1458
 7352SOL    HW233693   2.108   0.642   3.344  0.5727  0.7104 -0.0297
 7353SOL     OW33694   1.293   1.072   3.913  0.4882 -0.3287 -0.2312
 7353SOL    HW133695   1.379   1.034   3.896  0.9402 -0.9260  3.3328
 7353SOL    HW233696   1.304   1.083   4.007 -1.4169  0.6940 -0.1282
 7354SOL     OW33697   1.521   0.892   2.528  0.3928 -0.4393  0.1074
 7354SOL    HW133698   1.595   0.938   2.569 -1.0100  0.7421  1.3614
 7354SOL    HW233699   1.457   0.884   2.599  0.7591 -2.2335  0.2180
 7355SOL     OW33700   3.843   3.336   4.900  0.3394  0.3935  0.0578
 7355SOL    HW133701   3.785   3.389   4.846 -0.8702 -1.2886 -0.2893
 7355SOL    HW233702   3.920   3.390   4.918 -0.2903  0.1350  3.5085
 7356SOL     OW33703   2.381   1.681  15.783  0.1546  0.0071  0.2938
 7356SOL    HW133704   2.344   1.706  15.868 -1.1316 -1.0006  0.0288
 7356SOL    HW233705   2.302   1.699  15.731  0.2135  1.7060  0.7680
 7357SOL     OW33706   2.321   3.687  13.744  0.3305 -0.0662  0.6186
 7357SOL    HW133707   2.365   3.724  13.667 -0.3935 -0.4242  0.0288
 7357SOL    HW233708   2.237   3.728  13.727  0.3936 -0.2985 -0.2528
 7358SOL     OW33709   1.541   4.720   0.090 -0.4686  0.4364  0.0254
 7358SOL    HW133710   1.505   4.639   0.124 -1.3375  1.5581  1.7928
 7358SOL    HW233711   1.512   0.050   0.155  0.5847  3.4471 -2.4515
 7359SOL     OW33712   2.524   2.210   1.492  0.6786  0.1221  0.4217
 7359SOL    HW133713   2.560   2.152   1.425  1.3394  1.3106 -0.2552
 7359SOL    HW233714   2.564   2.291   1.461 -2.1392  0.8960 -1.2523
 7360SOL     OW33715   1.267   4.581  11.815 -0.1326  0.3018 -0.2706
 7360SOL    HW133716   1.190   4.583  11.759 -1.7285 -0.2909  1.9232
 7360SOL    HW233717   1.238   4.563  11.904  0.3756  1.0442  0.0378
 7361SOL     OW33718   2.511   1.051  14.185 -0.5629 -0.5743  0.2208
 7361SOL    HW133719   2.490   1.028  14.276 -2.5432 -0.8967 -0.3082
 7361SOL    HW233720   2.525   1.145  14.198 -0.3753 -0.3841 -1.3906
 7362SOL     OW33721   2.155   0.501  16.009  0.1945 -0.3751  0.1560
 7362SOL    HW133722   2.094   0.554  15.957 -0.8155 -0.3043  1.4069
 7362SOL    HW233723   2.201   0.568  16.060 -0.5816  0.3420 -0.0863
 7363SOL     OW33724   2.409   1.459   9.153  0.1638  0.0388  0.0630
 7363SOL    HW133725   2.340   1.393   9.151 -0.0174  0.2386 -0.4767
 7363SOL    HW233726   2.368   1.540   9.122 -2.6835 -2.0180 -1.6061
 7364SOL     OW33727   2.076   0.743   5.518  0.2705 -0.1621  0.0224
 7364SOL    HW133728   2.037   0.817   5.565  0.8200  1.6793 -2.4044
 7364SOL    HW233729   2.155   0.784   5.482 -0.2606  0.2486 -0.6912
 7365SOL     OW33730   1.941   1.623   4.172  0.1750  0.5311 -0.2091
 7365SOL    HW133731   1.916   1.652   4.084 -1.1627 -2.7308 -0.9215
 7365SOL    HW233732   1.980   1.538   4.150 -1.1524 -0.3884  1.0047
 7366SOL     OW33733   0.371   2.461   4.907 -0.0085 -0.0776  0.6333
 7366SOL    HW133734   0.283   2.427   4.893 -0.2161 -0.1086  1.9474
 7366SOL    HW233735   0.415   2.383   4.940 -0.0271 -0.8729 -1.2397
 7367SOL     OW33736   1.895   0.686   7.350  0.6893 -0.4334  0.2389
 7367SOL    HW133737   1.898   0.647   7.437  0.7757  1.0096  0.8777
 7367SOL    HW233738   1.986   0.704   7.326 -0.3349  0.5726 -2.9220
 7368SOL     OW33739   4.156   2.074   6.084 -0.0086 -0.1151  0.2271
 7368SOL    HW133740   4.168   1.987   6.046 -1.7128  0.2539 -1.1250
 7368SOL    HW233741   4.062   2.085   6.079  0.3213  3.5878  2.3315
 7369SOL     OW33742   2.638   3.309   4.320  0.0322  0.0886  0.3855
 7369SOL    HW133743   2.567   3.300   4.257  1.4380 -2.9214 -0.7600
 7369SOL    HW233744   2.649   3.217   4.344  0.1575  0.4112  1.5711
 7370SOL     OW33745   2.469   2.672   4.114 -0.4406 -0.0768  0.5956
 7370SOL    HW133746   2.528   2.622   4.170  0.6040  0.6420  0.1548
 7370SOL    HW233747   2.529   2.738   4.079 -0.7173  0.9906  2.1703
 7371SOL     OW33748   2.798   2.581  11.474 -0.1937 -0.0050 -0.0340
 7371SOL    HW133749   2.815   2.635  11.551 -1.5733  0.5861 -0.1407
 7371SOL    HW233750   2.820   2.639  11.401 -0.6751  0.1472 -0.0579
 7372SOL     OW33751   0.398   3.777   5.599 -0.3280  0.9719 -0.0093
 7372SOL    HW133752   0.338   3.708   5.568  0.6387  1.4813 -2.9997
 7372SOL    HW233753   0.336   3.806   5.666  0.9451  0.4279  1.3787
 7373SOL     OW33754   0.476   3.356   5.818 -0.2577  0.2209 -0.0461
 7373SOL    HW133755   0.474   3.261   5.829 -0.3079  0.0977 -1.2060
 7373SOL    HW233756   0.479   3.372   5.724  1.4649  1.6035  0.2359
 7374SOL     OW33757   4.249   4.144   6.312 -0.3896 -0.3990 -0.6337
 7374SOL    HW133758   4.299   4.214   6.355  0.3510  0.3727 -2.7519
 7374SOL    HW233759   4.272   4.062   6.357 -0.8948 -0.6105 -0.7646
 7375SOL     OW33760   0.010   0.312   8.251  0.8178 -0.3002  0.4440
 7375SOL    HW133761   0.092   0.282   8.290  1.1769  1.2948  0.9330
 7375SOL    HW233762   4.681   0.320   8.322  1.1945 -1.6863  0.9165
 7376SOL     OW33763   1.692   1.324   5.177 -0.1147  0.9287 -0.1825
 7376SOL    HW133764   1.704   1.400   5.120  2.3202  0.5914 -0.1081
 7376SOL    HW233765   1.670   1.250   5.120  2.5117 -0.1609  0.2220
 7377SOL     OW33766   4.227   0.344   6.072  0.4783  0.2515 -0.2454
 7377SOL    HW133767   4.306   0.358   6.123 -0.2367 -3.1756  1.7974
 7377SOL    HW233768   4.256   0.278   6.009  1.1987  0.1919  0.1494
 7378SOL     OW33769   1.064   3.018   5.704 -0.0709 -0.4942  0.3334
 7378SOL    HW133770   1.077   2.933   5.746  2.2998 -0.7659 -0.9825
 7378SOL    HW233771   1.011   3.061   5.771  0.7070 -1.0025  1.2752
 7379SOL     OW33772   3.252   2.200   2.097  0.3431 -0.4028  0.0398
 7379SOL    HW133773   3.313   2.126   2.089  1.7806  0.7326  0.5442
 7379SOL    HW233774   3.249   2.227   2.005  2.2139 -0.8806 -0.1497
 7380SOL     OW33775   1.048   3.330  10.051  0.2168  1.1416 -0.8516
 7380SOL    HW133776   0.989   3.282   9.993 -1.5487  1.1609  0.9372
 7380SOL    HW233777   1.012   3.419  10.047  2.0279  1.8511 -1.4193
 7381SOL     OW33778   2.317   2.044   6.938 -0.9063  0.0070  0.3621
 7381SOL    HW133779   2.294   2.013   6.851 -2.4501  1.5527  0.2306
 7381SOL    HW233780   2.296   2.137   6.935  0.5496  0.3173 -0.1484
 7382SOL     OW33781   0.255   1.547  12.279 -0.1052 -0.0994 -0.0745
 7382SOL    HW133782   0.208   1.479  12.328 -1.4469  1.7695  1.2339
 7382SOL    HW233783   0.195   1.618  12.299 -1.2973 -1.0933 -0.0917
 7383SOL     OW33784   2.100   2.461   4.164 -0.6751 -0.2633  0.2597
 7383SOL    HW133785   2.148   2.490   4.087  0.4479 -0.8123  0.7577
 7383SOL    HW233786   2.024   2.417   4.124 -0.4341 -1.7384  1.4262
 7384SOL     OW33787   3.562   0.001  10.339 -0.3293  0.3159  0.7996
 7384SOL    HW133788   3.623   4.725  10.266 -1.5153  0.3928 -0.2122
 7384SOL    HW233789   3.541   4.644  10.357  2.8758 -0.7817 -1.0110
 7385SOL     OW33790   0.336   4.242   4.175 -0.1705  0.4112  0.4856
 7385SOL    HW133791   0.366   4.243   4.084  0.3793  0.0124  0.6623
 7385SOL    HW233792   0.281   4.320   4.171 -1.7072 -0.6503  0.7724
 7386SOL     OW33793   0.840   3.300  14.792  0.8351 -0.5971 -0.3467
 7386SOL    HW133794   0.827   3.216  14.750  0.0816 -0.5598 -0.1838
 7386SOL    HW233795   0.873   3.356  14.722  1.4614 -0.0370  0.3809
 7387SOL     OW33796   3.558   2.858   4.794 -0.7226  0.7433 -0.3643
 7387SOL    HW133797   3.628   2.793   4.786  0.6692  2.1460  0.3484
 7387SOL    HW233798   3.598   2.932   4.747 -1.4651  1.3536 -0.0286
 7388SOL     OW33799   0.899   1.677   4.219 -0.6510  0.3680 -0.0719
 7388SOL    HW133800   0.874   1.737   4.149  0.4092  0.3323 -0.4877
 7388SOL    HW233801   0.809   1.653   4.239  0.0614 -1.2610  1.1913
 7389SOL     OW33802   3.344   2.127   2.695 -0.1679 -0.2944 -0.2918
 7389SOL    HW133803   3.338   2.216   2.662 -1.2522 -0.5610 -0.8049
 7389SOL    HW233804   3.378   2.145   2.782 -0.1404 -0.5435 -0.2495
 7390SOL     OW33805   0.829   1.718  14.808 -0.0537  0.6405 -0.0788
 7390SOL    HW133806   0.850   1.628  14.833 -0.1996  0.4526 -0.6205
 7390SOL    HW233807   0.749   1.706  14.757  0.2867 -0.0630 -0.4442
 7391SOL     OW33808   0.873   1.005  16.587 -0.4955 -0.3543  0.0775
 7391SOL    HW133809   0.909   0.921  16.615  1.4274  0.8010  1.0809
 7391SOL    HW233810   0.882   0.987  16.494 -0.4439 -0.6014  0.1285
 7392SOL     OW33811   0.994   4.554  10.871 -0.3677 -0.0435 -0.0665
 7392SOL    HW133812   0.909   4.597  10.868  0.0844  0.7681 -1.1316
 7392SOL    HW233813   1.063   4.619  10.861  0.1745 -0.9976 -2.4797
 7393SOL     OW33814   4.040   2.732  13.460 -0.5414 -0.2948 -0.2987
 7393SOL    HW133815   4.010   2.812  13.417  2.9106  1.0352 -0.2729
 7393SOL    HW233816   4.129   2.757  13.485 -0.1767 -0.8725 -1.0388
 7394SOL     OW33817   3.987   4.172  11.467 -0.3983  0.6542  0.1929
 7394SOL    HW133818   3.965   4.159  11.375  1.4433 -1.9131  0.1153
 7394SOL    HW233819   3.923   4.119  11.514 -0.4001  1.6229  1.2922
 7395SOL     OW33820   2.967   0.591   2.157 -0.0426  0.6187 -0.1256
 7395SOL    HW133821   3.061   0.610   2.159 -0.0708  0.7699 -0.2330
 7395SOL    HW233822   2.966   0.526   2.087  0.3878 -0.7711  1.1652
 7396SOL     OW33823   3.588   4.669   5.767 -0.2235 -0.3888 -0.4174
 7396SOL    HW133824   3.650   4.597   5.773  0.1493  0.1193  1.9035
 7396SOL    HW233825   3.605   4.713   5.850 -0.6836  0.3066 -0.6872
 7397SOL     OW33826   0.519   2.334   8.503 -0.1703 -0.4374 -0.4142
 7397SOL    HW133827   0.588   2.268   8.501 -0.8737 -1.2274  0.9598
 7397SOL    HW233828   0.502   2.337   8.597 -3.2085  2.3843 -1.0542
 7398SOL     OW33829   3.679   4.622  17.090  0.1157  0.5629 -0.0806
 7398SOL    HW133830   3.603   4.656  17.138  1.5090  1.5239  1.4638
 7398SOL    HW233831   3.692   4.689  17.023 -2.8630  2.8456  1.5813
 7399SOL     OW33832   0.490   0.139   3.735 -0.6302  0.0625  0.8144
 7399SOL    HW133833   0.534   0.059   3.762  0.5231  0.5988  0.5504
 7399SOL    HW233834   0.477   0.129   3.641 -1.1920 -4.4080  1.3711
 7400SOL     OW33835   1.523   3.355  15.903  0.0832 -0.0015  0.3358
 7400SOL    HW133836   1.541   3.297  15.830 -0.7179 -1.1891  1.0858
 7400SOL    HW233837   1.434   3.322  15.918  0.4345 -0.6746  0.9061
 7401SOL     OW33838   3.028   2.034   4.332 -0.1556  0.5268 -0.2006
 7401SOL    HW133839   2.994   2.001   4.415  0.9935 -1.9236 -0.6820
 7401SOL    HW233840   3.117   2.046   4.367 -0.7392 -0.3824  1.5902
 7402SOL     OW33841   2.407   4.088  15.886 -0.0010  0.4994  0.0038
 7402SOL    HW133842   2.321   4.096  15.844 -0.8188 -0.6533  1.4523
 7402SOL    HW233843   2.443   4.176  15.887 -0.0077  0.5065 -0.3407
 7403SOL     OW33844   0.644   3.086  12.395  0.3843 -0.0539 -0.1853
 7403SOL    HW133845   0.708   3.120  12.333  0.7021 -0.1036  0.1141
 7403SOL    HW233846   0.674   2.998  12.419  1.1709  0.5720  1.0995
 7404SOL     OW33847   2.885   4.553   3.331  0.1516  0.3097  0.8307
 7404SOL    HW133848   2.876   4.647   3.347 -1.7176  0.2150  0.3744
 7404SOL    HW233849   2.864   4.515   3.416 -0.3876  1.3864  1.1708
 7405SOL     OW33850   3.122   1.484   4.487 -0.3416  0.8200  0.1310
 7405SOL    HW133851   3.046   1.468   4.431 -0.2390 -1.9901  0.7695
 7405SOL    HW233852   3.079   1.558   4.528  0.1705  0.8679  0.5745
 7406SOL     OW33853   2.648   3.386   7.952 -0.0163 -0.1796 -0.6171
 7406SOL    HW133854   2.687   3.355   7.871  1.8039  2.0448 -0.6257
 7406SOL    HW233855   2.592   3.314   7.981  1.6104 -0.9513  0.6121
 7407SOL     OW33856   1.485   2.712   9.123 -0.0001 -0.4573  0.1538
 7407SOL    HW133857   1.405   2.673   9.088 -0.5559  1.2022 -0.4041
 7407SOL    HW233858   1.544   2.639   9.142  0.8757  0.4972  1.1462
 7408SOL     OW33859   0.327   3.547  11.288 -0.4036  0.0753  0.4368
 7408SOL    HW133860   0.408   3.585  11.252 -0.6749  1.2730  1.0806
 7408SOL    HW233861   0.271   3.560  11.211  0.7028 -0.1319 -0.4061
 7409SOL     OW33862   1.524   0.841   3.942 -0.1614  0.6188 -0.7740
 7409SOL    HW133863   1.594   0.778   3.923  0.2437  0.2883  1.7112
 7409SOL    HW233864   1.561   0.924   3.912  1.0289  0.1978 -0.4945
 7410SOL     OW33865   2.527   0.138   9.019 -0.1730 -0.5265 -0.1635
 7410SOL    HW133866   2.609   0.125   8.971  0.0696 -0.6873  0.2995
 7410SOL    HW233867   2.470   0.179   8.954 -2.2536  0.4578  2.2995
 7411SOL     OW33868   2.331   2.563   1.818  0.4828  0.1751  0.0844
 7411SOL    HW133869   2.398   2.522   1.763 -1.6607  0.1361 -2.4885
 7411SOL    HW233870   2.373   2.633   1.869  1.4835 -0.0942 -0.3648
 7412SOL     OW33871   4.543   2.811   5.664  0.1209 -0.4163 -0.1208
 7412SOL    HW133872   4.509   2.766   5.741 -0.9044  1.9528  0.7803
 7412SOL    HW233873   4.621   2.855   5.698  0.7103 -3.7140  2.8198
 7413SOL     OW33874   2.063   0.002   8.038  0.4381 -0.1170 -0.1009
 7413SOL    HW133875   1.974   0.039   8.036  0.9638  1.2884  2.1298
 7413SOL    HW233876   2.113   0.082   8.029  0.4778  0.0525  1.6495
 7414SOL     OW33877   2.401   3.157  15.965  0.3107  0.0905  0.0294
 7414SOL    HW133878   2.337   3.193  16.027  1.3261  2.2299 -0.1594
 7414SOL    HW233879   2.381   3.196  15.880 -0.1284 -0.6762 -0.2235
 7415SOL     OW33880   4.349   4.113   7.954  0.2806  0.0869  0.3100
 7415SOL    HW133881   4.430   4.152   7.920  0.5179  0.4096  1.2482
 7415SOL    HW233882   4.376   4.021   7.947  0.7340 -0.0350  3.5180
 7416SOL     OW33883   1.565   0.472  13.941 -0.4879 -0.4464  0.6784
 7416SOL    HW133884   1.616   0.460  14.021  2.4488  0.7433 -1.0354
 7416SOL    HW233885   1.541   0.381  13.922  1.3639 -0.7752 -0.1418
 7417SOL     OW33886   0.945   1.579   2.777  0.2221  0.1845  0.3801
 7417SOL    HW133887   0.932   1.627   2.859 -1.4781 -0.8950  0.7637
 7417SOL    HW233888   1.030   1.614   2.753  0.0855  0.6182  0.5268
 7418SOL     OW33889   0.963   1.554   1.775  0.2310  0.5100 -0.2978
 7418SOL    HW133890   0.917   1.478   1.739  0.6149  0.9470 -1.6914
 7418SOL    HW233891   0.959   1.542   1.870  0.7628 -0.2670 -0.3781
 7419SOL     OW33892   4.060   2.054  12.235  0.0507  0.4649  0.2686
 7419SOL    HW133893   4.042   2.018  12.321 -0.9044  1.1744  0.3616
 7419SOL    HW233894   4.095   1.983  12.181  0.9970  0.8077  0.4210
 7420SOL     OW33895   3.674   0.150   5.615 -0.6604  0.2167 -0.5698
 7420SOL    HW133896   3.647   0.075   5.667 -0.7938  1.4849  1.1798
 7420SOL    HW233897   3.769   0.142   5.614 -0.6157  0.7454 -0.2713
 7421SOL     OW33898   1.529   4.042   1.448  0.0953 -0.4282 -0.2407
 7421SOL    HW133899   1.602   3.980   1.451 -3.0673 -4.1651  1.0912
 7421SOL    HW233900   1.568   4.128   1.439  1.4188 -1.4671 -4.1099
 7422SOL     OW33901   1.797   0.014   4.559 -0.0314 -0.5468 -0.5206
 7422SOL    HW133902   1.736   4.693   4.608 -0.1678  0.5075  0.5095
 7422SOL    HW233903   1.769   4.733   4.468  0.8501 -1.0535 -0.7091
 7423SOL     OW33904   3.768   1.671   1.575 -0.3130  0.6816 -0.0124
 7423SOL    HW133905   3.856   1.704   1.559  0.5144 -2.2023 -1.4197
 7423SOL    HW233906   3.777   1.577   1.592  0.0689  0.8180  0.5456
 7424SOL     OW33907   0.472   1.184   6.268 -0.6740  0.4900 -0.3189
 7424SOL    HW133908   0.514   1.207   6.351  0.7578  1.5339 -1.3241
 7424SOL    HW233909   0.460   1.090   6.274  0.3204  0.3428 -0.7942
 7425SOL     OW33910   3.958   1.686   7.927  0.1193 -0.3111 -0.0674
 7425SOL    HW133911   3.986   1.611   7.980  2.9401  0.4304 -0.5221
 7425SOL    HW233912   3.991   1.767   7.965 -3.0148 -0.0221  2.0772
 7426SOL     OW33913   2.420   4.706   9.208 -0.2841  0.1532  0.1620
 7426SOL    HW133914   2.491   0.012   9.157 -0.6077 -0.5565 -0.8699
 7426SOL    HW233915   2.390   0.040   9.268 -0.2685 -1.0888  1.5599
 7427SOL     OW33916   4.578   2.005  17.543  0.5189 -0.5233  0.6343
 7427SOL    HW133917   4.617   1.936  17.597 -1.1517 -0.1065  2.3564
 7427SOL    HW233918   4.649   2.035  17.486  0.5427 -2.4825 -0.3739
 7428SOL     OW33919   3.579   4.558   3.695 -0.6758 -0.1304  0.6665
 7428SOL    HW133920   3.667   4.553   3.657 -1.5525 -1.1241 -1.2731
 7428SOL    HW233921   3.535   4.473   3.685 -0.9831 -0.0313  1.2178
 7429SOL     OW33922   3.070   1.361   0.079 -0.1703 -0.5522  0.9013
 7429SOL    HW133923   3.082   1.372  17.721 -1.8433 -2.3513  0.4782
 7429SOL    HW233924   3.107   1.442   0.112  4.5876 -1.7137 -1.5043
 7430SOL     OW33925   1.213   0.509   3.587 -0.0317 -0.8141 -0.0286
 7430SOL    HW133926   1.120   0.521   3.566  0.2656  1.8196  0.1988
 7430SOL    HW233927   1.197   0.453   3.663  1.2556 -0.2433  0.6621
 7431SOL     OW33928   3.532   4.161   2.729  0.1471 -0.7053  0.5227
 7431SOL    HW133929   3.471   4.209   2.673 -1.2234 -1.6447  1.2347
 7431SOL    HW233930   3.598   4.144   2.662  0.3310  0.1716  0.4768
 7432SOL     OW33931   4.551   0.083   5.133 -0.1877 -0.4152  0.4511
 7432SOL    HW133932   4.463   0.047   5.140  0.2812 -1.6723 -0.0889
 7432SOL    HW233933   4.539   0.169   5.174 -0.9563 -0.6883  0.7756
 7433SOL     OW33934   1.519   3.275   5.111  1.0042  0.2943 -0.3309
 7433SOL    HW133935   1.538   3.369   5.113  0.5072  0.3101  3.2796
 7433SOL    HW233936   1.488   3.261   5.021 -0.9925 -0.9637  0.5506
 7434SOL     OW33937   1.384   3.350   9.548  0.1278 -0.2025  0.6368
 7434SOL    HW133938   1.460   3.302   9.513 -0.4169 -0.2477 -0.4981
 7434SOL    HW233939   1.323   3.318   9.481  1.1355 -0.3888 -0.1915
 7435SOL     OW33940   2.439   3.677   4.203  0.1021  0.3888 -0.4582
 7435SOL    HW133941   2.391   3.758   4.184  1.0916  1.3652  1.2488
 7435SOL    HW233942   2.363   3.619   4.213  0.0742  0.0764 -2.4586
 7436SOL     OW33943   1.458   1.002   6.985 -0.0816  0.7390  0.0831
 7436SOL    HW133944   1.485   0.912   7.002  0.2795  0.6570 -0.9247
 7436SOL    HW233945   1.363   0.991   6.986 -0.0229  0.4560  1.8818
 7437SOL     OW33946   2.140   1.278   3.288  0.4112 -0.0259  0.2504
 7437SOL    HW133947   2.089   1.197   3.282  0.8692 -0.2870 -0.0728
 7437SOL    HW233948   2.142   1.307   3.197 -2.0818 -1.3300 -0.2291
 7438SOL     OW33949   0.332   2.286   7.843  0.5181  0.2608  0.1466
 7438SOL    HW133950   0.251   2.323   7.806  1.4748  0.3400 -1.9165
 7438SOL    HW233951   0.294   2.211   7.887  1.9921  0.3274  1.5303
 7439SOL     OW33952   3.771   0.549  11.835 -0.6555 -0.0918 -0.3018
 7439SOL    HW133953   3.700   0.519  11.892  0.4521  0.4861  1.3764
 7439SOL    HW233954   3.807   0.618  11.891 -1.4782  0.4007 -0.3849
 7440SOL     OW33955   0.902   1.621   8.091  0.5451  0.0570  0.7484
 7440SOL    HW133956   0.867   1.533   8.080  1.3510 -0.1710 -0.0414
 7440SOL    HW233957   0.915   1.604   8.184 -0.3513  0.7586  0.9979
 7441SOL     OW33958   2.382   0.429  16.287  0.6053 -0.1560  0.4120
 7441SOL    HW133959   2.399   0.503  16.229  2.8197 -1.1108 -0.1616
 7441SOL    HW233960   2.440   0.461  16.356  0.8958  0.9328 -0.3461
 7442SOL     OW33961   3.265   2.003   3.633 -0.0548  0.1623  0.1665
 7442SOL    HW133962   3.206   2.052   3.690 -0.5183  0.0616 -0.2283
 7442SOL    HW233963   3.318   1.964   3.702  0.0712  0.0635  0.0126
 7443SOL     OW33964   3.048   3.725   0.133  0.2202  0.7744  0.6696
 7443SOL    HW133965   3.017   3.642   0.097  0.0386  0.3910  1.7026
 7443SOL    HW233966   3.093   3.758   0.055  0.8478 -0.6451  0.4333
 7444SOL     OW33967   1.213   1.739   3.143  0.4762 -0.1195  0.2313
 7444SOL    HW133968   1.264   1.686   3.204  0.4360 -0.5309 -0.0951
 7444SOL    HW233969   1.274   1.730   3.070 -0.0331  1.0548 -0.3440
 7445SOL     OW33970   3.354   1.209   6.449 -0.5433 -0.4473  0.1502
 7445SOL    HW133971   3.277   1.217   6.393 -0.1743 -1.8767 -0.5656
 7445SOL    HW233972   3.407   1.137   6.414  1.1955  0.4748  0.8930
 7446SOL     OW33973   2.610   4.010   3.970 -0.8444  0.4200 -0.3443
 7446SOL    HW133974   2.618   3.919   3.943  0.6266 -0.1827  2.1473
 7446SOL    HW233975   2.688   4.018   4.025 -2.1443  1.7898  1.3126
 7447SOL     OW33976   0.345   0.690   7.075  0.1551  0.4086 -0.2334
 7447SOL    HW133977   0.252   0.681   7.054  0.2184  0.6204 -0.6064
 7447SOL    HW233978   0.328   0.782   7.094  1.2221  0.1893  1.7937
 7448SOL     OW33979   1.597   4.668   5.207 -0.1496 -0.1776  0.5921
 7448SOL    HW133980   1.533   4.599   5.191 -0.1648  0.0024 -0.1548
 7448SOL    HW233981   1.647   4.629   5.278  0.7861  2.1290  1.2170
 7449SOL     OW33982   3.091   4.409  15.695 -0.1977  0.1627  0.0252
 7449SOL    HW133983   3.004   4.395  15.733 -0.3309  1.2441  0.1068
 7449SOL    HW233984   3.111   4.320  15.666  0.3618  1.2065 -2.8154
 7450SOL     OW33985   0.515   3.783  14.315  0.0771  0.1633 -0.0425
 7450SOL    HW133986   0.582   3.774  14.246  0.3891  2.0267  0.0265
 7450SOL    HW233987   0.566   3.750  14.389 -0.2837 -2.1505 -0.8120
 7451SOL     OW33988   3.894   4.078   5.602  1.1760 -0.1786  0.1598
 7451SOL    HW133989   3.836   4.126   5.662 -0.3178  1.8357 -2.9133
 7451SOL    HW233990   3.838   4.004   5.577  0.2895  0.5006  0.1147
 7452SOL     OW33991   1.970   1.180   8.149 -1.2906 -0.3047  0.1163
 7452SOL    HW133992   1.920   1.258   8.176  0.6230  0.4556  1.4892
 7452SOL    HW233993   1.899   1.116   8.144  0.8046 -2.7324  1.1923
 7453SOL     OW33994   4.286   4.322  17.459 -0.1070 -0.4069  0.0974
 7453SOL    HW133995   4.324   4.304  17.545 -2.4868 -0.1689  1.1961
 7453SOL    HW233996   4.232   4.243  17.456 -0.3220 -0.2405 -0.3626
 7454SOL     OW33997   0.282   1.450   1.937 -0.1039 -0.2070  0.3073
 7454SOL    HW133998   0.350   1.453   2.004 -1.7646 -1.4809  2.0320
 7454SOL    HW233999   0.311   1.388   1.871  2.5778  1.2351  0.1101
 7455SOL     OW34000   3.299   3.275   8.445  0.2551  0.3613  0.5447
 7455SOL    HW134001   3.256   3.359   8.457  0.6745  0.4723  1.2503
 7455SOL    HW234002   3.255   3.224   8.513  0.6856  1.4832  1.6539
 7456SOL     OW34003   3.958   2.337   3.482  0.1312  0.7547  0.2857
 7456SOL    HW134004   3.910   2.264   3.443 -0.5682 -0.5675  3.6698
 7456SOL    HW234005   3.884   2.390   3.512 -0.8121  1.0446 -2.5645
 7457SOL     OW34006   3.764   2.405   8.170 -0.1510  0.0166  0.0546
 7457SOL    HW134007   3.761   2.494   8.205 -0.7713 -0.5711  1.5327
 7457SOL    HW234008   3.682   2.380   8.212  0.9060 -2.9116  0.4433
 7458SOL     OW34009   0.420   3.192   7.238 -0.2858 -0.6911  0.1061
 7458SOL    HW134010   0.471   3.273   7.235  0.8763 -1.4882 -1.3707
 7458SOL    HW234011   0.353   3.223   7.299  0.6642  1.8670 -0.1542
 7459SOL     OW34012   2.136   2.979   5.750 -0.5074  0.0338  0.1221
 7459SOL    HW134013   2.171   2.905   5.800 -1.3621 -0.3300  0.1817
 7459SOL    HW234014   2.070   2.930   5.699 -1.3932  0.6122  0.7266
 7460SOL     OW34015   3.372   0.065   7.990  0.1653  0.2180  0.5009
 7460SOL    HW134016   3.278   0.076   8.003  0.5232  0.9219  2.4347
 7460SOL    HW234017   3.370   4.734   7.920 -1.3440 -0.9919  1.6824
 7461SOL     OW34018   1.769   0.456  15.209  0.7276 -0.5163  0.1049
 7461SOL    HW134019   1.709   0.526  15.235  1.4541 -0.3960  1.4644
 7461SOL    HW234020   1.841   0.464  15.272  1.1732  3.9254 -1.0146
 7462SOL     OW34021   2.996   3.287   5.885 -0.0340  0.4669  0.8597
 7462SOL    HW134022   2.963   3.327   5.804 -1.4566 -1.6421  0.4115
 7462SOL    HW234023   3.017   3.199   5.854  2.4927  1.0296  0.9522
 7463SOL     OW34024   3.700   0.772   4.193 -0.2684 -0.5647 -0.1331
 7463SOL    HW134025   3.788   0.780   4.157 -0.6237  1.8683 -0.4437
 7463SOL    HW234026   3.700   0.838   4.262  1.3624 -0.1429 -0.5327
 7464SOL     OW34027   0.198   1.580   8.628  0.0109  0.8232 -0.1653
 7464SOL    HW134028   0.206   1.520   8.553 -0.7848 -0.7147  0.9928
 7464SOL    HW234029   0.281   1.563   8.672 -0.2895  0.3388  0.2181
 7465SOL     OW34030   1.971   3.574   4.252 -0.3561  0.0906 -0.2150
 7465SOL    HW134031   1.969   3.552   4.346  0.4986 -1.0175 -0.4492
 7465SOL    HW234032   2.061   3.563   4.222 -0.0562  0.8317  0.4038
 7466SOL     OW34033   2.305   1.352  15.129 -0.5055  0.0484  0.8404
 7466SOL    HW134034   2.304   1.257  15.117 -0.9378  0.0628  0.7502
 7466SOL    HW234035   2.398   1.371  15.117  0.4295 -3.5198  2.4370
 7467SOL     OW34036   0.616   0.065  15.829  0.1669 -0.0135  0.3549
 7467SOL    HW134037   0.683   0.129  15.851  0.1714  0.4714 -1.0656
 7467SOL    HW234038   0.554   0.122  15.782  0.0006 -0.8789 -0.4596
 7468SOL     OW34039   0.331   1.892   4.525 -0.4943 -0.3836  0.0163
 7468SOL    HW134040   0.408   1.923   4.478  0.5765 -1.1352  1.2482
 7468SOL    HW234041   0.261   1.930   4.472  2.6025  1.3817 -2.7556
 7469SOL     OW34042   1.108   3.648   5.751 -0.0987  0.2591  0.2806
 7469SOL    HW134043   1.199   3.661   5.725  0.6722 -0.3943  2.6891
 7469SOL    HW234044   1.059   3.662   5.670  1.6716  1.0294 -0.6613
 7470SOL     OW34045   3.241   0.785   0.417  0.7349  0.6235 -0.1236
 7470SOL    HW134046   3.224   0.879   0.406 -1.2539  0.0169 -2.4254
 7470SOL    HW234047   3.334   0.793   0.395  0.8094  0.5657  0.1706
 7471SOL     OW34048   4.443   3.775   0.856  0.4018 -0.0967  0.5362
 7471SOL    HW134049   4.507   3.812   0.795  0.9980 -0.1614  1.1302
 7471SOL    HW234050   4.479   3.791   0.943 -2.1070  1.2246  1.3533
 7472SOL     OW34051   4.696   4.624   8.096  0.2500 -0.0012 -0.1933
 7472SOL    HW134052   4.638   4.618   8.172  0.2539  1.8509 -0.0280
 7472SOL    HW234053   4.730   4.713   8.095 -3.7981  1.5814 -0.2963
 7473SOL     OW34054   0.062   0.346   7.325 -0.7397 -0.2902  0.3748
 7473SOL    HW134055   0.094   0.367   7.413 -0.7764  0.8865  0.1168
 7473SOL    HW234056   0.113   0.267   7.306  0.5345  0.8570 -0.9774
 7474SOL     OW34057   0.287   2.313   2.389  0.0063 -0.3001 -0.3213
 7474SOL    HW134058   0.366   2.358   2.362  1.2130 -1.7067  0.8348
 7474SOL    HW234059   0.310   2.227   2.353  0.8666  1.0606 -2.9654
 7475SOL     OW34060   1.261   1.969  15.153  0.6593  0.5346  0.0188
 7475SOL    HW134061   1.188   2.024  15.125 -0.2163 -0.6779 -0.0866
 7475SOL    HW234062   1.225   1.926  15.231  0.7449 -0.2864 -0.4032
 7476SOL     OW34063   2.753   1.400   5.435  0.3350 -0.0015 -0.0096
 7476SOL    HW134064   2.796   1.458   5.371  0.6450 -0.8363 -0.5581
 7476SOL    HW234065   2.795   1.431   5.515 -1.6074  3.1853 -0.2317
 7477SOL     OW34066   0.643   2.114   7.127  0.1369  0.0278 -0.2265
 7477SOL    HW134067   0.717   2.175   7.132  0.0621 -0.1131  2.7332
 7477SOL    HW234068   0.632   2.096   7.034  1.7384  1.3825 -0.6743
 7478SOL     OW34069   1.193   2.513   8.204  0.3360  0.4302 -0.3397
 7478SOL    HW134070   1.113   2.478   8.164  0.0239  1.0670 -0.2632
 7478SOL    HW234071   1.198   2.607   8.187  3.3306  0.2078 -0.8070
 7479SOL     OW34072   2.085   3.407   6.574  0.9267  0.1542  0.0936
 7479SOL    HW134073   2.066   3.501   6.569 -0.7159 -0.2499 -1.5055
 7479SOL    HW234074   2.047   3.376   6.492 -0.2787  1.6770  0.0815
 7480SOL     OW34075   0.768   4.068   3.706 -0.4485 -0.2612  0.0623
 7480SOL    HW134076   0.705   4.125   3.751  0.9314  0.1030  1.5608
 7480SOL    HW234077   0.768   4.110   3.620  0.9545  1.1284  0.7196
 7481SOL     OW34078   1.409   2.481   1.474 -0.0744 -0.4428 -0.1314
 7481SOL    HW134079   1.340   2.506   1.412  0.0788  1.7673  0.5926
 7481SOL    HW234080   1.452   2.408   1.430 -0.0433 -0.4445 -0.0983
 7482SOL     OW34081   1.892   1.447   5.320 -0.3075  0.0226 -0.2757
 7482SOL    HW134082   1.838   1.517   5.357  2.2665  1.2362  1.1063
 7482SOL    HW234083   1.823   1.416   5.261 -1.1384  1.2153  0.0706
 7483SOL     OW34084   0.897   4.617   6.047 -0.1333  0.3718 -0.5242
 7483SOL    HW134085   0.968   4.564   6.009 -0.9503 -1.2836  0.2384
 7483SOL    HW234086   0.879   4.570   6.128  2.1664  1.8474  0.8365
 7484SOL     OW34087   0.351   0.338  16.398 -0.1264  0.1419 -0.5715
 7484SOL    HW134088   0.430   0.381  16.364  0.9689 -1.5224 -0.1707
 7484SOL    HW234089   0.281   0.360  16.336  0.1365 -1.2143 -1.3475
 7485SOL     OW34090   1.693   4.124  16.003 -0.5302 -0.0246  0.4101
 7485SOL    HW134091   1.645   4.088  16.078 -2.5994  0.0367 -0.8712
 7485SOL    HW234092   1.648   4.079  15.931 -0.3178 -0.5730  0.6146
 7486SOL     OW34093   3.563   1.229   7.356 -0.0034  0.6705  0.2044
 7486SOL    HW134094   3.570   1.139   7.323 -0.6513  1.4223 -1.9765
 7486SOL    HW234095   3.469   1.239   7.366  0.2095  2.4018  0.3790
 7487SOL     OW34096   1.187   3.327   7.063 -0.0640  0.0782  0.6315
 7487SOL    HW134097   1.112   3.386   7.068 -0.0830  0.2640 -1.9007
 7487SOL    HW234098   1.147   3.241   7.078  0.3310 -0.7652 -3.2396
 7488SOL     OW34099   1.041   2.089  11.914  0.1157 -0.6551  0.0154
 7488SOL    HW134100   1.065   1.997  11.926  0.8902 -0.2522  1.5309
 7488SOL    HW234101   1.078   2.132  11.991 -1.0534 -2.2981  1.4853
 7489SOL     OW34102   2.753   4.271   3.365  0.0157 -0.2042  0.2573
 7489SOL    HW134103   2.674   4.299   3.412 -0.8861 -0.2273 -1.2452
 7489SOL    HW234104   2.729   4.239   3.278  2.5427  1.8033 -1.1764
 7490SOL     OW34105   4.524   3.886   1.393  0.2990 -0.1495  0.1369
 7490SOL    HW134106   4.586   3.818   1.419 -0.2325 -0.3377  0.9109
 7490SOL    HW234107   4.444   3.837   1.414  0.7693 -1.0386 -0.1319
 7491SOL     OW34108   0.930   3.308   8.476 -0.0086 -0.0562  0.0857
 7491SOL    HW134109   0.849   3.358   8.483  0.5101  0.8551 -0.4362
 7491SOL    HW234110   0.960   3.340   8.391  0.1251  0.6356  0.3875
 7492SOL     OW34111   1.903   2.233   0.344  0.3280 -0.0876  0.6329
 7492SOL    HW134112   1.953   2.297   0.293 -0.7330 -0.1139 -0.4387
 7492SOL    HW234113   1.866   2.184   0.270  2.3397 -2.7570  1.4167
 7493SOL     OW34114   1.983   2.155   5.275  0.0823 -0.0425 -0.8609
 7493SOL    HW134115   2.050   2.087   5.278 -0.6693 -0.8349 -2.2389
 7493SOL    HW234116   2.016   2.213   5.344 -3.0800  1.7243 -0.8575
 7494SOL     OW34117   3.273   2.371   1.374  0.5432 -0.0618 -0.1456
 7494SOL    HW134118   3.290   2.280   1.347  0.4551 -0.3902  0.8936
 7494SOL    HW234119   3.310   2.420   1.301  1.7195  0.8652  1.0723
 7495SOL     OW34120   0.606   2.469   6.800  0.4265  0.3236 -0.3350
 7495SOL    HW134121   0.615   2.425   6.715  1.6087 -1.5541  0.7797
 7495SOL    HW234122   0.541   2.534   6.772  0.5853 -0.4954 -2.6695
 7496SOL     OW34123   0.043   4.557  14.309 -0.4557  0.2692 -0.5913
 7496SOL    HW134124   4.691   4.566  14.269 -0.8430  2.4057  0.7097
 7496SOL    HW234125   0.030   4.494  14.380 -2.3635  0.1595 -1.0399
 7497SOL     OW34126   3.221   2.504  12.635  0.4858 -0.0043  1.2522
 7497SOL    HW134127   3.234   2.590  12.595 -0.8116 -0.6473 -0.6084
 7497SOL    HW234128   3.126   2.499  12.646  0.5211 -0.3371  1.3957
 7498SOL     OW34129   0.857   1.088   1.509 -0.3214 -0.8829  0.2534
 7498SOL    HW134130   0.851   1.065   1.601  0.5292 -1.1511  0.2439
 7498SOL    HW234131   0.810   1.016   1.467 -1.8639 -0.9020  2.0528
 7499SOL     OW34132   3.453   3.148  10.326 -0.0494  0.0930  0.5375
 7499SOL    HW134133   3.537   3.106  10.345 -0.4450  0.2893  2.6915
 7499SOL    HW234134   3.401   3.094  10.267 -0.8712  2.3778 -0.8086
 7500SOL     OW34135   0.126   2.460   2.552  0.0590  0.2238  0.7799
 7500SOL    HW134136   0.046   2.408   2.555  0.6841 -0.8636 -1.1695
 7500SOL    HW234137   0.175   2.392   2.507  1.4301  1.4503  0.4156
 7501SOL     OW34138   2.405   1.379  15.864 -0.3378  0.2759  0.4557
 7501SOL    HW134139   2.350   1.456  15.845 -0.8770  0.0211  0.9663
 7501SOL    HW234140   2.489   1.418  15.839 -0.9768  0.5216 -1.2956
 7502SOL     OW34141   1.727   0.039  14.455 -0.7662 -0.4413 -0.3587
 7502SOL    HW134142   1.797   0.033  14.390  0.6163  1.5306  0.9369
 7502SOL    HW234143   1.699   4.682  14.451  0.4814 -0.8589  0.6491
 7503SOL     OW34144   4.444   4.219  15.107 -0.6722  0.2883  0.1322
 7503SOL    HW134145   4.469   4.247  15.019  1.5156 -0.8517  0.3945
 7503SOL    HW234146   4.474   4.289  15.164 -0.3817 -0.0830  0.4322
 7504SOL     OW34147   0.811   1.890   3.286  1.0386  0.0630  0.3995
 7504SOL    HW134148   0.784   1.959   3.225  1.3300 -1.0336 -0.9694
 7504SOL    HW234149   0.806   1.813   3.229  1.6091  1.1440 -1.1043
 7505SOL     OW34150   1.411   0.916   7.290 -0.2493  0.2895  0.7183
 7505SOL    HW134151   1.383   0.843   7.235  0.4058 -0.9728  2.0595
 7505SOL    HW234152   1.360   0.987   7.251 -1.0112 -1.6433 -1.7919
 7506SOL     OW34153   1.086   0.501   9.134 -0.3694  0.0589  1.5558
 7506SOL    HW134154   1.098   0.424   9.079  2.1306 -0.0321  2.1917
 7506SOL    HW234155   1.095   0.471   9.225  0.8576  1.7123  1.9793
 7507SOL     OW34156   4.522   1.763  13.669 -0.5710 -0.1814 -0.3910
 7507SOL    HW134157   4.460   1.793  13.602  0.9870  0.1932 -1.6559
 7507SOL    HW234158   4.595   1.824  13.664  0.7645 -1.8996 -2.1198
 7508SOL     OW34159   1.892   1.169  13.349 -0.1245 -0.2897  0.5595
 7508SOL    HW134160   1.940   1.086  13.350  0.3350 -0.0587 -1.7965
 7508SOL    HW234161   1.867   1.171  13.441 -1.8455  1.3193  0.0466
 7509SOL     OW34162   4.306   0.557  16.600  0.1318 -0.1472 -0.6160
 7509SOL    HW134163   4.325   0.516  16.516 -0.3895 -0.9393 -0.3414
 7509SOL    HW234164   4.350   0.497  16.659 -0.7174 -0.0017  0.1585
 7510SOL     OW34165   1.489   0.101   0.694 -0.2244  0.0215  0.4690
 7510SOL    HW134166   1.568   0.071   0.739 -0.0404  0.7177  0.6177
 7510SOL    HW234167   1.426   0.083   0.763 -1.1076  2.5408  0.3431
 7511SOL     OW34168   1.702   1.630  12.249 -0.5763 -0.4062  0.1250
 7511SOL    HW134169   1.658   1.551  12.217  0.0522  0.7250 -3.5638
 7511SOL    HW234170   1.794   1.606  12.241 -1.1892 -2.7041  0.0036
 7512SOL     OW34171   1.375   0.253   8.434  0.4509  0.1255  0.3492
 7512SOL    HW134172   1.388   0.298   8.351  1.3896  0.3626  0.6291
 7512SOL    HW234173   1.451   0.196   8.440  1.1501  1.0166 -0.1393
 7513SOL     OW34174   2.074   4.272   5.129  0.5224  0.0179  0.2031
 7513SOL    HW134175   2.032   4.191   5.101  1.6806 -0.0776 -1.2147
 7513SOL    HW234176   2.038   4.328   5.061  0.6158 -0.0225  0.1214
 7514SOL     OW34177   1.684   3.720   0.287  0.2912 -0.5195  1.0878
 7514SOL    HW134178   1.711   3.651   0.226  1.0703  1.2265 -0.5538
 7514SOL    HW234179   1.746   3.781   0.248 -1.1079  0.4330  0.3612
 7515SOL     OW34180   1.232   2.048  14.819 -0.3392 -0.1832 -0.4633
 7515SOL    HW134181   1.170   1.977  14.802  0.8425 -1.1680 -0.6638
 7515SOL    HW234182   1.193   2.086  14.897  3.2830  1.3818  0.5482
 7516SOL     OW34183   4.194   4.494   6.837 -0.5271  0.2241 -0.4851
 7516SOL    HW134184   4.281   4.456   6.851 -0.8740 -0.0289  1.0007
 7516SOL    HW234185   4.138   4.419   6.856  0.6267 -1.3020 -3.2011
 7517SOL     OW34186   3.267   1.376   3.398  0.0750  0.3482  0.2622
 7517SOL    HW134187   3.335   1.410   3.340  1.5050  1.1515  2.3820
 7517SOL    HW234188   3.258   1.292   3.353  1.2559  0.6918 -0.6172
 7518SOL     OW34189   2.492   3.811  11.194 -0.6468 -0.0362 -0.4342
 7518SOL    HW134190   2.587   3.805  11.204 -0.6101  1.2951 -0.0390
 7518SOL    HW234191   2.469   3.813  11.287  1.9521 -1.2735  0.2540
 7519SOL     OW34192   0.498   3.055   1.532 -0.5068 -0.2683  0.0058
 7519SOL    HW134193   0.465   3.003   1.458  0.2008  0.2196 -0.6457
 7519SOL    HW234194   0.490   3.145   1.502 -0.0531  0.3982  1.8716
 7520SOL     OW34195   0.477   2.860  10.020 -0.3708  0.1342  0.4988
 7520SOL    HW134196   0.560   2.814  10.034  1.0584  1.9624 -1.9529
 7520SOL    HW234197   0.463   2.877  10.113 -1.8227  1.2315  0.0660
 7521SOL     OW34198   1.065   1.291   6.595 -0.6617  0.1934  0.3159
 7521SOL    HW134199   0.981   1.337   6.602 -2.9248 -3.4787 -2.6220
 7521SOL    HW234200   1.095   1.328   6.512  1.4164 -0.2468  0.8701
 7522SOL     OW34201   0.951   3.690  10.563  0.2788  0.5567  0.0404
 7522SOL    HW134202   0.884   3.751  10.593 -0.8332 -1.1288  0.9829
 7522SOL    HW234203   1.022   3.749  10.590 -0.1704  0.2997  1.7882
 7523SOL     OW34204   1.691   2.867   3.274  0.0012  0.6399 -0.0883
 7523SOL    HW134205   1.766   2.919   3.246 -1.3359  2.8072  0.3470
 7523SOL    HW234206   1.743   2.787   3.270  1.6202  1.6274  1.5731
 7524SOL     OW34207   1.870   2.270   4.081 -0.0402  0.3648 -0.1105
 7524SOL    HW134208   1.814   2.318   4.020  1.1102 -1.4071 -2.5433
 7524SOL    HW234209   1.903   2.201   4.023 -0.0416 -0.0645  0.3930
 7525SOL     OW34210   1.269   2.577   1.680  0.2320  0.3437 -0.2906
 7525SOL    HW134211   1.203   2.629   1.633 -0.9391 -0.5633  0.3652
 7525SOL    HW234212   1.331   2.554   1.611 -1.0503 -0.4838 -1.1714
 7526SOL     OW34213   1.117   0.217   3.465  0.6185 -0.1024 -0.1387
 7526SOL    HW134214   1.156   0.170   3.539  0.6322 -2.3790 -1.5820
 7526SOL    HW234215   1.058   0.150   3.430 -2.9968  1.6957  2.5311
 7527SOL     OW34216   2.730   3.316   5.185  0.4648  0.3904  0.1066
 7527SOL    HW134217   2.649   3.270   5.165  0.1509  1.0851 -0.2050
 7527SOL    HW234218   2.748   3.282   5.272 -0.3824 -0.2551  0.0233
 7528SOL     OW34219   1.070   0.806   4.940  0.0741  0.0114 -0.3196
 7528SOL    HW134220   1.063   0.804   5.036 -0.2435  0.9349 -0.3273
 7528SOL    HW234221   1.157   0.769   4.926  0.6143  1.0501  0.2351
 7529SOL     OW34222   3.977   1.342   2.441 -0.5801  0.0003 -0.2886
 7529SOL    HW134223   3.947   1.331   2.531  2.9286 -0.1560  0.8590
 7529SOL    HW234224   3.923   1.418   2.420 -0.0025  0.3205 -0.6540
 7530SOL     OW34225   3.696   2.967   0.198 -0.2165 -0.1633  0.1334
 7530SOL    HW134226   3.632   2.951   0.267 -0.2853 -4.9828 -1.0597
 7530SOL    HW234227   3.653   3.022   0.132 -0.4598 -0.6371 -0.1059
 7531SOL     OW34228   3.634   4.623   8.258 -0.0559  0.2791  0.1216
 7531SOL    HW134229   3.653   4.591   8.170  1.5573 -0.1262  0.6163
 7531SOL    HW234230   3.720   4.627   8.299 -0.2655 -3.6310  1.0108
 7532SOL     OW34231   3.761   4.500  10.087 -0.4191 -0.1313 -0.0539
 7532SOL    HW134232   3.739   4.593  10.085  1.0520  0.2332  1.0923
 7532SOL    HW234233   3.847   4.503  10.129 -0.3611 -0.5661 -0.1431
 7533SOL     OW34234   1.907   0.741  16.630 -0.0222 -0.5704  0.1955
 7533SOL    HW134235   1.863   0.780  16.705  0.6888  0.0144  0.3081
 7533SOL    HW234236   1.869   0.653  16.635  0.3063 -0.6831  0.7264
 7534SOL     OW34237   3.113   3.295   2.989  0.1891  0.0827  0.5996
 7534SOL    HW134238   3.133   3.308   2.896  0.7750  0.4478  0.7768
 7534SOL    HW234239   3.192   3.329   3.032 -1.7703  0.9612  3.4608
 7535SOL     OW34240   0.815   3.707   6.306  0.3458  0.2758  0.1030
 7535SOL    HW134241   0.848   3.703   6.395 -1.6690  0.0215  0.8365
 7535SOL    HW234242   0.724   3.681   6.317  0.3587  0.5283  0.7613
 7536SOL     OW34243   1.031   1.651   6.314 -0.2038 -0.1529 -0.0012
 7536SOL    HW134244   1.115   1.697   6.318 -0.2754 -0.0795  0.5526
 7536SOL    HW234245   1.062   1.563   6.334 -2.0695 -1.0745 -1.1479
 7537SOL     OW34246   2.788   1.058   2.069  0.3497 -0.2277 -0.4235
 7537SOL    HW134247   2.847   1.089   2.000  0.0541  2.1081  0.3408
 7537SOL    HW234248   2.711   1.025   2.022 -0.6853  1.2717  0.2173
 7538SOL     OW34249   2.558   0.990   3.007  0.1519  0.6240 -0.4899
 7538SOL    HW134250   2.544   0.903   3.045 -1.2695  0.6836 -0.9047
 7538SOL    HW234251   2.485   0.979   2.947 -1.6572 -2.2873  2.2478
 7539SOL     OW34252   0.370   1.914   7.656 -0.6653 -0.1123  0.0521
 7539SOL    HW134253   0.290   1.963   7.638 -0.5680 -0.2602 -0.7774
 7539SOL    HW234254   0.339   1.841   7.709 -1.4291  0.5781  0.5623
 7540SOL     OW34255   2.555   4.419  11.964 -0.1235 -0.0895 -1.0497
 7540SOL    HW134256   2.545   4.324  11.962  0.9903 -0.2336  0.7450
 7540SOL    HW234257   2.503   4.447  11.889 -0.1695 -0.8794 -1.3087
 7541SOL     OW34258   4.212   3.245   4.226  0.0261  0.5976 -0.5441
 7541SOL    HW134259   4.154   3.302   4.174 -1.7026  0.8231  1.6282
 7541SOL    HW234260   4.154   3.238   4.301  1.4616  1.5350  0.6465
 7542SOL     OW34261   0.425   3.345  15.397  0.0270  0.3275  0.3702
 7542SOL    HW134262   0.516   3.337  15.424 -0.5009  0.6039  2.2571
 7542SOL    HW234263   0.433   3.354  15.302  0.3312  1.6581  0.5225
 7543SOL     OW34264   3.754   0.860   6.706  0.0381 -0.3133  0.2254
 7543SOL    HW134265   3.778   0.930   6.767 -1.3968  0.7970 -0.4747
 7543SOL    HW234266   3.835   0.858   6.655  1.3894 -3.2366  2.4411
 7544SOL     OW34267   2.347   1.069   4.124  0.4367 -0.3724  0.0931
 7544SOL    HW134268   2.283   1.060   4.053  0.6740  1.3260 -0.3429
 7544SOL    HW234269   2.355   0.980   4.157  0.3692 -1.1124 -1.8928
 7545SOL     OW34270   2.799   0.877  10.093  0.0883 -0.1603  0.0770
 7545SOL    HW134271   2.793   0.852  10.001  1.5927  0.0793 -0.0787
 7545SOL    HW234272   2.877   0.837  10.132  2.9882  3.6515 -1.8867
 7546SOL     OW34273   4.595   0.030   5.733  0.0135  0.3219  0.3398
 7546SOL    HW134274   4.556   4.720   5.657  0.5077  2.0071 -0.9155
 7546SOL    HW234275   4.580   0.115   5.692 -0.6070 -0.1557 -0.4379
 7547SOL     OW34276   1.851   0.120   2.119 -0.0831 -0.1920 -0.3146
 7547SOL    HW134277   1.889   0.192   2.069  0.4865  1.3889  2.4141
 7547SOL    HW234278   1.881   0.037   2.081 -0.3254  0.4200 -1.8242
 7548SOL     OW34279   2.669   0.541  17.280 -0.0808 -0.4521  0.3857
 7548SOL    HW134280   2.619   0.589  17.214  2.3291  0.7476 -0.5628
 7548SOL    HW234281   2.634   0.454  17.262  0.2449 -0.2354 -1.2800
 7549SOL     OW34282   1.202   0.849   1.235  0.0661  0.1159 -0.1281
 7549SOL    HW134283   1.157   0.840   1.319  0.4444 -0.2996  0.0303
 7549SOL    HW234284   1.168   0.936   1.212  1.0265  1.0638  1.9905
 7550SOL     OW34285   0.439   0.937   9.868  0.4692 -0.1940 -0.3257
 7550SOL    HW134286   0.485   0.906   9.946  2.3549  0.5558 -1.1548
 7550SOL    HW234287   0.417   0.850   9.835  3.3573 -0.3345 -1.8780
 7551SOL     OW34288   1.315   2.320  14.485  0.0143  0.5118 -0.5304
 7551SOL    HW134289   1.348   2.241  14.527 -1.9629  0.0780  0.1738
 7551SOL    HW234290   1.225   2.320  14.516  0.3347  0.8094  0.4000
 7552SOL     OW34291   0.061   0.474  11.278  0.0587 -0.4851 -0.0440
 7552SOL    HW134292   4.716   0.420  11.275 -0.2347 -0.0786  0.3904
 7552SOL    HW234293   0.114   0.433  11.209  0.7922 -2.5208  1.7159
 7553SOL     OW34294   3.111   4.512  16.426 -0.1199 -0.4500 -0.7053
 7553SOL    HW134295   3.113   4.472  16.339 -1.5412 -1.5287 -0.2329
 7553SOL    HW234296   3.153   4.597  16.415  0.0862 -0.7523 -2.2411
 7554SOL     OW34297   2.698   2.626   4.555  0.3951  0.3777  0.1685
 7554SOL    HW134298   2.683   2.642   4.648 -1.1463  1.0353 -0.1806
 7554SOL    HW234299   2.669   2.536   4.545 -2.2541  0.9591  2.5449
 7555SOL     OW34300   4.373   1.070  15.430 -0.4676  0.3048 -0.5940
 7555SOL    HW134301   4.433   1.144  15.441  0.5841 -0.4990 -0.9213
 7555SOL    HW234302   4.371   1.027  15.516  1.7236  0.8590 -0.2481
 7556SOL     OW34303   0.671   0.799   7.511  0.0635  0.1242 -0.1789
 7556SOL    HW134304   0.693   0.882   7.553  0.7992  0.4455 -1.1867
 7556SOL    HW234305   0.591   0.831   7.469 -0.6134 -2.4007 -0.7827
 7557SOL     OW34306   0.296   0.990   5.914 -0.0437  0.1428  0.2949
 7557SOL    HW134307   0.251   1.019   5.994 -0.7868  1.2953 -0.5471
 7557SOL    HW234308   0.384   1.027   5.917 -0.8502  1.9147  2.2023
 7558SOL     OW34309   4.665   4.002   9.251  0.4666 -0.1686 -0.4833
 7558SOL    HW134310   4.693   4.092   9.269 -1.9357  0.7793 -1.5816
 7558SOL    HW234311   4.628   3.988   9.338  1.1054  2.7265  0.2519
 7559SOL     OW34312   3.996   0.555  17.407  0.2751 -0.0231 -0.4772
 7559SOL    HW134313   4.000   0.476  17.462  1.4295 -0.4600 -1.1843
 7559SOL    HW234314   3.914   0.538  17.361  0.1537  0.2043 -0.3452
 7560SOL     OW34315   4.546   2.590   3.788 -0.5686 -0.0739 -0.2969
 7560SOL    HW134316   4.559   2.522   3.721 -1.7560 -0.2010 -0.4012
 7560SOL    HW234317   4.492   2.657   3.746 -1.0148  0.3343  0.9230
 7561SOL     OW34318   1.615   3.648   5.810 -0.1612 -0.1901  0.5850
 7561SOL    HW134319   1.669   3.700   5.750 -1.5502 -1.9806 -2.2089
 7561SOL    HW234320   1.661   3.657   5.894 -1.2624  3.9876  0.7722
 7562SOL     OW34321   0.228   2.993   7.684  0.3647  0.3798  0.3036
 7562SOL    HW134322   0.260   2.941   7.610  2.7181  1.9858  0.1957
 7562SOL    HW234323   0.296   2.965   7.745 -0.3684 -2.4136 -0.1660
 7563SOL     OW34324   3.760   0.646   7.464 -0.0408 -0.0594 -0.2832
 7563SOL    HW134325   3.743   0.657   7.370 -1.0018 -2.5624 -0.3897
 7563SOL    HW234326   3.704   0.720   7.487  1.0362  0.2814  1.2346
 7564SOL     OW34327   1.104   2.974   8.589  0.4851  0.1710 -0.5453
 7564SOL    HW134328   1.031   2.950   8.533  0.5565 -0.3739 -0.4110
 7564SOL    HW234329   1.075   2.966   8.680 -0.2049 -0.4436 -0.8214
 7565SOL     OW34330   2.750   1.010   8.007  0.7154  0.2418 -0.2795
 7565SOL    HW134331   2.675   1.057   8.045  1.2614  1.6207 -0.8954
 7565SOL    HW234332   2.804   1.083   7.977 -1.1514  1.9049  0.4106
 7566SOL     OW34333   0.013   2.555   5.603 -0.5417  0.4094 -0.1011
 7566SOL    HW134334   4.668   2.607   5.590 -0.2190  0.8193 -0.4161
 7566SOL    HW234335   0.065   2.576   5.526 -0.6487  0.6300 -0.1119
 7567SOL     OW34336   2.561   3.652   6.123 -0.1355  0.1411 -0.2340
 7567SOL    HW134337   2.566   3.688   6.211 -0.7049 -0.5551  0.0778
 7567SOL    HW234338   2.654   3.652   6.099  0.3099  0.4224  1.5093
 7568SOL     OW34339   2.138   2.986   8.250  0.2319 -0.3901  0.3332
 7568SOL    HW134340   2.166   2.987   8.342  1.7725 -1.2300 -0.1321
 7568SOL    HW234341   2.048   2.958   8.269 -0.1282  0.0255 -0.7431
 7569SOL     OW34342   2.355   4.666   2.126  0.0597 -0.0107 -0.0781
 7569SOL    HW134343   2.438   4.684   2.082 -0.4107  0.4027 -0.8070
 7569SOL    HW234344   2.388   4.613   2.199  0.2482 -0.8089 -0.7381
 7570SOL     OW34345   0.776   4.003   1.823 -0.4378  0.3785  0.0372
 7570SOL    HW134346   0.729   3.920   1.810  1.4142 -0.9820  1.9656
 7570SOL    HW234347   0.816   4.001   1.736 -0.4546 -1.1697  0.0519
 7571SOL     OW34348   1.433   1.476   7.394  0.1290  0.0499  0.2354
 7571SOL    HW134349   1.495   1.453   7.326  0.8845  0.0328  0.9247
 7571SOL    HW234350   1.441   1.395   7.445 -1.0424 -0.5839 -0.5846
 7572SOL     OW34351   3.297   3.314   2.075 -0.2172  0.3314 -0.4513
 7572SOL    HW134352   3.392   3.323   2.064 -0.1651  0.5710  0.1901
 7572SOL    HW234353   3.263   3.331   1.987  1.6885  0.5109 -1.1577
 7573SOL     OW34354   4.374   4.293   0.003 -0.2395  0.7781 -0.3224
 7573SOL    HW134355   4.344   4.202  17.735 -0.4595  0.8708 -0.7581
 7573SOL    HW234356   4.468   4.278  17.728 -0.6060 -1.2294 -0.7079
 7574SOL     OW34357   4.491   0.343  16.196 -0.5012 -0.0620  0.0563
 7574SOL    HW134358   4.511   0.294  16.276  0.9596 -2.5602 -1.8111
 7574SOL    HW234359   4.502   0.274  16.130 -1.9798  0.2274 -0.4823
 7575SOL     OW34360   1.845   3.008   7.312 -0.6802  0.2572  0.2761
 7575SOL    HW134361   1.826   3.093   7.351  0.9694  1.0852 -0.7372
 7575SOL    HW234362   1.867   3.029   7.221 -0.3955 -0.0126  0.2792
 7576SOL     OW34363   4.587   2.250   2.730 -0.4758  0.1030  0.1987
 7576SOL    HW134364   4.582   2.336   2.771 -1.0860 -0.4068  1.1822
 7576SOL    HW234365   4.628   2.191   2.793 -0.9125  0.5993  0.9337
 7577SOL     OW34366   0.738   1.110  10.476  0.4795  0.0180  0.0309
 7577SOL    HW134367   0.785   1.159  10.408  0.8713 -0.5773 -0.1245
 7577SOL    HW234368   0.652   1.121  10.435 -1.3131 -3.1726  2.9729
 7578SOL     OW34369   3.553   3.937   7.407 -0.4162 -0.5585  0.1230
 7578SOL    HW134370   3.608   3.859   7.398 -2.6128 -2.2235  1.0622
 7578SOL    HW234371   3.518   3.917   7.494 -1.3877  0.0038 -0.1471
 7579SOL     OW34372   4.588   1.280  15.382  0.6521 -0.3232 -0.5250
 7579SOL    HW134373   4.562   1.360  15.428  1.6906 -0.7912  0.8732
 7579SOL    HW234374   4.639   1.241  15.453 -0.1439 -3.3294 -1.6109
 7580SOL     OW34375   3.029   0.194  10.799  0.1809  0.2798 -1.2954
 7580SOL    HW134376   2.972   0.192  10.722 -0.6423 -0.0661 -0.6773
 7580SOL    HW234377   3.056   0.286  10.804 -0.1109  0.3224 -0.3225
 7581SOL     OW34378   2.520   1.432  15.008 -0.5025  0.0726  0.6769
 7581SOL    HW134379   2.478   1.515  14.987 -1.0455 -1.1841 -3.2225
 7581SOL    HW234380   2.600   1.470  15.044  1.2762 -1.0496 -2.0660
 7582SOL     OW34381   2.570   1.353  11.211 -0.2914  0.1175  0.2565
 7582SOL    HW134382   2.570   1.367  11.305 -1.7961 -1.9379  0.5700
 7582SOL    HW234383   2.477   1.332  11.207 -0.8282  2.3302  1.0435
 7583SOL     OW34384   4.591   0.252   9.735  0.6086 -0.0516 -0.3765
 7583SOL    HW134385   4.661   0.201   9.693  0.8378 -1.1720  1.3826
 7583SOL    HW234386   4.629   0.340   9.732  0.9439 -0.2211 -1.0052
 7584SOL     OW34387   3.952   1.186   8.168  0.2216  0.9906  0.4383
 7584SOL    HW134388   3.916   1.135   8.241  0.9711 -0.8378 -0.4594
 7584SOL    HW234389   3.929   1.133   8.091  1.2020  2.2402 -0.7190
 7585SOL     OW34390   1.480   0.389   6.180 -0.6725 -0.1133  0.2172
 7585SOL    HW134391   1.559   0.418   6.135  0.5658 -1.5226  1.4716
 7585SOL    HW234392   1.457   0.310   6.130  1.2916 -0.8766  0.5158
 7586SOL     OW34393   2.234   3.922   2.857 -0.1388 -0.0944  0.4383
 7586SOL    HW134394   2.162   3.885   2.806  0.6267  1.2007 -1.5928
 7586SOL    HW234395   2.301   3.913   2.789 -0.9584 -1.7458 -0.1689
 7587SOL     OW34396   4.130   1.708   3.148 -0.3043  0.8169 -0.8218
 7587SOL    HW134397   4.120   1.797   3.182 -2.3721  0.0290  0.6170
 7587SOL    HW234398   4.160   1.660   3.226 -0.2939  0.5345 -0.9990
 7588SOL     OW34399   0.299   2.899   1.695 -0.3298 -0.3138 -0.1869
 7588SOL    HW134400   0.244   2.954   1.640 -0.8546 -1.7358 -1.1017
 7588SOL    HW234401   0.296   2.965   1.763 -0.1287 -0.7269  0.2234
 7589SOL     OW34402   3.975   2.590   2.929 -0.1035 -0.4538  0.1871
 7589SOL    HW134403   3.897   2.639   2.905  0.3316 -0.2957 -0.9355
 7589SOL    HW234404   3.966   2.500   2.898  1.0431  0.0307 -1.6119
 7590SOL     OW34405   0.169   2.126   0.867  0.0230 -0.2604  0.2107
 7590SOL    HW134406   0.083   2.116   0.908 -0.8126 -1.2197 -1.7801
 7590SOL    HW234407   0.171   2.222   0.867 -0.4847 -0.2433 -1.1766
 7591SOL     OW34408   3.099   3.547  10.652 -0.1760 -0.2436  0.1991
 7591SOL    HW134409   3.165   3.566  10.586 -0.2948 -1.9796 -0.4333
 7591SOL    HW234410   3.151   3.510  10.723 -0.5985 -0.6566  0.2947
 7592SOL     OW34411   0.557   2.420   7.051 -0.2041 -0.2532  0.1238
 7592SOL    HW134412   0.637   2.371   7.074  0.4547  1.2561  1.0155
 7592SOL    HW234413   0.565   2.423   6.955  1.0649 -1.3897  0.1911
 7593SOL     OW34414   4.339   3.290  10.382 -0.1522  0.3821  0.3057
 7593SOL    HW134415   4.293   3.367  10.415 -0.4771  0.4694 -0.3527
 7593SOL    HW234416   4.269   3.227  10.362  0.0815 -0.2046  1.3402
 7594SOL     OW34417   2.731   3.157   3.586  0.7083 -0.2112  0.8781
 7594SOL    HW134418   2.747   3.092   3.654 -0.6107  0.2222  1.5859
 7594SOL    HW234419   2.644   3.193   3.602 -0.4772 -2.6052 -0.1421
 7595SOL     OW34420   0.195   2.806   2.461  0.4417 -0.1709  0.2944
 7595SOL    HW134421   0.192   2.854   2.544 -3.5523  2.2861 -1.2524
 7595SOL    HW234422   0.122   2.842   2.411  0.5692 -0.6711 -0.2538
 7596SOL     OW34423   2.860   1.811  16.585  0.3941  0.4412  0.1867
 7596SOL    HW134424   2.850   1.878  16.517  2.1794 -0.9254 -1.4255
 7596SOL    HW234425   2.956   1.816  16.594  0.4284 -1.1662  0.6155
 7597SOL     OW34426   0.736   1.209   4.362 -0.4017 -0.2962 -0.5106
 7597SOL    HW134427   0.780   1.280   4.316  0.0340  0.7905  1.5494
 7597SOL    HW234428   0.716   1.151   4.289  0.6142 -0.8537 -0.3529
 7598SOL     OW34429   0.565   2.754   8.447 -0.4791 -0.1365 -0.2035
 7598SOL    HW134430   0.650   2.793   8.427 -0.5700 -1.5233 -3.1855
 7598SOL    HW234431   0.550   2.711   8.363 -0.1672 -1.5900  0.4901
 7599SOL     OW34432   1.309   4.427  15.759  0.0804 -0.2040  0.6919
 7599SOL    HW134433   1.318   4.521  15.745 -1.4375  0.0874  1.7065
 7599SOL    HW234434   1.397   4.403  15.788  0.6584 -0.1006 -1.0223
 7600SOL     OW34435   0.336   4.065   9.936  0.0774 -0.0529  0.1134
 7600SOL    HW134436   0.307   4.147   9.898 -0.3016  0.0591  0.6403
 7600SOL    HW234437   0.325   4.076  10.031  1.5126  0.3162  0.2372
 7601SOL     OW34438   1.779   0.631   1.468  0.0676  0.3273  0.0048
 7601SOL    HW134439   1.775   0.726   1.483 -1.2826  0.3456 -0.4540
 7601SOL    HW234440   1.702   0.609   1.416 -0.5768  0.5460  0.8590
 7602SOL     OW34441   0.241   3.349   2.931  0.4527  0.2976 -0.6991
 7602SOL    HW134442   0.161   3.299   2.949  0.7347  0.4121  0.8374
 7602SOL    HW234443   0.209   3.437   2.954  2.3605  1.5658 -2.8860
 7603SOL     OW34444   0.215   2.048   9.160 -0.2238  0.1518 -0.0707
 7603SOL    HW134445   0.275   2.111   9.121  0.0770  0.8609  1.5206
 7603SOL    HW234446   0.143   2.097   9.200  0.4803  0.1752  1.1501
 7604SOL     OW34447   2.571   0.511   2.516 -0.5595 -0.5063  0.0744
 7604SOL    HW134448   2.478   0.524   2.497 -0.1424  2.2613 -0.1497
 7604SOL    HW234449   2.574   0.441   2.452  0.6953  0.7253 -1.2046
 7605SOL     OW34450   1.731   2.509   1.830 -0.1197  0.6623 -0.4001
 7605SOL    HW134451   1.819   2.499   1.794  0.4889  0.7884  1.0555
 7605SOL    HW234452   1.679   2.541   1.756 -0.1515  0.0081 -0.6535
 7606SOL     OW34453   4.165   1.427   5.220 -0.4127 -0.2776  0.3452
 7606SOL    HW134454   4.234   1.399   5.280  0.4492  2.4255  0.5805
 7606SOL    HW234455   4.214   1.438   5.139  0.2920 -0.6057  0.7262
 7607SOL     OW34456   2.886   4.489   4.322  0.4696  0.0118  0.2639
 7607SOL    HW134457   2.806   4.526   4.359 -0.1417 -3.4539  2.4531
 7607SOL    HW234458   2.937   4.465   4.399 -0.6079  0.0289  0.9834
 7608SOL     OW34459   1.230   1.985   7.140 -0.0270 -0.1559 -0.0494
 7608SOL    HW134460   1.137   1.965   7.154 -0.4600  0.8909 -1.3770
 7608SOL    HW234461   1.262   1.895   7.150 -1.0745 -0.1735  3.1315
 7609SOL     OW34462   0.022   2.581   2.323 -0.4847 -0.1075 -0.0094
 7609SOL    HW134463   0.025   2.676   2.316 -0.9936  0.1030  2.6442
 7609SOL    HW234464   0.078   2.561   2.398 -0.1786 -0.6747 -0.3850
 7610SOL     OW34465   2.918   3.197   9.297 -0.2636 -0.4113  0.4437
 7610SOL    HW134466   3.003   3.242   9.293  0.2109 -1.4108 -0.5646
 7610SOL    HW234467   2.924   3.174   9.390 -2.7647 -0.6034  0.5344
 7611SOL     OW34468   3.284   2.126   8.127 -0.3560  0.4808 -0.0191
 7611SOL    HW134469   3.214   2.176   8.086 -0.0866 -0.4259 -1.6081
 7611SOL    HW234470   3.352   2.190   8.148  0.6390  0.1853 -2.3084
 7612SOL     OW34471   1.986   1.837   8.691  0.0772  0.2355  0.0697
 7612SOL    HW134472   1.953   1.861   8.778  0.1436 -1.7095  0.6371
 7612SOL    HW234473   1.921   1.867   8.627  0.8644  0.8399 -0.4418
 7613SOL     OW34474   1.457   0.117   6.616  0.6869  0.2630 -0.6411
 7613SOL    HW134475   1.446   0.057   6.690  3.6260  0.4004 -0.1059
 7613SOL    HW234476   1.548   0.116   6.590  0.2853  0.5308 -2.0412
 7614SOL     OW34477   0.124   1.418   4.415 -0.0273 -0.2550  0.2596
 7614SOL    HW134478   0.035   1.386   4.433 -0.3126 -0.6039 -1.8004
 7614SOL    HW234479   0.119   1.433   4.321 -0.3434  1.6855  0.5809
 7615SOL     OW34480   3.398   3.128   2.610 -0.1568 -0.0359 -0.0796
 7615SOL    HW134481   3.438   3.212   2.588 -1.0360  0.5928  0.7153
 7615SOL    HW234482   3.334   3.128   2.538 -2.2999 -0.1306  1.8273
 7616SOL     OW34483   1.310   0.705  16.993  0.3887  0.5394 -0.2652
 7616SOL    HW134484   1.323   0.628  16.938 -0.1956  0.3616 -0.1525
 7616SOL    HW234485   1.351   0.768  16.933 -1.6618  1.5170 -0.6764
 7617SOL     OW34486   0.625   0.745   1.729 -0.2538 -0.3125 -0.1993
 7617SOL    HW134487   0.564   0.681   1.767 -2.0577  0.0648 -2.4860
 7617SOL    HW234488   0.645   0.808   1.799 -1.5161 -0.1864  0.0500
 7618SOL     OW34489   0.088   0.948   9.015 -0.0251  0.2158  0.0699
 7618SOL    HW134490   0.128   0.993   9.089 -1.9805 -1.9824  2.4460
 7618SOL    HW234491   0.058   1.012   8.949  3.1277  3.2314  1.5531
 7619SOL     OW34492   0.924   3.767   7.266  0.0171 -0.6426  0.0646
 7619SOL    HW134493   0.866   3.759   7.191  1.9651  0.1596 -1.5146
 7619SOL    HW234494   0.865   3.769   7.342 -2.3711  3.0153 -1.8728
 7620SOL     OW34495   4.666   4.064   6.002 -0.2491 -0.6793 -0.3268
 7620SOL    HW134496   4.583   4.102   6.032  0.8713  1.5875 -0.1472
 7620SOL    HW234497   4.698   4.145   5.963  1.0743 -0.6708  0.7768
 7621SOL     OW34498   2.585   1.877   2.995  0.2143 -0.7863 -0.1838
 7621SOL    HW134499   2.497   1.868   3.032  0.1597 -0.7647 -0.3101
 7621SOL    HW234500   2.582   1.804   2.933  0.7519  0.9909 -2.3169
 7622SOL     OW34501   3.657   3.816   6.571 -0.9385 -0.3257  0.2329
 7622SOL    HW134502   3.651   3.758   6.648 -0.7922 -0.3831  0.2028
 7622SOL    HW234503   3.724   3.773   6.517  0.2202  1.5007  0.2098
 7623SOL     OW34504   2.431   3.088   1.277  0.2020  1.0832 -0.2666
 7623SOL    HW134505   2.466   3.058   1.361 -2.7007 -0.8237  0.2681
 7623SOL    HW234506   2.510   3.073   1.226 -0.2492  2.3394 -1.3272
 7624SOL     OW34507   2.089   0.977  13.657 -0.2668  0.3384 -0.5377
 7624SOL    HW134508   2.091   1.070  13.633  0.3012  0.7943  1.2727
 7624SOL    HW234509   2.159   0.972  13.723 -0.9048  1.0185  0.1990
 7625SOL     OW34510   4.305   2.905  11.695  0.3791 -0.0021 -0.5708
 7625SOL    HW134511   4.249   2.872  11.766  0.0591  1.4556 -0.1530
 7625SOL    HW234512   4.387   2.907  11.744 -0.1820  1.9470  0.2763
 7626SOL     OW34513   2.393   0.316   4.255  0.4487  0.0283  0.0234
 7626SOL    HW134514   2.297   0.312   4.249  0.4116  1.5140 -0.3096
 7626SOL    HW234515   2.415   0.226   4.231 -2.5649 -0.7404  0.0616
 7627SOL     OW34516   0.535   0.393  11.930  0.1717 -0.6677 -0.6790
 7627SOL    HW134517   0.528   0.314  11.985 -0.2537 -0.7830 -0.8951
 7627SOL    HW234518   0.544   0.458  12.000 -0.3059 -0.5669 -0.7120
 7628SOL     OW34519   0.427   3.918  17.362 -0.7018 -0.1816 -0.2078
 7628SOL    HW134520   0.368   3.884  17.429 -0.4457 -1.2949 -0.5450
 7628SOL    HW234521   0.498   3.854  17.366 -0.6785 -0.2693 -1.9181
 7629SOL     OW34522   4.599   4.224   7.910 -0.1820 -0.0118  0.0365
 7629SOL    HW134523   4.668   4.160   7.928  0.7314  0.6449 -1.1368
 7629SOL    HW234524   4.648   4.305   7.895  0.4541  0.1587  2.9525
 7630SOL     OW34525   2.011   3.022  13.732 -0.4053 -0.4985  0.7744
 7630SOL    HW134526   1.940   3.050  13.790 -1.2392 -1.2923  0.1199
 7630SOL    HW234527   1.975   3.043  13.646  1.5760  2.0608  0.5592
 7631SOL     OW34528   0.605   1.628   6.471 -0.6649 -0.1784  0.3477
 7631SOL    HW134529   0.699   1.639   6.487 -0.4014 -1.2537 -0.4496
 7631SOL    HW234530   0.604   1.537   6.444 -1.8083 -0.6335  1.9206
 7632SOL     OW34531   1.562   1.180   2.192 -0.4906 -0.0145 -0.1202
 7632SOL    HW134532   1.503   1.104   2.193 -1.2134  0.5374 -0.8847
 7632SOL    HW234533   1.503   1.249   2.162  0.2441  1.4428  1.7718
 7633SOL     OW34534   2.159   4.003  14.398 -0.4938 -0.5336 -0.1122
 7633SOL    HW134535   2.077   3.958  14.414 -0.6492 -0.4664 -0.7300
 7633SOL    HW234536   2.166   3.991  14.304 -2.1501  0.0656 -0.3137
 7634SOL     OW34537   3.003   1.138   4.921  0.1571 -0.4089  0.6171
 7634SOL    HW134538   2.987   1.047   4.947  0.9818 -0.5707  0.5417
 7634SOL    HW234539   2.938   1.190   4.969  0.1654 -2.2058  2.5814
 7635SOL     OW34540   1.726   1.004   7.504  0.4268 -0.0610 -0.0004
 7635SOL    HW134541   1.659   0.937   7.510  1.5266 -1.4419 -2.8685
 7635SOL    HW234542   1.733   1.009   7.408  2.8151  4.3862  0.3806
 7636SOL     OW34543   1.848   3.932   9.415 -0.0839  0.2458 -0.3566
 7636SOL    HW134544   1.890   3.888   9.341 -3.2284  1.4132 -2.8735
 7636SOL    HW234545   1.898   4.013   9.423  1.1055 -0.3877 -1.3678
 7637SOL     OW34546   0.051   4.126   7.033  0.2614  0.0253 -0.0236
 7637SOL    HW134547   0.123   4.065   7.049  1.4400  1.6029  0.6551
 7637SOL    HW234548   0.051   4.167   7.119  1.2755  1.3637 -0.6645
 7638SOL     OW34549   1.755   2.493   6.698 -0.5389  0.5701 -0.0871
 7638SOL    HW134550   1.701   2.453   6.630  0.3079 -0.9379  0.1108
 7638SOL    HW234551   1.717   2.452   6.775  1.0169 -0.0629  0.3495
 7639SOL     OW34552   3.615   4.506   2.465 -0.5749 -0.1192 -0.2569
 7639SOL    HW134553   3.656   4.427   2.429 -0.8204 -0.0876 -0.6124
 7639SOL    HW234554   3.561   4.525   2.388 -0.3538  0.5373 -0.2560
 7640SOL     OW34555   4.471   1.122  11.214  0.1043  0.7909 -0.0668
 7640SOL    HW134556   4.548   1.077  11.178 -0.8107 -1.2712  0.5455
 7640SOL    HW234557   4.481   1.114  11.308  2.3401 -2.7387 -0.6112
 7641SOL     OW34558   3.408   0.810   0.089 -0.3403 -0.1268 -0.7154
 7641SOL    HW134559   3.493   0.823   0.047 -0.8501  0.0161 -1.7336
 7641SOL    HW234560   3.423   0.807   0.183 -0.2843 -1.0380 -0.7611
 7642SOL     OW34561   1.083   4.445   8.620 -0.5264 -0.0947  0.7648
 7642SOL    HW134562   1.097   4.487   8.705 -1.0385 -0.0725  0.8383
 7642SOL    HW234563   1.145   4.374   8.636 -1.7995 -1.5067 -0.5617
 7643SOL     OW34564   4.069   0.961  12.939 -0.2083 -0.0734 -0.1635
 7643SOL    HW134565   4.069   1.024  12.867 -0.8446 -0.8586 -0.8538
 7643SOL    HW234566   4.163   0.947  12.951 -0.4911 -1.6727  0.2990
 7644SOL     OW34567   2.172   2.906   2.935 -0.3294  0.3816 -0.2341
 7644SOL    HW134568   2.254   2.934   2.975  0.4657 -2.6716  0.3083
 7644SOL    HW234569   2.168   2.967   2.862 -5.0104  0.4936  0.1298
 7645SOL     OW34570   2.622   4.315   5.233 -0.1454 -0.1368 -0.1288
 7645SOL    HW134571   2.561   4.248   5.202  0.5147  0.1834 -2.1515
 7645SOL    HW234572   2.677   4.265   5.292 -0.3349 -0.6953 -0.4243
 7646SOL     OW34573   2.567   1.270   2.148  0.5309  0.3607  0.1237
 7646SOL    HW134574   2.630   1.214   2.193 -0.9338 -1.3327  0.0735
 7646SOL    HW234575   2.489   1.216   2.162 -1.4265  2.5291 -2.3508
 7647SOL     OW34576   3.964   1.808   2.519  0.4436  0.7444 -0.3911
 7647SOL    HW134577   3.979   1.891   2.563 -0.9265  1.7176 -1.7742
 7647SOL    HW234578   4.005   1.826   2.434  0.5816  0.8401 -0.3030
 7648SOL     OW34579   4.676   0.620   8.666 -0.3095 -0.7323  0.6017
 7648SOL    HW134580   4.691   0.708   8.631  1.0304 -0.8825  0.8271
 7648SOL    HW234581   4.592   0.636   8.709 -1.1050 -0.7279 -0.9600
 7649SOL     OW34582   1.691   4.671   9.113 -1.1256  0.5776  0.0588
 7649SOL    HW134583   1.786   4.673   9.109 -1.1091  0.7595  0.5766
 7649SOL    HW234584   1.676   0.012   9.055 -2.3400 -0.2998 -0.7718
 7650SOL     OW34585   2.294   1.081  15.103 -0.1579 -0.5290  0.0348
 7650SOL    HW134586   2.249   1.000  15.078 -0.8609 -0.0431 -0.2653
 7650SOL    HW234587   2.331   1.045  15.184 -1.7972 -0.2744  0.9061
 7651SOL     OW34588   0.113   0.682   7.586 -0.4863  0.6173  0.1735
 7651SOL    HW134589   0.169   0.617   7.544 -0.4469  0.8021 -0.0569
 7651SOL    HW234590   0.139   0.657   7.675  0.1480  0.2296 -0.1281
 7652SOL     OW34591   2.850   3.452   3.822  0.4258  0.1055 -0.4210
 7652SOL    HW134592   2.873   3.382   3.883  2.0747 -1.0309 -2.3901
 7652SOL    HW234593   2.778   3.486   3.877  2.5477  0.3609  2.1960
 7653SOL     OW34594   1.782   4.234   2.774 -0.1108 -0.3914  0.1387
 7653SOL    HW134595   1.834   4.310   2.750 -2.7567  0.7337 -1.9579
 7653SOL    HW234596   1.787   4.234   2.870  1.5544 -1.5477  0.0538
 7654SOL     OW34597   4.498   0.725   2.281 -0.4640 -0.1849 -0.0388
 7654SOL    HW134598   4.441   0.778   2.224 -1.8101 -0.1208  1.3700
 7654SOL    HW234599   4.506   0.785   2.355  0.2954  1.4817 -1.4626
 7655SOL     OW34600   4.428   2.990   7.847  0.0903 -0.4675 -0.6167
 7655SOL    HW134601   4.393   2.906   7.878 -1.9225 -0.1887 -2.1702
 7655SOL    HW234602   4.355   3.011   7.790  0.5359  1.3027 -0.5318
 7656SOL     OW34603   1.911   3.976  15.000  0.0247  0.6548  0.0352
 7656SOL    HW134604   1.897   3.968  15.095 -0.6104 -0.3588 -0.1388
 7656SOL    HW234605   1.821   4.004  14.982  0.2497  0.8170 -0.8073
 7657SOL     OW34606   4.659   4.701   7.742 -0.6413  0.2196  0.3632
 7657SOL    HW134607   4.601   0.020   7.798  0.2651  1.3222  0.2549
 7657SOL    HW234608   4.649   4.613   7.778  0.3046 -1.3472 -3.3007
 7658SOL     OW34609   3.756   4.048   4.194 -0.3681  0.0500 -0.2216
 7658SOL    HW134610   3.822   3.984   4.221 -0.6350 -0.1940 -0.1380
 7658SOL    HW234611   3.771   4.122   4.253  1.0024 -0.9486  0.6837
 7659SOL     OW34612   4.425   4.346   4.503  0.0487 -0.4516  0.4124
 7659SOL    HW134613   4.432   4.263   4.456 -1.0390  0.9629 -2.2883
 7659SOL    HW234614   4.479   4.320   4.577  1.9691 -0.1414 -0.8860
 7660SOL     OW34615   0.121   2.447   9.069  0.6409  0.5668 -0.5709
 7660SOL    HW134616   0.043   2.484   9.029 -0.5685 -3.1036 -1.5808
 7660SOL    HW234617   0.183   2.521   9.071  1.2074  0.1004 -0.6972
 7661SOL     OW34618   0.475   1.573   4.722  0.2994 -0.1945  0.2320
 7661SOL    HW134619   0.545   1.606   4.666 -0.0607 -0.4547 -0.3781
 7661SOL    HW234620   0.398   1.597   4.670  1.9486  1.5983 -1.4028
 7662SOL     OW34621   1.536   3.968  11.155 -0.5404  0.0992  0.3147
 7662SOL    HW134622   1.624   3.992  11.185 -0.3174 -0.7335  0.3226
 7662SOL    HW234623   1.494   4.043  11.199 -0.7564  0.9093 -1.2901
 7663SOL     OW34624   4.347   2.276   2.276 -0.3535  0.4255  0.4260
 7663SOL    HW134625   4.399   2.342   2.230  0.7978 -0.4852  0.4132
 7663SOL    HW234626   4.346   2.310   2.365  0.5053  2.4462 -0.3446
 7664SOL     OW34627   0.929   3.143   3.271 -0.6114  0.3346  0.4231
 7664SOL    HW134628   0.917   3.149   3.176 -0.4743 -0.3603  0.3611
 7664SOL    HW234629   0.959   3.052   3.273  1.5170  1.0236 -0.6510
 7665SOL     OW34630   1.801   0.096   5.769  0.1596  0.4986  0.6735
 7665SOL    HW134631   1.709   0.087   5.793 -0.2903  0.1137 -1.2156
 7665SOL    HW234632   1.843   0.099   5.855  2.0492  2.6453 -0.3506
 7666SOL     OW34633   2.836   3.255  12.650  0.3055  0.1914 -0.4747
 7666SOL    HW134634   2.810   3.327  12.593 -1.5313 -1.5082 -1.7954
 7666SOL    HW234635   2.762   3.258  12.710  0.0139  2.9788 -0.9499
 7667SOL     OW34636   4.041   0.883   3.265  0.6951 -0.0243  0.2203
 7667SOL    HW134637   4.054   0.955   3.204 -1.6301 -1.3786 -1.9210
 7667SOL    HW234638   3.962   0.899   3.317  1.1749  4.0072 -0.3452
 7668SOL     OW34639   0.676   3.339   7.434  0.3158  0.2004  0.3295
 7668SOL    HW134640   0.751   3.280   7.440  1.0106  0.9102 -1.8017
 7668SOL    HW234641   0.617   3.292   7.494 -0.6268  0.6097 -0.2787
 7669SOL     OW34642   0.002   2.206   2.485 -0.4656  0.0484  0.2185
 7669SOL    HW134643   4.664   2.217   2.546  0.2069  0.6227  0.8991
 7669SOL    HW234644   4.684   2.181   2.409  0.2378  1.9441 -0.8912
 7670SOL     OW34645   1.137   0.249   1.342 -0.0124 -0.0614  0.4493
 7670SOL    HW134646   1.069   0.229   1.406  1.1233 -3.5016  0.5858
 7670SOL    HW234647   1.117   0.340   1.320 -0.2677  0.0720  1.2338
 7671SOL     OW34648   4.548   3.246   7.054 -0.6536 -0.1011 -0.1484
 7671SOL    HW134649   4.600   3.263   7.133  0.7658 -2.9784 -0.4680
 7671SOL    HW234650   4.583   3.158   7.036  0.2705 -0.1101  1.6512
 7672SOL     OW34651   3.242   1.485   6.917  0.1764  0.0235  0.6063
 7672SOL    HW134652   3.193   1.403   6.905  0.5145  0.1753 -1.7415
 7672SOL    HW234653   3.333   1.463   6.936  0.4668  0.7812  0.0527
 7673SOL     OW34654   4.390   4.279   7.422 -0.2639  0.0076 -0.1973
 7673SOL    HW134655   4.458   4.329   7.466  1.2622 -0.8734 -1.5447
 7673SOL    HW234656   4.364   4.229   7.499  0.4519  1.6153  1.0934
 7674SOL     OW34657   2.715   2.925   7.242  0.1687 -0.4196  0.3517
 7674SOL    HW134658   2.675   2.882   7.317  1.2941  0.2336  1.3178
 7674SOL    HW234659   2.707   2.848   7.186  1.3966 -0.4565  0.2252
 7675SOL     OW34660   2.891   4.393   5.576  0.5625 -0.7814  0.4018
 7675SOL    HW134661   2.804   4.389   5.535  0.2528  0.1856  0.9624
 7675SOL    HW234662   2.944   4.355   5.506  1.6929 -0.0097  0.8437
 7676SOL     OW34663   4.193   2.978   2.292 -0.7682 -0.4545  0.3529
 7676SOL    HW134664   4.159   2.964   2.203  0.1731  1.0043 -0.2430
 7676SOL    HW234665   4.159   3.066   2.310 -0.5281 -0.4709  0.8655
 7677SOL     OW34666   3.764   0.162   6.508  0.0597 -0.1418 -0.4138
 7677SOL    HW134667   3.763   0.167   6.603  0.6743  1.1035 -0.4754
 7677SOL    HW234668   3.845   0.112   6.507  0.9284  1.2957 -0.9096
 7678SOL     OW34669   2.017   0.464   3.651  0.6605 -0.7804 -0.3211
 7678SOL    HW134670   2.028   0.533   3.586  0.5722  0.7616  1.2638
 7678SOL    HW234671   2.111   0.456   3.669  1.0288 -0.4555 -2.1648
 7679SOL     OW34672   0.587   3.045   3.259 -0.0564 -0.0893  0.1970
 7679SOL    HW134673   0.496   3.074   3.271 -0.7833 -2.1651 -0.4026
 7679SOL    HW234674   0.632   3.114   3.308 -1.8941 -0.0064  1.7890
 7680SOL     OW34675   2.464   3.625  11.640  0.4535  0.1378  0.4073
 7680SOL    HW134676   2.403   3.605  11.569 -0.3581  1.0241  0.8557
 7680SOL    HW234677   2.440   3.556  11.702  1.0745  0.3697  0.8999
 7681SOL     OW34678   3.399   2.342   8.470 -0.5181  0.3282  0.0637
 7681SOL    HW134679   3.313   2.378   8.490 -0.6569 -0.4094  0.7656
 7681SOL    HW234680   3.395   2.250   8.496  0.4082 -0.0814 -1.2127
 7682SOL     OW34681   2.182   3.082   2.732  0.0916 -0.2497 -0.0807
 7682SOL    HW134682   2.274   3.107   2.726  0.2356 -0.7344  0.1873
 7682SOL    HW234683   2.165   3.037   2.650  0.7175 -0.6702  0.0283
 7683SOL     OW34684   0.896   3.175   6.114 -0.3034 -0.7098  0.1639
 7683SOL    HW134685   0.940   3.246   6.161  2.8717 -1.1436 -2.1479
 7683SOL    HW234686   0.884   3.201   6.022  1.0443  0.3364  0.2773
 7684SOL     OW34687   4.466   2.363   7.033  0.0575  0.4729  0.0655
 7684SOL    HW134688   4.393   2.322   7.078  1.3923 -2.3604 -0.3010
 7684SOL    HW234689   4.509   2.295   6.981  0.0099  2.0444 -2.0534
 7685SOL     OW34690   0.153   3.377  15.385  0.0573 -0.2398  0.3055
 7685SOL    HW134691   0.147   3.450  15.324  1.0656 -0.8586 -0.5432
 7685SOL    HW234692   0.247   3.365  15.400 -0.1583 -0.0856  1.7600
 7686SOL     OW34693   3.644   0.668  12.681  0.6258  0.4750  0.2974
 7686SOL    HW134694   3.658   0.715  12.763 -0.9686 -0.6162  1.1867
 7686SOL    HW234695   3.583   0.597  12.703  1.3566 -0.0241  0.7125
 7687SOL     OW34696   0.670   1.308   2.388 -0.3575 -0.0371 -0.4556
 7687SOL    HW134697   0.631   1.247   2.326  1.1123 -0.4456 -0.9798
 7687SOL    HW234698   0.709   1.239   2.442  2.6552 -0.6044 -3.3963
 7688SOL     OW34699   0.566   3.809  12.344  0.1830  0.2680 -0.0797
 7688SOL    HW134700   0.591   3.874  12.278  2.0301  1.3461  1.6740
 7688SOL    HW234701   0.500   3.757  12.298 -0.6767  0.2422  1.1723
 7689SOL     OW34702   4.645   0.947  11.157 -0.3550  0.4965 -0.0514
 7689SOL    HW134703   4.732   0.907  11.160 -1.2659 -1.3885  0.9667
 7689SOL    HW234704   4.605   0.874  11.110 -0.2836  0.4467 -0.0338
 7690SOL     OW34705   2.530   1.927   2.422 -0.1527  0.1945  0.5480
 7690SOL    HW134706   2.500   1.904   2.510  1.1135  0.3718  1.0346
 7690SOL    HW234707   2.589   1.998   2.450  1.1194 -0.0459 -1.5420
 7691SOL     OW34708   0.276   2.568   6.878  0.0501 -0.2682 -0.5022
 7691SOL    HW134709   0.243   2.646   6.921  0.2863 -0.7867  0.6320
 7691SOL    HW234710   0.280   2.591   6.785 -1.1107  0.6601 -0.3129
 7692SOL     OW34711   4.673   3.592   2.152  0.5138  0.5336 -0.0636
 7692SOL    HW134712   0.011   3.631   2.202  0.5144  0.2197  0.1811
 7692SOL    HW234713   4.631   3.672   2.121 -0.5523  0.2401  0.6384
 7693SOL     OW34714   2.743   0.851   5.377 -0.2983  0.2157  0.0975
 7693SOL    HW134715   2.687   0.927   5.394 -0.6921  0.1848 -1.0988
 7693SOL    HW234716   2.807   0.870   5.446 -0.4837  2.0555 -0.2621
 7694SOL     OW34717   4.594   2.952   5.254 -0.0991 -0.0671  0.3197
 7694SOL    HW134718   4.537   2.886   5.295  0.8087 -2.2816 -2.0150
 7694SOL    HW234719   4.662   2.893   5.222  0.3964 -0.1975  1.5911
 7695SOL     OW34720   2.991   3.325   7.768 -0.0440  0.0535  0.2860
 7695SOL    HW134721   2.996   3.232   7.742  1.1800  0.0451  0.5558
 7695SOL    HW234722   3.051   3.315   7.841  0.7334  0.8145 -0.2467
 7696SOL     OW34723   4.613   0.427   4.074 -0.3315 -0.9722  0.1276
 7696SOL    HW134724   4.568   0.362   4.128 -0.8922  2.1284  3.4180
 7696SOL    HW234725   4.617   0.503   4.132  2.6916  0.2326 -1.6531
 7697SOL     OW34726   0.270   3.887  16.315  0.4580 -0.0940  0.2101
 7697SOL    HW134727   0.300   3.866  16.226  0.6355 -0.6512  0.4034
 7697SOL    HW234728   0.290   3.980  16.328 -2.4578  0.5003  0.3587
 7698SOL     OW34729   1.082   3.029   1.539 -0.0476  0.1928 -0.4422
 7698SOL    HW134730   1.099   2.935   1.546 -0.0906  0.2664  0.6028
 7698SOL    HW234731   1.042   3.048   1.624  1.5646  0.0805  0.3525
 7699SOL     OW34732   2.799   2.771  16.821 -0.2086  0.2179  0.0312
 7699SOL    HW134733   2.747   2.701  16.781 -1.4549 -1.0306  3.8496
 7699SOL    HW234734   2.883   2.726  16.812 -0.5065  0.1601 -2.5406
 7700SOL     OW34735   1.104   3.668  16.649 -0.2138 -0.0621  0.0194
 7700SOL    HW134736   1.054   3.601  16.601  1.1769 -0.9145 -0.2532
 7700SOL    HW234737   1.031   3.730  16.650 -0.3588 -0.2601  1.8664
 7701SOL     OW34738   2.732   1.503   4.629  0.2759 -0.1235  0.0483
 7701SOL    HW134739   2.714   1.426   4.574 -0.4127  0.6657 -0.8129
 7701SOL    HW234740   2.808   1.466   4.674 -0.4559 -0.6152  0.8966
 7702SOL     OW34741   1.667   3.500  16.411 -0.1030  0.3299 -0.2461
 7702SOL    HW134742   1.722   3.540  16.478 -0.7660 -0.1759  0.6222
 7702SOL    HW234743   1.667   3.407  16.437  1.2183  0.1072 -1.0670
 7703SOL     OW34744   4.085   2.008   5.573  0.0384 -0.5156  1.0350
 7703SOL    HW134745   4.043   2.092   5.594  1.3695 -0.3204  2.8547
 7703SOL    HW234746   4.048   1.954   5.642  1.4683 -1.4176  1.0905
 7704SOL     OW34747   1.831   1.989   8.197 -0.4055 -0.5279  0.4457
 7704SOL    HW134748   1.761   1.934   8.232 -0.1163 -1.1463  0.0539
 7704SOL    HW234749   1.829   2.064   8.257 -1.0270 -1.0804  1.1036
 7705SOL     OW34750   4.104   3.199   3.217  0.1068 -0.0167  0.1301
 7705SOL    HW134751   4.077   3.290   3.227  0.9163  0.3877 -1.3716
 7705SOL    HW234752   4.117   3.195   3.122  0.1111  1.3312  0.0739
 7706SOL     OW34753   4.519   0.947   8.716 -0.2364  0.5361  0.5498
 7706SOL    HW134754   4.560   0.886   8.778  3.2642  1.8618 -0.4583
 7706SOL    HW234755   4.535   1.029   8.763 -0.4609  1.9939 -1.9561
 7707SOL     OW34756   2.173   2.261   2.769 -0.8294 -0.1887 -0.2955
 7707SOL    HW134757   2.175   2.282   2.676 -3.4635  1.2642 -0.0255
 7707SOL    HW234758   2.265   2.247   2.791 -0.6321 -1.7455 -2.1348
 7708SOL     OW34759   4.553   3.297  11.598  0.0313 -0.4119  0.6573
 7708SOL    HW134760   4.473   3.245  11.610  0.4020 -0.9436  0.8403
 7708SOL    HW234761   4.541   3.355  11.523 -0.7917  1.0176  1.8806
 7709SOL     OW34762   1.715   3.519   6.596  0.1093 -0.1882 -0.8104
 7709SOL    HW134763   1.729   3.516   6.502  1.1798 -3.0492 -0.5506
 7709SOL    HW234764   1.625   3.487   6.601  0.4511 -0.7944  1.8743
 7710SOL     OW34765   3.452   4.241  10.811 -0.1500  0.2402 -0.5682
 7710SOL    HW134766   3.380   4.192  10.770 -0.8534  1.0896 -0.3456
 7710SOL    HW234767   3.513   4.264  10.740  1.2016  0.2015  0.5756
 7711SOL     OW34768   2.008   0.370  13.350 -0.1629  0.1857  0.0439
 7711SOL    HW134769   1.923   0.325  13.353 -0.5461  0.9519  0.5739
 7711SOL    HW234770   2.027   0.375  13.256  2.1353  1.5619  0.5858
 7712SOL     OW34771   1.872   2.248  13.179 -0.1497 -0.2609 -0.3780
 7712SOL    HW134772   1.930   2.298  13.122  0.2545  1.3277  1.4071
 7712SOL    HW234773   1.935   2.211  13.241 -0.3278  0.3927  0.1968
 7713SOL     OW34774   2.587   2.074   6.999 -0.2597 -0.1388 -0.1632
 7713SOL    HW134775   2.566   2.152   7.051 -1.6192  0.4935 -1.6526
 7713SOL    HW234776   2.500   2.036   6.990 -0.8324  0.4664  2.8130
 7714SOL     OW34777   0.451   2.221   5.769 -0.4864 -0.3273  0.0410
 7714SOL    HW134778   0.390   2.295   5.766  1.0760  0.9103 -1.7510
 7714SOL    HW234779   0.398   2.145   5.742 -0.7897  0.3496 -1.2918
 7715SOL     OW34780   4.591   0.881   2.509 -0.0298  0.1728 -0.4081
 7715SOL    HW134781   4.657   0.863   2.576  0.0677  0.1693 -0.5058
 7715SOL    HW234782   4.529   0.939   2.553 -1.4369 -1.4708 -0.2039
 7716SOL     OW34783   4.193   4.475   4.420  0.3801  0.4394 -0.4315
 7716SOL    HW134784   4.191   4.471   4.324 -0.5838  1.9216 -0.4750
 7716SOL    HW234785   4.269   4.421   4.439 -0.3380 -0.7042 -0.7969
 7717SOL     OW34786   2.524   3.856   8.000 -0.5483  0.0258  0.1448
 7717SOL    HW134787   2.552   3.914   8.071 -0.0416 -0.7968  0.6274
 7717SOL    HW234788   2.559   3.773   8.034 -2.8662 -0.5829  1.0880
 7718SOL     OW34789   3.384   2.969   4.961  0.3145 -0.1245  0.2082
 7718SOL    HW134790   3.304   2.979   4.908  0.5295 -2.3409 -0.5449
 7718SOL    HW234791   3.432   2.932   4.887 -1.6112 -0.6269 -0.8098
 7719SOL     OW34792   2.204   0.779   6.058  0.3744 -0.3795 -0.1804
 7719SOL    HW134793   2.155   0.702   6.087  3.6342 -1.2805  2.8820
 7719SOL    HW234794   2.154   0.849   6.100 -1.3854 -0.7762 -1.6129
 7720SOL     OW34795   1.500   4.697   8.025  0.1217  0.0605 -0.4999
 7720SOL    HW134796   1.409   4.703   8.052  0.7058 -0.3280  1.6060
 7720SOL    HW234797   1.521   4.604   8.024  0.3787  0.1085 -0.0943
 7721SOL     OW34798   0.981   3.194   0.708 -0.1350 -0.7114  0.3784
 7721SOL    HW134799   0.939   3.278   0.729 -0.9003 -1.4086  1.6793
 7721SOL    HW234800   0.996   3.202   0.614  1.4564 -1.5169  0.5685
 7722SOL     OW34801   1.056   1.321   2.841  0.5236 -0.0265  0.8867
 7722SOL    HW134802   1.061   1.269   2.761  1.1675  0.3179  0.7096
 7722SOL    HW234803   1.063   1.408   2.800  0.6337  0.6847  2.4018
 7723SOL     OW34804   2.147   1.463  14.915 -0.0697 -0.2678 -0.4378
 7723SOL    HW134805   2.065   1.510  14.900  0.8252  1.4143 -0.0312
 7723SOL    HW234806   2.136   1.425  15.002 -0.2212  1.0993  0.1246
 7724SOL     OW34807   1.471   1.561   0.583 -0.2847  0.3163  0.1889
 7724SOL    HW134808   1.513   1.500   0.522 -2.8921 -0.2197 -1.0469
 7724SOL    HW234809   1.533   1.553   0.656 -1.3917 -0.4492  1.0364
 7725SOL     OW34810   2.792   0.073  15.119  0.7339  0.2348 -0.2626
 7725SOL    HW134811   2.814   0.165  15.105  3.1181 -0.3356 -0.3721
 7725SOL    HW234812   2.866   0.033  15.073  0.8097  0.7625 -0.6032
 7726SOL     OW34813   0.747   3.363   3.123  0.2320  0.3460 -0.5082
 7726SOL    HW134814   0.749   3.414   3.204  0.3905 -1.3819  0.5608
 7726SOL    HW234815   0.655   3.374   3.097 -0.3400 -0.3116  1.2396
 7727SOL     OW34816   2.869   0.580   1.371  0.4765  0.5298 -0.4892
 7727SOL    HW134817   2.934   0.587   1.441 -1.0466 -2.2319  1.2199
 7727SOL    HW234818   2.804   0.521   1.409  1.8604 -1.6253 -1.4360
 7728SOL     OW34819   2.746   0.702   3.014 -0.0639  0.3695 -0.0104
 7728SOL    HW134820   2.688   0.726   2.942  0.4719  1.5597 -0.0377
 7728SOL    HW234821   2.683   0.686   3.084  1.6986 -1.8524  1.0900
 7729SOL     OW34822   4.573   0.181   2.123  0.0065 -0.3698  0.3530
 7729SOL    HW134823   4.483   0.205   2.144  0.2903  1.2299 -0.3095
 7729SOL    HW234824   4.610   0.269   2.125  0.3382 -0.4986 -0.2906
 7730SOL     OW34825   3.658   0.504   3.128 -0.4032  0.0087  0.3187
 7730SOL    HW134826   3.603   0.476   3.055  0.5667 -0.3670 -0.2716
 7730SOL    HW234827   3.638   0.597   3.118  1.8947  0.1997 -2.5140
 7731SOL     OW34828   3.020   4.170  13.108  0.5836  0.2927  0.0571
 7731SOL    HW134829   2.954   4.101  13.117 -0.3338  1.3176  1.1695
 7731SOL    HW234830   3.048   4.156  13.018  1.3005 -0.2477  0.3583
 7732SOL     OW34831   0.238   3.648   6.893 -0.8544 -0.2504  0.1436
 7732SOL    HW134832   0.253   3.594   6.815 -2.8303 -1.1914  0.4166
 7732SOL    HW234833   0.293   3.606   6.959 -1.2072 -0.7667  0.1129
 7733SOL     OW34834   3.967   3.741   9.129  0.2396  0.2561 -0.6477
 7733SOL    HW134835   3.905   3.728   9.200 -0.4302 -1.0387 -1.4701
 7733SOL    HW234836   3.914   3.773   9.056 -1.8642  0.2163  0.8566
 7734SOL     OW34837   4.083   2.184   5.158  0.0238 -0.0050 -0.0455
 7734SOL    HW134838   4.068   2.226   5.243  0.2028 -1.9127  0.9342
 7734SOL    HW234839   3.995   2.152   5.139  0.2322 -1.1826  0.9639
 7735SOL     OW34840   3.800   3.540   7.810 -0.4416  0.2574  0.2023
 7735SOL    HW134841   3.781   3.629   7.839  1.5900  1.1355 -1.1785
 7735SOL    HW234842   3.714   3.502   7.823 -0.6785  1.0745  1.0294
 7736SOL     OW34843   3.651   2.741  16.576 -0.3359 -0.0573 -0.4548
 7736SOL    HW134844   3.563   2.779  16.565 -0.2362  0.3328  0.0700
 7736SOL    HW234845   3.688   2.730  16.489  0.6602  0.0381 -0.0423
 7737SOL     OW34846   2.816   3.025  15.280 -0.1873  0.0673 -0.0645
 7737SOL    HW134847   2.791   3.115  15.262 -0.0084  0.0612 -0.3460
 7737SOL    HW234848   2.865   3.007  15.200 -0.0343 -1.3171  0.3459
 7738SOL     OW34849   1.041   1.010  15.795  0.2339 -0.2616  0.4274
 7738SOL    HW134850   1.078   1.006  15.707 -1.3582  3.0207 -0.3888
 7738SOL    HW234851   1.057   1.099  15.824 -0.9221 -1.0392  3.4548
 7739SOL     OW34852   4.097   0.954   6.982  0.3439 -0.1151  0.0886
 7739SOL    HW134853   4.090   0.865   7.017  1.0210 -0.1573  0.1249
 7739SOL    HW234854   4.160   0.995   7.042  0.3638  0.5765 -0.4162
 7740SOL     OW34855   4.053   1.243   4.706  0.5178 -0.0273  0.1217
 7740SOL    HW134856   3.974   1.188   4.709  0.5652 -0.0439  1.1458
 7740SOL    HW234857   4.021   1.328   4.736  0.4365  0.2228 -0.6756
 7741SOL     OW34858   2.810   4.054   6.218 -0.2302  0.0444 -0.2416
 7741SOL    HW134859   2.879   4.120   6.210  0.0807 -0.2757 -0.1950
 7741SOL    HW234860   2.827   4.026   6.308  0.5573 -0.4194 -0.5457
 7742SOL     OW34861   4.373   1.065   5.747  0.4040 -1.0723  0.1646
 7742SOL    HW134862   4.336   0.980   5.724 -2.6364  0.5475 -0.9305
 7742SOL    HW234863   4.458   1.056   5.702  0.7916  0.1443  0.6607
 7743SOL     OW34864   3.769   2.532   3.569  0.0751  0.0352  0.2682
 7743SOL    HW134865   3.849   2.575   3.600 -0.3339  0.7202  0.3796
 7743SOL    HW234866   3.714   2.548   3.645  0.1627 -2.7977  0.9527
 7744SOL     OW34867   1.113   1.194   6.921 -0.0342 -0.0609  0.7117
 7744SOL    HW134868   1.171   1.123   6.947 -2.6220 -1.4800  2.6016
 7744SOL    HW234869   1.164   1.245   6.858  1.6509 -1.2644  1.1287
 7745SOL     OW34870   3.454   3.427   5.639 -0.4981 -0.5180  0.5882
 7745SOL    HW134871   3.448   3.478   5.720  0.3053 -1.7963  1.4412
 7745SOL    HW234872   3.366   3.431   5.602  0.1358  0.9497 -0.7400
 7746SOL     OW34873   3.522   1.188  14.239  0.2068 -0.2244 -0.4589
 7746SOL    HW134874   3.554   1.228  14.319 -1.3848  0.2822 -0.0596
 7746SOL    HW234875   3.573   1.245  14.182  2.7004 -0.3698  1.6277
 7747SOL     OW34876   2.452   2.851   5.537 -0.1168  0.1432 -1.0826
 7747SOL    HW134877   2.408   2.802   5.468 -1.4356 -0.7443  0.3711
 7747SOL    HW234878   2.412   2.937   5.530  1.9530  1.0612 -1.4966
 7748SOL     OW34879   4.273   0.006   5.161  0.0450  0.0398  0.2936
 7748SOL    HW134880   4.251   4.671   5.100  1.6213  1.0057 -1.3731
 7748SOL    HW234881   4.190   0.025   5.204  0.1978 -0.1809  0.6860
 7749SOL     OW34882   1.181   1.601   3.399  0.4352 -0.0001  0.2908
 7749SOL    HW134883   1.149   1.691   3.407 -0.7344 -0.4246  0.4680
 7749SOL    HW234884   1.106   1.564   3.446  0.8596  0.8605  1.6408
 7750SOL     OW34885   3.734   2.785   7.282 -0.1330  0.1890 -0.0078
 7750SOL    HW134886   3.644   2.795   7.312 -0.3882  1.8331 -1.3192
 7750SOL    HW234887   3.715   2.720   7.214 -0.0830  0.4927 -0.3122
 7751SOL     OW34888   4.275   2.206   7.175 -0.4721  0.4315 -0.0439
 7751SOL    HW134889   4.260   2.148   7.249 -0.8388  1.8732  1.0240
 7751SOL    HW234890   4.195   2.259   7.173 -1.3768 -0.9060  0.6762
 7752SOL     OW34891   1.994   1.297   5.563  0.1781 -0.1584 -0.2953
 7752SOL    HW134892   1.912   1.253   5.542 -0.1427  0.0842  0.4554
 7752SOL    HW234893   1.984   1.351   5.485 -2.1827  1.2375  0.9643
 7753SOL     OW34894   1.931   1.505   2.157  0.0859  0.7416 -0.0477
 7753SOL    HW134895   1.885   1.430   2.119  2.2954 -0.0257 -1.1948
 7753SOL    HW234896   1.896   1.499   2.245  3.3569 -1.6891  1.0870
 7754SOL     OW34897   3.354   3.091  15.632 -0.4914  0.3537 -0.4414
 7754SOL    HW134898   3.351   3.093  15.537 -0.2285 -0.1215 -0.4591
 7754SOL    HW234899   3.381   3.004  15.661  0.6218  1.1140  0.8007
 7755SOL     OW34900   1.879   0.201   1.756 -0.2058 -0.0866 -0.2334
 7755SOL    HW134901   1.855   0.153   1.677 -0.9165  0.4481 -0.3459
 7755SOL    HW234902   1.872   0.290   1.721 -1.2271 -0.2835 -0.5265
 7756SOL     OW34903   1.878   0.949   3.348  0.4070 -0.0718 -0.3653
 7756SOL    HW134904   1.869   1.034   3.305  0.8344 -0.5653 -1.4227
 7756SOL    HW234905   1.802   0.904   3.311  1.2077 -1.9646  0.3273
 7757SOL     OW34906   0.704   4.103  17.481 -0.0878 -0.0328  0.4607
 7757SOL    HW134907   0.641   4.103  17.554  0.0195 -0.8235  0.5452
 7757SOL    HW234908   0.650   4.122  17.404 -1.0634 -2.1708  0.6337
 7758SOL     OW34909   2.682   0.235   3.598  0.1458 -0.2788 -0.1987
 7758SOL    HW134910   2.719   0.149   3.620  0.7150  0.4602  1.7822
 7758SOL    HW234911   2.633   0.217   3.518  0.8719  0.5994 -0.8544
 7759SOL     OW34912   1.583   0.766   5.254 -0.4320  0.3589  0.1026
 7759SOL    HW134913   1.667   0.801   5.222 -0.9807  0.3577 -1.3290
 7759SOL    HW234914   1.609   0.739   5.342 -1.2854 -0.0190  0.2325
 7760SOL     OW34915   1.310   3.380  10.087  0.0458 -0.2458  0.2034
 7760SOL    HW134916   1.352   3.330  10.017  3.5765  0.5100  1.8095
 7760SOL    HW234917   1.221   3.351  10.066  0.7808 -0.7588 -2.2142
 7761SOL     OW34918   0.612   1.559   6.796  0.1937  0.1951  0.3213
 7761SOL    HW134919   0.536   1.508   6.768  1.8376 -2.0309 -0.0744
 7761SOL    HW234920   0.585   1.643   6.759  1.1381 -1.1821 -3.4360
 7762SOL     OW34921   3.949   3.461  11.173 -0.1430 -0.0551 -0.0493
 7762SOL    HW134922   3.917   3.518  11.242 -1.1804 -0.7360  0.0315
 7762SOL    HW234923   3.931   3.515  11.096  1.5366 -2.0517 -1.8417
 7763SOL     OW34924   1.561   3.268   2.338 -0.2735 -0.6645  0.3326
 7763SOL    HW134925   1.547   3.173   2.337 -5.1025  0.0606  0.7648
 7763SOL    HW234926   1.595   3.287   2.250 -1.6787 -2.0342 -0.4963
 7764SOL     OW34927   2.515   4.555  16.144  0.0758  0.1245  0.3531
 7764SOL    HW134928   2.427   4.531  16.114 -0.7657  1.2342  1.9429
 7764SOL    HW234929   2.538   4.471  16.184 -0.0041 -0.5883 -1.1204
 7765SOL     OW34930   4.487   0.756   5.916 -0.5096  0.2480 -0.5462
 7765SOL    HW134931   4.468   0.715   6.000 -4.3328 -0.6364 -1.8479
 7765SOL    HW234932   4.517   0.839   5.952 -2.6443 -0.0056  1.7645
 7766SOL     OW34933   0.125   1.165   1.578  0.2056 -0.1104 -0.1382
 7766SOL    HW134934   0.069   1.220   1.633  0.2503  0.5512 -0.7484
 7766SOL    HW234935   0.062   1.108   1.533 -0.0612  1.0209 -1.1968
 7767SOL     OW34936   1.563   2.095   6.116 -0.3305 -0.1384 -0.7346
 7767SOL    HW134937   1.643   2.044   6.103 -1.5394 -2.3640  0.5643
 7767SOL    HW234938   1.528   2.063   6.199 -1.7131 -1.0114 -1.6503
 7768SOL     OW34939   2.316   1.812   3.736  0.4439 -0.2289  0.4698
 7768SOL    HW134940   2.411   1.811   3.721  0.3088 -3.7196 -0.0520
 7768SOL    HW234941   2.307   1.816   3.832 -0.0248 -1.7946  0.4855
 7769SOL     OW34942   3.758   0.195   6.768 -0.6622  0.2215  0.3512
 7769SOL    HW134943   3.789   0.159   6.851 -1.7321  1.1563  1.1639
 7769SOL    HW234944   3.668   0.220   6.792 -0.4728  3.4005 -2.1623
 7770SOL     OW34945   4.157   2.333   3.077 -0.2756  0.0065  0.1149
 7770SOL    HW134946   4.215   2.268   3.038 -0.5366  0.1525 -0.5172
 7770SOL    HW234947   4.089   2.334   3.010  0.6208 -1.6371 -0.8048
 7771SOL     OW34948   1.547   0.352   0.848  0.1858 -0.0815  0.1795
 7771SOL    HW134949   1.506   0.387   0.926 -0.0367  1.0254 -0.4416
 7771SOL    HW234950   1.468   0.335   0.797 -0.0725  0.2484  0.4690
 7772SOL     OW34951   1.671   2.991   9.417 -0.3354 -0.3556 -0.3410
 7772SOL    HW134952   1.728   2.949   9.481 -0.5332  0.1747  0.1812
 7772SOL    HW234953   1.727   2.998   9.340 -0.1532  0.7955 -0.0976
 7773SOL     OW34954   3.423   0.687   2.711  0.2182  0.3802  0.0502
 7773SOL    HW134955   3.371   0.653   2.784  1.5235  0.7933  1.1702
 7773SOL    HW234956   3.429   0.606   2.659  0.8657  1.8259 -2.1007
 7774SOL     OW34957   0.902   0.858   8.716  0.2501  0.5752  0.8357
 7774SOL    HW134958   0.882   0.787   8.656  1.0426 -0.9248  2.3642
 7774SOL    HW234959   0.913   0.817   8.802 -2.4678 -1.9898 -0.0538
 7775SOL     OW34960   2.382   2.382   0.627  0.0482  0.3611 -0.1893
 7775SOL    HW134961   2.311   2.431   0.585 -0.3736 -0.3103 -0.2607
 7775SOL    HW234962   2.332   2.302   0.637 -1.3920  1.2422 -0.3415
 7776SOL     OW34963   0.280   0.179  16.019  0.2194  0.1396 -0.1865
 7776SOL    HW134964   0.215   0.192  16.088 -2.2268 -0.3676 -2.3569
 7776SOL    HW234965   0.230   0.166  15.938  0.8144  0.6053 -0.6228
 7777SOL     OW34966   1.703   4.530   2.049  0.7861  0.4920 -0.1027
 7777SOL    HW134967   1.764   4.550   2.120  0.8431 -0.2432  0.0540
 7777SOL    HW234968   1.685   4.437   2.063  0.2644  0.8490  1.5985
 7778SOL     OW34969   0.081   0.335   3.918 -0.0564  0.7760 -0.1845
 7778SOL    HW134970   0.001   0.352   3.969  0.0702  0.5585  0.0871
 7778SOL    HW234971   0.149   0.376   3.972 -1.3149  3.3326 -0.5464
 7779SOL     OW34972   2.794   0.926  16.311  0.1288  0.1041  0.1723
 7779SOL    HW134973   2.736   0.978  16.367  0.4903  1.4102 -0.6706
 7779SOL    HW234974   2.859   0.988  16.277 -0.2632  0.8768  0.8297
 7780SOL     OW34975   4.495   4.541   9.394  0.0487  0.3176 -0.5248
 7780SOL    HW134976   4.443   4.528   9.315 -1.2375  1.7289  0.0803
 7780SOL    HW234977   4.445   4.478   9.447 -0.2829  3.6185  3.0875
 7781SOL     OW34978   4.032   2.017   2.953 -0.3966  0.1427  0.0164
 7781SOL    HW134979   3.948   2.003   2.997 -0.5177 -1.0991 -0.6048
 7781SOL    HW234980   4.091   2.054   3.019 -0.7737 -1.5679  1.3291
 7782SOL     OW34981   3.758   4.223  13.930  0.2774  0.3994  0.3409
 7782SOL    HW134982   3.818   4.287  13.892 -0.4291  1.4724  1.0377
 7782SOL    HW234983   3.793   4.228  14.018  2.3477  1.4499 -0.5325
 7783SOL     OW34984   3.675   4.302   2.272 -0.2170  0.0095 -0.0070
 7783SOL    HW134985   3.619   4.230   2.300 -0.5799  0.5333  0.6017
 7783SOL    HW234986   3.650   4.320   2.181 -1.9135  2.0397  0.8602
 7784SOL     OW34987   4.035   4.053  15.277  0.2082  0.0610 -0.1803
 7784SOL    HW134988   4.042   3.966  15.317 -0.4053  0.9791  1.9042
 7784SOL    HW234989   4.029   4.032  15.184 -2.7206  1.1350 -0.2364
 7785SOL     OW34990   2.288   2.198   0.849 -1.0046 -1.1713 -0.0769
 7785SOL    HW134991   2.379   2.214   0.876 -0.8962 -2.8852  0.6216
 7785SOL    HW234992   2.232   2.236   0.916 -1.8106  1.0886 -2.0288
 7786SOL     OW34993   3.435   1.371   5.700  0.4272 -0.1006 -0.1086
 7786SOL    HW134994   3.513   1.414   5.664 -1.9998  4.9255  0.5284
 7786SOL    HW234995   3.426   1.423   5.781  0.8335 -1.3008  0.7018
 7787SOL     OW34996   1.632   0.185  13.000 -0.3732  0.2165 -0.6282
 7787SOL    HW134997   1.699   0.181  13.069 -1.0386 -3.2022 -0.1474
 7787SOL    HW234998   1.603   0.094  12.996  0.5178 -0.0418 -1.2161
 7788SOL     OW34999   0.641   0.937   8.041  0.5207  0.3250 -0.0306
 7788SOL    HW135000   0.620   0.862   7.985 -2.6373  1.3697 -0.2698
 7788SOL    HW235001   0.592   1.008   8.000 -2.5912 -2.0719 -0.4416
 7789SOL     OW35002   2.751   3.472   9.671  0.0994 -0.3310  0.5303
 7789SOL    HW135003   2.834   3.456   9.626  1.3873  3.1701  1.6800
 7789SOL    HW235004   2.748   3.567   9.659  1.1136 -0.2752  0.6603
 7790SOL     OW35005   2.279   4.655  11.490 -0.5449  0.4785  0.5241
 7790SOL    HW135006   2.204   4.623  11.440 -0.1239  0.0134  0.1981
 7790SOL    HW235007   2.302   4.568  11.522 -1.7498 -0.1026 -0.2159
 7791SOL     OW35008   4.599   3.069   7.633 -0.3044 -1.1069 -0.6241
 7791SOL    HW135009   4.568   3.036   7.718 -2.7891  0.6814 -0.8409
 7791SOL    HW235010   4.596   3.162   7.652  1.6952 -0.7038 -2.2420
 7792SOL     OW35011   4.410   1.011  15.706 -0.0148  0.6308 -0.6393
 7792SOL    HW135012   4.451   1.097  15.717 -1.2354  1.1639 -0.2698
 7792SOL    HW235013   4.432   0.974  15.792  0.7537 -0.9824 -1.5374
 7793SOL     OW35014   4.438   2.847  14.611 -0.0050  0.4369  1.0490
 7793SOL    HW135015   4.460   2.820  14.700 -1.5021  0.6943  1.4908
 7793SOL    HW235016   4.432   2.942  14.619  3.7509  0.9501 -2.0932
 7794SOL     OW35017   4.047   0.702   7.064  0.1567  0.0740  0.7270
 7794SOL    HW135018   4.029   0.644   7.138 -2.3854 -0.5807 -0.3969
 7794SOL    HW235019   4.095   0.632   7.021  0.2748  0.0055  0.9691
 7795SOL     OW35020   2.824   1.289  14.971  0.3635 -0.2395 -0.2050
 7795SOL    HW135021   2.772   1.236  15.032 -2.0700 -0.4964 -2.5141
 7795SOL    HW235022   2.860   1.364  15.019 -1.4434  0.7417 -0.4125
 7796SOL     OW35023   0.061   2.009  14.046 -0.5168  0.1990  0.1353
 7796SOL    HW135024   0.027   2.070  13.980  0.2675  0.9876  0.4567
 7796SOL    HW235025   0.027   1.926  14.012  0.4584 -0.1471  0.0087
 7797SOL     OW35026   2.411   2.359   6.113  0.2658  0.6610  0.6347
 7797SOL    HW135027   2.345   2.369   6.182  0.0834 -2.1232  0.8535
 7797SOL    HW235028   2.450   2.447   6.114  3.3665 -0.6899  0.1726
 7798SOL     OW35029   4.689   1.900   5.195 -0.4323  0.0893 -0.3282
 7798SOL    HW135030   0.043   1.895   5.233 -0.0646  0.7663 -1.0988
 7798SOL    HW235031   4.641   1.844   5.256 -0.5036 -1.1470 -1.5263
 7799SOL     OW35032   3.022   3.310   4.635  0.3408 -0.2102 -0.1725
 7799SOL    HW135033   2.974   3.254   4.574 -1.1258  0.1363  0.6847
 7799SOL    HW235034   3.099   3.259   4.661 -0.0468 -0.2473  0.8835
 7800SOL     OW35035   1.963   4.709  14.308 -0.7977  0.2125 -0.1798
 7800SOL    HW135036   2.005   4.631  14.273 -0.0202  0.7439 -0.4436
 7800SOL    HW235037   2.004   4.724  14.393  0.1223 -0.5848 -0.4877
 7801SOL     OW35038   2.978   2.315  10.799  0.0283 -0.3433  0.2866
 7801SOL    HW135039   3.008   2.404  10.780  2.1649 -1.0062  0.4962
 7801SOL    HW235040   3.043   2.280  10.860 -1.0751  0.2736  1.8310
 7802SOL     OW35041   2.604   1.397   3.863 -0.3099  0.4730  1.0427
 7802SOL    HW135042   2.619   1.314   3.910 -1.4532  0.0996  0.7459
 7802SOL    HW235043   2.604   1.371   3.771  2.0139 -2.0077  1.7368
 7803SOL     OW35044   1.441   0.211  16.745  0.5235 -0.2213 -0.2663
 7803SOL    HW135045   1.426   0.131  16.795  0.1327 -0.3647 -0.6144
 7803SOL    HW235046   1.529   0.191  16.712  0.5381 -1.9400  0.8076
 7804SOL     OW35047   0.023   1.354   1.098 -0.1301  0.0171  0.4706
 7804SOL    HW135048   0.073   1.322   1.173  2.3617 -0.9200 -1.6071
 7804SOL    HW235049   0.044   1.447   1.092 -0.1911  0.0957  1.4569
 7805SOL     OW35050   2.520   1.233   6.117 -0.0650  0.6630  0.1920
 7805SOL    HW135051   2.472   1.152   6.100  1.6665 -0.3971  0.3474
 7805SOL    HW235052   2.603   1.204   6.155  0.6494  2.2938 -0.1255
 7806SOL     OW35053   1.763   3.555   9.208 -0.1820 -0.0093  0.1176
 7806SOL    HW135054   1.842   3.565   9.260  0.2135  2.4466 -0.9816
 7806SOL    HW235055   1.770   3.462   9.186  0.2853 -0.2039  1.1324
 7807SOL     OW35056   1.903   4.309   8.989 -0.0673  0.5117 -0.2684
 7807SOL    HW135057   1.832   4.267   9.037  0.4381  0.1220  0.1413
 7807SOL    HW235058   1.882   4.400   9.012  0.2667  1.1063 -2.3031
 7808SOL     OW35059   2.449   4.447   2.893 -0.2493 -0.1106 -0.2394
 7808SOL    HW135060   2.521   4.464   2.954  1.3704  0.0445 -2.2120
 7808SOL    HW235061   2.384   4.413   2.955  0.4181  1.3356  1.2679
 7809SOL     OW35062   2.610   2.779  16.128  0.2475 -0.0990 -0.3682
 7809SOL    HW135063   2.533   2.790  16.072  0.1022 -1.2966 -0.4098
 7809SOL    HW235064   2.660   2.854  16.095 -0.2752  0.7383  0.7702
 7810SOL     OW35065   1.335   1.165   5.670 -0.6275 -0.1596 -0.0474
 7810SOL    HW135066   1.253   1.165   5.621 -0.4727 -1.7201 -0.3087
 7810SOL    HW235067   1.321   1.097   5.736  1.3002 -1.9002 -1.3942
 7811SOL     OW35068   0.746   3.584   1.178 -0.6929  0.0928  0.0011
 7811SOL    HW135069   0.798   3.617   1.105  1.5765 -3.1737  0.1693
 7811SOL    HW235070   0.700   3.513   1.133  1.6607 -2.0118  0.9081
 7812SOL     OW35071   0.333   2.361   3.798  0.2870 -0.3237 -0.4020
 7812SOL    HW135072   0.286   2.278   3.810 -0.0767 -0.2185 -1.0893
 7812SOL    HW235073   0.355   2.396   3.884 -3.1030  0.1119  0.2524
 7813SOL     OW35074   1.956   2.170   8.039 -0.1141 -0.0578  0.7684
 7813SOL    HW135075   1.883   2.116   8.070 -0.0780 -0.6378 -0.1620
 7813SOL    HW235076   1.983   2.114   7.966 -0.9672 -1.2648  1.3632
 7814SOL     OW35077   2.883   4.102   8.822  0.4248  0.0906 -0.0277
 7814SOL    HW135078   2.882   4.173   8.758  1.5565  1.5911  1.6147
 7814SOL    HW235079   2.790   4.095   8.840  0.6176 -1.0416  0.5856
 7815SOL     OW35080   1.428   3.233   1.621  0.3696 -0.2481  0.0075
 7815SOL    HW135081   1.470   3.294   1.681  0.9344 -2.0567  1.4480
 7815SOL    HW235082   1.398   3.175   1.691  0.0381  0.4666  0.4576
 7816SOL     OW35083   3.371   2.500   6.730  0.3966 -0.4237 -0.3063
 7816SOL    HW135084   3.466   2.498   6.740  0.6620 -0.3416 -2.9493
 7816SOL    HW235085   3.363   2.455   6.646  1.7060 -1.4044  0.0842
 7817SOL     OW35086   3.069   0.923  14.164  0.0480 -0.2047 -0.4472
 7817SOL    HW135087   3.078   0.859  14.093 -0.3156 -1.2342  0.4348
 7817SOL    HW235088   3.161   0.947  14.175  0.6345 -2.2269 -0.9503
 7818SOL     OW35089   4.615   1.438   5.386 -0.2550 -0.7380  0.0949
 7818SOL    HW135090   4.542   1.380   5.363  0.5847 -1.6003 -0.3529
 7818SOL    HW235091   4.664   1.424   5.305 -0.0999  0.6317 -0.0430
 7819SOL     OW35092   1.363   4.520   0.157 -0.2555 -0.2964  0.2718
 7819SOL    HW135093   1.365   4.447   0.095  1.6446  0.6441 -0.7760
 7819SOL    HW235094   1.318   4.484   0.234  2.6614 -1.1356  1.5873
 7820SOL     OW35095   0.788   4.597   2.554  0.2237 -0.1229 -0.1178
 7820SOL    HW135096   0.747   4.673   2.594  0.2367 -1.2585  2.0614
 7820SOL    HW235097   0.835   4.635   2.480 -0.3442  0.7945  0.0042
 7821SOL     OW35098   0.756   3.254   5.582 -0.8343 -0.3116 -0.2205
 7821SOL    HW135099   0.663   3.265   5.564 -0.3996  1.3923 -1.4664
 7821SOL    HW235100   0.794   3.242   5.496  0.2537  0.3493  0.1646
 7822SOL     OW35101   3.143   0.368   5.781  0.0771 -0.1717  0.7987
 7822SOL    HW135102   3.227   0.379   5.826  0.7402  0.0060 -0.5082
 7822SOL    HW235103   3.176   0.333   5.699  1.0371  1.7088  0.3739
 7823SOL     OW35104   1.076   1.822   3.489  0.7459 -0.4910  0.0302
 7823SOL    HW135105   0.983   1.816   3.509  1.1318  0.1761  1.9968
 7823SOL    HW235106   1.080   1.914   3.463  3.1434 -0.3926  0.7484
 7824SOL     OW35107   0.324   4.479  13.730  0.6640 -0.0887 -0.1147
 7824SOL    HW135108   0.416   4.456  13.722  0.3668 -1.0560 -0.6658
 7824SOL    HW235109   0.328   4.551  13.793 -0.2467  2.0174 -2.4589
 7825SOL     OW35110   1.585   2.617   7.750  0.0882 -0.1637  0.2449
 7825SOL    HW135111   1.514   2.564   7.787 -0.4101  0.8617  0.7476
 7825SOL    HW235112   1.641   2.539   7.743  0.3636 -0.1754  2.5355
 7826SOL     OW35113   3.630   2.605   6.780 -0.1016 -0.4386 -0.1105
 7826SOL    HW135114   3.658   2.693   6.806 -1.0311 -0.3222  0.5122
 7826SOL    HW235115   3.687   2.555   6.839 -1.2786 -0.2819  1.1652
 7827SOL     OW35116   3.977   4.706   6.164 -0.1657  0.3433 -0.1364
 7827SOL    HW135117   3.995   4.616   6.190  1.3561 -0.3070 -3.4419
 7827SOL    HW235118   4.033   0.016   6.228 -2.3490  0.5615  1.6104
 7828SOL     OW35119   1.907   3.746   7.866 -0.5206  0.3908 -0.3557
 7828SOL    HW135120   1.870   3.678   7.923 -0.8779  0.3277 -0.6603
 7828SOL    HW235121   1.961   3.798   7.925 -1.5634 -1.7180  2.4896
 7829SOL     OW35122   4.234   2.354  15.928  0.2367  0.2967 -0.3174
 7829SOL    HW135123   4.254   2.430  15.984 -1.9328  0.9414 -0.4409
 7829SOL    HW235124   4.173   2.393  15.866  0.0848  1.9650  0.8693
 7830SOL     OW35125   3.892   2.856   5.014 -0.1867  0.4809  0.0906
 7830SOL    HW135126   3.927   2.940   4.985 -0.7930  0.3515 -1.0407
 7830SOL    HW235127   3.802   2.874   5.040 -0.1537  0.9414 -0.1101
 7831SOL     OW35128   0.080   3.713   3.759  0.0408  0.2941 -0.1864
 7831SOL    HW135129   0.151   3.777   3.760  0.9298 -0.6603 -1.3640
 7831SOL    HW235130   0.052   3.704   3.667 -0.2154 -0.2431 -0.0549
 7832SOL     OW35131   0.936   3.611   2.187 -0.0043  0.6279 -0.1544
 7832SOL    HW135132   0.983   3.691   2.211  0.0373  0.2139  1.1540
 7832SOL    HW235133   0.976   3.549   2.248  0.4917  0.7795 -0.3319
 7833SOL     OW35134   1.102   2.904   1.253 -0.4456 -0.4026 -0.4770
 7833SOL    HW135135   1.060   2.835   1.201 -0.0140 -0.8382 -0.2453
 7833SOL    HW235136   1.197   2.893   1.243 -0.2636  0.4820  0.3019
 7834SOL     OW35137   2.616   4.568  17.046  0.3656  0.3812  0.1132
 7834SOL    HW135138   2.526   4.535  17.047  1.2903 -2.1251  1.0996
 7834SOL    HW235139   2.659   4.510  16.983 -1.3240 -2.2095  1.3619
 7835SOL     OW35140   1.195   4.192  13.399  0.0580  0.1028 -0.3111
 7835SOL    HW135141   1.173   4.133  13.326 -2.3608  0.7761 -0.1462
 7835SOL    HW235142   1.277   4.231  13.369 -1.3202  0.6473 -3.4587
 7836SOL     OW35143   0.258   1.933   5.045 -0.4520 -0.6633 -0.1383
 7836SOL    HW135144   0.287   1.917   4.955  1.1593  2.6064 -0.1740
 7836SOL    HW235145   0.186   1.995   5.029  0.0466  0.1610  0.8341
 7837SOL     OW35146   3.267   2.041   6.813  0.8974  0.0641  0.0686
 7837SOL    HW135147   3.196   2.084   6.860 -0.4383 -0.3695 -1.5405
 7837SOL    HW235148   3.331   2.112   6.816 -2.0389  2.6891  0.9346
 7838SOL     OW35149   0.113   2.784   3.651 -0.3302 -0.3386  0.4534
 7838SOL    HW135150   0.156   2.712   3.604  1.5207 -0.1648  1.8604
 7838SOL    HW235151   0.114   2.750   3.741  0.8374  1.4104  1.1143
 7839SOL     OW35152   0.241   1.708   7.779 -0.2049  0.3923 -0.4249
 7839SOL    HW135153   0.154   1.684   7.747  0.8176 -1.1534 -1.9999
 7839SOL    HW235154   0.224   1.707   7.874 -0.5196  2.0337 -0.4669
 7840SOL     OW35155   4.352   2.564   1.669 -0.2088 -0.1238 -0.2032
 7840SOL    HW135156   4.326   2.534   1.757  3.2349 -0.9233  0.5404
 7840SOL    HW235157   4.424   2.625   1.687  0.2226 -1.6303  3.2363
 7841SOL     OW35158   1.530   1.439   1.760 -0.8272  0.2015 -0.4255
 7841SOL    HW135159   1.518   1.498   1.834 -0.4110  0.2473 -0.3908
 7841SOL    HW235160   1.471   1.478   1.696  2.0241  0.8291 -2.6759
 7842SOL     OW35161   4.260   2.730   7.982 -0.0380  0.1262 -0.0516
 7842SOL    HW135162   4.350   2.751   8.006 -0.0422  2.0759 -1.6948
 7842SOL    HW235163   4.236   2.718   8.074 -1.5198  0.7442 -0.3468
 7843SOL     OW35164   1.649   3.128   3.650  0.0689  0.4408 -1.0951
 7843SOL    HW135165   1.678   3.207   3.605  0.5403 -0.3776 -2.2131
 7843SOL    HW235166   1.556   3.117   3.630 -0.2135 -0.4296  0.6464
 7844SOL     OW35167   0.853   3.871   7.801 -0.0058  0.0104 -0.0031
 7844SOL    HW135168   0.845   3.810   7.874  2.4150  0.3981  0.6027
 7844SOL    HW235169   0.946   3.889   7.818 -0.0537  1.2135 -1.0230
 7845SOL     OW35170   2.548   0.458   3.717 -0.0737  0.4750 -0.1169
 7845SOL    HW135171   2.582   0.372   3.695  0.7678  0.6214  0.6175
 7845SOL    HW235172   2.559   0.446   3.811  0.9301 -0.0397 -0.3000
 7846SOL     OW35173   1.293   1.320   1.835 -0.1756 -0.2664  0.1670
 7846SOL    HW135174   1.303   1.233   1.795 -2.1726 -0.1522 -0.5729
 7846SOL    HW235175   1.275   1.373   1.758  2.9722  2.0319  1.0452
 7847SOL     OW35176   3.853   3.693   8.104  0.1218 -0.0137 -0.2054
 7847SOL    HW135177   3.885   3.661   8.188 -0.5222  2.4228  0.9893
 7847SOL    HW235178   3.758   3.687   8.112  0.0656  1.0933  0.0127
 7848SOL     OW35179   1.719   1.654   9.162  0.6497  0.4125 -0.4440
 7848SOL    HW135180   1.635   1.668   9.118  0.4562 -0.1045 -0.2403
 7848SOL    HW235181   1.708   1.575   9.215 -1.1496 -0.0393 -1.4915
 7849SOL     OW35182   0.903   3.436   6.187 -0.4558  0.5888  0.5101
 7849SOL    HW135183   0.994   3.447   6.215 -0.5734 -0.1379  1.1966
 7849SOL    HW235184   0.872   3.523   6.211  0.8386  1.3271 -0.5351
 7850SOL     OW35185   1.158   2.362  11.286  0.6012  0.6055 -0.0309
 7850SOL    HW135186   1.079   2.414  11.297 -0.0166 -0.3809  0.1581
 7850SOL    HW235187   1.141   2.272  11.314 -0.1781  1.1389  1.2119
 7851SOL     OW35188   1.007   2.179  17.703 -0.1053 -0.1874  0.0713
 7851SOL    HW135189   1.066   2.167  17.629 -0.7893 -2.0413 -0.1561
 7851SOL    HW235190   1.043   2.127   0.039  2.5455  3.3677  1.3041
 7852SOL     OW35191   1.188   1.143   8.387 -1.0653 -1.1542 -0.3243
 7852SOL    HW135192   1.133   1.189   8.323  0.1398  0.8994  0.1106
 7852SOL    HW235193   1.135   1.142   8.466 -1.4211 -2.6843 -0.5866
 7853SOL     OW35194   2.606   0.802  16.147 -0.7380 -0.9613  0.1685
 7853SOL    HW135195   2.647   0.823  16.231 -1.3020  0.1808  0.1701
 7853SOL    HW235196   2.661   0.733  16.112  0.9429  0.9210 -0.9159
 7854SOL     OW35197   3.787   1.487  11.632  0.3388 -0.1980 -0.3248
 7854SOL    HW135198   3.881   1.484  11.614  0.1647  0.4766 -1.3958
 7854SOL    HW235199   3.792   1.485  11.727  0.3875  2.1321 -0.2729
 7855SOL     OW35200   1.056   0.188   4.717 -0.6487  0.3415  0.2399
 7855SOL    HW135201   1.128   0.251   4.728 -0.3150 -0.3416  2.0066
 7855SOL    HW235202   1.019   0.207   4.631  0.8754 -0.2068 -0.5382
 7856SOL     OW35203   1.319   1.539   1.630 -0.3221 -0.3027  0.1239
 7856SOL    HW135204   1.348   1.555   1.541  0.2757  2.6141  0.8307
 7856SOL    HW235205   1.263   1.614   1.652 -2.0074 -2.0595  1.8542
 7857SOL     OW35206   2.967   1.704   3.339 -0.6278 -0.4518  0.0858
 7857SOL    HW135207   2.882   1.745   3.326 -0.2702  1.0410  2.5684
 7857SOL    HW235208   2.987   1.733   3.428  1.0937  0.0773 -0.4646
 7858SOL     OW35209   4.190   2.789  17.376 -0.4832  0.1282 -0.1697
 7858SOL    HW135210   4.224   2.708  17.337 -0.9314  0.4228 -1.1766
 7858SOL    HW235211   4.195   2.841  17.296  0.8326  0.6395  0.2459
 7859SOL     OW35212   0.097   4.070   7.981 -0.3521 -0.1772  0.2290
 7859SOL    HW135213   0.136   4.092   7.897 -0.6479  2.6053  0.8034
 7859SOL    HW235214   0.129   3.980   7.981 -1.1310 -0.4633  0.6649
 7860SOL     OW35215   4.484   1.531   7.038 -0.2145  0.6436 -0.5161
 7860SOL    HW135216   4.466   1.536   7.131  1.4264 -1.5951 -0.0823
 7860SOL    HW235217   4.431   1.456   7.011 -0.1076  0.2968  0.2503
 7861SOL     OW35218   1.281   2.438   6.248 -0.0119  0.0834 -0.3945
 7861SOL    HW135219   1.367   2.440   6.206 -0.5324  0.9351 -1.4131
 7861SOL    HW235220   1.220   2.431   6.175  0.3094 -3.3181 -0.3307
 7862SOL     OW35221   2.553   2.385   8.404  0.1674 -0.2866  0.1252
 7862SOL    HW135222   2.583   2.459   8.351 -1.8665  0.0610 -0.5621
 7862SOL    HW235223   2.606   2.387   8.483 -0.0678 -0.5126  0.2902
 7863SOL     OW35224   0.318   4.613   5.307  0.4267  0.0578  0.1443
 7863SOL    HW135225   0.314   4.527   5.348  0.7098 -0.7448 -1.5271
 7863SOL    HW235226   0.272   4.592   5.225 -0.0047  2.2375 -0.1953
 7864SOL     OW35227   0.216   4.144   7.763  0.3485  0.0723  0.6744
 7864SOL    HW135228   0.300   4.099   7.773 -0.4706 -1.5145  0.4339
 7864SOL    HW235229   0.245   4.235   7.771  3.1117 -0.6896 -0.4901
 7865SOL     OW35230   1.231   2.084   4.916 -0.4446  0.2328  0.1008
 7865SOL    HW135231   1.241   2.014   4.982 -2.1258 -1.0877 -1.0495
 7865SOL    HW235232   1.139   2.072   4.895 -0.3071  1.7089 -1.3770
 7866SOL     OW35233   1.527   3.188   8.941 -0.4997 -0.4889 -0.4929
 7866SOL    HW135234   1.471   3.168   8.866 -2.2508 -0.9019  0.9208
 7866SOL    HW235235   1.609   3.186   8.892  1.4731 -0.8794  2.8104
 7867SOL     OW35236   0.294   2.286   0.594  0.7397  0.4515  0.3488
 7867SOL    HW135237   0.378   2.332   0.595  0.7785  0.4013 -0.9584
 7867SOL    HW235238   0.247   2.343   0.655  1.0715 -1.5609  2.4833
 7868SOL     OW35239   0.112   4.313  15.101  0.2769  0.5964  0.4910
 7868SOL    HW135240   0.146   4.283  15.186 -0.9909 -0.8019  0.5081
 7868SOL    HW235241   0.064   4.394  15.117  1.3232  1.0935  1.1437
 7869SOL     OW35242   2.072   0.727  14.560 -0.0719  0.6979 -0.8492
 7869SOL    HW135243   2.005   0.706  14.495 -2.4409  0.5497  1.6168
 7869SOL    HW235244   2.072   0.649  14.615 -0.5870  0.2203 -1.5273
 7870SOL     OW35245   3.506   2.898   2.801 -0.1600  0.3866 -0.4072
 7870SOL    HW135246   3.447   2.899   2.726 -1.0319  0.0065  0.2805
 7870SOL    HW235247   3.450   2.906   2.878 -0.0763  0.7584 -0.3850
 7871SOL     OW35248   3.420   4.201   0.752 -0.1598 -0.4392 -0.7854
 7871SOL    HW135249   3.366   4.198   0.673  0.0357 -0.2344 -0.9244
 7871SOL    HW235250   3.493   4.248   0.712 -0.2916 -1.1212 -1.8106
 7872SOL     OW35251   1.791   1.129  11.119 -0.2396  0.9171  0.0860
 7872SOL    HW135252   1.864   1.182  11.151  2.0813 -0.7086 -2.6080
 7872SOL    HW235253   1.827   1.041  11.135 -0.8963  0.7411  0.6028
 7873SOL     OW35254   4.587   1.002   7.238  0.0708  0.0346  0.5861
 7873SOL    HW135255   4.534   0.922   7.237 -1.0993  0.7998  1.8253
 7873SOL    HW235256   4.626   1.000   7.151 -0.4649  1.4894  0.3093
 7874SOL     OW35257   0.733   1.258   2.767 -0.2436  0.7469  0.1719
 7874SOL    HW135258   0.826   1.252   2.748 -0.2310  2.1329 -0.1849
 7874SOL    HW235259   0.703   1.177   2.726 -0.3220  0.9765 -0.2191
 7875SOL     OW35260   4.532   2.430   9.628  0.2127  0.3861  0.0934
 7875SOL    HW135261   4.550   2.510   9.677  2.4672 -1.3455  2.0376
 7875SOL    HW235262   4.447   2.397   9.658  0.7701 -2.6974 -1.6406
 7876SOL     OW35263   3.417   1.468   3.181 -0.7177 -0.0093  0.5250
 7876SOL    HW135264   3.492   1.527   3.180 -0.4209 -0.4531 -2.2387
 7876SOL    HW235265   3.470   1.392   3.160 -1.2181 -0.1947 -0.0728
 7877SOL     OW35266   0.206   2.755  11.156  0.3712 -0.2692  0.5156
 7877SOL    HW135267   0.127   2.803  11.131  0.8222  0.5571  0.6602
 7877SOL    HW235268   0.258   2.740  11.077 -1.3065 -1.1759 -0.3921
 7878SOL     OW35269   0.284   1.325   8.207  0.0554 -0.3366 -0.0210
 7878SOL    HW135270   0.233   1.345   8.129  1.0277 -0.0996 -0.5955
 7878SOL    HW235271   0.366   1.300   8.165 -0.4382  0.3338 -1.3949
 7879SOL     OW35272   4.063   3.673   3.569  0.1961 -0.3577 -0.3989
 7879SOL    HW135273   3.985   3.660   3.516 -1.3218  0.2757  1.6526
 7879SOL    HW235274   4.028   3.664   3.658 -0.7705 -1.8176 -0.9305
 7880SOL     OW35275   0.504   2.453   0.315  0.4120  0.1652  0.2855
 7880SOL    HW135276   0.567   2.450   0.243 -0.3722  1.8781 -0.4616
 7880SOL    HW235277   0.473   2.362   0.318 -1.5648  0.6971 -3.5853
 7881SOL     OW35278   3.699   2.517   2.059 -0.0568  0.1198 -0.1938
 7881SOL    HW135279   3.774   2.519   2.000 -0.3693  0.5217 -0.5776
 7881SOL    HW235280   3.652   2.441   2.023  1.2032 -0.6164 -0.2674
 7882SOL     OW35281   1.968   3.878   5.270 -0.3543 -0.5447  0.2260
 7882SOL    HW135282   2.006   3.933   5.201 -0.7452 -1.6324 -0.8718
 7882SOL    HW235283   2.047   3.826   5.278  0.6105  1.0073  0.7739
 7883SOL     OW35284   3.617   3.901   5.831 -0.0960 -0.2964  0.0414
 7883SOL    HW135285   3.585   3.888   5.921 -2.0835 -1.4620 -0.8463
 7883SOL    HW235286   3.632   3.995   5.830 -4.4911  0.3588 -0.8379
 7884SOL     OW35287   2.776   4.447   2.602 -0.3423 -0.1454 -0.5032
 7884SOL    HW135288   2.848   4.402   2.556  0.7712  1.2087 -0.0793
 7884SOL    HW235289   2.774   4.530   2.555  0.7802  1.7784  2.8886
 7885SOL     OW35290   3.106   0.468   7.766  0.4237  0.6546 -0.5324
 7885SOL    HW135291   3.014   0.443   7.755  0.0148  2.1781 -0.5137
 7885SOL    HW235292   3.125   0.473   7.673 -1.5762 -0.6613 -1.0121
 7886SOL     OW35293   2.087   4.428  14.253 -0.4209  0.4914 -0.2265
 7886SOL    HW135294   2.150   4.404  14.321 -1.9030 -1.4895  0.4293
 7886SOL    HW235295   2.063   4.345  14.213 -1.2895 -0.3184  1.9497
 7887SOL     OW35296   1.808   2.926   7.609 -1.1605  0.3389  0.1577
 7887SOL    HW135297   1.852   2.918   7.694  0.2135  2.3184 -0.3730
 7887SOL    HW235298   1.849   2.851   7.566  0.1621 -0.9957  3.7429
 7888SOL     OW35299   3.645   2.488  10.871 -0.2793  0.3713 -0.1186
 7888SOL    HW135300   3.702   2.538  10.813  0.2416 -1.3264 -1.0814
 7888SOL    HW235301   3.698   2.410  10.885 -0.0656  0.3944 -0.7781
 7889SOL     OW35302   4.381   0.648   6.493  0.0276 -0.2832  0.3345
 7889SOL    HW135303   4.288   0.655   6.470  0.0664 -0.1986  0.2008
 7889SOL    HW235304   4.417   0.730   6.460 -0.9729  0.7957  1.9187
 7890SOL     OW35305   0.634   2.363   2.924  0.6780  0.2260  0.7159
 7890SOL    HW135306   0.638   2.458   2.934 -1.8851  0.2627  1.2784
 7890SOL    HW235307   0.648   2.355   2.829  0.6750  1.3755  0.6204
 7891SOL     OW35308   3.950   0.183   2.837 -0.3390  0.1193 -0.0809
 7891SOL    HW135309   4.018   0.123   2.870 -0.0526  2.3280  3.3864
 7891SOL    HW235310   3.932   0.228   2.920  1.4273 -0.2745  0.5072
 7892SOL     OW35311   4.332   1.302   5.630  0.0621 -0.0171 -0.3496
 7892SOL    HW135312   4.328   1.219   5.678  3.5761  0.5416  0.9046
 7892SOL    HW235313   4.403   1.350   5.672  0.6741 -2.1589  1.0854
 7893SOL     OW35314   4.468   0.202   6.136  0.0836  0.0485  0.0509
 7893SOL    HW135315   4.464   0.130   6.200 -0.6674 -1.3909 -1.6216
 7893SOL    HW235316   4.559   0.229   6.132 -0.6649  2.8519  2.0042
 7894SOL     OW35317   4.240   1.579  14.508  0.0150  0.2276 -0.2070
 7894SOL    HW135318   4.283   1.531  14.578  0.7770  0.7297 -0.3309
 7894SOL    HW235319   4.279   1.666  14.519 -2.1136  1.3077 -1.1508
 7895SOL     OW35320   3.461   0.448  13.116  0.0585 -0.0780  0.3442
 7895SOL    HW135321   3.533   0.486  13.066 -0.2844 -1.8274 -1.5095
 7895SOL    HW235322   3.481   0.357  13.140  1.1925 -0.5306 -2.3205
 7896SOL     OW35323   1.225   0.027   7.991  0.3595  0.1939 -0.0200
 7896SOL    HW135324   1.176   0.005   8.070 -0.6244  1.5041 -0.2589
 7896SOL    HW235325   1.192   0.115   7.973  0.4326 -0.4636 -3.4927
 7897SOL     OW35326   0.314   2.526   3.234 -0.4761 -0.1756  0.0513
 7897SOL    HW135327   0.309   2.477   3.152 -1.7773  0.5078 -0.2841
 7897SOL    HW235328   0.357   2.599   3.189 -1.7622  0.3238 -0.3591
 7898SOL     OW35329   4.658   1.886   3.425  0.0430 -0.1448 -0.0588
 7898SOL    HW135330   4.703   1.964   3.392 -2.0685  1.1279  0.0510
 7898SOL    HW235331   4.649   1.840   3.342  2.1135  1.5202 -1.1959
 7899SOL     OW35332   0.042   0.773   5.372 -0.1111 -0.2825 -0.2192
 7899SOL    HW135333   0.092   0.735   5.444  0.3226  0.9862  0.1328
 7899SOL    HW235334   0.113   0.778   5.308 -0.5841  0.1158 -0.7199
 7900SOL     OW35335   2.062   3.610   9.388  0.2326  0.2640 -0.0177
 7900SOL    HW135336   2.078   3.539   9.325  1.0490  1.7614 -1.5049
 7900SOL    HW235337   2.148   3.649   9.374  0.5036  0.1387  1.2720
 7901SOL     OW35338   0.065   2.293   5.404 -0.1631 -0.2884 -0.0605
 7901SOL    HW135339   4.721   2.251   5.439  0.1789  0.1188  1.2129
 7901SOL    HW235340   0.127   2.253   5.465 -0.7766 -2.2394 -0.7307
 7902SOL     OW35341   2.126   2.271   8.909  0.0293  0.0928 -0.4164
 7902SOL    HW135342   2.120   2.294   8.816 -1.2391 -1.8530 -0.8188
 7902SOL    HW235343   2.124   2.176   8.905 -0.7461  0.1923 -2.3349
 7903SOL     OW35344   1.560   3.177   3.198  0.3789 -0.8137  0.4600
 7903SOL    HW135345   1.487   3.186   3.138 -0.1672 -1.7052  0.9933
 7903SOL    HW235346   1.552   3.087   3.228  0.3802 -0.5106  1.3796
 7904SOL     OW35347   3.766   3.789   0.304 -0.1212 -0.2094  0.5897
 7904SOL    HW135348   3.742   3.854   0.370  0.3938 -1.1604  1.7056
 7904SOL    HW235349   3.854   3.766   0.333 -0.0681 -1.4357 -0.5121
 7905SOL     OW35350   3.597   0.987   1.543  0.2093  0.2514 -0.3887
 7905SOL    HW135351   3.630   1.056   1.601  1.4119 -1.4342  0.9360
 7905SOL    HW235352   3.503   1.003   1.552 -0.1639 -1.8818 -0.5266
 7906SOL     OW35353   1.351   3.327   4.242  0.3394  0.3417 -0.4735
 7906SOL    HW135354   1.424   3.267   4.229 -0.8334 -1.3345  0.8436
 7906SOL    HW235355   1.281   3.263   4.232  0.5836  0.1497 -0.9505
 7907SOL     OW35356   0.125   0.372  10.902  0.0316  0.3876  0.0228
 7907SOL    HW135357   0.070   0.414  10.836  1.4273 -1.1091 -2.0984
 7907SOL    HW235358   0.208   0.400  10.863 -1.3815  2.7229 -1.3200
 7908SOL     OW35359   3.370   3.738  15.784  0.5563  0.2846  0.1255
 7908SOL    HW135360   3.346   3.673  15.718  1.0035  0.3420 -0.0924
 7908SOL    HW235361   3.390   3.684  15.861  1.5923 -2.3055 -1.9789
 7909SOL     OW35362   1.968   0.448  15.387 -0.0095 -0.1551 -0.4710
 7909SOL    HW135363   1.976   0.490  15.472  0.9270 -0.2894 -0.4912
 7909SOL    HW235364   2.058   0.433  15.360  0.7363 -1.1777  2.6368
 7910SOL     OW35365   2.878   2.108   9.417  0.1065  0.3715 -0.2705
 7910SOL    HW135366   2.958   2.136   9.461 -1.2015  1.9908  1.0622
 7910SOL    HW235367   2.910   2.047   9.350  0.0876  0.4748 -0.3734
 7911SOL     OW35368   3.713   3.943   4.650  0.2176  0.6773 -0.2810
 7911SOL    HW135369   3.689   3.883   4.579  1.6327 -0.4566  0.1877
 7911SOL    HW235370   3.802   3.909   4.661 -0.6769 -0.7219  2.6487
 7912SOL     OW35371   1.961   1.975  15.186  0.3302  0.5395  0.5536
 7912SOL    HW135372   1.870   1.976  15.156  1.6027 -0.0915 -3.3645
 7912SOL    HW235373   1.958   2.064  15.222  0.9709  1.5700 -1.8926
 7913SOL     OW35374   3.321   2.620   8.119  0.3077 -0.6367 -0.7038
 7913SOL    HW135375   3.280   2.643   8.203  2.3893  0.4185  0.0339
 7913SOL    HW235376   3.268   2.545   8.093 -2.6545  1.7353 -1.5548
 7914SOL     OW35377   0.997   2.692   1.081  0.1824  0.6901  0.2319
 7914SOL    HW135378   0.921   2.635   1.093 -1.6981  2.9889 -0.5887
 7914SOL    HW235379   0.993   2.683   0.986 -0.7311  0.2194  0.3187
 7915SOL     OW35380   3.127   2.933  10.731 -0.0092 -0.1137  0.1040
 7915SOL    HW135381   3.060   2.990  10.694  1.9899  1.9724 -0.3764
 7915SOL    HW235382   3.189   2.928  10.658  1.1207 -1.5541  1.1481
 7916SOL     OW35383   0.810   3.118   2.305 -0.0656  0.1177 -0.0239
 7916SOL    HW135384   0.850   3.055   2.245  3.0567  1.5508  0.5445
 7916SOL    HW235385   0.810   3.068   2.387 -1.9785  1.2918  0.7047
 7917SOL     OW35386   1.038   2.021   0.202  0.3699  0.0957  0.2243
 7917SOL    HW135387   1.066   1.950   0.260  0.5865 -1.7527 -2.1507
 7917SOL    HW235388   0.945   2.031   0.221  0.8598  1.0473  2.1368
 7918SOL     OW35389   2.914   4.375   5.987  0.1575 -0.1699  0.0377
 7918SOL    HW135390   2.827   4.413   5.987  1.0315  1.8467  0.5767
 7918SOL    HW235391   2.970   4.444   5.949 -1.0559  0.2070 -1.0520
 7919SOL     OW35392   3.364   2.088   8.516  0.2247  0.2048  0.3306
 7919SOL    HW135393   3.445   2.078   8.566 -0.1924 -2.5299  0.4322
 7919SOL    HW235394   3.298   2.103   8.583  0.6853  0.3480  0.7562
 7920SOL     OW35395   1.240   4.477   0.406  0.4609 -0.2385  0.1231
 7920SOL    HW135396   1.167   4.498   0.465  0.4604 -1.6345  0.6318
 7920SOL    HW235397   1.267   4.402   0.459  1.4106 -0.1810 -0.2937
 7921SOL     OW35398   1.155   0.132   6.537  0.4148  0.7878 -0.3886
 7921SOL    HW135399   1.108   0.214   6.526 -0.3100 -0.0277 -3.3077
 7921SOL    HW235400   1.115   0.077   6.470  0.4799  0.4364 -0.1387
 7922SOL     OW35401   0.630   1.585   3.635 -0.0021  0.0586  0.3550
 7922SOL    HW135402   0.571   1.594   3.560  0.8241 -0.1715 -0.3184
 7922SOL    HW235403   0.611   1.493   3.654 -0.7713 -0.1189 -1.2287
 7923SOL     OW35404   2.467   0.107   5.685 -0.1995 -0.4784  0.0093
 7923SOL    HW135405   2.495   0.063   5.604  1.4281 -0.4715  0.5676
 7923SOL    HW235406   2.378   0.136   5.667  0.8148  2.3218 -0.5124
 7924SOL     OW35407   3.072   0.475  16.571  0.2451  0.5085 -0.0974
 7924SOL    HW135408   3.123   0.545  16.613  1.9427  0.0283 -1.3549
 7924SOL    HW235409   3.000   0.522  16.529 -1.0360  0.4905  2.0631
 7925SOL     OW35410   0.597   2.083  14.393  0.5559 -0.1144  0.2235
 7925SOL    HW135411   0.550   2.096  14.310  0.2042  1.9766  0.7484
 7925SOL    HW235412   0.676   2.044  14.356  0.0060 -1.4893  0.4866
 7926SOL     OW35413   2.978   0.146   8.082  0.1477 -0.0790  0.0275
 7926SOL    HW135414   2.943   0.057   8.089 -0.4277  0.1839  0.5591
 7926SOL    HW235415   3.025   0.156   8.165 -0.2595  0.7469  0.1610
 7927SOL     OW35416   3.615   0.983   3.771  0.6104 -0.0988  0.1751
 7927SOL    HW135417   3.534   1.031   3.752  0.7971  0.4593  0.7776
 7927SOL    HW235418   3.681   1.050   3.752  1.8144 -1.5099 -0.5908
 7928SOL     OW35419   1.137   1.095   1.535  0.0099  0.4683  0.4538
 7928SOL    HW135420   1.155   1.114   1.443 -3.5743  1.5666 -0.0401
 7928SOL    HW235421   1.043   1.077   1.534  0.9917 -4.7522  1.8490
 7929SOL     OW35422   4.025   3.864   2.318 -0.1084 -0.2601 -0.1047
 7929SOL    HW135423   4.054   3.862   2.409 -1.5713  0.0711  0.3681
 7929SOL    HW235424   3.931   3.854   2.336 -0.3224  1.2227 -0.3630
 7930SOL     OW35425   0.065   4.530   4.763  0.2291 -0.7203 -0.5293
 7930SOL    HW135426   0.089   4.595   4.829 -1.4209 -0.2766 -0.3581
 7930SOL    HW235427   4.722   4.489   4.803  0.7984 -2.5775 -1.3545
 7931SOL     OW35428   1.718   0.637   3.916  0.2200  0.1770  0.7728
 7931SOL    HW135429   1.769   0.650   3.836 -1.9627  1.9132 -0.3446
 7931SOL    HW235430   1.779   0.615   3.987 -0.1440 -0.3443  0.9246
 7932SOL     OW35431   3.012   2.039  14.513 -0.8096  0.4651  0.2717
 7932SOL    HW135432   2.942   2.064  14.573 -0.4196  1.0301  0.4954
 7932SOL    HW235433   3.036   2.130  14.493  2.6874 -0.4035  0.5098
 7933SOL     OW35434   3.148   2.222   3.817 -0.4293  0.3791 -0.2886
 7933SOL    HW135435   3.174   2.175   3.897 -2.4691 -0.8341 -0.3234
 7933SOL    HW235436   3.068   2.263   3.849  0.7019  1.2698  1.4257
 7934SOL     OW35437   3.895   3.944   2.685 -0.1351  0.6023  0.2449
 7934SOL    HW135438   3.921   3.946   2.777 -4.2098  1.2091  1.3985
 7934SOL    HW235439   3.981   3.938   2.643 -0.6634  0.0359 -0.7584
 7935SOL     OW35440   1.789   0.981   8.067  0.7813  0.5778 -0.2522
 7935SOL    HW135441   1.697   0.992   8.041  0.2917 -1.6889  0.5127
 7935SOL    HW235442   1.816   0.935   7.987 -2.6621  0.8053 -1.5417
 7936SOL     OW35443   2.835   4.014  16.534 -0.4894  0.4426 -0.6580
 7936SOL    HW135444   2.918   3.986  16.572  0.1004  3.2301  0.1594
 7936SOL    HW235445   2.871   4.094  16.495  1.6436  0.3308  1.0850
 7937SOL     OW35446   1.484   0.470   3.899 -0.0788 -0.0481  0.1068
 7937SOL    HW135447   1.563   0.524   3.895  0.5494 -0.7660  2.5566
 7937SOL    HW235448   1.506   0.404   3.965  1.9284 -0.5754 -1.0885
 7938SOL     OW35449   1.319   2.284   9.746  0.3933 -0.3666 -0.1859
 7938SOL    HW135450   1.389   2.347   9.764 -1.9469  2.1722 -0.0586
 7938SOL    HW235451   1.276   2.264   9.829  0.8208 -0.4746  0.0106
 7939SOL     OW35452   1.128   2.532   7.520  0.0241 -0.0000 -0.3524
 7939SOL    HW135453   1.060   2.490   7.572  1.3866 -1.5228  0.2109
 7939SOL    HW235454   1.077   2.603   7.482 -0.1204 -0.3452 -0.8095
 7940SOL     OW35455   0.924   2.036  14.792  1.2717  0.1479 -0.1430
 7940SOL    HW135456   0.902   1.953  14.750  1.4935  0.3593 -0.6703
 7940SOL    HW235457   0.954   2.084  14.715  1.8548 -0.4832 -0.3075
 7941SOL     OW35458   1.609   4.272  14.994 -0.5830 -0.3472 -0.4579
 7941SOL    HW135459   1.580   4.232  15.076  0.7021 -2.0671 -0.8401
 7941SOL    HW235460   1.686   4.322  15.023 -0.7359  1.5447 -3.2566
 7942SOL     OW35461   0.575   0.986   7.120  0.6667  0.2223 -0.2614
 7942SOL    HW135462   0.610   1.056   7.175 -0.2435  0.3702  0.1417
 7942SOL    HW235463   0.484   1.017   7.121  0.0472 -1.5298 -1.2192
 7943SOL     OW35464   0.107   2.374   6.992  0.0371 -0.2365  0.1410
 7943SOL    HW135465   0.107   2.426   7.073  2.0493 -0.6826  0.4134
 7943SOL    HW235466   0.178   2.409   6.939 -2.1161 -1.4781 -3.5284
 7944SOL     OW35467   2.524   1.015  17.248  0.5100  0.3792 -0.4030
 7944SOL    HW135468   2.512   1.053  17.335  4.1638  0.2228  0.1575
 7944SOL    HW235469   2.511   1.091  17.190 -1.7855  0.9740  0.9073
 7945SOL     OW35470   1.862   2.070   3.520 -0.0826  0.1847 -0.0184
 7945SOL    HW135471   1.821   2.034   3.441 -0.5451 -2.4263  1.3788
 7945SOL    HW235472   1.955   2.065   3.499 -0.2470  1.6276 -1.0540
 7946SOL     OW35473   3.597   1.195   2.708 -0.2542  0.0284  0.6646
 7946SOL    HW135474   3.560   1.175   2.794 -2.7356  0.7050 -0.2418
 7946SOL    HW235475   3.516   1.229   2.669  0.6958  0.6660 -0.7247
 7947SOL     OW35476   2.069   4.512   6.419  0.2660 -0.2306 -0.2164
 7947SOL    HW135477   2.027   4.593   6.448  2.1726  1.2359 -1.5217
 7947SOL    HW235478   2.144   4.504   6.477  1.9036 -1.2960 -2.4506
 7948SOL     OW35479   1.485   1.487  16.263 -0.1988  0.2950  0.1404
 7948SOL    HW135480   1.463   1.574  16.231  0.0179  0.2018 -0.2721
 7948SOL    HW235481   1.504   1.444  16.180  0.9146  1.5677 -0.2569
 7949SOL     OW35482   3.435   3.363   7.201  0.0424 -0.0001  0.3669
 7949SOL    HW135483   3.496   3.386   7.272 -0.3478  0.0499  0.6907
 7949SOL    HW235484   3.351   3.386   7.240  0.9655  0.8297  1.8884
 7950SOL     OW35485   1.812   3.344   5.142  0.6069  0.0104 -0.1546
 7950SOL    HW135486   1.789   3.381   5.227 -0.3997  0.2610 -0.5434
 7950SOL    HW235487   1.772   3.257   5.143  0.1960  0.2068  0.6692
 7951SOL     OW35488   2.582   0.607   1.939 -0.7384 -0.6220  0.6602
 7951SOL    HW135489   2.502   0.614   1.887 -0.9887 -0.6914  1.0350
 7951SOL    HW235490   2.578   0.693   1.981  0.8480 -1.1999  2.0074
 7952SOL     OW35491   0.198   3.345   5.011  0.1428  0.4437 -0.2633
 7952SOL    HW135492   0.158   3.356   5.097  0.9718  2.5300 -0.1461
 7952SOL    HW235493   0.128   3.342   4.946  0.4808 -1.1513 -0.5701
 7953SOL     OW35494   3.603   0.838   0.936  0.2431 -0.5057  0.5550
 7953SOL    HW135495   3.548   0.774   0.980 -1.0180 -0.1156 -0.4700
 7953SOL    HW235496   3.618   0.784   0.858  2.7584 -0.4458  0.9951
 7954SOL     OW35497   0.721   2.956  15.468 -0.2564 -0.1372  0.1791
 7954SOL    HW135498   0.716   3.032  15.411 -0.3374 -1.8314 -2.0927
 7954SOL    HW235499   0.694   2.881  15.415 -0.6130 -0.5202  0.8922
 7955SOL     OW35500   4.577   2.411  15.095 -0.4883 -0.1286  0.7555
 7955SOL    HW135501   4.519   2.341  15.126 -1.1652 -0.2498 -0.8061
 7955SOL    HW235502   4.514   2.471  15.055  0.4284 -0.6103 -1.4438
 7956SOL     OW35503   2.658   0.167   5.320  0.2873  0.2444 -0.0080
 7956SOL    HW135504   2.627   0.078   5.333 -0.5412  0.7045  1.1402
 7956SOL    HW235505   2.729   0.163   5.383  0.0567 -0.8327  0.1734
 7957SOL     OW35506   2.831   2.221   8.315  0.0056 -0.2010 -0.5831
 7957SOL    HW135507   2.862   2.132   8.301  0.7770  0.4353 -2.9312
 7957SOL    HW235508   2.781   2.228   8.233 -0.5173  1.6905 -0.1151
 7958SOL     OW35509   1.189   3.341   1.506  0.2575 -0.2366 -0.2215
 7958SOL    HW135510   1.125   3.269   1.509 -0.2903  0.1202 -3.2486
 7958SOL    HW235511   1.276   3.299   1.506  0.2884 -0.1569  1.0966
 7959SOL     OW35512   1.085   1.144   5.109 -0.2557 -0.0206 -0.6172
 7959SOL    HW135513   1.128   1.192   5.039  1.5915 -1.9800 -0.8198
 7959SOL    HW235514   1.156   1.110   5.164  0.1501  2.1211  0.1894
 7960SOL     OW35515   3.488   4.721   4.468  0.4612  0.1979  0.2455
 7960SOL    HW135516   3.400   4.682   4.474 -0.4618  1.9627 -1.7727
 7960SOL    HW235517   3.480   0.065   4.523  3.0430  0.1118  0.7097
 7961SOL     OW35518   3.708   4.117   2.547  0.3766  0.6180  0.2461
 7961SOL    HW135519   3.765   4.135   2.472 -0.5319 -0.2116 -0.6403
 7961SOL    HW235520   3.753   4.041   2.584  0.6726  0.1870 -0.9906
 7962SOL     OW35521   3.711   1.185   5.206  0.1462 -0.5409 -0.0640
 7962SOL    HW135522   3.648   1.182   5.279 -1.2357 -1.0200 -1.2759
 7962SOL    HW235523   3.783   1.169   5.267  0.2390 -2.4218 -0.6685
 7963SOL     OW35524   1.748   1.181   5.431 -0.3284 -0.3201  0.5976
 7963SOL    HW135525   1.672   1.149   5.480 -0.5140  0.1964  0.6459
 7963SOL    HW235526   1.708   1.262   5.398  1.1984  0.5722  0.9191
 7964SOL     OW35527   2.531   4.570   5.139  0.4118 -0.2245  0.4906
 7964SOL    HW135528   2.534   4.626   5.217 -0.5929  0.5593 -0.0272
 7964SOL    HW235529   2.569   4.488   5.169  1.4695 -0.9033 -2.7727
 7965SOL     OW35530   1.686   1.019   0.247 -0.6876 -0.5556 -0.0696
 7965SOL    HW135531   1.705   1.017   0.341 -0.6951  0.3779 -0.0437
 7965SOL    HW235532   1.626   1.093   0.238 -2.0032 -1.4097  1.6952
 7966SOL     OW35533   4.078   2.592   8.714  0.1831 -0.1815 -0.2800
 7966SOL    HW135534   4.024   2.576   8.637 -0.7926 -0.1342  0.3893
 7966SOL    HW235535   4.140   2.640   8.659  1.0369  0.3283  1.1212
 7967SOL     OW35536   3.841   1.964   3.941  0.4507  0.8414  0.1212
 7967SOL    HW135537   3.818   1.942   4.031 -1.0791  0.2311 -0.4141
 7967SOL    HW235538   3.863   2.056   3.956 -1.0858  1.1086  0.7574
 7968SOL     OW35539   0.118   3.627   8.801  0.1280 -0.0302  0.0794
 7968SOL    HW135540   0.075   3.542   8.806 -1.9212  1.0945  1.4123
 7968SOL    HW235541   0.188   3.618   8.866 -1.0964  0.2401  1.4406
 7969SOL     OW35542   2.161   2.512  15.722  0.4418 -0.1949 -0.3144
 7969SOL    HW135543   2.099   2.562  15.669  0.3740  1.0110  0.8974
 7969SOL    HW235544   2.225   2.575  15.755  0.5072 -1.4146  1.8834
 7970SOL     OW35545   0.908   3.726   4.586 -0.0845  0.0851 -1.0133
 7970SOL    HW135546   0.962   3.654   4.552 -0.4590  0.5716 -2.6164
 7970SOL    HW235547   0.888   3.689   4.672  0.1023  0.6127 -0.7414
 7971SOL     OW35548   0.748   3.990  15.219 -0.3563  0.2585  0.4038
 7971SOL    HW135549   0.753   4.016  15.311  0.8623  0.4703  0.2780
 7971SOL    HW235550   0.706   3.906  15.238  2.9879 -1.4214  0.4178
 7972SOL     OW35551   4.170   1.503   0.888 -0.0532 -0.1087 -0.1716
 7972SOL    HW135552   4.089   1.516   0.938 -0.5894  2.9178 -1.8191
 7972SOL    HW235553   4.225   1.502   0.966  0.0512  1.4708 -0.2177
 7973SOL     OW35554   0.902   0.451   1.746 -0.0870 -0.3480  0.3921
 7973SOL    HW135555   0.830   0.454   1.809  0.7450 -1.0508  1.3613
 7973SOL    HW235556   0.956   0.522   1.780 -0.3308  0.7057 -1.3979
 7974SOL     OW35557   0.155   1.790   3.062  0.2484 -0.1038 -0.1264
 7974SOL    HW135558   0.176   1.697   3.070  2.2198  0.2792 -0.8272
 7974SOL    HW235559   0.187   1.813   2.975 -0.0103 -0.1000 -0.2222
 7975SOL     OW35560   4.134   2.542   2.376  0.3326 -0.8513 -0.0999
 7975SOL    HW135561   4.062   2.515   2.320  1.1348  0.3830 -1.7192
 7975SOL    HW235562   4.108   2.506   2.461  0.9953  0.2250  0.5485
 7976SOL     OW35563   0.508   3.892   8.266 -0.4962 -0.3478 -0.0152
 7976SOL    HW135564   0.419   3.859   8.252 -0.4491 -0.8132  0.7416
 7976SOL    HW235565   0.493   3.981   8.300  0.8117 -0.4510  0.8559
 7977SOL     OW35566   3.634   0.423   6.451  0.5320  0.2029  0.0641
 7977SOL    HW135567   3.664   0.341   6.489  0.9885  1.2065  1.8417
 7977SOL    HW235568   3.635   0.474   6.531  1.3535  1.3343 -0.6602
 7978SOL     OW35569   2.717   3.038   9.632 -0.0141 -0.1546  0.2817
 7978SOL    HW135570   2.649   3.025   9.698 -0.8202  0.2661 -0.4788
 7978SOL    HW235571   2.683   3.115   9.587  0.1353  0.4144  1.1206
 7979SOL     OW35572   2.058   4.550   3.108  0.1400  0.9374  0.0622
 7979SOL    HW135573   2.151   4.543   3.130  0.1600  1.3828  0.1202
 7979SOL    HW235574   2.017   4.585   3.187 -2.5768 -0.5635 -0.6664
 7980SOL     OW35575   3.730   4.154  12.736  0.3153  0.2073  0.1462
 7980SOL    HW135576   3.783   4.203  12.799  2.4286 -1.7563 -0.0900
 7980SOL    HW235577   3.699   4.078  12.785  1.3020  0.0384  0.5045
 7981SOL     OW35578   1.820   0.582   8.002  0.2099 -0.6371 -0.0140
 7981SOL    HW135579   1.739   0.600   7.955  0.6138 -1.2407 -0.9398
 7981SOL    HW235580   1.811   0.492   8.033  4.1964 -1.3855 -1.0841
 7982SOL     OW35581   0.564   0.044   8.328  0.5493  0.1680  0.0292
 7982SOL    HW135582   0.616   0.096   8.267 -0.5244 -1.4749 -2.3009
 7982SOL    HW235583   0.485   0.044   8.273  0.6957 -2.0224 -0.1679
 7983SOL     OW35584   2.487   1.936   4.651 -0.1687  0.2716  0.0725
 7983SOL    HW135585   2.446   1.854   4.679  0.0369  0.5627  1.2464
 7983SOL    HW235586   2.436   1.996   4.705 -0.0254 -1.3624  2.0430
 7984SOL     OW35587   1.660   4.059   8.321  0.1407  0.6308  0.1079
 7984SOL    HW135588   1.712   3.983   8.346 -1.7881 -0.6513  0.2022
 7984SOL    HW235589   1.596   4.079   8.390  0.3716  1.2568  0.1389
 7985SOL     OW35590   1.798   2.389   4.427 -0.1163 -0.3001  0.1826
 7985SOL    HW135591   1.733   2.364   4.361  0.4976  1.0922 -0.9589
 7985SOL    HW235592   1.872   2.336   4.400 -1.8344 -2.1928 -0.7874
 7986SOL     OW35593   0.405   0.929   7.498 -0.0747 -0.3420 -0.1659
 7986SOL    HW135594   0.337   0.984   7.537  0.1834 -0.1777  0.0543
 7986SOL    HW235595   0.362   0.846   7.476  1.6542 -0.8361 -1.7372
 7987SOL     OW35596   1.706   1.400  12.939  0.2043 -0.3815  0.3796
 7987SOL    HW135597   1.713   1.346  13.018  0.5174  1.8902  1.9139
 7987SOL    HW235598   1.680   1.336  12.873 -3.3128  1.9944 -0.5324
 7988SOL     OW35599   2.982   3.067   0.820  0.0827 -0.4989 -0.6203
 7988SOL    HW135600   2.968   3.037   0.910  0.8227 -0.7964 -0.6044
 7988SOL    HW235601   2.934   3.150   0.818  0.8206 -0.0592  0.1071
 7989SOL     OW35602   2.490   2.880  13.010  0.5822 -0.4691  0.2827
 7989SOL    HW135603   2.545   2.801  13.018  1.5327  0.1740  0.0736
 7989SOL    HW235604   2.549   2.947  12.975 -1.5501  1.6936  0.8566
 7990SOL     OW35605   2.544   3.880   0.179 -0.7452  0.4058 -0.6857
 7990SOL    HW135606   2.630   3.879   0.137 -0.9511 -0.3265 -1.0961
 7990SOL    HW235607   2.505   3.933   0.110  1.5579  2.3024 -0.5354
 7991SOL     OW35608   0.164   0.540  11.518 -0.8355  0.0858  0.0420
 7991SOL    HW135609   0.106   0.517  11.445  1.0515  1.1601 -1.8076
 7991SOL    HW235610   0.245   0.562  11.473 -1.0259 -2.2905 -1.4979
 7992SOL     OW35611   0.090   2.102   2.185  0.4921  0.7509 -0.0275
 7992SOL    HW135612   0.166   2.075   2.237 -0.6751  0.1858  1.4071
 7992SOL    HW235613   0.099   2.042   2.111  2.0148  0.3754  0.4696
 7993SOL     OW35614   1.690   3.257   9.222  0.4167  0.6463  0.0070
 7993SOL    HW135615   1.768   3.241   9.170 -0.5513 -1.9947 -0.6076
 7993SOL    HW235616   1.624   3.198   9.185  0.9757  0.1319 -0.1647
 7994SOL     OW35617   2.514   3.489   9.417  0.1499 -0.3462 -0.7571
 7994SOL    HW135618   2.491   3.514   9.328  0.7258 -1.1679 -1.1368
 7994SOL    HW235619   2.545   3.571   9.456  1.3464 -0.8325 -0.6583
 7995SOL     OW35620   3.120   1.358   2.033 -0.5105  0.4265 -0.5004
 7995SOL    HW135621   3.093   1.396   2.117 -2.2710  0.2779 -0.9961
 7995SOL    HW235622   3.107   1.427   1.968  0.5332 -0.7561 -1.9798
 7996SOL     OW35623   3.285   2.016  14.351  0.4076  0.6469 -0.1048
 7996SOL    HW135624   3.197   2.024  14.386  1.0894 -0.2784  1.8353
 7996SOL    HW235625   3.342   2.010  14.428 -2.2732 -2.5991  1.5945
 7997SOL     OW35626   0.577   3.839   3.868 -0.0682 -0.4414 -0.6532
 7997SOL    HW135627   0.655   3.788   3.890  2.0167  1.8433 -2.7318
 7997SOL    HW235628   0.611   3.893   3.796  0.1811  1.6966  1.0494
 7998SOL     OW35629   1.997   4.555   4.654  0.0149 -0.1482 -0.1041
 7998SOL    HW135630   1.954   4.522   4.733  0.4962  1.3514  0.7854
 7998SOL    HW235631   1.918   4.579   4.605 -1.0617  0.6564  2.0454
 7999SOL     OW35632   4.290   1.690   1.559  0.5233 -0.6294 -0.7236
 7999SOL    HW135633   4.302   1.784   1.548 -2.0530 -0.4661 -2.2103
 7999SOL    HW235634   4.342   1.653   1.487  0.3235 -1.4313 -0.4541
 8000SOL     OW35635   3.594   3.886   2.864 -0.5881  0.1051 -0.2096
 8000SOL    HW135636   3.574   3.968   2.817  1.2427 -0.8145 -2.6203
 8000SOL    HW235637   3.525   3.833   2.824  0.7461 -1.1204 -0.8496
 8001SOL     OW35638   1.774   3.547   1.164  0.0473 -0.6519  0.0496
 8001SOL    HW135639   1.780   3.456   1.135  0.1332 -0.6533  0.0722
 8001SOL    HW235640   1.867   3.559   1.186  0.1752 -0.5022 -0.5749
 8002SOL     OW35641   1.429   1.635   5.106  0.3712 -0.9016 -0.5428
 8002SOL    HW135642   1.425   1.597   5.194  0.0440 -1.6278 -0.8696
 8002SOL    HW235643   1.504   1.603   5.057  1.6334 -0.8254  1.3471
 8003SOL     OW35644   4.190   0.088   6.324 -0.1389  0.1633 -0.4720
 8003SOL    HW135645   4.209   0.182   6.329 -1.0033  0.1765  2.1483
 8003SOL    HW235646   4.279   0.053   6.317  0.1437  0.7796  0.0029
 8004SOL     OW35647   1.249   3.382   5.158 -0.0865 -0.5343 -0.5486
 8004SOL    HW135648   1.195   3.457   5.136  2.6623  0.9948 -2.0742
 8004SOL    HW235649   1.331   3.422   5.188 -0.3224  1.5896 -2.7514
 8005SOL     OW35650   2.047   3.002   8.802 -0.0989  0.0600  0.0589
 8005SOL    HW135651   2.004   2.976   8.721 -2.1734  2.1514  0.4810
 8005SOL    HW235652   2.126   2.949   8.793  1.0149  1.4114  1.7598
 8006SOL     OW35653   2.306   1.815  16.458  0.4734  0.0671  0.0277
 8006SOL    HW135654   2.308   1.892  16.401 -0.9170  0.1461  0.0831
 8006SOL    HW235655   2.216   1.824  16.488  0.0493 -1.6387 -0.7631
 8007SOL     OW35656   4.314   0.997   8.242 -0.1479 -0.0591  0.0384
 8007SOL    HW135657   4.343   0.955   8.161 -0.1033  0.6436 -0.3053
 8007SOL    HW235658   4.393   0.971   8.291  0.4991  0.3768 -0.7668
 8008SOL     OW35659   3.940   1.685   4.442  0.1339 -0.3586  0.5568
 8008SOL    HW135660   3.868   1.688   4.378  1.2103  0.0917 -0.6414
 8008SOL    HW235661   3.945   1.775   4.472  1.0537 -0.0721 -0.4635
 8009SOL     OW35662   0.386   0.478   0.446 -0.2402 -0.7848  0.1086
 8009SOL    HW135663   0.448   0.408   0.425 -1.3987 -1.6218 -0.5392
 8009SOL    HW235664   0.344   0.482   0.360 -1.1114 -0.9672  0.5181
 8010SOL     OW35665   1.845   2.683  16.780 -0.0946  0.1455 -0.4600
 8010SOL    HW135666   1.926   2.639  16.759  0.3182 -1.5535  4.5977
 8010SOL    HW235667   1.837   2.748  16.710  3.4022  2.1930  1.0335
 8011SOL     OW35668   2.151   0.384   6.244 -0.0855  0.3168 -0.4887
 8011SOL    HW135669   2.190   0.345   6.166 -1.4544 -1.7275 -0.1585
 8011SOL    HW235670   2.206   0.461   6.259 -0.9707  0.7906  0.3597
 8012SOL     OW35671   1.209   3.527  17.458  0.1605 -0.8476  0.6268
 8012SOL    HW135672   1.264   3.485  17.392  0.7144 -1.1463  1.2747
 8012SOL    HW235673   1.157   3.587  17.405  2.8527  0.6388 -0.2899
 8013SOL     OW35674   4.096   1.687   6.239 -0.3271 -0.3750  0.1079
 8013SOL    HW135675   4.080   1.648   6.153  1.8242  0.3585 -0.6303
 8013SOL    HW235676   4.191   1.693   6.229 -0.4397 -0.5336 -1.1017
 8014SOL     OW35677   3.505   4.545   4.818  0.4310 -0.3238 -0.2034
 8014SOL    HW135678   3.451   4.624   4.825 -0.6895 -1.2597  1.6453
 8014SOL    HW235679   3.577   4.568   4.759  1.4065 -0.7007  0.8454
 8015SOL     OW35680   2.474   1.205   4.918  0.4230 -0.3970  0.2171
 8015SOL    HW135681   2.523   1.163   4.988  0.2081  0.7030  1.0228
 8015SOL    HW235682   2.544   1.190   4.854  1.1469 -0.7047  1.0837
 8016SOL     OW35683   1.063   0.735  15.877 -0.5068  0.7413  0.3180
 8016SOL    HW135684   0.967   0.728  15.869 -0.5087  0.3928  0.6476
 8016SOL    HW235685   1.059   0.831  15.870  2.0476  1.0217  3.1593
 8017SOL     OW35686   0.789   3.305   1.998 -0.1790  0.3413  0.0682
 8017SOL    HW135687   0.791   3.222   2.045  0.5600  0.2482 -0.1271
 8017SOL    HW235688   0.742   3.284   1.917  0.8365  0.0984 -0.4580
 8018SOL     OW35689   3.867   0.595  16.793  0.1882  0.5696  0.0707
 8018SOL    HW135690   3.928   0.606  16.721 -1.3857 -1.8863 -1.6292
 8018SOL    HW235691   3.906   0.636  16.870  1.1954 -1.0358  0.4239
 8019SOL     OW35692   4.596   2.936   7.088  0.4357 -0.2942  0.1293
 8019SOL    HW135693   4.534   2.896   7.028  0.1770  0.7117 -0.2750
 8019SOL    HW235694   4.619   2.859   7.140  2.6588 -1.1833 -2.1323
 8020SOL     OW35695   3.758   1.216   4.548 -0.2302  0.1365  0.7413
 8020SOL    HW135696   3.691   1.262   4.598 -2.6656 -0.0042 -2.3975
 8020SOL    HW235697   3.792   1.152   4.610 -0.0085 -1.9953 -1.5474
 8021SOL     OW35698   1.831   1.573   7.438  0.3128  0.4758  0.1903
 8021SOL    HW135699   1.885   1.580   7.359 -0.2431 -1.7874 -0.4166
 8021SOL    HW235700   1.754   1.622   7.408 -1.1456 -2.1408 -0.4000
 8022SOL     OW35701   3.356   1.139  13.354  0.4984  0.2376  0.5272
 8022SOL    HW135702   3.389   1.162  13.441  1.7289  2.6409 -0.5711
 8022SOL    HW235703   3.276   1.191  13.359  0.0567 -0.2059 -1.6707
 8023SOL     OW35704   0.557   3.829   9.161 -0.0936  0.0552 -0.3801
 8023SOL    HW135705   0.500   3.774   9.215 -0.7932  1.7311  0.5803
 8023SOL    HW235706   0.583   3.898   9.221  1.3050  0.0055 -0.9359
 8024SOL     OW35707   0.185   3.608   4.186 -0.2417  0.0238 -0.2450
 8024SOL    HW135708   0.255   3.643   4.130  0.9985  0.4915  1.5508
 8024SOL    HW235709   0.206   3.633   4.276 -2.8517 -0.9039  0.6069
 8025SOL     OW35710   0.608   1.913   3.685 -0.0470  0.4673 -0.3493
 8025SOL    HW135711   0.643   1.983   3.738  0.9260 -0.6045  0.4170
 8025SOL    HW235712   0.682   1.898   3.626  1.5904  0.5302  1.7066
 8026SOL     OW35713   4.723   3.259   3.070  0.5480 -0.0372 -0.7329
 8026SOL    HW135714   4.670   3.328   3.111  0.6710  0.0452 -0.7153
 8026SOL    HW235715   4.705   3.182   3.124  0.0176  1.4125  1.1647
 8027SOL     OW35716   2.875   0.384  14.972 -0.1588  0.5109 -0.1880
 8027SOL    HW135717   2.930   0.431  14.909  1.1241  0.6418  1.0175
 8027SOL    HW235718   2.818   0.347  14.905  1.6333 -1.2782 -0.7085
 8028SOL     OW35719   2.219   3.333   6.199 -0.2450  0.3925 -0.0905
 8028SOL    HW135720   2.250   3.262   6.256  0.6149  0.5084 -0.4147
 8028SOL    HW235721   2.288   3.343   6.134 -0.1013  0.7319  0.1125
 8029SOL     OW35722   1.227   0.330   0.780  0.3347 -0.7589  0.5547
 8029SOL    HW135723   1.280   0.261   0.819 -0.0332 -0.2529  1.9472
 8029SOL    HW235724   1.142   0.288   0.796  1.6205 -2.7483  2.2393
 8030SOL     OW35725   4.055   2.247   1.062  0.3341 -0.0457  0.8368
 8030SOL    HW135726   4.049   2.300   1.142  2.8517  0.5394  0.6188
 8030SOL    HW235727   3.987   2.181   1.079  0.4890 -0.9235 -1.9557
 8031SOL     OW35728   3.480   2.650   0.465  0.3335 -0.6752 -0.1783
 8031SOL    HW135729   3.552   2.608   0.417  1.3187  1.0982 -0.2717
 8031SOL    HW235730   3.487   2.738   0.428  1.5408  0.0470  1.7894
 8032SOL     OW35731   0.411   4.083   5.956  0.2113 -0.3342 -0.0626
 8032SOL    HW135732   0.392   4.114   5.868 -0.1912 -2.6318 -0.7889
 8032SOL    HW235733   0.505   4.066   5.953  0.3452  0.9931 -3.3159
 8033SOL     OW35734   0.176   4.491  13.510 -0.0525 -0.1091 -0.4333
 8033SOL    HW135735   0.236   4.481  13.584  0.3569  1.1080 -0.5993
 8033SOL    HW235736   0.151   4.581  13.530  0.4388 -0.2589  0.8733
 8034SOL     OW35737   2.602   2.441  11.605 -0.2397 -0.4850 -0.2673
 8034SOL    HW135738   2.660   2.500  11.557  1.4099 -1.5202  0.4491
 8034SOL    HW235739   2.589   2.481  11.691  1.9471 -0.1063 -0.0937
 8035SOL     OW35740   4.327   1.185  10.987 -0.6525  0.2126 -0.6452
 8035SOL    HW135741   4.386   1.166  11.060  0.9377  3.2520 -1.1278
 8035SOL    HW235742   4.295   1.099  10.962  0.5746 -0.7422  1.0509
 8036SOL     OW35743   3.699   0.068  15.060 -0.2420  0.5806 -0.2076
 8036SOL    HW135744   3.673   4.713  15.083 -0.2706  0.6891  0.1876
 8036SOL    HW235745   3.622   0.111  15.098  0.1726  0.0149  1.2667
 8037SOL     OW35746   2.511   2.135   8.265  0.1507 -0.2095  0.0126
 8037SOL    HW135747   2.567   2.136   8.188 -2.8483  1.1926 -2.1674
 8037SOL    HW235748   2.518   2.225   8.298 -0.5766 -0.3963  0.6689
 8038SOL     OW35749   3.850   3.784   0.043 -0.2513 -0.2524  0.0561
 8038SOL    HW135750   3.843   3.823   0.130  0.1659 -0.6802  0.2869
 8038SOL    HW235751   3.810   3.849  17.723 -3.1468 -1.3768  0.8325
 8039SOL     OW35752   4.563   4.313   9.093  0.2508 -0.3676 -0.2654
 8039SOL    HW135753   4.636   4.326   9.154 -0.1068  0.3485  0.0204
 8039SOL    HW235754   4.512   4.244   9.135 -0.4341  0.4613  0.2703
 8040SOL     OW35755   3.346   1.789  12.559  0.5465  0.4408  0.2277
 8040SOL    HW135756   3.307   1.800  12.646  1.5387  0.2743  0.6920
 8040SOL    HW235757   3.287   1.844  12.506 -0.5753  0.7703  1.8198
 8041SOL     OW35758   1.362   4.022   9.150  0.0519 -0.2722  0.7910
 8041SOL    HW135759   1.454   4.001   9.165  0.5931  0.9106 -0.8866
 8041SOL    HW235760   1.371   4.116   9.167  0.8446 -0.2156  0.0760
 8042SOL     OW35761   0.755   2.216   7.893  0.5601  0.0092  0.3526
 8042SOL    HW135762   0.753   2.172   7.979 -1.6511  0.9528  0.7826
 8042SOL    HW235763   0.716   2.300   7.916  3.4537  1.2907  0.6597
 8043SOL     OW35764   2.039   3.703   5.707 -0.0717 -0.4043 -0.2506
 8043SOL    HW135765   1.966   3.679   5.764  1.7919  1.4072  2.9390
 8043SOL    HW235766   2.061   3.788   5.745  2.5718 -1.2297  0.0605
 8044SOL     OW35767   0.417   3.940   6.554 -0.3865  0.2353  0.5048
 8044SOL    HW135768   0.351   3.911   6.491  2.1535 -0.6804 -1.7290
 8044SOL    HW235769   0.488   3.964   6.494 -0.1543 -1.5085  0.0737
 8045SOL     OW35770   1.219   3.844  17.494  0.4164 -0.0026 -0.8860
 8045SOL    HW135771   1.212   3.804  17.407  1.2186 -2.5286  0.2296
 8045SOL    HW235772   1.129   3.872  17.513  0.1254 -0.9877 -0.8300
 8046SOL     OW35773   2.559   2.803   9.953 -0.2103  0.2866 -0.7471
 8046SOL    HW135774   2.530   2.881   9.907  1.0212  1.8420  1.1273
 8046SOL    HW235775   2.483   2.796  10.011 -0.7239 -1.9045 -1.6749
 8047SOL     OW35776   1.905   0.897   4.336  0.4721 -0.0191  0.0981
 8047SOL    HW135777   1.959   0.890   4.415  1.1602 -0.5087 -0.4230
 8047SOL    HW235778   1.968   0.877   4.267  0.8411  3.6879 -0.5999
 8048SOL     OW35779   3.292   1.160   2.126 -0.0065 -0.5327 -0.4320
 8048SOL    HW135780   3.237   1.225   2.082  0.2310 -1.3554 -1.9364
 8048SOL    HW235781   3.228   1.092   2.148 -0.3649  0.1210  0.5433
 8049SOL     OW35782   1.417   0.237   4.676  0.2357  0.6239  0.1379
 8049SOL    HW135783   1.496   0.289   4.662  0.6540 -0.0985 -0.2108
 8049SOL    HW235784   1.358   0.303   4.712  0.7309  0.3097  1.5083
 8050SOL     OW35785   2.768   4.639   6.609 -0.3342  0.0472  0.1554
 8050SOL    HW135786   2.773   4.734   6.622  1.9250 -0.0727  0.2256
 8050SOL    HW235787   2.855   4.609   6.633 -0.6955 -0.8973  0.2745
 8051SOL     OW35788   3.777   0.681  13.225  0.0307 -0.5657 -0.2201
 8051SOL    HW135789   3.771   0.737  13.302 -2.8552  0.1587 -0.9879
 8051SOL    HW235790   3.868   0.651  13.223 -0.2610 -1.5429  1.1056
 8052SOL     OW35791   2.336   2.620  15.214 -0.7967 -0.1402 -0.1885
 8052SOL    HW135792   2.353   2.711  15.241 -2.8654  0.1304  0.1900
 8052SOL    HW235793   2.366   2.571  15.291  0.9376  1.0128 -0.1315
 8053SOL     OW35794   2.676   3.618   5.682 -0.6269 -0.7037  0.0650
 8053SOL    HW135795   2.601   3.587   5.631  0.4217 -1.9923 -0.6927
 8053SOL    HW235796   2.625   3.630   5.763  2.3974 -2.5350  2.2200
 8054SOL     OW35797   4.002   2.930   2.919 -0.1496  0.1331 -0.4372
 8054SOL    HW135798   3.930   2.867   2.919  1.2191 -1.4209 -0.2361
 8054SOL    HW235799   3.979   2.992   2.850 -2.4961  0.2350  0.4254
 8055SOL     OW35800   4.505   2.121   0.027 -0.1240 -0.0194 -0.1711
 8055SOL    HW135801   4.540   2.092  17.679  0.6406 -0.4435  0.2958
 8055SOL    HW235802   4.580   2.149   0.079 -1.9681  0.4208  2.2576
 8056SOL     OW35803   1.347   4.119  17.627 -0.1404 -0.1572 -0.3997
 8056SOL    HW135804   1.284   4.052  17.656  0.0837  1.1861  3.2492
 8056SOL    HW235805   1.377   4.155  17.711  1.2230  0.9525 -1.3875
 8057SOL     OW35806   4.518   4.310   8.217 -0.0568  0.2344  0.2923
 8057SOL    HW135807   4.602   4.288   8.257  0.7137  0.8631 -0.9945
 8057SOL    HW235808   4.520   4.275   8.128  1.8163 -0.4760  0.6151
 8058SOL     OW35809   0.194   2.946   2.698 -0.2492 -0.7639 -0.7463
 8058SOL    HW135810   0.177   3.037   2.725  0.2681 -0.4327 -1.5357
 8058SOL    HW235811   0.140   2.900   2.763  0.8278 -1.0286 -0.0390
 8059SOL     OW35812   1.569   3.717   3.675 -0.4552 -0.0320 -0.3499
 8059SOL    HW135813   1.502   3.649   3.678  0.8791 -1.3626 -1.1115
 8059SOL    HW235814   1.579   3.737   3.768 -0.2167 -2.6485  0.1900
 8060SOL     OW35815   1.284   1.754   0.230 -0.7576 -0.0970  0.2357
 8060SOL    HW135816   1.344   1.776   0.159 -0.9394  1.3051  0.5150
 8060SOL    HW235817   1.265   1.660   0.228  0.2265 -0.2754 -0.7954
 8061SOL     OW35818   1.900   3.974   5.514 -0.0603  0.2364 -0.0887
 8061SOL    HW135819   1.907   4.049   5.455 -0.1992  0.0776 -0.3079
 8061SOL    HW235820   1.939   3.909   5.455  0.2758  1.2488 -0.9899
 8062SOL     OW35821   2.064   0.834   4.117 -0.0470  0.2539  0.1229
 8062SOL    HW135822   2.052   0.914   4.067  0.2153  1.5639  2.1933
 8062SOL    HW235823   2.072   0.776   4.041  1.2385  0.4266  0.1359
 8063SOL     OW35824   1.976   0.316   7.520  0.7826  0.3122 -0.6437
 8063SOL    HW135825   1.903   0.262   7.489  0.0213  0.3736  1.0248
 8063SOL    HW235826   2.027   0.251   7.569 -1.8608 -2.0794 -1.0425
 8064SOL     OW35827   0.264   0.345  10.313  0.3280 -0.6112 -0.3715
 8064SOL    HW135828   0.211   0.421  10.289 -0.3581 -1.6327 -2.0891
 8064SOL    HW235829   0.197   0.276  10.307 -0.5637  0.0814  1.5753
 8065SOL     OW35830   2.438   2.897  15.945  0.3490  0.2590 -0.9972
 8065SOL    HW135831   2.454   2.991  15.938  1.6561  0.2582  1.9150
 8065SOL    HW235832   2.342   2.902  15.948  0.1977 -2.8573  0.1070
 8066SOL     OW35833   4.283   1.026   7.167  0.0877 -0.2794 -0.5283
 8066SOL    HW135834   4.222   1.028   7.241 -1.1170  5.2729 -1.6356
 8066SOL    HW235835   4.364   1.065   7.201 -0.5076  0.6538 -0.1627
 8067SOL     OW35836   0.619   2.697   6.457 -0.0415 -0.1520  0.3657
 8067SOL    HW135837   0.683   2.760   6.426 -0.0311 -1.1692 -1.6872
 8067SOL    HW235838   0.542   2.739   6.419 -0.0415 -0.8175 -0.3570
 8068SOL     OW35839   4.287   2.101  11.504  0.3091  0.2777 -0.0519
 8068SOL    HW135840   4.195   2.082  11.486  0.0662 -0.6737  2.1812
 8068SOL    HW235841   4.317   2.143  11.423  1.0462  1.2998  0.7555
 8069SOL     OW35842   2.363   3.601   3.914  0.3322 -0.4479 -0.2240
 8069SOL    HW135843   2.297   3.565   3.854 -1.3049  0.8594  0.7929
 8069SOL    HW235844   2.356   3.693   3.890  0.8586 -0.2588  0.3294
 8070SOL     OW35845   2.276   1.134  15.837 -0.2583 -0.2716 -0.3613
 8070SOL    HW135846   2.271   1.079  15.758 -0.5105 -0.9094  0.1045
 8070SOL    HW235847   2.333   1.207  15.812 -0.7696 -0.2869 -1.5930
 8071SOL     OW35848   0.372   2.653   9.026 -0.1291  0.9165 -0.0652
 8071SOL    HW135849   0.355   2.736   9.070 -1.7863  0.8398 -0.5565
 8071SOL    HW235850   0.411   2.604   9.098  1.3109  0.2063 -1.3331
 8072SOL     OW35851   3.980   3.096   1.396 -0.1768 -0.3479 -0.4800
 8072SOL    HW135852   3.923   3.020   1.407  0.2004 -0.2512  2.0733
 8072SOL    HW235853   3.947   3.131   1.313 -1.7696 -1.2131 -0.2243
 8073SOL     OW35854   0.866   1.588  15.861  0.1865 -0.0479  0.9048
 8073SOL    HW135855   0.776   1.622  15.864  0.6710  1.4155 -1.1710
 8073SOL    HW235856   0.861   1.526  15.789  0.6090 -0.1414  0.9600
 8074SOL     OW35857   3.798   3.339   3.888 -0.0807  0.4390  0.2216
 8074SOL    HW135858   3.726   3.394   3.857  0.7916  2.0542  1.0782
 8074SOL    HW235859   3.863   3.339   3.818 -0.7596  2.7316 -0.3903
 8075SOL     OW35860   0.087   1.171   5.996  0.7432 -0.2216 -0.4585
 8075SOL    HW135861   0.094   1.186   5.902  1.0721  0.4746 -0.3239
 8075SOL    HW235862   4.733   1.135   6.008  0.9476  0.4582  3.1652
 8076SOL     OW35863   1.458   2.594   3.234 -0.1329 -0.3781  0.2168
 8076SOL    HW135864   1.467   2.553   3.320  1.2870  0.9534  0.7003
 8076SOL    HW235865   1.426   2.523   3.178 -0.9983 -0.2895  0.6016
 8077SOL     OW35866   2.860   4.585   1.939  0.1751  0.0927  0.1574
 8077SOL    HW135867   2.858   4.527   2.015  0.2897  0.2251  0.2619
 8077SOL    HW235868   2.901   4.536   1.867  2.2217 -0.0699  1.4472
 8078SOL     OW35869   4.252   4.215   5.057 -0.6323 -0.4008  0.1140
 8078SOL    HW135870   4.226   4.126   5.030  2.0032 -2.1845  3.4131
 8078SOL    HW235871   4.199   4.212   5.136 -1.3162 -1.7691 -0.3929
 8079SOL     OW35872   2.742   3.614   3.377 -0.5497  0.1067  0.0996
 8079SOL    HW135873   2.763   3.531   3.420  0.9314  0.7302  0.5738
 8079SOL    HW235874   2.701   3.664   3.447  0.8066 -1.3055  1.9241
 8080SOL     OW35875   2.258   1.131   8.115 -0.7437  0.3028  0.7005
 8080SOL    HW135876   2.176   1.177   8.136 -0.9064 -0.3014  1.3914
 8080SOL    HW235877   2.283   1.093   8.199  0.3260  0.9391  0.6636
 8081SOL     OW35878   3.520   1.282   3.636 -0.4120 -0.0507  0.5415
 8081SOL    HW135879   3.564   1.303   3.553  0.8881 -1.5013  0.8679
 8081SOL    HW235880   3.549   1.353   3.694  1.2055 -0.1982 -0.0683
 8082SOL     OW35881   4.435   1.130   4.124 -0.4993  0.3204  0.0835
 8082SOL    HW135882   4.409   1.113   4.034  1.0869 -0.0333 -0.3097
 8082SOL    HW235883   4.530   1.135   4.112 -0.9707  0.9524 -3.1074
 8083SOL     OW35884   2.202   0.130   2.917 -0.1761  0.4797  0.4691
 8083SOL    HW135885   2.140   0.066   2.883  0.9731  0.7242 -2.1173
 8083SOL    HW235886   2.152   0.211   2.932  0.6292  0.6506  2.2562
 8084SOL     OW35887   1.142   3.275   3.768 -0.2888 -0.3646  0.0548
 8084SOL    HW135888   1.071   3.213   3.778 -1.8620  1.2150 -1.3550
 8084SOL    HW235889   1.089   3.346   3.731  0.0286 -1.2554 -2.0745
 8085SOL     OW35890   2.194   0.732  15.633 -0.1366 -0.3150  0.1646
 8085SOL    HW135891   2.196   0.757  15.541 -0.2608  1.3233  0.5978
 8085SOL    HW235892   2.129   0.662  15.638  0.4554 -0.8817 -0.1874
 8086SOL     OW35893   2.972   2.728  11.906  0.1586  0.1815  0.4023
 8086SOL    HW135894   2.963   2.724  12.001 -1.8343  0.6229  0.2176
 8086SOL    HW235895   3.066   2.717  11.886 -0.1879 -1.1299 -0.5311
 8087SOL     OW35896   3.086   0.750  16.287 -0.3416 -0.2681  0.2195
 8087SOL    HW135897   3.074   0.689  16.360 -0.4152 -2.1812 -1.3870
 8087SOL    HW235898   3.176   0.730  16.261 -0.5394 -0.3167 -0.4155
 8088SOL     OW35899   3.941   0.534   0.198 -0.1915 -0.5802  0.0235
 8088SOL    HW135900   3.896   0.492   0.125  0.0079 -1.7102  0.5398
 8088SOL    HW235901   4.031   0.526   0.165 -0.0411 -0.5355  0.4266
 8089SOL     OW35902   2.871   3.924   2.422 -0.2496 -0.6122 -0.0442
 8089SOL    HW135903   2.887   3.892   2.511  0.9498  1.0233  0.3480
 8089SOL    HW235904   2.853   3.851   2.363 -0.3244 -0.3732 -0.3151
 8090SOL     OW35905   0.925   0.522   2.859  0.1618  0.0708  0.2618
 8090SOL    HW135906   0.858   0.467   2.900 -1.8757  2.1697 -0.2508
 8090SOL    HW235907   0.976   0.537   2.938  1.7312  1.4659 -1.0306
 8091SOL     OW35908   2.541   2.281   7.159 -0.3839  0.7088  0.2196
 8091SOL    HW135909   2.465   2.319   7.115 -1.0437 -1.9683 -0.9505
 8091SOL    HW235910   2.480   2.258   7.229 -0.6299 -3.1381 -1.2417
 8092SOL     OW35911   1.613   4.531   0.956  0.2012 -0.2272 -0.1673
 8092SOL    HW135912   1.706   4.527   0.936  0.1895 -0.9955 -0.0425
 8092SOL    HW235913   1.575   4.484   0.882  0.3911  0.0945 -0.4729
 8093SOL     OW35914   2.842   1.826   6.534  0.2110 -0.4599 -0.2836
 8093SOL    HW135915   2.809   1.898   6.588  1.6800  0.9135 -1.2514
 8093SOL    HW235916   2.824   1.747   6.585  0.4115  0.0916  0.6428
 8094SOL     OW35917   2.003   0.787   2.352 -0.5827 -0.0886  0.4512
 8094SOL    HW135918   1.935   0.753   2.411 -1.4110  0.7118 -0.0466
 8094SOL    HW235919   1.990   0.881   2.358 -0.2146 -0.0631  0.8618
 8095SOL     OW35920   0.975   1.867   4.012  0.2933  0.1634 -0.0987
 8095SOL    HW135921   0.989   1.961   4.001 -0.0842  0.2598  0.2344
 8095SOL    HW235922   0.978   1.840   3.921  0.2085  0.4443 -0.1851
 8096SOL     OW35923   3.604   2.117   7.201 -0.0564 -0.5855  0.6556
 8096SOL    HW135924   3.604   2.161   7.286  1.2593  0.0869  0.2997
 8096SOL    HW235925   3.697   2.125   7.180  0.2859 -0.4266  2.2079
 8097SOL     OW35926   0.981   2.288   7.297  0.1043  0.0235  0.0163
 8097SOL    HW135927   1.076   2.300   7.307  0.4422 -0.4670 -2.4891
 8097SOL    HW235928   0.959   2.203   7.334 -0.2577  0.1160  0.0107
 8098SOL     OW35929   1.175   4.723   2.341  0.2131 -0.4671 -0.0524
 8098SOL    HW135930   1.189   0.082   2.359 -0.4849 -0.4446  0.3619
 8098SOL    HW235931   1.189   4.724   2.246 -0.0541  0.9433 -0.0763
 8099SOL     OW35932   0.381   2.275   4.500  0.4297  0.1058 -0.0816
 8099SOL    HW135933   0.308   2.282   4.562 -0.7078 -2.1722 -1.1676
 8099SOL    HW235934   0.437   2.348   4.526  2.0904 -1.9196  2.0994
 8100SOL     OW35935   2.783   4.482  16.815  0.9481  0.3165  0.5125
 8100SOL    HW135936   2.871   4.460  16.783  0.3144  0.0277 -1.0302
 8100SOL    HW235937   2.751   4.535  16.742 -2.0924 -1.3083  0.6923
 8101SOL     OW35938   1.979   4.190  11.504  0.0109  0.5772  0.2324
 8101SOL    HW135939   2.003   4.282  11.516 -1.0108  0.6050  2.0454
 8101SOL    HW235940   1.919   4.172  11.576 -1.1569 -0.2714 -0.9531
 8102SOL     OW35941   2.053   2.412  15.411 -0.3618  0.0003 -0.0446
 8102SOL    HW135942   2.003   2.485  15.449 -0.5831 -0.6725  0.9486
 8102SOL    HW235943   2.133   2.465  15.400  0.6810 -1.0361  2.6885
 8103SOL     OW35944   2.536   2.933   7.934  0.7801 -0.0957 -0.0808
 8103SOL    HW135945   2.526   3.019   7.974 -1.1812  0.1531 -1.1173
 8103SOL    HW235946   2.449   2.916   7.896  0.7799  0.9717 -0.5577
 8104SOL     OW35947   4.342   1.331  17.144  0.7595  0.4588 -0.3280
 8104SOL    HW135948   4.266   1.349  17.200  0.0274  0.2843 -1.2546
 8104SOL    HW235949   4.333   1.398  17.076 -1.7840  0.5921  0.1179
 8105SOL     OW35950   1.138   2.131   3.933  0.4552  0.3698  0.1188
 8105SOL    HW135951   1.066   2.161   3.988 -0.4883 -0.6278 -0.5813
 8105SOL    HW235952   1.118   2.184   3.856  1.7868  0.4314 -0.1876
 8106SOL     OW35953   1.547   1.850   4.747 -0.0524  0.1748 -0.1401
 8106SOL    HW135954   1.581   1.939   4.747  2.5905 -0.7891  3.1075
 8106SOL    HW235955   1.628   1.799   4.753 -0.3405 -0.2635  0.0400
 8107SOL     OW35956   3.258   3.462   3.200 -0.0046  0.1380  0.1369
 8107SOL    HW135957   3.201   3.461   3.277  0.1865 -3.4503  0.2345
 8107SOL    HW235958   3.309   3.384   3.219  1.3599  1.3078  1.2771
 8108SOL     OW35959   3.382   1.633  13.800 -0.0525  0.2250 -0.4612
 8108SOL    HW135960   3.303   1.581  13.815  0.3992 -0.4394 -0.3966
 8108SOL    HW235961   3.348   1.721  13.814 -0.8491  0.0295 -1.1612
 8109SOL     OW35962   2.370   3.410   5.065 -0.7514  0.7208 -0.6458
 8109SOL    HW135963   2.309   3.349   5.107  0.6951  0.5991  1.2756
 8109SOL    HW235964   2.307   3.463   5.017  0.6634  1.1771 -1.9924
 8110SOL     OW35965   4.617   2.536   8.999 -0.1805 -0.0628  0.4804
 8110SOL    HW135966   4.648   2.616   8.955  3.4529 -0.2986  2.6107
 8110SOL    HW235967   4.548   2.511   8.938  0.3265  0.8813 -0.4814
 8111SOL     OW35968   4.188   0.286   8.560 -0.0235  0.2672 -0.2365
 8111SOL    HW135969   4.110   0.269   8.507 -0.6339  1.5273  0.2581
 8111SOL    HW235970   4.166   0.378   8.573  1.3898  0.5325  0.2582
 8112SOL     OW35971   4.314   1.227   2.471 -0.2257 -0.3422  0.2056
 8112SOL    HW135972   4.367   1.148   2.464  2.0956  1.0722  1.7993
 8112SOL    HW235973   4.259   1.201   2.545 -0.1508 -0.3359  0.2631
 8113SOL     OW35974   3.272   4.393   5.684  0.5917 -0.5824 -0.1837
 8113SOL    HW135975   3.194   4.445   5.703  1.4617  1.2546 -1.6938
 8113SOL    HW235976   3.305   4.362   5.769 -0.5568  0.3476  0.6036
 8114SOL     OW35977   0.028   2.080   4.560 -0.0376  0.4527  0.4922
 8114SOL    HW135978   0.048   2.170   4.585  0.7428  0.6249 -0.8093
 8114SOL    HW235979   0.009   2.046   4.648  0.4804 -1.2024 -0.0377
 8115SOL     OW35980   1.187   3.218   9.708 -0.4683 -0.1431 -0.1536
 8115SOL    HW135981   1.250   3.233   9.778 -1.0185  0.2685  0.2526
 8115SOL    HW235982   1.255   3.217   9.641  1.3269  0.9261  1.6684
 8116SOL     OW35983   0.177   1.961  16.559 -0.3024 -0.1216  0.2563
 8116SOL    HW135984   0.175   1.890  16.623  1.3877  1.3209  1.9134
 8116SOL    HW235985   0.200   1.907  16.483  1.2870  1.4378 -0.3865
 8117SOL     OW35986   2.254   3.243   3.903 -0.0379  0.5791  0.3301
 8117SOL    HW135987   2.201   3.308   3.949  1.2317  1.4702  0.5247
 8117SOL    HW235988   2.330   3.225   3.958 -1.9188  0.2697  2.8751
 8118SOL     OW35989   1.084   4.408   5.963  0.4627  0.0128 -0.7188
 8118SOL    HW135990   1.075   4.385   5.870 -1.5092 -1.0701 -0.2694
 8118SOL    HW235991   1.095   4.326   6.010 -2.0360  1.1346  1.8258
 8119SOL     OW35992   3.887   0.877   3.935  0.0296 -0.3285 -0.2473
 8119SOL    HW135993   3.829   0.953   3.942  1.0352  0.4738 -0.4797
 8119SOL    HW235994   3.974   0.915   3.925  0.3047 -0.5601  1.2066
 8120SOL     OW35995   0.419   0.224  15.687 -0.2462  0.3002 -0.5331
 8120SOL    HW135996   0.350   0.177  15.733  0.3719  0.7831  0.8686
 8120SOL    HW235997   0.398   0.312  15.718 -0.3976  0.1943 -0.3357
 8121SOL     OW35998   0.591   0.824   3.448  0.0816  0.3559 -0.1214
 8121SOL    HW135999   0.662   0.805   3.387 -1.1846  1.3422 -1.9196
 8121SOL    HW236000   0.512   0.784   3.412  0.3612 -0.5280  0.2541
 8122SOL     OW36001   2.868   3.844  10.151  0.0671  0.1967 -0.1915
 8122SOL    HW136002   2.818   3.762  10.149  2.9804 -1.5683 -1.1715
 8122SOL    HW236003   2.886   3.844  10.245 -4.2975 -0.0539  0.6528
 8123SOL     OW36004   4.408   2.129  13.194 -0.1772 -0.3178 -0.2650
 8123SOL    HW136005   4.382   2.210  13.239  2.3119 -0.4710  1.4838
 8123SOL    HW236006   4.476   2.163  13.136  1.8845 -0.1417  2.2627
 8124SOL     OW36007   3.187   0.797   4.271 -0.2943  0.4316  0.4276
 8124SOL    HW136008   3.168   0.738   4.199 -1.5686  1.5602 -0.1680
 8124SOL    HW236009   3.269   0.831   4.235 -0.2181  0.1769  0.3654
 8125SOL     OW36010   0.396   0.052   2.807  0.2001 -0.4279  0.6085
 8125SOL    HW136011   0.354   0.015   2.729  2.9219  2.3861 -2.1980
 8125SOL    HW236012   0.356   0.138   2.823  1.1887  0.0792  0.3207
 8126SOL     OW36013   0.285   0.391   8.855  0.1319  0.4488 -0.3114
 8126SOL    HW136014   0.205   0.343   8.832  0.6376  0.8450 -2.8362
 8126SOL    HW236015   0.338   0.331   8.908 -1.2726 -2.7376 -2.5355
 8127SOL     OW36016   4.039   4.721   7.744  0.0425 -0.0707  0.8726
 8127SOL    HW136017   3.955   4.687   7.774 -0.3034  0.4681  0.5109
 8127SOL    HW236018   4.094   4.670   7.803  0.1458  0.5165  1.2824
 8128SOL     OW36019   0.475   3.101   8.863  0.1274 -0.4683 -0.1484
 8128SOL    HW136020   0.502   3.094   8.954 -2.7829 -1.2557  0.6624
 8128SOL    HW236021   0.471   3.193   8.837  0.3412 -0.7002 -1.0080
 8129SOL     OW36022   0.273   1.463   9.371  0.4689 -0.3773  0.1763
 8129SOL    HW136023   0.293   1.383   9.420  1.9638 -0.1300 -0.0520
 8129SOL    HW236024   0.191   1.486   9.414  0.0494 -1.4214 -0.0423
 8130SOL     OW36025   0.873   4.714   2.320  0.0780  0.1882 -0.5551
 8130SOL    HW136026   0.863   0.024   2.236  2.1359 -0.6203 -1.2106
 8130SOL    HW236027   0.967   4.702   2.316  0.1111  0.5948 -0.9928
 8131SOL     OW36028   4.240   1.285   6.167 -0.2017 -0.0381 -0.5418
 8131SOL    HW136029   4.235   1.371   6.125  0.6458 -0.6094 -1.7892
 8131SOL    HW236030   4.287   1.240   6.097  2.4724  0.3983  0.9707
 8132SOL     OW36031   3.187   1.767   8.581  0.4193  0.5105  0.2046
 8132SOL    HW136032   3.252   1.804   8.521 -0.1478  0.3599 -0.4994
 8132SOL    HW236033   3.113   1.818   8.550  0.7974  0.6328 -0.5061
 8133SOL     OW36034   2.460   3.053   4.529  0.4275 -0.0320  0.8059
 8133SOL    HW136035   2.497   3.038   4.442 -0.1418  0.8108  0.4187
 8133SOL    HW236036   2.534   3.089   4.579  1.1172  0.5961 -0.6960
 8134SOL     OW36037   1.404   2.001   2.985 -0.0792  0.4726 -0.4025
 8134SOL    HW136038   1.399   1.907   2.965 -1.8955  0.3305  0.6282
 8134SOL    HW236039   1.493   2.003   3.019 -0.4933 -0.8500  0.7796
 8135SOL     OW36040   0.554   1.224   1.556 -0.9455 -0.0367  0.2237
 8135SOL    HW136041   0.504   1.148   1.586  0.1104 -0.7434  0.1931
 8135SOL    HW236042   0.618   1.180   1.499  1.0777  1.3533  1.4400
 8136SOL     OW36043   3.567   4.296   4.685  0.9214 -0.4644 -0.3670
 8136SOL    HW136044   3.503   4.347   4.736 -0.4149 -0.6022 -1.9097
 8136SOL    HW236045   3.616   4.365   4.640  3.4965 -1.4034  0.9810
 8137SOL     OW36046   2.279   0.342   3.827  0.6519 -0.1680  0.5318
 8137SOL    HW136047   2.285   0.286   3.750  2.2101  1.0812 -0.2570
 8137SOL    HW236048   2.336   0.295   3.888 -0.7344 -0.2276  1.7742
 8138SOL     OW36049   4.364   3.323   1.429 -0.2291  0.0484 -0.3776
 8138SOL    HW136050   4.426   3.369   1.373 -0.1278 -1.9795 -1.9115
 8138SOL    HW236051   4.385   3.358   1.515  0.5107 -0.6632 -0.2669
 8139SOL     OW36052   0.819   2.871   3.516 -0.5530 -0.5623  0.1138
 8139SOL    HW136053   0.745   2.859   3.575 -1.2375  1.3815 -0.3654
 8139SOL    HW236054   0.877   2.805   3.556  0.1892 -0.4734 -0.8093
 8140SOL     OW36055   3.487   0.458  16.261  0.2896 -0.4888  0.4426
 8140SOL    HW136056   3.398   0.434  16.288  0.4289 -0.3236  1.0491
 8140SOL    HW236057   3.499   0.386  16.200 -1.0256 -1.4379  1.3143
 8141SOL     OW36058   3.978   1.694   2.136  0.1486  0.2701  0.1172
 8141SOL    HW136059   4.030   1.753   2.191 -1.3000  1.8953 -0.2667
 8141SOL    HW236060   4.050   1.646   2.095  0.7845 -0.0144  1.5390
 8142SOL     OW36061   0.983   1.622   7.318  0.0807 -0.1152  0.1110
 8142SOL    HW136062   0.889   1.638   7.329  0.0355  0.4914 -1.1313
 8142SOL    HW236063   1.006   1.659   7.233 -0.6049 -0.9041 -0.4191
 8143SOL     OW36064   3.428   4.439   6.416  0.1409  0.1595  0.4204
 8143SOL    HW136065   3.495   4.501   6.444  1.5669 -2.2949  2.5062
 8143SOL    HW236066   3.351   4.495   6.411 -0.1653 -0.3400 -0.3221
 8144SOL     OW36067   4.574   0.293  17.634  0.5955 -0.0597 -0.0392
 8144SOL    HW136068   4.614   0.358  17.691  0.0648 -0.2352  0.5339
 8144SOL    HW236069   4.507   0.343  17.588 -0.8756 -1.5755  0.4469
 8145SOL     OW36070   0.153   2.991   5.518 -0.0393  0.4049  0.1199
 8145SOL    HW136071   0.141   3.070   5.465  1.1034  0.2049 -0.4392
 8145SOL    HW236072   0.113   2.933   5.453 -0.0655 -1.3161  1.6950
 8146SOL     OW36073   2.496   0.288  15.513  0.0428  0.3438 -0.6122
 8146SOL    HW136074   2.458   0.323  15.593  1.1270 -0.9883  0.4732
 8146SOL    HW236075   2.475   0.366  15.461 -0.6989 -1.3564 -2.8534
 8147SOL     OW36076   2.261   0.927   1.093 -0.2049  0.6920  0.0444
 8147SOL    HW136077   2.318   0.883   1.156  2.0801  0.6408 -2.0226
 8147SOL    HW236078   2.319   0.913   1.018  0.7166 -1.0430  1.0820
 8148SOL     OW36079   3.567   2.138   0.868 -0.5980  0.0673 -0.1723
 8148SOL    HW136080   3.548   2.215   0.922 -0.9339 -0.6346  0.7113
 8148SOL    HW236081   3.630   2.180   0.809  0.9204 -0.0397  1.3602
 8149SOL     OW36082   0.797   2.822   2.672  0.2924 -0.0526  0.1999
 8149SOL    HW136083   0.845   2.842   2.752  1.7689  0.1997 -0.7454
 8149SOL    HW236084   0.776   2.908   2.636  1.0024  0.8480  1.9186
 8150SOL     OW36085   1.993   1.477   4.899  0.4176 -0.1628 -0.4020
 8150SOL    HW136086   1.908   1.436   4.913  0.5996 -0.9749 -1.6271
 8150SOL    HW236087   2.057   1.422   4.943 -0.3870 -0.5661  0.2621
 8151SOL     OW36088   3.500   3.438   4.558 -0.0489 -0.1835  0.0093
 8151SOL    HW136089   3.406   3.421   4.560 -0.0315 -0.2251  0.7353
 8151SOL    HW236090   3.538   3.351   4.573 -0.9182  0.1795  4.4954
 8152SOL     OW36091   2.216   0.196   6.438 -0.1059  0.2152  0.4251
 8152SOL    HW136092   2.299   0.173   6.396 -0.2332  2.4078 -1.0531
 8152SOL    HW236093   2.187   0.264   6.376 -0.5371 -0.8133 -0.4979
 8153SOL     OW36094   2.122   2.819   7.160 -0.0030  0.2314  0.4001
 8153SOL    HW136095   2.079   2.880   7.100  1.4175  1.5105  0.6713
 8153SOL    HW236096   2.211   2.827   7.125  0.1204 -0.7757  0.4868
 8154SOL     OW36097   0.353   2.161  11.627  0.6918 -0.0038  0.3562
 8154SOL    HW136098   0.433   2.156  11.574  1.5013  0.5276  1.5225
 8154SOL    HW236099   0.305   2.219  11.568 -2.1032  0.7398  3.3119
 8155SOL     OW36100   3.897   0.726  11.994 -0.0912 -0.8783 -0.0343
 8155SOL    HW136101   3.895   0.821  11.992  2.8078 -0.8764 -2.5360
 8155SOL    HW236102   3.894   0.713  12.088  2.7491  0.0983  0.1852
 8156SOL     OW36103   2.799   4.120   4.706 -0.3037 -0.2480  0.2389
 8156SOL    HW136104   2.774   4.041   4.657 -0.4715 -0.3032  0.4136
 8156SOL    HW236105   2.869   4.160   4.655  0.7479  0.6792  2.4569
 8157SOL     OW36106   4.381   1.099   3.845 -0.0222 -0.1916 -0.3349
 8157SOL    HW136107   4.424   1.177   3.810  0.9308 -1.2476 -1.5171
 8157SOL    HW236108   4.395   1.031   3.779 -0.5326  0.9668 -1.6234
 8158SOL     OW36109   1.137   1.548  10.984  0.5728  0.8778  0.1237
 8158SOL    HW136110   1.088   1.473  10.952 -3.5881  3.9291 -0.6050
 8158SOL    HW236111   1.158   1.521  11.074  2.0468  0.8726 -0.2190
 8159SOL     OW36112   1.686   0.123  17.633  0.0427  0.5562 -0.1653
 8159SOL    HW136113   1.736   0.190  17.680  0.2205 -0.7105  1.4242
 8159SOL    HW236114   1.630   0.097  17.705  0.2771 -0.8744 -0.5067
 8160SOL     OW36115   1.700   3.386  13.313  0.4023 -0.7872 -0.9251
 8160SOL    HW136116   1.654   3.350  13.388 -0.2681  1.6041 -0.1872
 8160SOL    HW236117   1.732   3.300  13.288 -0.6170 -0.7322 -2.4447
 8161SOL     OW36118   3.572   3.203   8.382  0.8155  0.0381  0.0613
 8161SOL    HW136119   3.482   3.171   8.374  0.6259  1.0196 -1.8566
 8161SOL    HW236120   3.570   3.299   8.387 -1.1924  0.0049 -0.1159
 8162SOL     OW36121   3.441   1.500   9.351 -0.1720  0.2604 -0.3537
 8162SOL    HW136122   3.420   1.430   9.414 -2.0884  1.4675  0.3528
 8162SOL    HW236123   3.364   1.512   9.295 -0.6313 -0.3694  0.1386
 8163SOL     OW36124   4.230   0.724   4.057  0.8782 -0.2527 -0.4411
 8163SOL    HW136125   4.195   0.781   3.987 -0.1427  1.2251  1.2780
 8163SOL    HW236126   4.318   0.757   4.072  0.6922 -0.1354  0.3772
 8164SOL     OW36127   2.546   0.691   2.826  0.0184 -0.6648 -0.5268
 8164SOL    HW136128   2.463   0.737   2.836 -0.7174 -1.8827 -1.1157
 8164SOL    HW236129   2.574   0.696   2.734  0.0970 -2.7545 -0.6098
 8165SOL     OW36130   1.296   3.976   7.199  0.1382 -0.6498 -0.3012
 8165SOL    HW136131   1.233   3.977   7.127  0.2668  1.4728 -0.4049
 8165SOL    HW236132   1.259   3.910   7.257  0.1097 -0.3485  0.0269
 8166SOL     OW36133   0.003   1.947   4.035  0.0921 -0.6582 -0.3924
 8166SOL    HW136134   4.652   1.908   4.051  1.6296 -3.3217  1.4369
 8166SOL    HW236135   0.049   1.919   4.115  0.3017 -1.3563 -0.7615
 8167SOL     OW36136   0.330   1.294   5.688  0.0572 -0.0473 -0.2915
 8167SOL    HW136137   0.319   1.384   5.720 -1.4803 -0.0078 -0.9193
 8167SOL    HW236138   0.424   1.283   5.697 -0.0900  0.3922  1.9712
 8168SOL     OW36139   2.746   4.670  17.636  0.3791 -0.0047  0.0671
 8168SOL    HW136140   2.766   4.634  17.722  3.9580 -0.9691 -1.1729
 8168SOL    HW236141   2.668   4.725  17.633  0.7474  0.4193 -1.6240
 8169SOL     OW36142   1.079   4.481   0.611  0.1088  0.3018  0.2359
 8169SOL    HW136143   0.987   4.455   0.611  0.5347 -1.1448  1.5431
 8169SOL    HW236144   1.112   4.410   0.665  2.8959  1.3455 -0.1100
 8170SOL     OW36145   2.477   3.182   8.057  0.2333  0.2585 -0.1978
 8170SOL    HW136146   2.383   3.189   8.041  0.0477 -0.6818  0.4581
 8170SOL    HW236147   2.472   3.175   8.152 -1.2829  2.1609 -0.1459
 8171SOL     OW36148   1.847   3.909   1.680  0.6008  0.1510  0.2007
 8171SOL    HW136149   1.774   3.888   1.739  1.6215 -3.8710  0.0462
 8171SOL    HW236150   1.803   3.978   1.630 -1.8053 -0.3436  1.6316
 8172SOL     OW36151   3.556   0.744   9.603 -0.0787 -0.0493 -0.5379
 8172SOL    HW136152   3.478   0.694   9.581  0.5636 -1.8212  1.1620
 8172SOL    HW236153   3.513   0.825   9.630  0.6783  0.4198 -0.7350
 8173SOL     OW36154   3.042   2.154  12.478  0.3449  0.6404  0.4479
 8173SOL    HW136155   2.949   2.135  12.488  0.4245  1.8012  3.3474
 8173SOL    HW236156   3.054   2.148  12.383 -0.4870  3.4949  0.1517
 8174SOL     OW36157   1.283   0.056  16.182  0.3842 -0.3127  0.0915
 8174SOL    HW136158   1.263   0.137  16.135 -2.1894  0.3996  2.4340
 8174SOL    HW236159   1.201   0.023  16.218 -0.6673  0.7042 -1.3899
 8175SOL     OW36160   1.838   1.196   6.449 -0.1178  0.5519  0.6539
 8175SOL    HW136161   1.891   1.136   6.502 -2.9434 -0.6911  2.0594
 8175SOL    HW236162   1.832   1.158   6.362 -1.9061 -2.3124  2.0190
 8176SOL     OW36163   4.707   2.878   2.278 -0.1643 -0.7931 -0.1806
 8176SOL    HW136164   0.047   2.877   2.218 -0.4963  0.7354 -0.6045
 8176SOL    HW236165   4.643   2.937   2.239  2.8760  2.4951 -0.1851
 8177SOL     OW36166   0.897   3.081  15.937 -0.0488  0.0925  0.3804
 8177SOL    HW136167   0.851   3.005  15.974  0.5582 -0.5736 -0.2358
 8177SOL    HW236168   0.886   3.056  15.845 -3.2104 -2.4393  1.4226
 8178SOL     OW36169   0.934   2.897  10.061 -0.0830  0.8126  0.3731
 8178SOL    HW136170   0.909   2.837  10.132 -3.3796  3.6792  1.6078
 8178SOL    HW236171   1.018   2.922  10.101  0.6569 -1.4117  0.2647
 8179SOL     OW36172   1.831   1.506   2.417  0.1548  0.1433  0.0340
 8179SOL    HW136173   1.745   1.548   2.428  0.4339  0.3767  1.3284
 8179SOL    HW236174   1.802   1.432   2.472 -1.0385  0.7072  0.1769
 8180SOL     OW36175   0.826   1.435   4.738  0.0089  0.8970 -0.0266
 8180SOL    HW136176   0.794   1.425   4.828 -2.4982  1.7112 -0.8491
 8180SOL    HW236177   0.880   1.358   4.717 -2.3748 -0.7362 -0.2455
 8181SOL     OW36178   2.104   4.433   7.867  0.0900  0.1628 -0.2707
 8181SOL    HW136179   2.140   4.392   7.788  1.5037  0.6100  0.1338
 8181SOL    HW236180   2.057   4.360   7.907  2.1891 -0.6514  0.7294
 8182SOL     OW36181   0.132   2.603  15.819  0.0092  0.1397 -0.0615
 8182SOL    HW136182   0.109   2.652  15.741 -0.6152  1.9728  1.2890
 8182SOL    HW236183   0.156   2.676  15.876 -0.9060  2.0581 -2.1507
 8183SOL     OW36184   2.162   0.013   2.483 -0.1787  0.0904  0.3678
 8183SOL    HW136185   2.162   4.653   2.469 -0.8258  0.0723  0.4734
 8183SOL    HW236186   2.110   0.008   2.564  1.2326 -1.8000  1.1541
 8184SOL     OW36187   4.280   0.870  11.552  0.3828  0.1075  0.6594
 8184SOL    HW136188   4.235   0.835  11.629  0.5463 -0.7059  0.3943
 8184SOL    HW236189   4.208   0.896  11.494  0.9398 -1.0511 -0.5543
 8185SOL     OW36190   0.315   0.948   1.962 -0.2125  0.2065 -0.8761
 8185SOL    HW136191   0.306   0.951   2.057  2.7494 -2.0901 -0.5348
 8185SOL    HW236192   0.230   0.908   1.942 -0.1215  0.4349 -1.7444
 8186SOL     OW36193   1.488   2.970   5.595  0.4968 -0.4030  0.2252
 8186SOL    HW136194   1.566   3.024   5.580 -0.3335  0.4010 -1.1770
 8186SOL    HW236195   1.522   2.884   5.571  1.0463  0.3143 -1.5343
 8187SOL     OW36196   1.382   4.438   2.241 -0.0327 -0.1430 -0.5813
 8187SOL    HW136197   1.382   4.457   2.147 -0.9651 -1.5657 -0.8668
 8187SOL    HW236198   1.344   4.351   2.232  0.3093 -0.3756  0.2083
 8188SOL     OW36199   0.538   3.178   2.236  0.3766  0.3193 -0.0500
 8188SOL    HW136200   0.607   3.228   2.279 -0.7557  2.5363 -0.8279
 8188SOL    HW236201   0.592   3.112   2.192 -1.1288 -0.5051 -0.6517
 8189SOL     OW36202   1.234   3.817   5.325 -0.5242 -0.4357  0.1200
 8189SOL    HW136203   1.210   3.856   5.409 -0.5101  0.9355 -0.5138
 8189SOL    HW236204   1.328   3.806   5.337 -0.1622  1.3081 -1.0694
 8190SOL     OW36205   2.057   3.265   5.832  0.0611  0.5494 -0.3466
 8190SOL    HW136206   2.132   3.324   5.843  1.8373 -1.8653  0.3300
 8190SOL    HW236207   2.098   3.188   5.794 -0.4993 -1.2481  2.7401
 8191SOL     OW36208   0.565   2.418   7.880  0.4451  0.2754  0.4648
 8191SOL    HW136209   0.563   2.484   7.810 -3.5534 -0.1758  0.1953
 8191SOL    HW236210   0.480   2.377   7.867  1.3375 -1.1284 -0.8398
 8192SOL     OW36211   4.089   4.196   8.030  0.5969  0.0499 -0.2567
 8192SOL    HW136212   4.182   4.187   8.013  0.7263 -0.1267  0.5214
 8192SOL    HW236213   4.068   4.103   8.038 -0.1193  0.4144  2.2895
 8193SOL     OW36214   2.177   2.183  12.032 -0.1031 -0.1914 -0.3656
 8193SOL    HW136215   2.155   2.142  11.948 -0.6994 -0.9520  0.1621
 8193SOL    HW236216   2.237   2.118  12.068 -2.0576 -1.4172  0.7082
 8194SOL     OW36217   2.612   1.019   7.201  0.6275 -0.5633 -0.0480
 8194SOL    HW136218   2.539   1.081   7.191 -0.4228 -2.0806 -1.8465
 8194SOL    HW236219   2.666   1.060   7.134 -0.6166  3.7661  1.6036
 8195SOL     OW36220   4.026   4.564   7.494 -0.3480 -0.3922  0.2090
 8195SOL    HW136221   4.028   4.627   7.566  0.2830 -0.1363 -0.0373
 8195SOL    HW236222   4.061   4.483   7.531 -0.2539 -0.8824 -0.9545
 8196SOL     OW36223   1.218   1.621   1.027  0.0736  0.3669  0.2590
 8196SOL    HW136224   1.165   1.684   1.076  2.0675  1.6153  0.8355
 8196SOL    HW236225   1.226   1.666   0.943  0.3984  2.3901  1.3616
 8197SOL     OW36226   4.604   2.697  17.651  0.2113 -0.1978 -0.5209
 8197SOL    HW136227   4.610   2.750  17.730 -1.0681 -0.6518 -0.1303
 8197SOL    HW236228   4.521   2.721  17.611  0.6980  0.1056 -1.3575
 8198SOL     OW36229   1.130   3.643  12.272  0.1474 -0.3705 -0.1766
 8198SOL    HW136230   1.153   3.621  12.181 -0.1921 -0.9188 -0.1328
 8198SOL    HW236231   1.215   3.644  12.315  0.6837 -0.0641 -1.2393
 8199SOL     OW36232   1.285   3.650   6.235  0.8459  0.0362  0.4578
 8199SOL    HW136233   1.320   3.575   6.186  1.0718  0.6014 -0.2483
 8199SOL    HW236234   1.235   3.691   6.164 -0.5873 -0.4076  1.2172
 8200SOL     OW36235   1.435   1.941  17.161 -0.7980 -0.6956  0.0802
 8200SOL    HW136236   1.448   1.988  17.243  0.8952 -1.3503  0.1842
 8200SOL    HW236237   1.521   1.924  17.122 -1.2564 -0.7499 -0.9041
 8201SOL     OW36238   0.903   2.439   7.640  0.6033  0.2680  0.2819
 8201SOL    HW136239   0.831   2.375   7.640 -1.8248  2.9803 -0.1879
 8201SOL    HW236240   0.965   2.381   7.683 -1.0354 -0.8025  1.2173
 8202SOL     OW36241   1.906   3.505  14.972  0.0412 -0.6283 -0.9980
 8202SOL    HW136242   1.824   3.537  15.011 -2.0147 -3.1215 -3.2327
 8202SOL    HW236243   1.935   3.582  14.923  2.5025  0.0066  1.4482
 8203SOL     OW36244   3.473   0.460   2.572  0.2601  0.4607 -0.8755
 8203SOL    HW136245   3.491   0.464   2.478 -2.2724 -0.3846 -1.3936
 8203SOL    HW236246   3.547   0.411   2.607 -1.2679 -0.5734  0.9154
 8204SOL     OW36247   1.832   2.802  10.959  0.3979  0.2577  0.3556
 8204SOL    HW136248   1.799   2.717  10.927  0.2107 -0.0843  1.4692
 8204SOL    HW236249   1.845   2.785  11.052  0.5764  4.1478  0.9998
 8205SOL     OW36250   0.981   1.699   3.006 -0.8508  0.3303  0.4091
 8205SOL    HW136251   0.923   1.670   3.076  0.9106  1.4416  2.2963
 8205SOL    HW236252   1.065   1.723   3.044 -0.5055 -0.2187 -0.0024
 8206SOL     OW36253   0.699   2.527  17.568  0.4728 -0.4193  0.4515
 8206SOL    HW136254   0.724   2.435  17.566 -1.9836 -1.0898  0.9032
 8206SOL    HW236255   0.656   2.539  17.652 -0.9606  4.3762 -0.9338
 8207SOL     OW36256   0.081   2.327  15.741  0.1896  0.1211 -0.5022
 8207SOL    HW136257   0.096   2.411  15.783  2.4522  0.6882 -2.5026
 8207SOL    HW236258   0.017   2.281  15.795 -0.8639  2.5300  0.2878
 8208SOL     OW36259   3.312   3.119   2.296 -0.3427 -0.0706 -0.0109
 8208SOL    HW136260   3.402   3.147   2.278 -0.6703  0.9006 -0.1202
 8208SOL    HW236261   3.274   3.163   2.220 -0.6052  1.0173  0.7531
 8209SOL     OW36262   3.396   2.735   4.547 -0.4027 -0.3084  0.8768
 8209SOL    HW136263   3.490   2.719   4.537  0.2646  3.1743  1.6049
 8209SOL    HW236264   3.362   2.647   4.533 -1.3047  0.0647  0.7237
 8210SOL     OW36265   2.607   2.488  13.234  0.5821  0.2330  0.4121
 8210SOL    HW136266   2.526   2.537  13.251  0.1061 -0.2425 -0.5235
 8210SOL    HW236267   2.585   2.399  13.262  0.3092  0.2474  0.2367
 8211SOL     OW36268   2.236   0.702   0.847 -0.0484 -0.4394 -0.0643
 8211SOL    HW136269   2.310   0.761   0.860 -0.2520 -0.0964 -0.4636
 8211SOL    HW236270   2.220   0.736   0.759  0.4935  3.1938  1.2081
 8212SOL     OW36271   3.263   4.514   3.357 -0.5743 -0.2609  0.7693
 8212SOL    HW136272   3.209   4.539   3.282 -2.0967 -0.6358  1.7275
 8212SOL    HW236273   3.334   4.472   3.310 -1.0614  0.1321 -0.3365
 8213SOL     OW36274   0.784   2.146  16.743 -0.3064 -0.5162  0.1562
 8213SOL    HW136275   0.839   2.147  16.821 -0.8771 -1.2789  0.5635
 8213SOL    HW236276   0.846   2.145  16.670  0.9371  2.5902  1.1411
 8214SOL     OW36277   1.493   3.071   5.296 -0.0874 -0.0514 -0.5055
 8214SOL    HW136278   1.519   3.090   5.386 -0.5681  1.4729 -0.6942
 8214SOL    HW236279   1.525   3.150   5.253 -1.8436  0.8758 -0.0773
 8215SOL     OW36280   0.429   2.890   3.822 -0.5179  0.0955 -0.2907
 8215SOL    HW136281   0.381   2.958   3.776  0.2258  1.3078  0.7217
 8215SOL    HW236282   0.491   2.951   3.863  0.4880  0.5497 -2.4840
 8216SOL     OW36283   0.384   3.303   2.050 -0.2300 -0.4581 -0.2352
 8216SOL    HW136284   0.303   3.262   2.079 -0.3715  0.9547  1.3975
 8216SOL    HW236285   0.443   3.257   2.110 -1.3895 -0.2826  1.0285
 8217SOL     OW36286   4.217   0.573   5.604  0.2893 -0.4096  0.1211
 8217SOL    HW136287   4.206   0.496   5.548 -1.1817 -0.8046  0.9625
 8217SOL    HW236288   4.139   0.553   5.654  0.4854 -0.3148  0.4658
 8218SOL     OW36289   4.452   4.100   4.405  0.3790  0.3193 -0.0327
 8218SOL    HW136290   4.449   4.004   4.405  0.5902  0.3114 -0.3613
 8218SOL    HW236291   4.471   4.113   4.312  0.3975 -1.4227 -0.2741
 8219SOL     OW36292   4.188   2.378   3.969  0.0335 -0.6761 -0.0322
 8219SOL    HW136293   4.216   2.325   3.895  0.8399 -0.6930  0.2816
 8219SOL    HW236294   4.277   2.410   3.986 -0.0696  0.3603 -1.4475
 8220SOL     OW36295   1.846   0.358  12.550  0.4561 -0.4704  0.3095
 8220SOL    HW136296   1.861   0.295  12.479 -1.8714 -1.3648  0.5896
 8220SOL    HW236297   1.810   0.307  12.623 -1.1748 -0.0024 -0.1590
 8221SOL     OW36298   1.523   4.002   2.263  0.6800 -0.3897 -0.5026
 8221SOL    HW136299   1.458   4.072   2.273  1.9026  0.5236  0.8873
 8221SOL    HW236300   1.586   4.019   2.333 -0.9325  0.9354  0.6372
 8222SOL     OW36301   3.466   0.495   6.252 -0.4318 -0.0395 -0.3647
 8222SOL    HW136302   3.511   0.464   6.330  1.3668  0.6567 -1.1308
 8222SOL    HW236303   3.377   0.512   6.285 -0.1036  0.3143  0.3214
 8223SOL     OW36304   3.191   0.545   6.962 -0.0891  0.3030  0.3691
 8223SOL    HW136305   3.096   0.555   6.952  0.0270  2.7245  1.6926
 8223SOL    HW236306   3.205   0.501   7.046 -3.1695 -0.6733  0.3631
 8224SOL     OW36307   3.283   1.493   4.759  0.7563  0.0751 -0.3156
 8224SOL    HW136308   3.273   1.403   4.791 -2.5088  0.3056 -0.6545
 8224SOL    HW236309   3.260   1.470   4.669 -1.5854 -2.4411  0.8923
 8225SOL     OW36310   4.678   3.769   5.925  0.0227 -0.8912  0.0298
 8225SOL    HW136311   4.686   3.742   6.017 -0.3268 -3.2062 -0.6212
 8225SOL    HW236312   4.651   3.860   5.918 -3.0154 -1.6419  1.9793
 8226SOL     OW36313   4.344   1.322   1.529  0.4616 -0.3791  0.2156
 8226SOL    HW136314   4.397   1.393   1.567 -1.0788  1.5211 -1.1925
 8226SOL    HW236315   4.398   1.283   1.461  1.2508  0.0283  0.6063
 8227SOL     OW36316   4.421   0.950   8.001 -0.5693  0.1927  0.2847
 8227SOL    HW136317   4.429   0.877   7.940 -2.3402  0.8889 -0.7867
 8227SOL    HW236318   4.504   0.996   7.987 -0.2197 -0.6337 -0.3527
 8228SOL     OW36319   3.458   3.227   6.597 -0.2865 -0.1157 -0.0631
 8228SOL    HW136320   3.526   3.294   6.591 -0.7538  0.2022 -1.9696
 8228SOL    HW236321   3.478   3.155   6.537  1.3138  0.2303  0.0503
 8229SOL     OW36322   0.102   2.423   4.063 -0.3084  0.1027 -0.4392
 8229SOL    HW136323   0.073   2.499   4.012 -0.7031 -0.2383 -0.7269
 8229SOL    HW236324   0.049   2.354   4.023 -0.2348  0.2655 -0.8171
 8230SOL     OW36325   1.140   3.625   3.797 -0.0568  0.3444 -0.1031
 8230SOL    HW136326   1.057   3.632   3.750 -0.1732 -0.0873  0.0392
 8230SOL    HW236327   1.177   3.713   3.786  1.3079 -0.4405 -1.7875
 8231SOL     OW36328   3.613   4.256  10.576 -0.2282  0.0322  0.0871
 8231SOL    HW136329   3.599   4.177  10.524 -0.0328  0.7292 -1.0292
 8231SOL    HW236330   3.684   4.295  10.526  0.6646 -1.1288  0.4667
 8232SOL     OW36331   2.313   4.289   9.683 -0.2730 -0.1380 -0.1820
 8232SOL    HW136332   2.402   4.318   9.666 -0.2163 -1.5168 -2.3019
 8232SOL    HW236333   2.324   4.202   9.722  2.0566 -0.0061 -0.5549
 8233SOL     OW36334   2.856   3.351   7.120  0.5487  0.3893 -0.5102
 8233SOL    HW136335   2.762   3.334   7.122  0.9747 -1.9903 -0.7462
 8233SOL    HW236336   2.879   3.366   7.212  0.0550  0.0957 -0.3414
 8234SOL     OW36337   1.079   2.633   5.534 -0.2180  0.1111 -0.1465
 8234SOL    HW136338   1.006   2.673   5.580 -0.2464  1.6803 -1.5597
 8234SOL    HW236339   1.075   2.673   5.447  0.8099 -0.0788 -0.2935
 8235SOL     OW36340   3.287   3.810   8.243 -0.4821 -0.4899 -0.0221
 8235SOL    HW136341   3.199   3.782   8.268 -0.1104 -2.0954 -0.5052
 8235SOL    HW236342   3.283   3.858   8.160 -1.0599 -0.0957  0.2359
 8236SOL     OW36343   0.865   1.656  13.484 -0.0412  0.0506 -0.2100
 8236SOL    HW136344   0.887   1.615  13.568 -0.0304 -0.5536 -0.5029
 8236SOL    HW236345   0.897   1.743  13.507 -4.5278  1.8827 -0.9943
 8237SOL     OW36346   3.180   3.336   4.298 -0.1687  0.2870  0.5803
 8237SOL    HW136347   3.201   3.403   4.363 -1.2604 -1.3822  2.6719
 8237SOL    HW236348   3.096   3.373   4.272 -0.0297  0.6565  0.6644
 8238SOL     OW36349   1.681   1.065   7.238 -0.4491  0.0003  0.3130
 8238SOL    HW136350   1.598   1.066   7.190  0.9832  1.4229 -2.0963
 8238SOL    HW236351   1.728   1.138   7.198 -1.7980 -0.0489 -1.3773
 8239SOL     OW36352   0.440   1.448   0.748  0.0392  0.1774 -0.2388
 8239SOL    HW136353   0.478   1.445   0.660  0.7135  3.3598 -0.0501
 8239SOL    HW236354   0.407   1.537   0.745 -1.2651 -0.3095 -0.4914
 8240SOL     OW36355   0.674   0.422   2.941 -0.3016  0.4304  0.2150
 8240SOL    HW136356   0.663   0.340   2.990 -0.9048  1.1380  1.2735
 8240SOL    HW236357   0.621   0.395   2.866  1.9726 -0.9953 -0.8615
 8241SOL     OW36358   0.621   2.783   3.674 -0.0168 -0.0191 -0.5193
 8241SOL    HW136359   0.601   2.705   3.624 -2.0638  0.5677 -0.6451
 8241SOL    HW236360   0.539   2.812   3.715 -0.1719  0.5441 -1.2313
 8242SOL     OW36361   2.793   2.081   5.169 -0.2507 -0.5512  0.3436
 8242SOL    HW136362   2.743   2.016   5.118  1.5367 -2.1993  0.6698
 8242SOL    HW236363   2.722   2.128   5.211  0.2367 -0.4876  1.0930
 8243SOL     OW36364   2.540   0.190   9.445 -0.2522 -0.2628  0.1725
 8243SOL    HW136365   2.564   0.230   9.361 -0.1373  1.5180  1.0444
 8243SOL    HW236366   2.446   0.198   9.432 -0.4015 -2.4383  0.0135
 8244SOL     OW36367   2.321   2.555   2.280 -0.6929  0.1801  0.5288
 8244SOL    HW136368   2.269   2.475   2.279  1.8531 -1.4963  1.8920
 8244SOL    HW236369   2.349   2.551   2.188  0.3782 -0.5380  0.8831
 8245SOL     OW36370   2.268   2.367   6.556  0.1917 -0.5083  0.2992
 8245SOL    HW136371   2.247   2.450   6.600  1.3136  1.7653 -3.3787
 8245SOL    HW236372   2.194   2.314   6.584  0.0822  0.5930  2.0889
 8246SOL     OW36373   2.637   4.346   9.453  0.0820 -0.2090 -0.2015
 8246SOL    HW136374   2.733   4.349   9.454  0.0251  2.5853 -2.3400
 8246SOL    HW236375   2.612   4.369   9.542  0.0550  0.2067 -0.3170
 8247SOL     OW36376   1.469   0.719   0.757 -0.1845 -0.2057 -0.1974
 8247SOL    HW136377   1.429   0.802   0.780 -0.5248 -0.6577  0.8425
 8247SOL    HW236378   1.457   0.730   0.662 -0.5807 -0.6879 -0.2014
 8248SOL     OW36379   0.335   2.282   9.075  0.4418  0.4048  0.1208
 8248SOL    HW136380   0.370   2.295   8.987  0.7257 -0.1689  0.1503
 8248SOL    HW236381   0.255   2.335   9.080  0.8962  1.2578 -1.6800
 8249SOL     OW36382   1.112   3.807   7.864 -0.1495 -0.0915 -0.4876
 8249SOL    HW136383   1.174   3.831   7.795 -0.8882 -0.5310 -1.2884
 8249SOL    HW236384   1.117   3.712   7.860  1.1573 -0.0063 -0.8892
 8250SOL     OW36385   2.074   1.770   6.489 -0.3639  0.2492  0.3059
 8250SOL    HW136386   2.123   1.709   6.545  1.9235 -0.3896 -2.3869
 8250SOL    HW236387   2.031   1.822   6.558 -0.1964  1.3931 -0.4570
 8251SOL     OW36388   1.606   3.243   2.901 -0.2035 -0.4134  0.0459
 8251SOL    HW136389   1.651   3.169   2.942  0.6478  0.4767  0.7232
 8251SOL    HW236390   1.517   3.217   2.924 -0.3362 -0.0726 -0.0839
 8252SOL     OW36391   0.799   0.876   5.173 -0.2450 -0.4364  0.4921
 8252SOL    HW136392   0.869   0.811   5.182  0.3504  0.1914  0.3617
 8252SOL    HW236393   0.844   0.939   5.117 -0.0625 -1.4065 -0.4384
 8253SOL     OW36394   3.716   2.132  11.268  0.0015 -0.5065 -0.7974
 8253SOL    HW136395   3.638   2.170  11.226  0.4512 -0.7704 -1.8615
 8253SOL    HW236396   3.751   2.214  11.305 -0.4312 -0.5108 -0.3778
 8254SOL     OW36397   3.870   0.511  14.520  0.1840  0.3355  0.2688
 8254SOL    HW136398   3.840   0.474  14.603  1.4654  0.3300  0.7397
 8254SOL    HW236399   3.802   0.577  14.517  0.0199  0.2542  1.8989
 8255SOL     OW36400   1.779   3.252   1.190 -0.0134  0.4637  0.0544
 8255SOL    HW136401   1.711   3.235   1.255 -0.3164  1.1920 -0.0766
 8255SOL    HW236402   1.857   3.275   1.241  1.7738  1.4887 -3.1390
 8256SOL     OW36403   0.461   3.398   8.544  0.4287 -0.3772 -0.5301
 8256SOL    HW136404   0.520   3.435   8.611 -1.6674 -1.8643  2.1373
 8256SOL    HW236405   0.515   3.332   8.500  0.3800 -1.5163  1.1105
 8257SOL     OW36406   3.476   3.695   3.632 -0.0947 -0.2415  0.0267
 8257SOL    HW136407   3.456   3.755   3.561 -0.3025  1.3033  1.3828
 8257SOL    HW236408   3.433   3.621   3.589  1.2597 -0.8792 -0.2506
 8258SOL     OW36409   3.203   3.376   3.808  0.5195  0.0584  0.0817
 8258SOL    HW136410   3.289   3.409   3.836 -0.1231 -0.5283  2.7527
 8258SOL    HW236411   3.147   3.432   3.862 -0.6864 -0.4690 -0.6376
 8259SOL     OW36412   2.972   4.657   6.257 -0.3034 -0.3848 -0.1341
 8259SOL    HW136413   3.063   4.638   6.281 -0.1407  0.9708  0.3262
 8259SOL    HW236414   2.932   4.591   6.313 -1.7822  0.2239 -0.4863
 8260SOL     OW36415   0.886   0.265   3.997 -0.3404  0.2527  0.2750
 8260SOL    HW136416   0.807   0.318   3.986 -1.2004 -1.1175 -0.1330
 8260SOL    HW236417   0.851   0.177   3.985  0.8414 -0.2542  0.5290
 8261SOL     OW36418   4.188   0.027   6.778  0.2507  0.4566  0.1834
 8261SOL    HW136419   4.174   4.670   6.806  2.9615 -1.0181 -3.1850
 8261SOL    HW236420   4.133   0.074   6.839 -0.0482  3.5290 -2.4666
 8262SOL     OW36421   4.643   0.642  15.926 -0.2399 -0.1679  0.0112
 8262SOL    HW136422   4.663   0.729  15.891  0.2480 -0.0241  0.6405
 8262SOL    HW236423   4.550   0.624  15.921 -0.6321  0.7192  4.4427
 8263SOL     OW36424   1.262   0.578   7.339 -0.1558 -0.8851  0.3612
 8263SOL    HW136425   1.212   0.541   7.411 -1.7770  0.5604 -0.0319
 8263SOL    HW236426   1.343   0.527   7.350  2.0787  2.0739 -2.1425
 8264SOL     OW36427   4.348   1.686   8.142 -0.4868 -0.3428  0.0093
 8264SOL    HW136428   4.404   1.763   8.128 -0.0661 -1.1160 -2.5084
 8264SOL    HW236429   4.370   1.624   8.073 -1.9483 -0.5980 -0.2165
 8265SOL     OW36430   2.394   2.975  16.795 -0.0250 -0.0703 -0.0633
 8265SOL    HW136431   2.468   2.999  16.739  0.8508 -0.0810  1.0658
 8265SOL    HW236432   2.333   2.937  16.732  3.0333  0.3662 -3.2731
 8266SOL     OW36433   2.345   3.165   2.322 -0.2592 -0.4959  0.0566
 8266SOL    HW136434   2.430   3.177   2.363 -0.2323  0.0951 -0.1719
 8266SOL    HW236435   2.288   3.225   2.369  1.0964  0.5124  0.3954
 8267SOL     OW36436   4.050   4.205   5.235  0.3864  0.2101  0.1856
 8267SOL    HW136437   3.964   4.198   5.193  1.2625  0.2908 -1.6348
 8267SOL    HW236438   4.032   4.142   5.305  0.7233 -1.8925 -1.6103
 8268SOL     OW36439   0.093   4.051  14.983  0.4331 -0.3088 -0.0064
 8268SOL    HW136440   0.012   4.068  14.933  0.4423 -0.8907 -0.2167
 8268SOL    HW236441   0.086   4.116  15.053  1.6617 -1.5546  1.2489
 8269SOL     OW36442   3.394   3.626  15.244 -0.3008 -0.0511 -0.7323
 8269SOL    HW136443   3.369   3.625  15.336 -2.3738 -3.4402 -1.3102
 8269SOL    HW236444   3.486   3.602  15.248 -0.2773  0.2414  0.3138
 8270SOL     OW36445   3.743   2.059   8.851 -0.1225  0.1257 -0.1743
 8270SOL    HW136446   3.834   2.045   8.875 -0.7239 -1.6908  1.0529
 8270SOL    HW236447   3.750   2.147   8.887 -0.4932  1.3307 -3.0079
 8271SOL     OW36448   2.325   3.249  11.570 -0.1734 -0.3531  0.2739
 8271SOL    HW136449   2.242   3.202  11.581 -0.4822  0.4949  1.4890
 8271SOL    HW236450   2.369   3.184  11.516  0.9939  0.2301  0.5308
 8272SOL     OW36451   2.424   3.881   2.656 -0.0452  0.2408 -0.2000
 8272SOL    HW136452   2.500   3.823   2.656 -0.0598  0.2219 -0.2649
 8272SOL    HW236453   2.364   3.835   2.597  0.2179  1.2952 -1.2950
 8273SOL     OW36454   0.849   3.661   6.582  0.0136 -0.2555  0.5404
 8273SOL    HW136455   0.803   3.702   6.654 -1.3596 -0.0859 -0.4257
 8273SOL    HW236456   0.920   3.606   6.616 -0.1383 -2.7471 -3.0873
 8274SOL     OW36457   2.159   3.674   5.197  0.1605  0.1407 -0.0080
 8274SOL    HW136458   2.249   3.705   5.197  0.3155 -0.2990  0.6259
 8274SOL    HW236459   2.153   3.635   5.110  4.2910  0.2826 -0.3487
 8275SOL     OW36460   1.503   3.594  16.203  0.5003 -0.2285  0.8258
 8275SOL    HW136461   1.541   3.563  16.285  1.1894  0.4135  0.7495
 8275SOL    HW236462   1.504   3.686  16.230  1.3717  1.8522 -6.2284
 8276SOL     OW36463   3.312   4.056   4.756  0.1191  0.3805 -0.4437
 8276SOL    HW136464   3.388   4.054   4.814 -0.4121  1.2689  0.2685
 8276SOL    HW236465   3.283   4.147   4.764  0.3818  0.4244 -0.0169
 8277SOL     OW36466   3.659   0.842   5.119  0.2174 -0.2626 -0.3750
 8277SOL    HW136467   3.670   0.789   5.198 -0.7509 -0.6911 -0.5132
 8277SOL    HW236468   3.749   0.872   5.119 -0.2611  1.1864  1.4310
 8278SOL     OW36469   3.881   2.546   9.714  0.0720 -0.5323 -0.5139
 8278SOL    HW136470   3.831   2.597   9.777  2.1646 -0.8205  1.3906
 8278SOL    HW236471   3.819   2.546   9.641 -1.0533 -0.2263  0.4505
 8279SOL     OW36472   1.928   0.092  17.520 -0.0086 -0.2495 -0.0334
 8279SOL    HW136473   1.834   0.091  17.538 -0.2986 -0.1349 -1.5259
 8279SOL    HW236474   1.921   0.160  17.453 -1.1948 -0.5239 -0.1805
 8280SOL     OW36475   0.322   3.262   9.502 -0.2387 -0.3133 -0.0156
 8280SOL    HW136476   0.375   3.313   9.563 -0.6567 -0.6926  0.6599
 8280SOL    HW236477   0.244   3.317   9.495 -0.5139 -0.5031  1.6274
 8281SOL     OW36478   3.254   1.127  11.942 -0.7408  0.5281  0.1406
 8281SOL    HW136479   3.291   1.214  11.957 -0.5831  0.6728 -1.0687
 8281SOL    HW236480   3.320   1.091  11.883  1.1090  3.4940  0.4003
 8282SOL     OW36481   2.737   4.364   0.724 -0.0938  0.3906  0.4410
 8282SOL    HW136482   2.804   4.394   0.785  0.5021  0.0979 -0.0699
 8282SOL    HW236483   2.798   4.314   0.670 -0.5813 -1.3675  1.5012
 8283SOL     OW36484   2.357   0.358   5.009  0.5690  0.0791  0.3506
 8283SOL    HW136485   2.379   0.359   5.102  4.0038 -0.4716 -0.4229
 8283SOL    HW236486   2.360   0.269   4.975  1.0641  0.6872 -1.1965
 8284SOL     OW36487   4.125   0.625   4.718 -0.0829  0.0164  0.1696
 8284SOL    HW136488   4.102   0.546   4.768  0.2936  0.0551  0.4033
 8284SOL    HW236489   4.047   0.638   4.663  1.5241 -0.2322 -2.1614
 8285SOL     OW36490   0.383   3.706   8.958  0.1496  0.4704  0.6642
 8285SOL    HW136491   0.411   3.738   8.872 -0.5943 -2.3368 -0.6484
 8285SOL    HW236492   0.449   3.732   9.022  2.1020 -1.8589 -0.3596
 8286SOL     OW36493   3.041   3.708  15.171 -0.3284 -0.3481 -0.1439
 8286SOL    HW136494   3.072   3.672  15.088 -1.3945  1.6676 -1.4148
 8286SOL    HW236495   2.946   3.712  15.159 -0.4491 -1.4833  0.3881
 8287SOL     OW36496   0.940   1.176   0.407 -0.3077  0.1770  0.0387
 8287SOL    HW136497   0.870   1.126   0.364 -0.6402  1.2943 -0.7133
 8287SOL    HW236498   0.889   1.240   0.458  2.3690  1.6093  0.9108
 8288SOL     OW36499   3.026   1.795  15.485  0.2832  0.2057  0.1155
 8288SOL    HW136500   3.090   1.842  15.433 -0.7208 -0.0704 -1.3804
 8288SOL    HW236501   2.950   1.849  15.466  0.2341 -0.2187 -0.9220
 8289SOL     OW36502   0.083   3.805   6.727 -0.0455  0.3567 -0.2109
 8289SOL    HW136503   0.155   3.771   6.780  1.9036 -0.9246 -3.7124
 8289SOL    HW236504   0.012   3.771   6.782  1.6195 -0.2899  1.5304
 8290SOL     OW36505   4.027   0.356   4.192  0.2817 -0.1661 -0.5477
 8290SOL    HW136506   3.995   0.441   4.221  0.8919  0.1049 -0.6694
 8290SOL    HW236507   3.981   0.350   4.108 -0.5191  0.8189 -0.1807
 8291SOL     OW36508   1.446   0.539  11.752 -0.2420  0.2833 -0.1496
 8291SOL    HW136509   1.406   0.595  11.818  0.1692  1.8334 -1.2148
 8291SOL    HW236510   1.538   0.556  11.775 -0.6796  2.1685  0.1850
 8292SOL     OW36511   4.656   4.109   8.788  0.0403 -0.0688 -0.2351
 8292SOL    HW136512   0.003   4.070   8.820  0.5875  1.6361  0.4382
 8292SOL    HW236513   4.601   4.091   8.864  1.1385  0.9100  0.7683
 8293SOL     OW36514   2.284   2.022  16.259  0.5278  0.0616  0.5325
 8293SOL    HW136515   2.230   2.041  16.183 -0.6695  0.3544  1.4674
 8293SOL    HW236516   2.369   2.060  16.235 -0.1642  1.9856  1.1354
 8294SOL     OW36517   1.355   0.601   9.077  0.0593 -0.6694 -0.2984
 8294SOL    HW136518   1.382   0.607   9.168 -0.7134 -0.4241 -0.0837
 8294SOL    HW236519   1.264   0.590   9.105  0.8550  1.9639  3.3611
 8295SOL     OW36520   2.906   1.078   2.956  0.3428 -0.6141  0.1137
 8295SOL    HW136521   2.866   1.119   2.880  1.9773  1.6429  0.4500
 8295SOL    HW236522   2.890   1.134   3.032 -1.9192  0.1663 -0.9326
 8296SOL     OW36523   1.162   0.267   0.140  0.5014 -0.8614 -0.1594
 8296SOL    HW136524   1.205   0.329   0.199  0.6096  0.7284 -1.9315
 8296SOL    HW236525   1.086   0.312   0.104  0.4839  1.6383  3.0595
 8297SOL     OW36526   4.009   1.283   5.961  0.3370 -0.1815  0.8461
 8297SOL    HW136527   4.036   1.202   5.918  1.4756  0.1757  0.9094
 8297SOL    HW236528   4.017   1.267   6.055 -0.3817 -0.0720  0.9293
 8298SOL     OW36529   2.412   0.244   4.586  0.4555 -0.1910 -0.4106
 8298SOL    HW136530   2.456   0.329   4.588  0.8153 -0.3202 -2.4818
 8298SOL    HW236531   2.326   0.276   4.611  1.5462  1.0582  1.7857
 8299SOL     OW36532   3.288   4.313   4.828 -0.8121 -0.2684  0.3847
 8299SOL    HW136533   3.341   4.337   4.904  1.2963 -0.9524 -0.8671
 8299SOL    HW236534   3.257   4.400   4.802 -0.8022 -0.5649 -0.5931
 8300SOL     OW36535   2.557   0.041   0.309  0.2305  0.1517 -0.2070
 8300SOL    HW136536   2.614   0.109   0.346  0.1727  0.2387 -0.2766
 8300SOL    HW236537   2.475   0.090   0.299 -0.4404 -0.8840  0.2712
 8301SOL     OW36538   0.898   4.282   2.051 -0.3715 -0.1654 -0.2742
 8301SOL    HW136539   0.834   4.211   2.046  0.0705 -0.6411  0.8363
 8301SOL    HW236540   0.956   4.244   2.117 -0.6572 -0.8174 -0.3924
 8302SOL     OW36541   1.544   2.492   3.631 -0.8311 -0.5521  0.2731
 8302SOL    HW136542   1.501   2.409   3.609  0.1917 -1.3024  1.0563
 8302SOL    HW236543   1.604   2.496   3.557 -1.2426 -2.3113 -0.1594
 8303SOL     OW36544   1.683   4.230   9.804  0.2181  0.0808  0.4984
 8303SOL    HW136545   1.652   4.306   9.755 -0.3885  1.0581  2.3836
 8303SOL    HW236546   1.604   4.176   9.807  0.0898  0.3062  1.1926
 8304SOL     OW36547   0.459   3.741   7.596  0.6223 -0.0642  0.2683
 8304SOL    HW136548   0.520   3.668   7.600 -0.1439 -0.6627  1.0147
 8304SOL    HW236549   0.384   3.702   7.640  0.0818  1.6666  0.8857
 8305SOL     OW36550   2.974   2.649   1.672 -0.0619 -0.0781 -0.2219
 8305SOL    HW136551   3.013   2.723   1.626 -0.0313 -0.1623 -0.3307
 8305SOL    HW236552   2.889   2.683   1.698 -0.2753 -1.1518  0.4674
 8306SOL     OW36553   3.040   1.105   4.117  0.4935 -0.0461  0.3913
 8306SOL    HW136554   3.001   1.037   4.171 -0.2829  0.6154  0.6679
 8306SOL    HW236555   3.134   1.086   4.116  0.2649 -1.2216  1.4286
 8307SOL     OW36556   3.999   3.521   6.568 -0.1317  0.5597 -0.3529
 8307SOL    HW136557   4.069   3.520   6.633 -0.1571  2.0168 -0.2976
 8307SOL    HW236558   4.035   3.561   6.489 -0.0687  0.7376 -0.2338
 8308SOL     OW36559   0.972   0.953   7.221 -0.2263  0.0567  0.5334
 8308SOL    HW136560   0.987   0.862   7.194 -3.7276  0.3813 -2.5006
 8308SOL    HW236561   0.984   0.956   7.316 -1.1266 -1.5150  0.7035
 8309SOL     OW36562   1.515   2.035   8.464 -0.2175  0.4189 -0.0398
 8309SOL    HW136563   1.472   2.091   8.527  0.0242  0.0889  0.4200
 8309SOL    HW236564   1.456   1.960   8.470  0.9784 -0.4198  1.3160
 8310SOL     OW36565   3.942   0.412  14.274  0.1738 -0.1587 -0.1803
 8310SOL    HW136566   3.896   0.472  14.216  1.3605  1.5558  0.6313
 8310SOL    HW236567   3.932   0.444  14.364 -0.0083 -0.3570 -0.1290
 8311SOL     OW36568   0.705   0.899   8.948  0.4137 -0.7412 -0.4620
 8311SOL    HW136569   0.736   0.835   9.012 -0.1365  1.5724  2.1442
 8311SOL    HW236570   0.609   0.902   8.956  0.6619 -0.1731  2.3960
 8312SOL     OW36571   1.342   1.599   4.446 -0.0783 -0.1170 -0.1755
 8312SOL    HW136572   1.433   1.604   4.417 -0.2082  1.6821 -0.2577
 8312SOL    HW236573   1.308   1.522   4.400 -0.0415  0.4348 -1.1377
 8313SOL     OW36574   0.908   1.387   2.470 -0.1273  0.2337  0.2146
 8313SOL    HW136575   0.927   1.295   2.452  0.0641 -0.2596  2.8560
 8313SOL    HW236576   0.845   1.409   2.402  1.6329 -0.8667 -1.7581
 8314SOL     OW36577   1.886   1.091   8.464  0.3295  0.1189  0.0961
 8314SOL    HW136578   1.807   1.108   8.412 -1.0630 -0.7114  1.9071
 8314SOL    HW236579   1.898   1.005   8.425  0.0081  0.4529 -0.7300
 8315SOL     OW36580   0.144   2.525   9.487 -0.5797 -0.4559  0.2478
 8315SOL    HW136581   0.219   2.486   9.531  0.8995  2.9979  0.7549
 8315SOL    HW236582   0.094   2.455   9.445  0.9765 -0.7149 -1.1629
 8316SOL     OW36583   4.547   1.692  14.507  0.2064  0.1643  0.6643
 8316SOL    HW136584   4.584   1.645  14.432  2.7022  2.9779  0.1524
 8316SOL    HW236585   4.575   1.639  14.581 -1.8449 -1.5754  0.2097
 8317SOL     OW36586   1.920   2.204   2.859  0.0343  0.0166  0.0602
 8317SOL    HW136587   1.990   2.261   2.827  0.7036 -1.8684 -1.8994
 8317SOL    HW236588   1.949   2.118   2.827  0.8578 -0.0740  1.0836
 8318SOL     OW36589   4.608   4.453   2.243  0.3356  0.2975 -0.2133
 8318SOL    HW136590   4.667   4.521   2.276  3.5042 -1.7869 -1.5190
 8318SOL    HW236591   4.642   4.431   2.156 -0.6587 -1.7187 -0.0904
 8319SOL     OW36592   3.283   3.766   2.739 -0.4927 -0.2149  0.2609
 8319SOL    HW136593   3.199   3.733   2.772  0.2989 -0.2221  2.3019
 8319SOL    HW236594   3.264   3.809   2.656  3.0859  1.6383  0.3552
 8320SOL     OW36595   1.305   3.589  17.719  0.3960 -0.3821 -0.0690
 8320SOL    HW136596   1.263   3.565  17.637  1.2275 -1.8960 -0.0466
 8320SOL    HW236597   1.358   3.660  17.682 -0.6949  0.0725 -0.7731
 8321SOL     OW36598   4.569   2.175   5.487  0.1225  0.0033  0.2771
 8321SOL    HW136599   4.523   2.092   5.498 -0.1392  0.1416  0.2414
 8321SOL    HW236600   4.592   2.210   5.573  0.3887 -0.1800  0.2806
 8322SOL     OW36601   4.360   2.374   2.520 -0.2999  0.9653 -0.1028
 8322SOL    HW136602   4.389   2.465   2.534 -0.7446  1.6496 -3.4965
 8322SOL    HW236603   4.272   2.382   2.555  0.6714  2.0644  2.0997
 8323SOL     OW36604   3.802   1.528  12.645 -0.6241 -0.0949  0.1523
 8323SOL    HW136605   3.854   1.571  12.712  0.1982  0.3236 -0.7500
 8323SOL    HW236606   3.711   1.525  12.673 -0.5848 -1.8051  0.1083
 8324SOL     OW36607   0.375   1.225   2.498 -0.3053 -0.0291 -0.1151
 8324SOL    HW136608   0.381   1.229   2.593  0.7152  3.4407 -0.3185
 8324SOL    HW236609   0.382   1.131   2.478 -0.9310 -0.0881 -0.0634
 8325SOL     OW36610   2.535   2.219  12.088  0.2561  0.2257 -0.1204
 8325SOL    HW136611   2.553   2.206  11.995 -0.6739 -0.7417 -0.1664
 8325SOL    HW236612   2.467   2.153  12.103 -0.4473  1.0255  0.2120
 8326SOL     OW36613   1.209   2.150   5.248 -0.3707  0.5821  0.1064
 8326SOL    HW136614   1.195   2.241   5.276 -1.4172  0.7131 -0.8660
 8326SOL    HW236615   1.183   2.163   5.157 -0.6941  1.6204  0.3465
 8327SOL     OW36616   1.144   2.956  14.187  0.1577 -0.4424 -0.4102
 8327SOL    HW136617   1.116   2.979  14.275  1.8855 -1.7170  0.4653
 8327SOL    HW236618   1.065   2.982  14.139 -0.0340 -0.1789  0.0441
 8328SOL     OW36619   1.650   3.375  16.902  0.0320 -0.7969 -0.2909
 8328SOL    HW136620   1.679   3.292  16.939 -1.8960 -1.4634 -0.3045
 8328SOL    HW236621   1.583   3.401  16.965  0.2900  1.7564 -1.0670
 8329SOL     OW36622   0.681   1.553   7.728 -0.6169 -0.0459 -0.1265
 8329SOL    HW136623   0.748   1.595   7.781 -0.0957  0.4358 -1.1564
 8329SOL    HW236624   0.663   1.636   7.683  0.7682  0.3465  0.0423
 8330SOL     OW36625   4.377   0.279   7.488  0.0163 -0.2943 -0.2149
 8330SOL    HW136626   4.462   0.269   7.446 -0.5190 -3.3702 -0.5192
 8330SOL    HW236627   4.382   0.201   7.544 -2.5245 -0.2767  0.0161
 8331SOL     OW36628   0.233   0.355   9.974  0.0078  0.2129  0.5168
 8331SOL    HW136629   0.274   0.432   9.935 -1.0287  2.2573  3.4540
 8331SOL    HW236630   0.162   0.399  10.022 -0.9263  0.5312 -1.1411
 8332SOL     OW36631   0.921   3.961   5.198  0.2531  0.3135 -0.1285
 8332SOL    HW136632   0.946   4.028   5.261  0.8308  3.3769 -3.5707
 8332SOL    HW236633   0.981   3.976   5.124 -1.3274 -1.8354 -1.8677
 8333SOL     OW36634   2.489   4.186   2.075  0.4188  0.1439  0.3768
 8333SOL    HW136635   2.523   4.242   2.145 -0.6635  0.0127  1.0038
 8333SOL    HW236636   2.415   4.146   2.122 -0.4688 -0.0273 -1.1721
 8334SOL     OW36637   3.371   1.747   5.361 -0.4923 -0.2809 -0.4708
 8334SOL    HW136638   3.281   1.771   5.338 -0.2439  1.4074  0.2989
 8334SOL    HW236639   3.402   1.824   5.408  1.2799 -0.7417 -0.8844
 8335SOL     OW36640   0.955   2.721  16.353  0.0339 -0.8504  0.2014
 8335SOL    HW136641   0.952   2.817  16.355 -2.9407 -0.8891 -2.7772
 8335SOL    HW236642   1.003   2.697  16.433 -0.7730  0.2666  1.0359
 8336SOL     OW36643   4.715   1.843   5.578 -0.1274  0.1373  0.1133
 8336SOL    HW136644   0.051   1.822   5.517 -0.5976 -0.7674 -0.1159
 8336SOL    HW236645   4.640   1.796   5.541 -1.1797  1.2273  0.8892
 8337SOL     OW36646   4.725   0.242  15.650 -0.3419  0.4423 -0.2004
 8337SOL    HW136647   4.688   0.259  15.737  0.2010  0.6576 -0.0107
 8337SOL    HW236648   4.650   0.204  15.604 -1.4272  1.3364  0.8401
 8338SOL     OW36649   2.932   3.988   3.051  0.6215  0.5054  0.1440
 8338SOL    HW136650   2.999   4.047   3.083  0.7981  1.5369 -2.1418
 8338SOL    HW236651   2.857   4.029   3.094  0.7481 -0.9222  1.7355
 8339SOL     OW36652   0.177   1.279   1.324  0.8740 -0.1784  0.5176
 8339SOL    HW136653   0.211   1.198   1.284  0.3492 -0.4657  0.6536
 8339SOL    HW236654   0.167   1.250   1.415 -1.4750 -1.8400 -0.2578
 8340SOL     OW36655   0.057   3.797  13.318 -0.1222 -0.0383 -0.3973
 8340SOL    HW136656   0.138   3.752  13.293  1.2250  1.2816  1.5536
 8340SOL    HW236657   0.037   3.860  13.248 -1.3772 -0.4768 -0.4353
 8341SOL     OW36658   2.932   4.089   3.452 -0.5825  0.0336 -0.0997
 8341SOL    HW136659   2.905   4.015   3.399 -2.8719  0.1320  0.9079
 8341SOL    HW236660   2.857   4.147   3.437 -0.9099 -0.2131  0.5806
 8342SOL     OW36661   2.867   1.983   7.717 -0.3166  0.1983 -0.2167
 8342SOL    HW136662   2.949   2.001   7.670 -0.4279 -0.7491 -0.7973
 8342SOL    HW236663   2.805   2.025   7.657 -0.9387  1.4988  1.3590
 8343SOL     OW36664   1.232   1.822   4.178 -0.0836  0.2549 -0.2827
 8343SOL    HW136665   1.188   1.737   4.188  2.2125 -1.1424 -1.9326
 8343SOL    HW236666   1.162   1.863   4.128 -0.0232 -1.2558 -1.6287
 8344SOL     OW36667   2.180   3.673   2.181  0.3031  0.8977  0.6459
 8344SOL    HW136668   2.180   3.617   2.258  0.8376 -2.1357 -1.5475
 8344SOL    HW236669   2.221   3.613   2.117 -2.2087  0.5178 -0.6346
 8345SOL     OW36670   2.356   1.020   2.572  0.0407 -0.0707 -0.3039
 8345SOL    HW136671   2.406   0.969   2.508  0.0393  1.3798 -1.4313
 8345SOL    HW236672   2.284   1.046   2.515  0.8751  1.3819 -0.6837
 8346SOL     OW36673   3.710   3.941   8.308 -0.4798 -0.3189  0.6742
 8346SOL    HW136674   3.792   3.943   8.358  0.9513 -1.3669 -1.6245
 8346SOL    HW236675   3.721   4.012   8.245 -0.5672 -1.3453 -0.4920
 8347SOL     OW36676   3.701   3.902   1.439  0.8992 -0.5890 -0.1256
 8347SOL    HW136677   3.734   3.814   1.455  1.3370 -0.1392  1.4799
 8347SOL    HW236678   3.650   3.880   1.362 -0.3150 -2.7362  1.2996
 8348SOL     OW36679   3.117   4.597   3.963 -0.0136 -0.5474  0.5874
 8348SOL    HW136680   3.056   4.660   3.923  0.9037 -0.2535 -0.3490
 8348SOL    HW236681   3.203   4.624   3.931 -0.2291  1.0780  1.3552
 8349SOL     OW36682   3.127   3.471   8.500  0.1665  0.4578  0.4055
 8349SOL    HW136683   3.072   3.508   8.569  0.0661 -0.4969  0.8445
 8349SOL    HW236684   3.201   3.529   8.482  0.9660 -0.6200  0.2383
 8350SOL     OW36685   2.602   1.867   1.854 -0.1404 -0.3172  0.2328
 8350SOL    HW136686   2.638   1.822   1.778 -0.3118 -0.2477  0.1124
 8350SOL    HW236687   2.646   1.808   1.916 -0.9398  0.1332  1.2184
 8351SOL     OW36688   1.270   1.829   2.577 -0.5027  0.2995 -0.4686
 8351SOL    HW136689   1.251   1.850   2.486  1.0879 -0.2349 -0.9158
 8351SOL    HW236690   1.191   1.863   2.621 -0.3429  0.3287 -0.2018
 8352SOL     OW36691   3.141   1.811   5.233  0.4161 -0.2344  0.1383
 8352SOL    HW136692   3.112   1.888   5.185  0.8272  0.3714  0.8540
 8352SOL    HW236693   3.145   1.745   5.164  0.0382 -1.0746  0.9109
 8353SOL     OW36694   2.586   1.885   7.236 -0.8612  0.0617 -0.2172
 8353SOL    HW136695   2.507   1.832   7.232 -0.7230 -0.0995 -0.8118
 8353SOL    HW236696   2.627   1.862   7.153 -2.5114  1.8529 -1.5184
 8354SOL     OW36697   4.325   2.507   9.296  0.3435  0.1089 -0.4477
 8354SOL    HW136698   4.286   2.594   9.304 -0.8786 -0.4909  0.0681
 8354SOL    HW236699   4.419   2.525   9.293  0.0423  1.9680  1.5506
 8355SOL     OW36700   2.210   2.973   2.478 -0.0310 -0.2770  0.2295
 8355SOL    HW136701   2.247   3.024   2.405 -0.5894 -0.7632 -0.3931
 8355SOL    HW236702   2.271   2.900   2.490  0.0427 -0.1503  0.6401
 8356SOL     OW36703   0.728   2.351   4.365 -0.0518  0.2899  0.0078
 8356SOL    HW136704   0.652   2.293   4.364  1.0337 -1.1943  2.8574
 8356SOL    HW236705   0.797   2.288   4.386 -2.8353 -2.3779  1.2309
 8357SOL     OW36706   4.730   4.486   1.976  0.1981 -0.4572  0.3110
 8357SOL    HW136707   0.067   4.446   1.926 -1.0213 -0.5399 -1.3749
 8357SOL    HW236708   0.030   4.575   1.991 -0.5713 -0.2396  0.7543
 8358SOL     OW36709   4.011   0.485   5.735 -1.0115 -0.6712 -0.8704
 8358SOL    HW136710   4.040   0.395   5.749 -0.4879 -0.1834  1.2086
 8358SOL    HW236711   3.921   0.489   5.769 -0.7182 -1.6848  0.0353
 8359SOL     OW36712   1.493   3.411   5.497  0.1161  0.2178  0.5951
 8359SOL    HW136713   1.400   3.403   5.516  0.2593 -0.0874  1.1411
 8359SOL    HW236714   1.537   3.344   5.548  2.0363 -0.5079 -2.0398
 8360SOL     OW36715   0.611   0.057   1.831  0.4314  0.0303 -1.2133
 8360SOL    HW136716   0.582   0.053   1.740 -2.0065 -0.0673 -0.4240
 8360SOL    HW236717   0.706   0.054   1.822  0.5515  0.5526 -0.1335
 8361SOL     OW36718   2.418   3.231   4.180 -0.2279  0.0502  0.3321
 8361SOL    HW136719   2.454   3.150   4.216 -1.6775 -0.6021  0.3107
 8361SOL    HW236720   2.330   3.227   4.218 -0.7067  2.7223 -0.5140
 8362SOL     OW36721   4.653   1.718   6.266 -0.1757  0.2085  0.0361
 8362SOL    HW136722   4.691   1.794   6.223  0.0290  1.0538  1.7253
 8362SOL    HW236723   4.732   1.683   6.308  0.3912 -1.5597 -2.4809
 8363SOL     OW36724   3.196   2.812   3.381  0.2481  0.3025 -0.3394
 8363SOL    HW136725   3.202   2.813   3.286  1.4848 -0.2242 -0.2784
 8363SOL    HW236726   3.186   2.719   3.402  1.2363  0.1554 -0.5183
 8364SOL     OW36727   1.672   0.649   2.297 -0.3228  0.0050  0.5810
 8364SOL    HW136728   1.592   0.613   2.336 -1.6472  2.5513  0.2298
 8364SOL    HW236729   1.729   0.638   2.374 -0.1974 -0.5301  0.4051
 8365SOL     OW36730   0.743   2.763   9.820  0.1947 -0.2301 -0.4096
 8365SOL    HW136731   0.785   2.838   9.861 -0.3166 -0.6115  0.8072
 8365SOL    HW236732   0.821   2.709   9.802  1.1567  1.6706 -1.8786
 8366SOL     OW36733   3.513   0.074  15.286 -0.1094  0.6836 -0.3881
 8366SOL    HW136734   3.467   4.725  15.278  1.3753  0.0758 -2.6406
 8366SOL    HW236735   3.451   0.134  15.244 -0.6434 -0.0389 -0.6250
 8367SOL     OW36736   4.386   3.283   3.078  0.1311  0.7280 -0.1532
 8367SOL    HW136737   4.354   3.326   3.157  0.0278 -1.6844  1.1209
 8367SOL    HW236738   4.453   3.225   3.115  0.6224  0.0627 -2.0917
 8368SOL     OW36739   1.544   0.552  11.235 -0.2313  0.7161 -0.1778
 8368SOL    HW136740   1.462   0.599  11.221  0.8630  3.0352  1.3053
 8368SOL    HW236741   1.588   0.624  11.280 -0.0409  0.8757 -0.6182
 8369SOL     OW36742   0.454   0.570   5.103 -0.1949  0.3616 -0.0663
 8369SOL    HW136743   0.502   0.628   5.045 -0.8737 -0.5680 -1.5437
 8369SOL    HW236744   0.375   0.548   5.054  1.3346 -0.9383 -1.9027
 8370SOL     OW36745   1.872   0.679   4.642 -0.2135 -0.4102  0.2885
 8370SOL    HW136746   1.955   0.685   4.594 -1.3116  1.6861 -1.3594
 8370SOL    HW236747   1.826   0.618   4.584 -1.0115 -0.9434  1.4851
 8371SOL     OW36748   0.667   3.192   9.471  0.9643 -0.3082 -0.5285
 8371SOL    HW136749   0.742   3.241   9.506 -0.1308  0.8703  0.1486
 8371SOL    HW236750   0.630   3.259   9.414  0.8274  0.9625  1.0411
 8372SOL     OW36751   3.766   0.220   6.209 -0.3793 -0.2559 -0.2395
 8372SOL    HW136752   3.805   0.133   6.209  0.0876 -0.0465 -0.5502
 8372SOL    HW236753   3.759   0.241   6.302  0.4540  1.2654 -0.5264
 8373SOL     OW36754   2.075   2.174   9.380 -0.2531  0.0460 -0.0056
 8373SOL    HW136755   2.130   2.192   9.457  1.3098  0.1276 -1.1293
 8373SOL    HW236756   2.030   2.258   9.383  1.5506  0.9166  3.1785
 8374SOL     OW36757   1.251   3.599   7.604 -0.0060 -0.6584 -0.0508
 8374SOL    HW136758   1.191   3.574   7.674 -0.4111  0.1395 -0.1021
 8374SOL    HW236759   1.291   3.679   7.641 -0.2692 -1.4159  1.8878
 8375SOL     OW36760   3.699   1.380   8.332  0.0594 -0.1505  0.0063
 8375SOL    HW136761   3.786   1.419   8.326 -0.4483  1.2692  1.6799
 8375SOL    HW236762   3.670   1.383   8.241 -0.2980 -2.2044  0.0578
 8376SOL     OW36763   1.030   4.435   4.992 -0.1828 -0.4566 -0.7373
 8376SOL    HW136764   0.963   4.378   5.030  0.0802  0.2004  0.7005
 8376SOL    HW236765   1.043   4.387   4.910 -0.0743 -0.2273 -0.8548
 8377SOL     OW36766   2.060   2.108   6.648 -0.2037  0.5208 -0.2508
 8377SOL    HW136767   2.010   2.169   6.595 -0.7145  0.2180 -0.1171
 8377SOL    HW236768   2.071   2.166   6.723  0.0407 -0.6621  0.6432
 8378SOL     OW36769   1.921   2.900   8.565  0.1021 -0.3156 -0.7706
 8378SOL    HW136770   1.859   2.894   8.638 -1.1688 -0.8431 -1.8864
 8378SOL    HW236771   1.967   2.817   8.577 -2.4162 -1.9288 -2.1787
 8379SOL     OW36772   2.238   3.285   8.543  0.2302  0.0623 -0.4035
 8379SOL    HW136773   2.292   3.354   8.505  0.6097  0.4940  0.9328
 8379SOL    HW236774   2.158   3.338   8.550 -0.0864 -0.3525 -0.8692
 8380SOL     OW36775   0.004   2.866   7.436 -0.1848 -0.0553  0.1497
 8380SOL    HW136776   4.691   2.932   7.488  0.8677 -1.2209  2.6052
 8380SOL    HW236777   0.089   2.889   7.473  1.4136 -1.8001 -2.4462
 8381SOL     OW36778   1.914   0.597  14.372  0.4010 -0.1727  0.3864
 8381SOL    HW136779   1.980   0.537  14.337 -0.3147  0.1154 -1.4363
 8381SOL    HW236780   1.897   0.649  14.294 -2.9902  2.1926  2.7116
 8382SOL     OW36781   2.459   2.240   5.878 -0.1459  0.1217  0.0839
 8382SOL    HW136782   2.420   2.273   5.960 -0.5970  1.7100 -0.7658
 8382SOL    HW236783   2.381   2.264   5.829 -1.5159  3.1113  3.6435
 8383SOL     OW36784   1.822   2.151   1.021 -0.6695 -0.5565 -0.3937
 8383SOL    HW136785   1.883   2.185   0.955 -2.1397  0.2757 -1.3225
 8383SOL    HW236786   1.839   2.059   1.003  0.5577 -0.4147  0.0629
 8384SOL     OW36787   2.414   1.357   5.447  0.6360  0.5548 -0.0765
 8384SOL    HW136788   2.427   1.448   5.474 -2.2676  0.8574  0.2705
 8384SOL    HW236789   2.335   1.341   5.498  0.2693  1.6427 -0.3196
 8385SOL     OW36790   2.492   3.484   8.718  0.2799 -0.0809  0.3051
 8385SOL    HW136791   2.467   3.467   8.627  3.4742 -3.3449  0.0329
 8385SOL    HW236792   2.522   3.396   8.740 -1.5320 -0.9342 -0.5945
 8386SOL     OW36793   3.262   3.575  11.603 -0.2293  0.0787  0.2373
 8386SOL    HW136794   3.348   3.565  11.645 -0.9282 -2.1871  1.1295
 8386SOL    HW236795   3.244   3.663  11.634 -3.3790 -0.9060  1.1134
 8387SOL     OW36796   1.782   1.081   1.927 -0.0701 -1.0997  0.3084
 8387SOL    HW136797   1.793   1.090   1.832  2.3371  1.3296  0.8152
 8387SOL    HW236798   1.694   1.043   1.926 -0.2744 -0.5842 -1.1003
 8388SOL     OW36799   2.755   4.358   8.775  0.2267  0.0570 -0.3807
 8388SOL    HW136800   2.776   4.435   8.722 -1.7982  0.9980  0.1635
 8388SOL    HW236801   2.662   4.357   8.753  0.1485 -0.8190  0.0045
 8389SOL     OW36802   4.729   0.863   2.273  0.5622  0.6774 -0.0063
 8389SOL    HW136803   4.662   0.796   2.255  0.1255  1.3980 -1.0794
 8389SOL    HW236804   4.683   0.906   2.345  0.9297  0.9488  0.0618
 8390SOL     OW36805   2.242   4.291   9.365  0.3431 -0.1755  0.1884
 8390SOL    HW136806   2.271   4.295   9.455 -3.4230 -2.0363  1.5171
 8390SOL    HW236807   2.320   4.328   9.324 -0.5593  1.0617 -0.4017
 8391SOL     OW36808   2.549   4.484  17.572 -0.3616  0.5736 -0.0002
 8391SOL    HW136809   2.631   4.516  17.609 -0.6125  0.4481  0.6708
 8391SOL    HW236810   2.547   4.534  17.490  1.1051  1.1017  0.2867
 8392SOL     OW36811   0.711   3.772   9.828  0.1636  0.0767 -0.6359
 8392SOL    HW136812   0.637   3.819   9.866  0.7267 -0.5191  1.1814
 8392SOL    HW236813   0.750   3.845   9.780 -0.4299  1.2204  0.6169
 8393SOL     OW36814   1.165   0.456  13.527  0.3130  0.1166  0.6158
 8393SOL    HW136815   1.113   0.386  13.491  0.2496  0.0559  0.8245
 8393SOL    HW236816   1.105   0.530  13.540 -0.8551 -0.3386 -2.2615
 8394SOL     OW36817   2.470   2.364  11.224 -0.0893 -0.5058 -0.1767
 8394SOL    HW136818   2.384   2.366  11.183  0.1807  1.4110 -0.6913
 8394SOL    HW236819   2.478   2.270  11.235 -1.3417 -0.4818  0.9630
 8395SOL     OW36820   3.239   0.594   2.139 -0.0720 -0.2835  0.5157
 8395SOL    HW136821   3.234   0.601   2.044 -0.4444  1.6274  0.6793
 8395SOL    HW236822   3.319   0.641   2.162 -1.5470  2.3835  0.1104
 8396SOL     OW36823   1.030   4.107   5.987  0.6506 -0.0495 -0.1982
 8396SOL    HW136824   0.986   4.022   6.002 -1.4054  0.6896 -2.0109
 8396SOL    HW236825   1.067   4.117   6.074  0.9845  0.5149 -0.4116
 8397SOL     OW36826   1.390   1.483   3.788  0.5322 -0.2641 -0.0791
 8397SOL    HW136827   1.333   1.407   3.774 -0.0492  0.2015 -0.2317
 8397SOL    HW236828   1.360   1.544   3.721  0.9471  0.0709  0.0405
 8398SOL     OW36829   3.619   2.236   3.904 -0.0170 -0.2882  0.1625
 8398SOL    HW136830   3.711   2.212   3.908 -0.2829 -1.4635 -0.5717
 8398SOL    HW236831   3.579   2.206   3.986 -0.3998  0.4706  0.2623
 8399SOL     OW36832   1.456   0.386   6.582  0.3299 -0.6340  0.3817
 8399SOL    HW136833   1.364   0.409   6.566  0.1499 -1.1476  0.6910
 8399SOL    HW236834   1.442   0.292   6.591  3.0362 -1.0397  0.1985
 8400SOL     OW36835   3.068   3.721   5.856  0.1070 -0.0113  0.5234
 8400SOL    HW136836   3.081   3.722   5.761 -0.5031  0.1940  0.4391
 8400SOL    HW236837   3.025   3.804   5.876  0.5030  0.1986  0.5077
 8401SOL     OW36838   1.660   3.161  13.476  0.2592 -0.6286  0.2755
 8401SOL    HW136839   1.624   3.098  13.414 -0.6286  1.6015 -1.5048
 8401SOL    HW236840   1.594   3.167  13.544 -0.2275  2.4657 -0.4697
 8402SOL     OW36841   0.803   2.906  10.340 -0.6318 -0.5852 -0.1730
 8402SOL    HW136842   0.784   2.998  10.322 -0.8235 -0.5234  0.3285
 8402SOL    HW236843   0.744   2.886  10.413 -1.1435 -2.0812 -0.9991
 8403SOL     OW36844   0.268   4.439   7.787 -0.5453  0.1989  0.1051
 8403SOL    HW136845   0.349   4.459   7.835 -0.6084 -0.4648  0.4873
 8403SOL    HW236846   0.296   4.481   7.706 -2.0811  2.0701  0.5717
 8404SOL     OW36847   1.555   4.583   6.728 -0.6447  0.3764  0.0094
 8404SOL    HW136848   1.512   4.573   6.643 -2.5141  1.5818  0.8134
 8404SOL    HW236849   1.628   4.642   6.711 -0.4010  0.8830  2.9209
 8405SOL     OW36850   1.448   3.788  17.605 -0.2043 -0.1471 -0.1733
 8405SOL    HW136851   1.509   3.861  17.600 -1.0901  0.5049 -1.4961
 8405SOL    HW236852   1.365   3.814  17.566 -0.3361  1.4039  1.1632
 8406SOL     OW36853   3.966   1.274   7.504 -0.2070 -0.2102  0.1222
 8406SOL    HW136854   3.928   1.352   7.463 -0.1439 -1.9992 -3.4000
 8406SOL    HW236855   3.935   1.285   7.594  0.0618  0.1262  0.1761
 8407SOL     OW36856   0.060   0.022   4.167 -0.3662 -0.0095 -0.3884
 8407SOL    HW136857   0.011   0.098   4.198 -1.3874 -0.9795  0.4079
 8407SOL    HW236858   0.147   0.039   4.204 -0.8355 -0.1428  0.7819
 8408SOL     OW36859   0.653   2.592   0.775  0.3087  0.5773  0.5171
 8408SOL    HW136860   0.744   2.571   0.755 -0.0509 -0.3974 -0.0651
 8408SOL    HW236861   0.607   2.555   0.700 -0.7173  0.6422  1.1155
 8409SOL     OW36862   4.082   4.123   2.912 -0.0601  0.3550 -0.1761
 8409SOL    HW136863   4.093   4.161   3.000 -0.9727  1.1338 -0.3994
 8409SOL    HW236864   4.006   4.171   2.881 -0.2344  0.2316  0.0602
 8410SOL     OW36865   3.857   0.581   1.989  0.1323  0.2514 -0.0780
 8410SOL    HW136866   3.814   0.505   1.948  0.2320  0.1015  0.0979
 8410SOL    HW236867   3.872   0.634   1.910 -0.6222  0.8584  0.1929
 8411SOL     OW36868   3.814   4.493   3.539 -0.0377 -0.0741 -0.1247
 8411SOL    HW136869   3.796   4.404   3.571  0.5279 -0.0756  0.1950
 8411SOL    HW236870   3.906   4.480   3.520  0.3058  0.4658  1.1446
 8412SOL     OW36871   0.358   2.336   9.367 -0.1844 -0.3263 -0.0260
 8412SOL    HW136872   0.327   2.304   9.282  0.4116 -0.4452 -0.1970
 8412SOL    HW236873   0.381   2.423   9.334  0.1530 -0.7535 -0.9329
 8413SOL     OW36874   3.036   2.255   7.767 -0.0205 -0.5915 -0.0098
 8413SOL    HW136875   3.065   2.335   7.723 -3.2237  0.5187 -0.0526
 8413SOL    HW236876   2.962   2.236   7.709  0.0288  2.2925 -1.0018
 8414SOL     OW36877   0.297   0.800   5.247  0.0129 -0.1414 -0.3996
 8414SOL    HW136878   0.329   0.786   5.157 -0.4234 -1.4226 -0.3691
 8414SOL    HW236879   0.343   0.882   5.263 -1.9229  1.1268 -1.3240
 8415SOL     OW36880   2.320   4.541   5.944  0.3807  0.1397  0.0953
 8415SOL    HW136881   2.293   4.464   5.893  0.4726 -1.5947  2.6212
 8415SOL    HW236882   2.292   4.504   6.028  2.2710 -0.6766  0.3679
 8416SOL     OW36883   0.660   2.261  14.594 -0.0735  0.3824 -0.0765
 8416SOL    HW136884   0.728   2.312  14.550  0.9319 -0.2306  0.7472
 8416SOL    HW236885   0.645   2.185  14.538  0.0530 -1.0877  1.8531
 8417SOL     OW36886   3.578   1.622  12.784  0.4404 -0.0711 -0.2945
 8417SOL    HW136887   3.564   1.709  12.821  0.5337  0.0019 -0.4304
 8417SOL    HW236888   3.486   1.602  12.767  0.5644 -0.7852 -0.1138
 8418SOL     OW36889   1.639   2.314   4.218  0.5668 -0.2672  0.4672
 8418SOL    HW136890   1.592   2.372   4.159  0.4547  0.4618  1.2791
 8418SOL    HW236891   1.629   2.235   4.164 -1.6701  1.9226 -2.2969
 8419SOL     OW36892   0.921   0.620  17.399 -0.3289 -0.7882 -0.0727
 8419SOL    HW136893   0.986   0.682  17.366 -0.2523 -0.7959  0.0626
 8419SOL    HW236894   0.856   0.683  17.429 -0.3964 -0.3233 -1.1979
 8420SOL     OW36895   3.903   1.391   7.983 -0.2398 -0.8978  0.7007
 8420SOL    HW136896   3.839   1.425   8.045  0.6912 -2.0580  2.2865
 8420SOL    HW236897   3.929   1.310   8.027  1.0281 -0.9581 -0.1358
 8421SOL     OW36898   3.565   4.207   6.611  0.0118  0.5501 -0.1876
 8421SOL    HW136899   3.610   4.291   6.619  0.3146  0.3601  0.0980
 8421SOL    HW236900   3.625   4.143   6.650 -2.1707  0.2227  2.6391
 8422SOL     OW36901   2.904   1.502  14.551 -0.1120  0.2498 -0.7388
 8422SOL    HW136902   2.978   1.562  14.567 -0.2837  0.0167  0.8783
 8422SOL    HW236903   2.936   1.428  14.602  3.4682  2.3234  0.0779
 8423SOL     OW36904   2.857   1.794   6.923  0.3144  0.2039 -0.1361
 8423SOL    HW136905   2.847   1.863   6.857 -4.5637 -2.1854 -1.8791
 8423SOL    HW236906   2.950   1.773   6.921  0.3682  0.4067  0.1770
 8424SOL     OW36907   1.927   0.956  13.100  0.0970  0.4226 -0.9779
 8424SOL    HW136908   1.978   0.936  13.178 -1.6444 -0.4318 -0.0497
 8424SOL    HW236909   1.999   0.943  13.039  0.1247  2.2889 -1.3475
 8425SOL     OW36910   2.313   4.500  14.978  0.1374  0.6344 -0.1943
 8425SOL    HW136911   2.311   4.409  14.950  0.3205  1.0099 -1.4293
 8425SOL    HW236912   2.408   4.516  14.984  0.3526 -0.1228 -1.7783
 8426SOL     OW36913   1.284   2.867   7.201 -0.2048  0.0054  0.1938
 8426SOL    HW136914   1.375   2.866   7.173 -0.4726  2.4566 -0.6912
 8426SOL    HW236915   1.242   2.804   7.142 -1.0817  0.8057 -0.0434
 8427SOL     OW36916   3.758   0.492   5.864 -0.0980  0.1280  0.5828
 8427SOL    HW136917   3.702   0.457   5.932  1.1967 -0.4492  1.3493
 8427SOL    HW236918   3.740   0.585   5.877  1.2652  0.5511 -0.4895
 8428SOL     OW36919   3.844   4.729   4.066  0.4003  0.0746 -0.3550
 8428SOL    HW136920   3.826   4.685   4.149  1.4511  0.0944 -0.1261
 8428SOL    HW236921   3.879   4.662   4.008 -0.3106 -1.0115  0.4825
 8429SOL     OW36922   2.187   1.959   4.873 -0.0075 -0.4824  1.4499
 8429SOL    HW136923   2.098   1.962   4.910 -0.5503  0.9189  0.0127
 8429SOL    HW236924   2.215   1.873   4.903 -0.2482 -1.7176 -1.8503
 8430SOL     OW36925   1.158   0.680   7.103 -0.5442 -0.4717 -0.1912
 8430SOL    HW136926   1.077   0.632   7.087  0.8288 -1.8529 -3.0449
 8430SOL    HW236927   1.176   0.649   7.191 -1.5991  0.4792  0.3715
 8431SOL     OW36928   1.121   1.767   1.703 -0.0199 -0.0526  0.5307
 8431SOL    HW136929   1.068   1.687   1.702  3.0828 -2.1032 -0.4803
 8431SOL    HW236930   1.058   1.825   1.745 -1.1004 -0.5649 -0.3871
 8432SOL     OW36931   2.612   1.758  12.820  0.3436 -0.0600  0.3673
 8432SOL    HW136932   2.603   1.676  12.771  0.5827  0.5741 -0.7180
 8432SOL    HW236933   2.531   1.794  12.784  0.6980  2.3134  1.9882
 8433SOL     OW36934   0.428   3.085   4.833  0.4518 -0.1142  0.1866
 8433SOL    HW136935   0.475   3.024   4.776  1.4153 -0.5064  1.3891
 8433SOL    HW236936   0.350   3.037   4.859  0.9600 -0.2866  1.4116
 8434SOL     OW36937   1.023   3.328   8.172 -0.0887 -0.2765 -0.1218
 8434SOL    HW136938   0.966   3.403   8.190  0.6053  0.1029  0.5112
 8434SOL    HW236939   0.995   3.302   8.085 -1.4986 -0.0961  0.2776
 8435SOL     OW36940   0.794   3.367  16.430  0.1662  0.0929 -0.1865
 8435SOL    HW136941   0.712   3.399  16.393 -0.1721 -0.9300 -0.3224
 8435SOL    HW236942   0.829   3.319  16.355 -1.3593 -1.0090 -0.1932
 8436SOL     OW36943   4.650   3.582   8.153  0.1835  0.2393 -0.2483
 8436SOL    HW136944   4.594   3.659   8.159  2.3395  1.7488  0.2846
 8436SOL    HW236945   4.703   3.611   8.227  0.3649 -0.6283 -0.0411
 8437SOL     OW36946   4.289   1.796   0.957 -0.2876  0.3722  0.0634
 8437SOL    HW136947   4.350   1.739   0.910 -0.9887  0.4559 -0.9438
 8437SOL    HW236948   4.287   1.732   1.028 -0.0896 -0.7166 -0.9058
 8438SOL     OW36949   3.629   3.589   4.353 -0.0933  0.3072  0.2387
 8438SOL    HW136950   3.606   3.681   4.366  0.6662  0.4311  0.7187
 8438SOL    HW236951   3.573   3.550   4.420 -0.8047  0.8605 -0.0319
 8439SOL     OW36952   1.629   2.724   6.649  0.3310 -0.1769 -0.8559
 8439SOL    HW136953   1.692   2.786   6.612  3.1763 -2.7589 -0.4368
 8439SOL    HW236954   1.676   2.642   6.668  0.3620 -0.2412 -1.2126
 8440SOL     OW36955   2.065   2.622   2.541 -0.0142  0.0156 -0.1860
 8440SOL    HW136956   2.014   2.669   2.475 -2.8164 -0.1826  1.7847
 8440SOL    HW236957   2.044   2.538   2.500  1.7300  1.4355 -3.9892
 8441SOL     OW36958   1.085   0.154   7.275 -0.1749  0.3244  0.5216
 8441SOL    HW136959   1.169   0.194   7.252 -0.6051  0.4315 -0.8276
 8441SOL    HW236960   1.036   0.236   7.277 -1.9715 -0.7675  1.0837
 8442SOL     OW36961   3.635   1.466  13.205  0.1456 -0.7324  0.9475
 8442SOL    HW136962   3.590   1.386  13.179 -0.4778 -0.4435  1.1432
 8442SOL    HW236963   3.680   1.484  13.122  0.5834  0.6948  1.4954
 8443SOL     OW36964   2.059   1.192  10.971  0.2680  0.3007  0.2182
 8443SOL    HW136965   2.034   1.274  10.929  1.0421 -0.0131 -0.8585
 8443SOL    HW236966   2.045   1.224  11.060  3.0446  1.8838  0.0717
 8444SOL     OW36967   3.733   1.547   0.521 -0.6843  0.1798 -0.6563
 8444SOL    HW136968   3.744   1.630   0.475  2.4828  1.0473  1.6534
 8444SOL    HW236969   3.706   1.488   0.450 -2.8874 -2.4069  2.3484
 8445SOL     OW36970   2.502   2.443   9.661 -0.3930  0.0285 -0.0239
 8445SOL    HW136971   2.421   2.461   9.614 -0.9000  2.0193  1.6257
 8445SOL    HW236972   2.540   2.530   9.671 -2.2817  1.0248 -1.5656
 8446SOL     OW36973   4.068   1.865  15.258 -0.5532  0.0671 -0.0511
 8446SOL    HW136974   4.010   1.914  15.199 -0.4643 -2.0882 -1.9069
 8446SOL    HW236975   4.003   1.834  15.321  0.9974  2.2774  2.6327
 8447SOL     OW36976   4.003   2.301   7.152 -0.4453 -0.1939  0.1383
 8447SOL    HW136977   4.001   2.334   7.062  1.5656  0.7491  0.4237
 8447SOL    HW236978   3.966   2.213   7.158  0.9174 -0.7130  0.9475
 8448SOL     OW36979   3.266   2.317  17.149  0.4803 -0.0487  0.5963
 8448SOL    HW136980   3.323   2.246  17.180  1.6296 -0.2179 -1.9341
 8448SOL    HW236981   3.235   2.356  17.231 -2.0264 -1.4959  0.3692
 8449SOL     OW36982   0.136   3.851   5.695 -0.2409 -0.9194  0.0819
 8449SOL    HW136983   0.107   3.812   5.778 -0.0975  0.5256  0.8204
 8449SOL    HW236984   0.078   3.820   5.626  1.6682 -2.2698 -0.9143
 8450SOL     OW36985   4.491   1.751   6.043 -0.6759  0.3102 -0.7752
 8450SOL    HW136986   4.558   1.720   5.982 -2.2370 -1.2804 -1.6872
 8450SOL    HW236987   4.529   1.738   6.130 -0.8127  1.3547 -0.5517
 8451SOL     OW36988   0.466   1.903   5.231  0.2157  0.1757 -0.0448
 8451SOL    HW136989   0.505   1.990   5.233  0.5258  0.0553 -0.9119
 8451SOL    HW236990   0.398   1.908   5.164  0.9007  2.5324 -0.5755
 8452SOL     OW36991   2.176   1.361  16.435  0.5941  0.2438 -0.4144
 8452SOL    HW136992   2.181   1.440  16.381  0.3286  0.1315 -0.5969
 8452SOL    HW236993   2.255   1.369  16.488 -0.0836 -0.5352  0.6996
 8453SOL     OW36994   0.509   1.249   1.172 -0.2086  0.1673 -0.1475
 8453SOL    HW136995   0.559   1.302   1.233 -0.6585  0.6266 -0.1819
 8453SOL    HW236996   0.495   1.315   1.105 -1.4520 -0.0553 -0.1075
 8454SOL     OW36997   4.483   1.027  11.461  0.6461 -0.1366 -0.3835
 8454SOL    HW136998   4.504   1.064  11.547 -0.6187 -2.0344  0.7448
 8454SOL    HW236999   4.412   0.969  11.489  1.2420 -1.5575 -1.8251
 8455SOL     OW37000   4.488   1.550  10.813  0.0536  0.5363 -0.2241
 8455SOL    HW137001   4.515   1.459  10.810  1.8811  1.0229  1.2676
 8455SOL    HW237002   4.567   1.575  10.860 -0.3370  1.2134  0.0720
 8456SOL     OW37003   2.461   0.462   6.153  0.3748  1.0462 -0.2419
 8456SOL    HW137004   2.517   0.407   6.097  0.8170  1.0531  0.1932
 8456SOL    HW237005   2.382   0.409   6.159  1.2688 -0.2261  0.3530
 8457SOL     OW37006   2.777   0.011   9.393  0.5299  0.1811  0.7991
 8457SOL    HW137007   2.700   0.069   9.394  0.5940  0.2371  2.5874
 8457SOL    HW237008   2.778   4.704   9.479 -2.5743 -0.4601  0.5245
 8458SOL     OW37009   1.327   2.317   1.768  0.3301 -0.2086 -0.0737
 8458SOL    HW137010   1.324   2.380   1.696  2.7637  1.0516  0.9280
 8458SOL    HW237011   1.416   2.283   1.758 -0.1159 -1.2395 -0.5758
 8459SOL     OW37012   2.913   2.267   5.384  0.2113  0.1006  0.2383
 8459SOL    HW137013   2.865   2.340   5.345 -1.0014  0.4088  2.3353
 8459SOL    HW237014   2.893   2.193   5.327  0.2073  0.7978 -0.6675
 8460SOL     OW37015   4.319   0.241   1.490 -0.3752  0.2461  0.0525
 8460SOL    HW137016   4.343   0.189   1.413 -1.3339  2.6137 -1.8390
 8460SOL    HW237017   4.259   0.186   1.540 -0.6739 -0.8694 -1.5299
 8461SOL     OW37018   3.798   1.459   2.751  0.0751  0.2141 -1.1808
 8461SOL    HW137019   3.733   1.421   2.692 -0.5442  1.4876 -1.3258
 8461SOL    HW237020   3.796   1.550   2.721 -3.0227 -0.4960 -3.1273
 8462SOL     OW37021   2.662   3.976   3.504 -0.3938 -0.3875  0.1511
 8462SOL    HW137022   2.670   3.907   3.570 -1.5919 -1.0108 -0.3510
 8462SOL    HW237023   2.733   3.938   3.451  1.9566  1.5032  1.9529
 8463SOL     OW37024   1.454   2.166   3.509  0.1733  0.7149 -0.0703
 8463SOL    HW137025   1.446   2.168   3.604 -1.2990  1.4169 -0.2078
 8463SOL    HW237026   1.428   2.077   3.487  2.3252  0.5224 -1.8920
 8464SOL     OW37027   0.732   4.112   1.575  0.2252  0.0685 -0.4206
 8464SOL    HW137028   0.640   4.093   1.559  0.1458 -0.4473  0.6190
 8464SOL    HW237029   0.778   4.079   1.498  1.8629 -2.0734  1.4566
 8465SOL     OW37030   3.003   1.913   4.827 -0.3090 -0.9836  0.7228
 8465SOL    HW137031   3.036   1.947   4.910  2.4351  0.3076 -0.9346
 8465SOL    HW237032   2.909   1.933   4.821 -0.2970  0.1268  4.4819
 8466SOL     OW37033   1.691   4.047   8.843  0.0618 -0.5290 -0.0257
 8466SOL    HW137034   1.753   4.108   8.802 -1.3962  1.8567  1.3581
 8466SOL    HW237035   1.708   4.070   8.934 -0.6820 -0.0744 -0.0120
 8467SOL     OW37036   3.523   1.142   7.028 -0.3439  0.4593  0.4937
 8467SOL    HW137037   3.586   1.084   7.071 -0.3917  0.7786  0.9876
 8467SOL    HW237038   3.447   1.110   7.077 -0.8926  0.8479 -0.0878
 8468SOL     OW37039   2.760   1.999   5.943  0.3606  0.0284  0.6427
 8468SOL    HW137040   2.678   1.953   5.964 -0.6278  1.2830 -0.4231
 8468SOL    HW237041   2.780   1.980   5.851 -0.3048  2.2228  0.0492
 8469SOL     OW37042   0.179   1.715   6.645  0.3997  0.1869  0.6607
 8469SOL    HW137043   0.196   1.747   6.556  1.4209 -0.9647  0.4476
 8469SOL    HW237044   0.119   1.783   6.675 -0.9123 -0.2392 -0.9477
 8470SOL     OW37045   3.505   2.751   2.373  0.1532  0.4236 -0.4338
 8470SOL    HW137046   3.444   2.819   2.400 -1.2762 -1.2699  0.6084
 8470SOL    HW237047   3.443   2.678   2.363 -0.6496  0.8210  1.4804
 8471SOL     OW37048   3.595   3.925  12.816  0.3315  0.6212 -0.2872
 8471SOL    HW137049   3.637   3.864  12.754 -0.4909  0.6240 -0.8566
 8471SOL    HW237050   3.586   3.878  12.899 -0.4358 -0.1212 -0.7882
 8472SOL     OW37051   0.677   2.513   9.662  0.0610  0.2980 -0.0410
 8472SOL    HW137052   0.678   2.605   9.687 -0.4018  0.0898  0.7618
 8472SOL    HW237053   0.583   2.498   9.650  0.3119 -1.2838 -0.1195
 8473SOL     OW37054   1.739   0.581   3.514 -0.1742  0.8367 -0.2481
 8473SOL    HW137055   1.644   0.576   3.506 -0.2432 -1.5629  1.9516
 8473SOL    HW237056   1.764   0.499   3.472 -2.1126 -0.1180  0.4933
 8474SOL     OW37057   3.704   3.528   4.766 -0.9389  0.4724  0.5892
 8474SOL    HW137058   3.622   3.518   4.718 -0.9782 -0.6286  0.8918
 8474SOL    HW237059   3.750   3.557   4.688 -1.0348  0.4962  0.5412
 8475SOL     OW37060   1.511   1.650   1.941 -0.0261 -0.1547  1.2882
 8475SOL    HW137061   1.417   1.670   1.946 -0.0555  0.3697 -1.6267
 8475SOL    HW237062   1.557   1.734   1.943 -0.4577  0.1008  0.6371
 8476SOL     OW37063   3.486   3.967   6.088 -0.1236 -0.0163 -0.7602
 8476SOL    HW137064   3.508   3.910   6.162 -0.2787  1.7669  0.6595
 8476SOL    HW237065   3.394   3.955   6.062 -0.9391  0.0045  2.0956
 8477SOL     OW37066   0.876   3.209  13.312  0.0217 -0.1827  0.1427
 8477SOL    HW137067   0.819   3.154  13.258  2.3356 -2.6403  0.1801
 8477SOL    HW237068   0.952   3.220  13.255 -0.4263  0.6420 -0.2945
 8478SOL     OW37069   3.142   2.764  17.078  0.3981 -0.2713 -0.5385
 8478SOL    HW137070   3.109   2.735  16.993  1.0095  1.3443 -1.3239
 8478SOL    HW237071   3.197   2.689  17.098 -2.9385 -2.0645  1.8692
 8479SOL     OW37072   4.633   0.994  16.724  0.9245  0.1780 -0.1209
 8479SOL    HW137073   4.549   1.009  16.679 -0.1410 -0.2689  1.7282
 8479SOL    HW237074   4.626   1.058  16.794  1.7743  1.7076 -1.4248
 8480SOL     OW37075   2.923   3.975   1.837 -0.0142 -0.3107  0.1746
 8480SOL    HW137076   2.920   3.895   1.890  1.0300 -0.5950 -0.1895
 8480SOL    HW237077   2.834   3.958   1.806 -0.3600  0.0830  0.9473
 8481SOL     OW37078   3.311   2.034   6.039  0.1375  0.0881  0.4757
 8481SOL    HW137079   3.228   1.995   6.012  1.4252 -2.8911  0.8617
 8481SOL    HW237080   3.320   2.021   6.133 -1.5460 -1.7511  0.3750
 8482SOL     OW37081   3.822   4.501   5.800  0.2723 -0.5275 -0.1160
 8482SOL    HW137082   3.865   4.459   5.725  0.3935 -0.0931 -0.2903
 8482SOL    HW237083   3.886   4.567   5.827 -1.8065  0.9911  1.1020
 8483SOL     OW37084   0.270   3.582   7.371  0.4314 -0.0856  0.4326
 8483SOL    HW137085   0.267   3.547   7.281  2.5752 -1.0758  0.7341
 8483SOL    HW237086   0.249   3.674   7.355  1.3610 -0.2441 -1.7869
 8484SOL     OW37087   0.067   0.970   3.671  0.2621  0.0975  0.2638
 8484SOL    HW137088   0.031   0.963   3.759 -0.5059  0.3480 -0.0306
 8484SOL    HW237089   0.141   1.024   3.698 -0.2665  0.4301  1.0068
 8485SOL     OW37090   1.235   2.145   8.210 -0.4575  0.6286 -0.6145
 8485SOL    HW137091   1.218   2.051   8.213  1.0430  0.3765  0.1983
 8485SOL    HW237092   1.190   2.166   8.291  1.9958  1.2228  0.6176
 8486SOL     OW37093   3.476   4.347   4.391 -0.5130  0.2560  0.1016
 8486SOL    HW137094   3.483   4.314   4.302 -0.2814  1.3416 -0.2752
 8486SOL    HW237095   3.563   4.382   4.412  0.1777 -1.5346  0.3020
 8487SOL     OW37096   4.350   3.171   5.611 -0.0674  0.3659 -0.3326
 8487SOL    HW137097   4.445   3.182   5.609  0.1599 -1.9955 -2.4557
 8487SOL    HW237098   4.336   3.093   5.558  1.9626 -0.2577  0.0471
 8488SOL     OW37099   1.391   3.876   8.624 -0.1632  0.2887  0.2076
 8488SOL    HW137100   1.345   3.808   8.674  0.3272 -0.5278 -0.4623
 8488SOL    HW237101   1.466   3.826   8.592 -0.5892  0.9650 -1.8345
 8489SOL     OW37102   2.364   4.054  10.228  0.0499  0.4097  0.0392
 8489SOL    HW137103   2.304   3.979  10.224  0.2479  0.5068 -4.3247
 8489SOL    HW237104   2.450   4.022  10.256 -0.1933  0.2778  0.6357
 8490SOL     OW37105   0.277   3.568   1.062  0.5720 -0.4873 -0.3772
 8490SOL    HW137106   0.297   3.659   1.082  0.2192  0.0045 -2.2871
 8490SOL    HW237107   0.193   3.583   1.017  0.8285  2.0789 -0.0038
 8491SOL     OW37108   0.230   3.642  14.201  0.0756 -0.0118  0.3043
 8491SOL    HW137109   0.315   3.608  14.174 -0.2795 -0.1753 -0.6267
 8491SOL    HW237110   0.246   3.731  14.232  0.0652  1.1150 -2.8516
 8492SOL     OW37111   4.153   3.551   7.604  0.1655  0.8327 -0.1303
 8492SOL    HW137112   4.090   3.589   7.666  0.0606 -0.6358  0.6696
 8492SOL    HW237113   4.169   3.464   7.640 -0.0055  0.3602 -1.1987
 8493SOL     OW37114   3.466   3.069  14.579  0.3981  0.4435  0.1344
 8493SOL    HW137115   3.455   3.011  14.503  0.5517  1.1934 -0.4586
 8493SOL    HW237116   3.560   3.086  14.569  0.2993  1.1404  0.4041
 8494SOL     OW37117   4.407   0.999  16.579 -0.1196 -0.1940 -0.0013
 8494SOL    HW137118   4.405   0.984  16.485  0.8246 -0.1871 -0.0260
 8494SOL    HW237119   4.344   0.934  16.610 -1.2294  0.2941 -1.2152
 8495SOL     OW37120   4.462   3.907  10.192  0.5003  0.4996 -0.0467
 8495SOL    HW137121   4.542   3.904  10.140  0.6132  2.6816  0.0123
 8495SOL    HW237122   4.480   3.838  10.255 -0.9204 -1.3244 -1.6204
 8496SOL     OW37123   2.627   1.661   7.046 -0.8621 -0.0170  0.1093
 8496SOL    HW137124   2.709   1.686   7.003 -1.2914  0.4891 -0.4160
 8496SOL    HW237125   2.584   1.605   6.982 -0.9719  0.4345 -0.2069
 8497SOL     OW37126   2.836   3.587  10.655 -0.1441  0.2842  0.1200
 8497SOL    HW137127   2.814   3.494  10.652 -1.9613  0.7563 -1.2744
 8497SOL    HW237128   2.931   3.587  10.647 -0.0630 -1.3327  1.1965
 8498SOL     OW37129   3.859   1.370   6.400  0.3541 -0.0586 -0.0921
 8498SOL    HW137130   3.931   1.346   6.459 -0.3821 -1.0647  0.4049
 8498SOL    HW237131   3.798   1.304   6.432  0.8196 -1.0432 -1.2389
 8499SOL     OW37132   1.970   2.334   6.544 -0.0063  0.9767  0.3756
 8499SOL    HW137133   1.882   2.337   6.581 -0.1683  1.2519 -0.0354
 8499SOL    HW237134   1.958   2.395   6.471 -1.1572  0.3789  0.0624
 8500SOL     OW37135   1.314   0.712  14.966 -0.1770  0.2834 -0.7097
 8500SOL    HW137136   1.405   0.688  14.947 -0.1688 -0.6192  0.5070
 8500SOL    HW237137   1.298   0.663  15.046 -0.0275  1.2855 -0.0605
 8501SOL     OW37138   2.504   2.626   3.215 -0.4266  0.2118  0.0166
 8501SOL    HW137139   2.453   2.703   3.243  1.8195  1.9420 -0.7067
 8501SOL    HW237140   2.533   2.583   3.296 -0.4009  0.5721  0.1969
 8502SOL     OW37141   4.584   4.373   0.498  0.1858 -0.3892  0.1860
 8502SOL    HW137142   4.491   4.386   0.481 -0.3706  0.7371  4.0715
 8502SOL    HW237143   4.602   4.463   0.525  2.2840 -0.0017 -2.5089
 8503SOL     OW37144   1.907   1.190  12.411  0.2613 -0.0433  0.3023
 8503SOL    HW137145   1.953   1.273  12.395 -0.5986  0.4161  0.2114
 8503SOL    HW237146   1.877   1.173  12.322 -0.3626  0.0903  0.4888
 8504SOL     OW37147   1.444   1.196   7.487  0.5908 -0.3104 -0.1627
 8504SOL    HW137148   1.520   1.225   7.538 -0.7440 -0.1865  1.7245
 8504SOL    HW237149   1.419   1.113   7.527 -0.9310  0.5366  0.6262
 8505SOL     OW37150   0.680   4.098   7.050  0.2034 -0.1522 -0.5247
 8505SOL    HW137151   0.591   4.131   7.068  1.2306  2.0161  0.5295
 8505SOL    HW237152   0.735   4.149   7.109 -1.8803 -0.0735  1.3680
 8506SOL     OW37153   0.618   4.622   4.230 -0.1258  0.1329  0.4007
 8506SOL    HW137154   0.615   4.686   4.300 -0.8365  0.7129 -0.1567
 8506SOL    HW237155   0.565   4.552   4.269 -2.0934  1.5237  0.2220
 8507SOL     OW37156   3.512   1.418   9.114  0.1189  0.4542  0.0875
 8507SOL    HW137157   3.523   1.471   9.192  1.9176  0.0552  0.1016
 8507SOL    HW237158   3.531   1.471   9.036 -0.5686 -0.0546 -0.4284
 8508SOL     OW37159   2.501   0.335  10.122 -0.1785  0.5389 -0.9439
 8508SOL    HW137160   2.416   0.291  10.133 -0.1044  0.4944 -0.5174
 8508SOL    HW237161   2.561   0.260  10.128  0.1837  0.8487 -0.7215
 8509SOL     OW37162   0.956   1.794  15.538 -0.2574 -0.2364  0.4051
 8509SOL    HW137163   0.893   1.776  15.468 -0.8226 -0.8350  1.0805
 8509SOL    HW237164   0.942   1.878  15.582 -1.0209  0.1522 -0.5838
 8510SOL     OW37165   4.356   2.124   2.671 -0.1621  0.1514  0.1927
 8510SOL    HW137166   4.335   2.159   2.585 -0.1836 -0.5329 -0.0797
 8510SOL    HW237167   4.427   2.181   2.700 -0.7993  0.6498  0.7995
 8511SOL     OW37168   1.103   3.543  10.720  0.1544 -0.2120 -0.2862
 8511SOL    HW137169   1.143   3.512  10.639 -0.3265 -0.6055 -0.3738
 8511SOL    HW237170   1.045   3.600  10.669 -0.3605 -0.5150 -0.0303
 8512SOL     OW37171   1.414   3.766   0.317 -0.2868  0.1629 -0.1797
 8512SOL    HW137172   1.368   3.683   0.303  2.6324 -1.3130 -1.1287
 8512SOL    HW237173   1.505   3.736   0.314 -0.1707  0.4484  0.6017
 8513SOL     OW37174   0.497   2.576  15.260  0.1047  0.7076 -0.0041
 8513SOL    HW137175   0.549   2.512  15.308 -0.5284  0.8764  0.9026
 8513SOL    HW237176   0.420   2.522  15.247 -0.3929  1.1889  0.9004
 8514SOL     OW37177   3.658   4.523   7.500  0.1518 -0.3363  0.3852
 8514SOL    HW137178   3.604   4.554   7.428 -0.0043 -0.8500  0.2830
 8514SOL    HW237179   3.713   4.462   7.451 -1.9161 -2.8814  1.2802
 8515SOL     OW37180   2.285   4.511   9.085  0.4733 -0.3694  0.0171
 8515SOL    HW137181   2.344   4.573   9.126 -0.3344  0.5248 -0.1602
 8515SOL    HW237182   2.330   4.433   9.118  0.7543 -0.0011  0.4946
 8516SOL     OW37183   3.165   1.474  13.850 -0.3568  0.0378  0.2059
 8516SOL    HW137184   3.194   1.393  13.892  0.0770  0.7731  1.3181
 8516SOL    HW237185   3.082   1.496  13.892 -0.3378 -2.1479  1.3787
 8517SOL     OW37186   1.179   0.903  16.809  0.1568  0.6104 -0.1940
 8517SOL    HW137187   1.273   0.912  16.824  0.5984 -1.5054 -1.6826
 8517SOL    HW237188   1.191   0.850  16.730  1.6922  0.3389  0.2302
 8518SOL     OW37189   0.439   4.238   3.541  0.4634 -0.6325  0.3593
 8518SOL    HW137190   0.366   4.206   3.488  0.5359  0.9582 -0.6860
 8518SOL    HW237191   0.397   4.283   3.614  0.3986 -0.0768 -0.0239
 8519SOL     OW37192   1.589   0.953  12.397  0.7389  0.2327 -0.1478
 8519SOL    HW137193   1.678   0.933  12.428 -0.1579 -0.9165  1.6502
 8519SOL    HW237194   1.595   0.950  12.301  1.4714  0.0099 -0.0987
 8520SOL     OW37195   0.269   0.965   0.868 -0.1060  0.3654 -0.4270
 8520SOL    HW137196   0.350   1.015   0.876  2.2724 -3.6481  0.8192
 8520SOL    HW237197   0.295   0.889   0.816 -1.3379  0.0083 -0.5247
 8521SOL     OW37198   1.776   1.935   6.059 -0.5106  0.0058 -0.4141
 8521SOL    HW137199   1.734   1.850   6.060 -0.0931 -0.1846  0.7165
 8521SOL    HW237200   1.855   1.918   6.110 -2.9290 -0.7160  3.0702
 8522SOL     OW37201   4.202   1.871   5.350  0.5271 -0.4395 -1.0889
 8522SOL    HW137202   4.156   1.923   5.416  1.7899 -1.0758  0.2719
 8522SOL    HW237203   4.126   1.815   5.333 -1.0104  1.0856  0.7781
 8523SOL     OW37204   0.911   0.443  10.039 -0.8043 -0.1995 -0.0011
 8523SOL    HW137205   0.900   0.392  10.119  1.1138  0.1752  0.5000
 8523SOL    HW237206   0.820   0.471  10.034 -0.8069  0.2712  3.0853
 8524SOL     OW37207   1.865   2.905  16.627  0.4950 -0.6730  0.0960
 8524SOL    HW137208   1.846   2.982  16.680 -0.7266 -1.2789  0.5385
 8524SOL    HW237209   1.955   2.924  16.600 -0.3078  2.9995 -0.0244
 8525SOL     OW37210   0.006   2.117  13.338  0.2226 -0.3054  0.4517
 8525SOL    HW137211   0.081   2.087  13.389  0.5758  0.5067  0.4024
 8525SOL    HW237212   4.684   2.165  13.399 -1.5210  0.4299 -1.7266
 8526SOL     OW37213   0.291   1.057   4.406  0.2223 -0.1313  0.3005
 8526SOL    HW137214   0.245   1.005   4.340  1.6966  2.0114 -2.4670
 8526SOL    HW237215   0.226   1.073   4.473  0.8988 -0.3582  1.0087
 8527SOL     OW37216   3.858   4.212   4.642  0.6221 -0.0310 -0.0811
 8527SOL    HW137217   3.824   4.123   4.653  1.5037 -0.4500 -0.7837
 8527SOL    HW237218   3.787   4.263   4.682  2.2170  2.5353 -0.4784
 8528SOL     OW37219   0.876   3.171   7.518  0.9381  0.2810  0.0911
 8528SOL    HW137220   0.953   3.155   7.462  0.0673 -1.1612 -0.7069
 8528SOL    HW237221   0.932   3.203   7.589  1.8511  1.0623 -0.9733
 8529SOL     OW37222   3.731   0.541   9.680  0.4462 -0.1932  0.1892
 8529SOL    HW137223   3.676   0.612   9.646 -0.4044 -0.5206  0.8830
 8529SOL    HW237224   3.817   0.582   9.678  0.3950 -0.1352 -1.1317
 8530SOL     OW37225   0.618   0.558   3.306 -0.5141 -0.0610  0.0307
 8530SOL    HW137226   0.528   0.585   3.324 -0.2762  0.6841  0.1114
 8530SOL    HW237227   0.604   0.487   3.243 -1.6495  0.6700 -0.5596
 8531SOL     OW37228   1.916   4.328   1.753  0.1464  0.1265  0.6445
 8531SOL    HW137229   1.997   4.377   1.763 -1.3785  2.7335  0.2938
 8531SOL    HW237230   1.922   4.292   1.842 -0.5102 -0.5241  0.4318
 8532SOL     OW37231   3.646   1.442  15.565  0.5629 -0.1486  0.0258
 8532SOL    HW137232   3.555   1.424  15.586  0.8301  1.7704  2.8841
 8532SOL    HW237233   3.673   1.502  15.634 -0.0463  1.5745 -1.2370
 8533SOL     OW37234   2.066   1.078   9.290 -0.1735  0.7776 -0.0037
 8533SOL    HW137235   2.123   1.090   9.366  0.4231 -1.9577 -0.0198
 8533SOL    HW237236   2.119   1.129   9.229 -0.4278  0.9117 -0.1116
 8534SOL     OW37237   1.896   3.107   4.366 -0.7703 -0.2045 -0.2417
 8534SOL    HW137238   1.802   3.089   4.360 -1.0144  0.2681  2.4925
 8534SOL    HW237239   1.910   3.148   4.280 -0.4149  2.4888  1.0820
 8535SOL     OW37240   2.063   0.773   5.109 -0.2298  0.3455  0.3612
 8535SOL    HW137241   1.997   0.711   5.077  0.5102 -0.1745 -0.1405
 8535SOL    HW237242   2.141   0.746   5.060 -1.5728 -1.0212 -1.0325
 8536SOL     OW37243   3.875   0.604   4.602 -0.5230  0.0338 -0.0424
 8536SOL    HW137244   3.860   0.509   4.602 -0.5892  0.0499  1.4114
 8536SOL    HW237245   3.817   0.608   4.525  0.1705  1.7617 -0.4633
 8537SOL     OW37246   0.350   0.284  14.733  0.1412  0.0614  0.8541
 8537SOL    HW137247   0.386   0.204  14.772 -0.2912 -0.9109 -0.7057
 8537SOL    HW237248   0.257   0.262  14.729  0.5195 -1.3804 -0.1341
 8538SOL     OW37249   3.358   2.444   6.193 -0.0510 -0.1183 -0.2197
 8538SOL    HW137250   3.277   2.429   6.144  0.9719 -1.5872 -1.4763
 8538SOL    HW237251   3.408   2.394   6.128  0.2995  1.5562 -1.2213
 8539SOL     OW37252   4.023   2.859  13.701  0.1959 -0.5020 -0.1924
 8539SOL    HW137253   4.024   2.777  13.751  0.0361 -0.2760  0.1794
 8539SOL    HW237254   4.007   2.823  13.614  0.5216  0.7675 -0.7761
 8540SOL     OW37255   2.088   3.767   3.886  0.0270  0.1289 -0.1581
 8540SOL    HW137256   2.002   3.727   3.878 -1.1735  2.4111  1.3050
 8540SOL    HW237257   2.070   3.821   3.963 -1.2211 -1.2658  0.5236
 8541SOL     OW37258   4.538   4.201   7.191  1.0842  0.2936  0.2571
 8541SOL    HW137259   4.556   4.133   7.256 -0.1396 -1.4828 -1.2823
 8541SOL    HW237260   4.472   4.243   7.247 -0.4999 -1.2686 -0.4566
 8542SOL     OW37261   4.400   1.975   8.918 -0.1538 -0.3023 -0.8962
 8542SOL    HW137262   4.329   2.039   8.924  0.2268  0.1723 -1.6073
 8542SOL    HW237263   4.434   1.965   9.007  1.2471  0.6279 -1.3311
 8543SOL     OW37264   4.497   2.880   3.372  0.1912 -0.6953 -0.8641
 8543SOL    HW137265   4.451   2.806   3.413  0.9516 -2.2107 -2.7509
 8543SOL    HW237266   4.459   2.953   3.421  1.3632  0.2064 -1.3087
 8544SOL     OW37267   0.388   3.009   1.990  0.0828 -0.1081 -0.0362
 8544SOL    HW137268   0.474   2.972   2.012  0.6200  1.7002  0.9209
 8544SOL    HW237269   0.411   3.091   1.947  2.1416  0.5405  2.2602
 8545SOL     OW37270   1.474   4.106   8.505 -0.3214 -0.0587  0.1946
 8545SOL    HW137271   1.431   4.030   8.545 -0.4626 -0.0214  0.1151
 8545SOL    HW237272   1.403   4.118   8.441 -0.9772 -0.8128  0.7822
 8546SOL     OW37273   1.164   2.784   4.649 -0.4092 -0.0174  0.0716
 8546SOL    HW137274   1.157   2.689   4.651  2.2101 -0.2418 -0.9849
 8546SOL    HW237275   1.110   2.806   4.725 -0.6914  0.0615 -0.1536
 8547SOL     OW37276   0.272   3.502  16.470 -0.4911  0.1918 -0.8130
 8547SOL    HW137277   0.221   3.581  16.452 -2.5622 -1.0887 -0.5325
 8547SOL    HW237278   0.198   3.443  16.457 -0.9510  0.3955  0.8663
 8548SOL     OW37279   1.987   3.506   3.712 -0.4931  0.0770 -0.4075
 8548SOL    HW137280   1.940   3.459   3.643  0.2946 -2.0045  0.4967
 8548SOL    HW237281   2.026   3.584   3.673 -0.5440  0.7092  0.7924
 8549SOL     OW37282   2.951   0.843   0.406 -0.3657  0.2838 -0.2957
 8549SOL    HW137283   2.999   0.761   0.406 -1.2474 -0.2285 -0.3891
 8549SOL    HW237284   2.902   0.832   0.488  0.0996  0.7244  0.0505
 8550SOL     OW37285   3.216   4.400  11.273 -0.3464  0.3352 -0.2422
 8550SOL    HW137286   3.255   4.402  11.361  0.6099  0.2746 -0.6597
 8550SOL    HW237287   3.202   4.306  11.262 -2.1770  0.7679 -1.5681
 8551SOL     OW37288   1.040   4.728   6.353 -0.5645  0.0080 -0.2358
 8551SOL    HW137289   1.029   4.634   6.345 -3.2352  0.1343  1.9770
 8551SOL    HW237290   1.078   0.028   6.272  0.9479 -0.3805  0.3275
 8552SOL     OW37291   1.897   2.947   2.038  0.0185  0.0800  0.3589
 8552SOL    HW137292   1.915   3.027   1.989  1.5273 -2.1020 -2.6427
 8552SOL    HW237293   1.884   2.978   2.128 -0.6930  0.5419  0.0958
 8553SOL     OW37294   0.553   1.900   7.297  0.0022  0.1405  0.0528
 8553SOL    HW137295   0.592   1.957   7.231  0.2260 -1.0714 -0.8703
 8553SOL    HW237296   0.568   1.949   7.378 -1.6767  0.0554  0.4116
 8554SOL     OW37297   0.260   0.816   2.244 -0.0391  0.5013  0.2275
 8554SOL    HW137298   0.219   0.732   2.223  0.5348 -0.4913  3.0814
 8554SOL    HW237299   0.179   0.862   2.266 -1.5320 -1.3377 -1.4621
 8555SOL     OW37300   0.931   1.272   1.730 -0.4509 -0.2492  0.0034
 8555SOL    HW137301   0.910   1.185   1.761 -0.3713 -0.3601 -0.2525
 8555SOL    HW237302   1.008   1.255   1.676  0.9307  3.3626  0.7779
 8556SOL     OW37303   2.553   2.528  11.849  0.0242  0.4111 -0.3172
 8556SOL    HW137304   2.477   2.470  11.855 -0.0652  0.4318 -1.1740
 8556SOL    HW237305   2.587   2.535  11.938 -2.4702  0.5592  0.6119
 8557SOL     OW37306   3.609   4.473   5.380 -0.4481  0.0042  0.1545
 8557SOL    HW137307   3.616   4.378   5.368  2.6435  0.0108  1.9112
 8557SOL    HW237308   3.697   4.505   5.362 -0.4063 -1.2886 -1.9592
 8558SOL     OW37309   3.168   0.465  12.100 -0.4334  0.2857 -0.3360
 8558SOL    HW137310   3.094   0.410  12.075 -0.2082 -0.4164  0.5419
 8558SOL    HW237311   3.170   0.526  12.027 -2.6141  2.3492  1.3107
 8559SOL     OW37312   1.301   4.523   9.766 -0.0796 -0.3620 -0.1623
 8559SOL    HW137313   1.222   4.479   9.799 -0.5685 -0.4727 -1.5065
 8559SOL    HW237314   1.342   4.553   9.848 -0.9425  0.0964  0.1060
 8560SOL     OW37315   1.988   1.324  16.631 -0.2747  0.2630  0.0546
 8560SOL    HW137316   2.072   1.289  16.661  0.1143 -0.7337 -2.1889
 8560SOL    HW237317   2.006   1.348  16.540 -1.2804  0.8594  0.0088
 8561SOL     OW37318   0.960   0.896  14.963  1.1592  0.3731  0.2018
 8561SOL    HW137319   0.880   0.902  15.015  0.1111 -1.5101 -1.1841
 8561SOL    HW237320   1.018   0.954  15.011 -1.9526  2.5384  1.3014
 8562SOL     OW37321   2.894   0.533   3.671 -0.5361 -0.2024 -0.4742
 8562SOL    HW137322   2.833   0.492   3.609 -1.2048 -1.8498  1.2773
 8562SOL    HW237323   2.975   0.523   3.621  0.4774  1.3755  0.8578
 8563SOL     OW37324   3.685   3.045  10.408  0.1907 -0.0592 -0.7454
 8563SOL    HW137325   3.734   3.011  10.484  0.2221 -0.4746 -0.9523
 8563SOL    HW237326   3.683   2.966  10.354  2.2674 -2.4380  2.5709
 8564SOL     OW37327   2.631   4.040  11.579 -0.0282 -0.0404 -0.6208
 8564SOL    HW137328   2.638   4.008  11.669 -0.6613 -1.4317 -1.0566
 8564SOL    HW237329   2.725   4.036  11.559 -0.0377  1.2809 -0.8990
 8565SOL     OW37330   2.464   2.865   2.407  0.1847 -0.4489  0.5339
 8565SOL    HW137331   2.479   2.829   2.495 -0.6180 -0.8590  0.5006
 8565SOL    HW237332   2.553   2.901   2.398  0.2865 -1.2822 -1.6013
 8566SOL     OW37333   0.969   0.905   5.787 -0.0935  0.1337  0.0812
 8566SOL    HW137334   0.961   0.811   5.777  0.6481  0.0516  0.2504
 8566SOL    HW237335   0.876   0.928   5.790 -0.6832 -2.0792 -1.4632
 8567SOL     OW37336   3.486   0.549   8.832 -0.2466  0.0709  0.2035
 8567SOL    HW137337   3.431   0.580   8.760 -1.3846  0.5180  1.2530
 8567SOL    HW237338   3.539   0.486   8.783  1.4412  1.8736 -0.2653
 8568SOL     OW37339   0.522   1.057   0.917 -0.0307 -0.3126 -0.7710
 8568SOL    HW137340   0.558   1.096   0.838  1.2940  1.6422  0.8185
 8568SOL    HW237341   0.598   1.071   0.972 -0.8437 -0.0742  0.2887
 8569SOL     OW37342   2.206   0.741  15.358 -0.2066 -0.1376 -0.5366
 8569SOL    HW137343   2.195   0.740  15.263  1.3204  0.2082 -0.7109
 8569SOL    HW237344   2.249   0.825  15.376 -0.2025 -0.1284 -0.5898
 8570SOL     OW37345   2.933   4.618  13.911  0.3125  0.0637  0.2559
 8570SOL    HW137346   2.989   4.627  13.989 -0.0001  2.6060  0.1620
 8570SOL    HW237347   3.000   4.647  13.850 -0.5618 -1.0640 -1.2318
 8571SOL     OW37348   3.100   4.341   0.329 -0.5562 -0.6476  0.3144
 8571SOL    HW137349   3.117   4.304   0.242  0.8922 -1.6594  1.0159
 8571SOL    HW237350   3.125   4.432   0.312  1.9102 -1.4505 -0.4553
 8572SOL     OW37351   2.760   0.797  10.829 -0.7285  0.6341  0.1667
 8572SOL    HW137352   2.686   0.738  10.820 -0.7227  1.0362 -2.4910
 8572SOL    HW237353   2.786   0.771  10.917 -0.8273  2.0481  0.6088
 8573SOL     OW37354   1.297   0.074  17.705  0.3192 -0.1246 -0.0677
 8573SOL    HW137355   1.379   0.034  17.733  0.2463 -0.5722 -0.5003
 8573SOL    HW237356   1.273   0.134   0.040 -0.7971 -0.4088 -0.2067
 8574SOL     OW37357   3.691   1.956   4.171  0.1120  0.1053 -0.7912
 8574SOL    HW137358   3.688   1.867   4.205  1.4849  0.5837  0.5863
 8574SOL    HW237359   3.613   2.001   4.205 -1.3551 -2.9280 -0.1341
 8575SOL     OW37360   1.395   1.281  12.648  0.2413  0.3788  0.4017
 8575SOL    HW137361   1.360   1.265  12.560  1.8859 -0.5660 -0.0755
 8575SOL    HW237362   1.333   1.228  12.696 -0.8972  1.0098 -0.3746
 8576SOL     OW37363   4.674   0.172  17.095  0.0673  0.7693 -0.4760
 8576SOL    HW137364   4.642   0.191  17.183  0.4149  0.5612 -0.3048
 8576SOL    HW237365   0.035   0.171  17.104  0.0210  0.0365 -0.0217
 8577SOL     OW37366   2.328   0.021   4.439  0.0401 -0.0666  0.5262
 8577SOL    HW137367   2.330   4.697   4.516 -1.5367  0.3548  0.8932
 8577SOL    HW237368   2.353   0.102   4.483 -1.9179  0.7113  0.2099
 8578SOL     OW37369   3.033   0.128  17.380 -0.2570  0.3412 -0.1155
 8578SOL    HW137370   3.062   0.042  17.351 -0.0241  1.6089 -3.6433
 8578SOL    HW237371   2.987   0.112  17.462  0.5950 -3.6935 -0.4394
 8579SOL     OW37372   1.436   4.333  11.793 -0.2508  0.0282  0.9583
 8579SOL    HW137373   1.360   4.277  11.809 -0.6722  0.5294  0.7150
 8579SOL    HW237374   1.401   4.411  11.836  0.4664  1.0958 -0.4166
 8580SOL     OW37375   1.552   1.699   6.464 -0.4574  0.1762 -0.2271
 8580SOL    HW137376   1.646   1.682   6.454  0.2755  2.4623  3.0644
 8580SOL    HW237377   1.568   1.780   6.512  0.4490 -0.3974  0.4415
 8581SOL     OW37378   3.039   3.333   6.614  0.0930  0.0708 -0.0487
 8581SOL    HW137379   3.047   3.381   6.531  0.3931 -4.2913 -2.5349
 8581SOL    HW237380   3.132   3.330   6.636  0.0151  2.1898  0.5789
 8582SOL     OW37381   2.073   1.596   1.922  0.5472 -0.7626  0.6534
 8582SOL    HW137382   2.140   1.606   1.990  1.8154  0.8774 -0.8213
 8582SOL    HW237383   1.996   1.562   1.967 -1.4168  0.5478 -1.7284
 8583SOL     OW37384   3.001   0.377   0.208 -0.2617 -0.4159  0.3846
 8583SOL    HW137385   2.982   0.418   0.123 -0.6705 -0.3407  0.5106
 8583SOL    HW237386   3.010   0.457   0.260 -0.7485  1.2503 -2.0534
 8584SOL     OW37387   1.775   0.058   8.070 -0.4075  0.2892 -0.2491
 8584SOL    HW137388   1.760   4.717   8.127 -1.2453 -0.0186 -0.8551
 8584SOL    HW237389   1.774   0.011   7.986  0.8457  1.9054 -1.1799
 8585SOL     OW37390   1.571   2.004  16.815 -0.4577  0.2817  0.7637
 8585SOL    HW137391   1.651   2.011  16.763 -0.8772  1.8843  0.3227
 8585SOL    HW237392   1.602   2.002  16.905 -1.0665  2.8364  1.0477
 8586SOL     OW37393   0.864   2.043   5.210  0.1436  0.1538 -0.6619
 8586SOL    HW137394   0.903   2.113   5.159 -2.2212  1.3342 -0.8390
 8586SOL    HW237395   0.917   2.032   5.289  0.1542 -0.7050 -0.7786
 8587SOL     OW37396   3.738   3.665  12.802 -0.7845 -0.2663 -0.9124
 8587SOL    HW137397   3.735   3.676  12.707 -0.5755 -1.9373 -1.1028
 8587SOL    HW237398   3.796   3.590  12.809  0.6905  0.9901  0.4580
 8588SOL     OW37399   2.705   0.966   4.210  0.4095 -0.4418 -0.4356
 8588SOL    HW137400   2.794   0.951   4.242  0.6085 -1.6546 -1.5259
 8588SOL    HW237401   2.667   1.006   4.289  1.4596  0.1911 -0.2567
 8589SOL     OW37402   0.910   0.877   6.806 -0.5321  0.2287 -0.1694
 8589SOL    HW137403   0.962   0.936   6.752 -1.3476 -0.3562 -1.5806
 8589SOL    HW237404   0.865   0.944   6.859  0.0719 -0.7705  1.6088
 8590SOL     OW37405   4.090   1.211   8.542 -0.1810  0.3596 -0.2750
 8590SOL    HW137406   4.047   1.139   8.496 -1.1334  1.8387 -1.6825
 8590SOL    HW237407   4.016   1.271   8.543  2.0275  3.0972 -0.5892
 8591SOL     OW37408   1.110   0.249   4.298 -0.1823  0.4123  0.3782
 8591SOL    HW137409   1.043   0.219   4.359 -0.6071  0.9287  0.1734
 8591SOL    HW237410   1.192   0.231   4.344  0.3756 -1.9979 -1.6057
 8592SOL     OW37411   4.667   3.995   6.284  0.2879  0.6422  0.0616
 8592SOL    HW137412   4.666   4.022   6.193 -0.2811 -0.7097 -0.3277
 8592SOL    HW237413   4.688   3.903   6.270 -1.8181  0.4008 -1.3875
 8593SOL     OW37414   2.725   2.090  11.019 -0.2841 -0.0018 -0.3064
 8593SOL    HW137415   2.666   2.048  11.082  1.9826 -3.1532 -0.2964
 8593SOL    HW237416   2.805   2.041  11.036 -1.4715 -1.2601  1.7399
 8594SOL     OW37417   1.514   4.135   4.065 -0.3508 -0.1813  0.2220
 8594SOL    HW137418   1.425   4.167   4.047  0.1519  1.6051  0.8635
 8594SOL    HW237419   1.524   4.054   4.016 -0.9741  0.2288 -0.5840
 8595SOL     OW37420   2.198   1.982   8.594  0.0455 -0.3952 -0.3053
 8595SOL    HW137421   2.262   2.021   8.654  0.3019  0.1089 -0.9050
 8595SOL    HW237422   2.138   1.938   8.654 -2.9883  0.3157 -2.8573
 8596SOL     OW37423   1.119   3.838   8.524 -0.1688 -0.0478 -0.1289
 8596SOL    HW137424   1.125   3.891   8.444 -0.9639 -0.2439 -0.3231
 8596SOL    HW237425   1.211   3.830   8.548  0.4314  2.1845 -1.7285
 8597SOL     OW37426   2.377   0.981   1.628 -0.2349  0.1868  0.2050
 8597SOL    HW137427   2.335   1.063   1.601  0.4623 -0.0597 -1.6406
 8597SOL    HW237428   2.312   0.938   1.684  1.7998  0.1624  2.5476
 8598SOL     OW37429   3.567   0.886   3.302  0.2322 -0.6167  0.3371
 8598SOL    HW137430   3.585   0.846   3.387 -1.5998 -0.1600  0.9504
 8598SOL    HW237431   3.575   0.810   3.246  0.6859 -0.1245 -0.2586
 8599SOL     OW37432   1.808   0.218   3.958  0.0294  0.0218 -0.2733
 8599SOL    HW137433   1.874   0.149   3.971  1.5774  1.4386 -0.5351
 8599SOL    HW237434   1.835   0.246   3.871  1.4067 -0.6180 -0.0521
 8600SOL     OW37435   2.696   0.936   1.037  0.5515 -0.3201 -0.3552
 8600SOL    HW137436   2.677   0.856   1.087  0.8909 -0.9606 -1.2556
 8600SOL    HW237437   2.688   1.005   1.103  1.0435 -1.5426  1.0048
 8601SOL     OW37438   4.275   2.489   6.849  0.1557  0.3509 -0.4688
 8601SOL    HW137439   4.349   2.447   6.893 -0.3554  2.1631  2.1197
 8601SOL    HW237440   4.321   2.547   6.788  0.2377 -0.0131 -0.7541
 8602SOL     OW37441   3.225   4.234  13.624  0.0410 -0.2663 -0.0833
 8602SOL    HW137442   3.274   4.304  13.668  0.2380  0.0418 -0.8042
 8602SOL    HW237443   3.181   4.281  13.554 -0.5022  0.0065  0.4417
 8603SOL     OW37444   3.239   1.184   3.190 -0.3901  0.5098  0.2264
 8603SOL    HW137445   3.313   1.171   3.132 -0.4319 -0.8461  0.4733
 8603SOL    HW237446   3.216   1.093   3.213  1.7821 -0.2022 -0.4332
 8604SOL     OW37447   2.610   2.344   6.674  0.1053  0.1402 -0.2508
 8604SOL    HW137448   2.565   2.272   6.630 -0.4641  0.2824  0.1014
 8604SOL    HW237449   2.601   2.415   6.610 -2.6693  0.0678  0.0567
 8605SOL     OW37450   1.729   1.558  13.310  0.0676  0.3731  0.0061
 8605SOL    HW137451   1.633   1.557  13.308  0.1221  2.3566 -3.8692
 8605SOL    HW237452   1.750   1.542  13.402  0.4183 -0.7428 -0.2618
 8606SOL     OW37453   1.086   0.560   2.477 -0.2441  0.5933  0.2345
 8606SOL    HW137454   1.012   0.599   2.522 -2.1506 -0.5066 -1.9411
 8606SOL    HW237455   1.117   0.638   2.432  0.1509 -1.9719 -3.9420
 8607SOL     OW37456   3.075   3.805   7.947  0.3003 -0.8626 -0.0178
 8607SOL    HW137457   3.143   3.800   7.880 -1.4852  2.3814 -2.0610
 8607SOL    HW237458   3.015   3.872   7.916 -0.6286 -2.7905 -2.3209
 8608SOL     OW37459   3.049   4.185   3.697 -0.6568  0.1237  0.1828
 8608SOL    HW137460   2.998   4.166   3.618  0.1105 -0.3417 -0.1988
 8608SOL    HW237461   3.104   4.256   3.663 -1.9412  0.9723 -0.1331
 8609SOL     OW37462   3.035   3.580   4.895 -1.1332  0.8131  0.5297
 8609SOL    HW137463   3.092   3.649   4.864  1.4239 -1.7018 -0.3165
 8609SOL    HW237464   2.967   3.562   4.830  2.2595 -0.2637 -2.7132
 8610SOL     OW37465   2.712   2.965   2.370 -0.2050  0.6493 -0.3186
 8610SOL    HW137466   2.746   3.037   2.424 -0.5152  0.6668 -0.1453
 8610SOL    HW237467   2.711   3.010   2.285 -2.5192  1.7593  0.2817
 8611SOL     OW37468   0.489   3.005   2.652  0.5190  0.0999 -0.0303
 8611SOL    HW137469   0.418   2.942   2.661  0.7928 -0.1499  0.3386
 8611SOL    HW237470   0.441   3.084   2.677 -2.4388 -1.3193 -1.2391
 8612SOL     OW37471   4.433   4.235  15.515  0.1076 -0.3443 -0.5383
 8612SOL    HW137472   4.361   4.248  15.454  1.6765 -3.5410 -3.0959
 8612SOL    HW237473   4.496   4.304  15.493 -1.0479  0.9800  0.3392
 8613SOL     OW37474   2.490   4.390   7.054  0.5606  0.2728  0.1369
 8613SOL    HW137475   2.446   4.398   6.969 -2.1418  0.6065  1.5692
 8613SOL    HW237476   2.413   4.368   7.107 -0.2269  0.5239 -0.8924
 8614SOL     OW37477   1.775   3.280  14.070  0.1205 -0.2656 -0.1746
 8614SOL    HW137478   1.794   3.239  13.986 -0.9054 -2.4807  0.6792
 8614SOL    HW237479   1.804   3.371  14.065  1.9415 -0.6729  3.1016
 8615SOL     OW37480   1.942   4.554   2.234  0.2199 -0.4454 -0.3002
 8615SOL    HW137481   1.985   4.530   2.316  1.1047 -0.0892 -0.6631
 8615SOL    HW237482   1.997   4.520   2.164 -0.8460 -2.3586 -0.2113
 8616SOL     OW37483   3.758   2.372   8.816 -0.5810 -0.2341  0.0463
 8616SOL    HW137484   3.797   2.362   8.729  0.5930  2.0373  0.3056
 8616SOL    HW237485   3.832   2.409   8.865  2.1309 -1.1107 -3.3961
 8617SOL     OW37486   3.071   2.243   4.744  0.1505  0.1251  0.2045
 8617SOL    HW137487   3.118   2.292   4.812 -1.2240 -0.1305  1.3496
 8617SOL    HW237488   3.057   2.159   4.786  1.2383 -1.0459 -1.7716
 8618SOL     OW37489   3.694   3.888   3.379  0.4231 -0.2546 -0.1427
 8618SOL    HW137490   3.609   3.900   3.337  1.3841  1.5768 -1.6123
 8618SOL    HW237491   3.723   3.803   3.348 -2.1214 -0.6697 -1.4284
 8619SOL     OW37492   1.901   2.814   4.471 -0.5508  0.3050  0.4327
 8619SOL    HW137493   1.942   2.832   4.556 -0.2439  0.5566  0.2323
 8619SOL    HW237494   1.959   2.763   4.415  1.1398  2.8167 -0.1426
 8620SOL     OW37495   2.697   2.319  10.874 -0.4063  0.6407  0.7203
 8620SOL    HW137496   2.717   2.239  10.924  0.1347  0.7556  0.6823
 8620SOL    HW237497   2.769   2.317  10.812  0.8271 -4.3232  2.2664
 8621SOL     OW37498   1.187   0.039   3.714  0.6354  0.3797  0.3437
 8621SOL    HW137499   1.161   0.087   3.792 -0.0066  2.0853 -0.9402
 8621SOL    HW237500   1.130   4.697   3.721  0.2306  0.8281  2.0053
 8622SOL     OW37501   0.275   4.554   0.297 -0.1190  0.1711 -0.1347
 8622SOL    HW137502   0.211   4.575   0.365 -1.7102 -2.7499 -0.7208
 8622SOL    HW237503   0.357   4.560   0.347  0.2782 -1.6555 -0.5821
 8623SOL     OW37504   3.489   1.769   9.399  0.0560 -0.5782  0.7778
 8623SOL    HW137505   3.393   1.773   9.406 -0.0485 -1.9357  0.1007
 8623SOL    HW237506   3.499   1.674   9.395 -0.6886 -0.6955  1.3964
 8624SOL     OW37507   4.220   3.948   8.383  0.4883  0.0158  0.2737
 8624SOL    HW137508   4.274   4.019   8.417 -0.4270 -0.0557  1.8390
 8624SOL    HW237509   4.182   4.002   8.314  1.9830 -0.3486 -0.8471
 8625SOL     OW37510   4.541   1.181  17.244  0.2571  0.2479  0.1705
 8625SOL    HW137511   4.551   1.118  17.173 -0.3684  2.1663 -1.6134
 8625SOL    HW237512   4.498   1.252  17.197 -0.2561 -0.6059 -0.6416
 8626SOL     OW37513   2.922   3.526  11.106 -0.4940 -0.4407 -0.2937
 8626SOL    HW137514   2.953   3.482  11.026  1.9303 -1.1564  1.0267
 8626SOL    HW237515   2.916   3.452  11.167  1.0195 -0.6190 -0.3395
 8627SOL     OW37516   3.086   3.160   2.473 -0.5024  0.5327 -0.2052
 8627SOL    HW137517   3.128   3.121   2.396 -2.5102 -0.0787 -0.9862
 8627SOL    HW237518   3.143   3.235   2.487 -0.4624  0.3277  0.7559
 8628SOL     OW37519   1.694   2.330   2.888  0.1496  0.1953 -0.4898
 8628SOL    HW137520   1.779   2.295   2.861 -1.5401 -2.8658 -1.7452
 8628SOL    HW237521   1.693   2.323   2.983 -1.1298  0.9348 -0.4550
 8629SOL     OW37522   2.696   0.146  14.644 -0.2933  0.3994  0.3513
 8629SOL    HW137523   2.608   0.152  14.606 -0.4911  2.6310  1.1961
 8629SOL    HW237524   2.718   0.231  14.682  0.1136  0.8473 -0.8587
 8630SOL     OW37525   4.108   2.515   8.453  0.6308  0.8326  0.2667
 8630SOL    HW137526   4.166   2.535   8.379 -0.1563  1.5743 -0.1528
 8630SOL    HW237527   4.036   2.481   8.400 -0.6483 -2.2272  3.9816
 8631SOL     OW37528   1.680   4.430  10.224  0.0819  0.2578  0.1597
 8631SOL    HW137529   1.631   4.451  10.144 -0.6177 -0.0745  0.5026
 8631SOL    HW237530   1.762   4.391  10.191  0.4351  2.3030 -1.3953
 8632SOL     OW37531   0.910   3.229   5.835  0.3843  0.8257 -0.5283
 8632SOL    HW137532   0.845   3.246   5.766 -1.6306  2.9193  1.8744
 8632SOL    HW237533   0.984   3.284   5.808  1.1900 -0.1835 -0.3930
 8633SOL     OW37534   0.965   3.094   0.951  0.1290  0.1906 -0.2624
 8633SOL    HW137535   0.931   3.146   1.024 -0.0925 -0.3085 -0.0062
 8633SOL    HW237536   0.992   3.163   0.891 -2.1874 -1.0806 -2.7385
 8634SOL     OW37537   0.737   4.120   5.808  0.0160 -0.1687  0.6745
 8634SOL    HW137538   0.704   4.030   5.809 -0.4797  0.0007 -0.2672
 8634SOL    HW237539   0.828   4.108   5.834  0.9164 -1.1346 -2.8831
 8635SOL     OW37540   2.231   1.707   1.719 -0.2875 -0.2234  0.9842
 8635SOL    HW137541   2.160   1.747   1.669  0.9311  0.2862 -0.3282
 8635SOL    HW237542   2.192   1.655   1.789 -1.0133  0.4937  1.1203
 8636SOL     OW37543   3.424   0.615   1.299 -0.0661  0.1360  0.2829
 8636SOL    HW137544   3.356   0.662   1.348 -0.8961 -0.5644 -0.1923
 8636SOL    HW237545   3.408   0.524   1.322  0.0747 -0.5428 -2.2541
 8637SOL     OW37546   0.817   1.428   2.172  0.1813 -0.0298  0.0638
 8637SOL    HW137547   0.765   1.461   2.098  1.1425 -1.3898 -1.2089
 8637SOL    HW237548   0.901   1.420   2.126 -0.5765 -1.2269 -1.1191
 8638SOL     OW37549   0.171   2.100   7.568  0.3199  0.7340  0.6737
 8638SOL    HW137550   0.260   2.131   7.551  0.4047  0.6771  1.0100
 8638SOL    HW237551   0.129   2.173   7.613 -2.9313 -0.3724 -0.5938
 8639SOL     OW37552   1.742   3.193   8.715 -0.3390 -0.3606  0.1741
 8639SOL    HW137553   1.693   3.163   8.638  0.8881 -1.5882 -0.1336
 8639SOL    HW237554   1.784   3.271   8.679 -2.2023  1.0481  1.0809
 8640SOL     OW37555   4.250   3.923   5.987  0.4000 -0.0667 -0.2042
 8640SOL    HW137556   4.270   3.849   5.930 -1.4187  0.2110 -1.1778
 8640SOL    HW237557   4.304   3.895   6.062  2.0310  2.3503 -0.4683
 8641SOL     OW37558   4.661   3.698  12.970 -0.3442  0.4383 -0.3726
 8641SOL    HW137559   4.730   3.669  12.910  1.2247  0.1816  1.5897
 8641SOL    HW237560   4.716   3.770  13.001  3.1485 -2.0790 -0.7356
 8642SOL     OW37561   0.692   2.296   2.347 -0.0788  0.6002 -0.2021
 8642SOL    HW137562   0.766   2.348   2.378  0.3588 -0.5125  0.6397
 8642SOL    HW237563   0.629   2.365   2.328  0.2899  1.3238  1.2034
 8643SOL     OW37564   0.649   2.537   5.029 -0.0542 -0.0799 -0.6064
 8643SOL    HW137565   0.578   2.473   5.037  2.3243 -2.6557 -0.2795
 8643SOL    HW237566   0.670   2.554   5.120  0.4950  1.2077 -0.9794
 8644SOL     OW37567   2.858   4.350   2.943 -0.0908  0.0593  0.5435
 8644SOL    HW137568   2.922   4.388   3.003  0.1236  1.6536 -0.6870
 8644SOL    HW237569   2.780   4.368   2.996  1.1967  1.6679  1.8979
 8645SOL     OW37570   2.853   4.512   7.934  0.1202 -0.2038 -0.3503
 8645SOL    HW137571   2.798   4.435   7.948 -0.7665  0.5471  0.2939
 8645SOL    HW237572   2.810   4.541   7.853 -0.6109  2.8796  1.1654
 8646SOL     OW37573   2.306   0.565   1.734 -0.1720  0.1825 -0.9650
 8646SOL    HW137574   2.342   0.478   1.752  1.8937  1.1378 -0.4579
 8646SOL    HW237575   2.228   0.545   1.787  1.5562 -1.6495  0.8883
 8647SOL     OW37576   1.356   2.980   7.462  0.2383  0.0856  0.1197
 8647SOL    HW137577   1.365   2.899   7.511  2.6450  2.0312  2.9554
 8647SOL    HW237578   1.312   2.957   7.380 -0.3682 -3.4907  1.4517
 8648SOL     OW37579   0.422   4.192   7.089 -0.1435  0.0153  0.6332
 8648SOL    HW137580   0.372   4.117   7.058 -1.2010  0.6017  0.9110
 8648SOL    HW237581   0.365   4.239   7.150 -1.9559 -1.6306  0.1959
 8649SOL     OW37582   3.126   4.611   2.637  0.0961 -0.1319  0.5783
 8649SOL    HW137583   3.128   4.586   2.545 -1.5271  0.4055  0.3936
 8649SOL    HW237584   3.054   4.674   2.637  0.0873 -0.1398  2.4464
 8650SOL     OW37585   1.110   3.042   6.186 -0.1574 -0.2434 -0.0497
 8650SOL    HW137586   1.031   3.066   6.138 -0.1568  1.0323  0.6025
 8650SOL    HW237587   1.163   3.121   6.177  1.0438 -1.1290 -0.7674
 8651SOL     OW37588   0.330   2.816   7.492 -0.0098 -0.2938  0.2403
 8651SOL    HW137589   0.319   2.842   7.400  0.1786  2.0503  0.8780
 8651SOL    HW237590   0.415   2.772   7.495 -0.0554 -0.1783  3.1337
 8652SOL     OW37591   0.534   2.328   6.576  0.4210 -0.1532 -0.0607
 8652SOL    HW137592   0.446   2.295   6.596  0.4935 -0.5289 -0.3723
 8652SOL    HW237593   0.530   2.370   6.491  1.7922 -1.6574 -0.8698
 8653SOL     OW37594   0.869   4.223   5.043 -0.3678 -0.1070  0.5952
 8653SOL    HW137595   0.927   4.161   5.000  0.6262  0.9476  0.3952
 8653SOL    HW237596   0.789   4.177   5.068 -1.8316  1.8227 -0.5117
 8654SOL     OW37597   0.981   3.800   3.057 -0.1035  0.2517  0.2450
 8654SOL    HW137598   0.925   3.734   3.018 -0.3786  0.3959  0.3945
 8654SOL    HW237599   1.059   3.779   3.006 -0.1987  2.1585 -0.7096
 8655SOL     OW37600   4.326   2.957   9.831  0.5910 -0.0978  0.4350
 8655SOL    HW137601   4.244   3.008   9.828 -0.9684 -2.5162  1.8584
 8655SOL    HW237602   4.352   2.958   9.739 -0.8043 -1.7742  0.0121
 8656SOL     OW37603   0.482   1.867   8.374  0.3354 -0.1138 -0.3797
 8656SOL    HW137604   0.449   1.781   8.349 -0.8094  0.2879 -0.2685
 8656SOL    HW237605   0.417   1.901   8.436 -0.1228 -0.3432 -0.7296
 8657SOL     OW37606   0.170   0.302   7.668 -0.3384 -0.1881  0.0880
 8657SOL    HW137607   0.196   0.210   7.663 -0.6226 -0.2939  0.5428
 8657SOL    HW237608   0.249   0.353   7.684 -1.3453  1.7087 -0.8888
 8658SOL     OW37609   4.304   3.563   1.930  1.0845 -0.0924  0.6015
 8658SOL    HW137610   4.253   3.499   1.979 -1.1813  1.2280 -0.0570
 8658SOL    HW237611   4.311   3.643   1.983  0.4103  2.0193 -2.4629
 8659SOL     OW37612   0.734   2.384  15.738 -0.1842  0.2961  0.3930
 8659SOL    HW137613   0.814   2.416  15.696 -1.6182  2.2649 -0.7928
 8659SOL    HW237614   0.755   2.423  15.823  1.6894 -0.8985  0.4890
 8660SOL     OW37615   0.145   2.829  15.987 -0.2394  0.9559 -0.2241
 8660SOL    HW137616   0.075   2.878  15.942 -1.0268  0.9710  1.0024
 8660SOL    HW237617   0.086   2.781  16.046 -0.8446  1.4008 -0.4601
 8661SOL     OW37618   2.122   2.523   3.297 -0.2171  0.0837 -0.7984
 8661SOL    HW137619   2.206   2.483   3.318 -0.8744 -0.2259  1.1877
 8661SOL    HW237620   2.085   2.455   3.240  1.6023  0.2277 -2.1454
 8662SOL     OW37621   0.540   0.668   2.912  0.6212 -0.3248 -0.8011
 8662SOL    HW137622   0.479   0.658   2.985  0.8793 -2.0087 -0.8168
 8662SOL    HW237623   0.569   0.578   2.922  0.3380 -0.4878 -1.4241
 8663SOL     OW37624   0.229   4.721  14.544  0.3973 -0.4199 -0.2893
 8663SOL    HW137625   0.267   0.038  14.616  0.3658 -1.1552  0.2512
 8663SOL    HW237626   0.168   4.671  14.597  0.5129 -1.5865 -1.2611
 8664SOL     OW37627   3.338   3.763   5.710 -0.2140 -0.2033  0.1899
 8664SOL    HW137628   3.411   3.824   5.713 -0.5869  0.2478  0.1204
 8664SOL    HW237629   3.351   3.718   5.793 -1.6038 -0.3475  0.3269
 8665SOL     OW37630   1.324   1.178  12.110 -0.3046  0.0250 -0.1231
 8665SOL    HW137631   1.262   1.249  12.095  0.5745  0.8465  0.1367
 8665SOL    HW237632   1.277   1.103  12.147 -2.1866  1.3059  0.0583
 8666SOL     OW37633   3.604   2.619   5.066 -0.6948 -0.2544 -0.0252
 8666SOL    HW137634   3.565   2.705   5.047 -0.0011  0.4208  1.6516
 8666SOL    HW237635   3.558   2.603   5.148  0.7964 -0.2137  0.8175
 8667SOL     OW37636   4.684   4.342   2.501 -0.5774  0.0347  0.4105
 8667SOL    HW137637   4.668   4.393   2.423  1.7455 -0.4665 -0.4098
 8667SOL    HW237638   4.626   4.269   2.481 -0.6258  0.1271  0.2237
 8668SOL     OW37639   1.582   0.493   6.906 -0.2047 -0.2268  0.0103
 8668SOL    HW137640   1.629   0.410   6.905  0.3858  0.1198 -0.8912
 8668SOL    HW237641   1.662   0.546   6.904 -0.5478  0.1813 -2.9581
 8669SOL     OW37642   3.482   1.248   8.750 -0.4578  0.3629  0.5239
 8669SOL    HW137643   3.443   1.195   8.820 -0.9683  0.0958  0.0386
 8669SOL    HW237644   3.496   1.332   8.793  0.1648 -0.9575  2.9450
 8670SOL     OW37645   3.552   0.333   8.355  0.1275  0.3038  0.3040
 8670SOL    HW137646   3.643   0.326   8.382  1.1779 -0.3087 -3.4205
 8670SOL    HW237647   3.541   0.280   8.276  3.8174 -1.3665  0.9227
 8671SOL     OW37648   4.397   2.262   7.887  0.1727  0.1361  0.0698
 8671SOL    HW137649   4.378   2.348   7.848 -3.0763 -0.1987  0.8486
 8671SOL    HW237650   4.412   2.201   7.815  1.8483  1.1896 -0.4674
 8672SOL     OW37651   1.591   3.336   3.424  0.0207  0.1579 -0.1646
 8672SOL    HW137652   1.514   3.392   3.434  2.2737  3.4555 -0.9456
 8672SOL    HW237653   1.575   3.290   3.342  2.3483  3.8512 -2.6881
 8673SOL     OW37654   2.799   1.181  11.445 -0.0840  0.0607 -0.7156
 8673SOL    HW137655   2.792   1.147  11.356  0.5783  0.1173 -0.7847
 8673SOL    HW237656   2.799   1.276  11.446 -0.4027  0.0661 -1.5327
 8674SOL     OW37657   0.125   4.560   8.803 -0.0589 -0.1744 -0.2286
 8674SOL    HW137658   0.097   4.651   8.812  2.1315  0.6885 -2.3198
 8674SOL    HW237659   0.171   4.572   8.720  0.5613  3.1711  0.6099
 8675SOL     OW37660   0.810   2.916   6.847 -0.3907 -0.5334 -0.1074
 8675SOL    HW137661   0.859   2.890   6.769  2.0153  0.3345  1.1210
 8675SOL    HW237662   0.735   2.966   6.814 -0.9145 -3.5624 -3.5213
 8676SOL     OW37663   0.865   1.308   4.092  0.1056  0.3254 -0.3402
 8676SOL    HW137664   0.941   1.358   4.064  1.6671 -1.4385  0.7793
 8676SOL    HW237665   0.904   1.222   4.078  0.3412  0.5426 -1.0212
 8677SOL     OW37666   0.463   1.669   9.418  0.0031 -0.5114  0.6873
 8677SOL    HW137667   0.427   1.749   9.380 -0.6490 -0.2886  1.7823
 8677SOL    HW237668   0.404   1.603   9.381 -1.2242  0.6848  0.5398
 8678SOL     OW37669   3.474   4.231   5.575 -0.4509  0.1085 -0.3961
 8678SOL    HW137670   3.407   4.163   5.584 -0.0186 -0.2317  0.1845
 8678SOL    HW237671   3.419   4.295   5.622  0.3822 -1.4814  2.7492
 8679SOL     OW37672   1.213   1.788  13.299 -0.4095  0.4306  0.2443
 8679SOL    HW137673   1.154   1.724  13.259 -0.5202  0.9187 -0.3656
 8679SOL    HW237674   1.191   1.874  13.263 -1.9792  0.4213  1.1528
 8680SOL     OW37675   0.474   0.920   6.376  0.4716  0.0309  0.1818
 8680SOL    HW137676   0.493   0.939   6.468 -0.1697 -1.1715  0.5626
 8680SOL    HW237677   0.523   0.837   6.376  0.1363 -0.1657 -0.8607
 8681SOL     OW37678   0.040   4.031   5.386  0.5277 -0.3386  0.4566
 8681SOL    HW137679   0.104   4.040   5.316  1.8467 -0.5667  1.6489
 8681SOL    HW237680   0.011   4.122   5.388 -3.2505 -1.5489  1.0066
 8682SOL     OW37681   0.346   4.517   7.550 -0.7071 -0.1327 -0.1466
 8682SOL    HW137682   0.433   4.531   7.512 -0.2400 -2.2985  0.1535
 8682SOL    HW237683   0.317   4.455   7.482 -0.3787  2.7500 -2.9405
 8683SOL     OW37684   2.355   1.008   8.341 -0.6509  0.5345  0.1969
 8683SOL    HW137685   2.419   0.938   8.327 -1.6679 -0.3375 -0.0963
 8683SOL    HW237686   2.410   1.082   8.368 -1.7565  1.8950 -1.3018
 8684SOL     OW37687   0.241   0.118   7.275  0.1824 -0.0999  0.6119
 8684SOL    HW137688   0.331   0.090   7.286  0.5098 -0.3043 -2.4111
 8684SOL    HW237689   0.215   0.060   7.202  0.4133  0.3229  0.1942
 8685SOL     OW37690   3.874   3.926   8.924  0.5387  0.0141 -0.1342
 8685SOL    HW137691   3.821   4.000   8.895 -1.5621 -1.4634 -0.0480
 8685SOL    HW237692   3.964   3.952   8.904  0.3520  1.4597  0.9185
 8686SOL     OW37693   3.297   1.912   2.207  0.3175  0.2245 -0.1207
 8686SOL    HW137694   3.336   1.942   2.290 -0.4635  1.1435 -0.0936
 8686SOL    HW237695   3.377   1.920   2.155 -1.8618  0.4386 -3.3745
 8687SOL     OW37696   3.370   1.372  10.128 -0.3584 -0.0087  0.5458
 8687SOL    HW137697   3.409   1.290  10.099 -0.9159 -0.2331  0.4310
 8687SOL    HW237698   3.340   1.412  10.047  0.1977  0.8748  0.7816
 8688SOL     OW37699   2.498   3.661  10.181  0.0070  0.2455  0.4321
 8688SOL    HW137700   2.404   3.643  10.180 -0.1065  0.9454 -2.7698
 8688SOL    HW237701   2.534   3.612  10.107 -0.3640 -1.5864  1.4875
 8689SOL     OW37702   4.305   2.288   3.739 -0.1758  0.4220  0.4517
 8689SOL    HW137703   4.259   2.210   3.709  2.9442 -0.9496 -0.7475
 8689SOL    HW237704   4.397   2.270   3.720 -0.4142 -0.5300  0.2113
 8690SOL     OW37705   0.893   2.035   2.412 -0.0253  0.3203  0.1094
 8690SOL    HW137706   0.802   2.064   2.412  0.0523  0.5730 -0.5003
 8690SOL    HW237707   0.894   1.953   2.362  2.1293 -0.7785  1.9585
 8691SOL     OW37708   2.620   3.589   3.114  0.0825  0.6788 -0.1820
 8691SOL    HW137709   2.535   3.578   3.155 -0.2797 -0.0779 -1.1390
 8691SOL    HW237710   2.673   3.568   3.191 -0.2598 -0.0695 -0.1481
 8692SOL     OW37711   3.275   0.214   5.575  0.1879 -0.7145  0.3946
 8692SOL    HW137712   3.363   0.204   5.612  0.4472 -2.9153 -0.7916
 8692SOL    HW237713   3.266   0.123   5.546  2.1549 -1.4343  2.0682
 8693SOL     OW37714   4.018   2.673   4.376  0.0581 -0.2723 -0.6504
 8693SOL    HW137715   3.952   2.703   4.313 -0.7542  0.8666  0.7370
 8693SOL    HW237716   4.022   2.755   4.426  1.8273  0.1988 -1.5508
 8694SOL     OW37717   1.023   2.308  10.589 -0.0354 -0.1764  0.2323
 8694SOL    HW137718   1.054   2.313  10.679 -0.0714  4.8771 -0.0518
 8694SOL    HW237719   1.078   2.233  10.564  0.0511 -0.0976  0.1861
 8695SOL     OW37720   4.477   2.198   8.484 -0.3081 -0.3028  0.9838
 8695SOL    HW137721   4.443   2.181   8.396 -0.2379  2.5015  0.4014
 8695SOL    HW237722   4.408   2.256   8.516  2.2814  3.0028  0.6585
 8696SOL     OW37723   2.954   3.964   4.852 -0.2276 -0.0360 -0.0618
 8696SOL    HW137724   2.892   4.024   4.811 -1.1565 -0.3429  0.8856
 8696SOL    HW237725   3.004   3.937   4.775 -1.1361 -2.4185  0.1995
 8697SOL     OW37726   2.498   4.526  12.857  0.2678  0.6115 -0.4086
 8697SOL    HW137727   2.424   4.576  12.893 -0.9408  0.1592 -2.2792
 8697SOL    HW237728   2.572   4.564  12.904 -0.0601  0.4345  0.2554
 8698SOL     OW37729   3.613   1.842   7.353 -0.0972 -0.6131 -0.0566
 8698SOL    HW137730   3.617   1.934   7.326 -0.1467 -0.5478  0.1536
 8698SOL    HW237731   3.670   1.813   7.282  2.3253 -1.2839  2.1291
 8699SOL     OW37732   0.963   0.225   1.568 -0.4510  0.3941 -0.0260
 8699SOL    HW137733   0.927   0.305   1.607 -1.5449 -0.5359  0.8992
 8699SOL    HW237734   1.006   0.188   1.645  1.0991 -2.4539 -2.2638
 8700SOL     OW37735   4.478   1.113   0.439  0.3118  0.5607 -0.2647
 8700SOL    HW137736   4.455   1.154   0.356  0.0479  0.0069 -0.4638
 8700SOL    HW237737   4.520   1.191   0.477 -1.0296  1.4721 -0.6614
 8701SOL     OW37738   1.404   4.446  11.508 -0.1263 -0.0570 -0.2993
 8701SOL    HW137739   1.395   4.429  11.602  1.3413  0.0729 -0.1435
 8701SOL    HW237740   1.443   4.533  11.504 -0.8832  0.3859  2.0859
 8702SOL     OW37741   0.622   3.202   0.841 -0.2217 -0.2601 -0.0821
 8702SOL    HW137742   0.530   3.193   0.814  0.2449  0.1096 -1.8032
 8702SOL    HW237743   0.657   3.235   0.758  1.9635  1.9026  1.7130
 8703SOL     OW37744   0.591   0.666   4.901  1.1832  0.0909 -0.2717
 8703SOL    HW137745   0.613   0.598   4.837 -1.8147 -0.3433 -0.8182
 8703SOL    HW237746   0.618   0.748   4.861 -0.6491 -0.1652 -1.9979
 8704SOL     OW37747   2.350   2.463  11.516  0.6808  0.0028 -0.5358
 8704SOL    HW137748   2.437   2.439  11.547  0.4805 -0.4368 -0.3132
 8704SOL    HW237749   2.368   2.508  11.433  2.5250  2.8929  1.4602
 8705SOL     OW37750   2.082   4.066   6.638  0.7913  0.0816  0.0918
 8705SOL    HW137751   2.000   4.038   6.678  0.7753  0.6364  0.4488
 8705SOL    HW237752   2.120   3.981   6.618 -0.3320 -0.6556  1.1076
 8706SOL     OW37753   4.109   2.304   5.445 -0.1955  0.5490 -0.2471
 8706SOL    HW137754   4.109   2.356   5.525 -2.0606  3.3582 -2.0658
 8706SOL    HW237755   4.202   2.321   5.433 -0.3849  0.7217 -1.4911
 8707SOL     OW37756   0.967   4.464   8.348 -0.6273 -0.6647 -0.3353
 8707SOL    HW137757   1.007   4.433   8.430  1.2784 -1.9787 -1.7653
 8707SOL    HW237758   0.926   4.544   8.382 -1.7940 -0.5020 -2.1436
 8708SOL     OW37759   0.847   2.055   3.550  0.3518  0.2417  0.1350
 8708SOL    HW137760   0.927   2.100   3.523  0.0706  0.5025 -0.2541
 8708SOL    HW237761   0.825   2.019   3.464  0.7889  1.4493 -0.4869
 8709SOL     OW37762   4.475   1.978   8.640  0.1270 -0.3957 -0.1541
 8709SOL    HW137763   4.457   2.051   8.581  0.2768 -0.2392 -0.0035
 8709SOL    HW237764   4.476   2.011   8.730  1.4858 -0.9044  0.0047
 8710SOL     OW37765   3.280   1.255   9.167 -0.2476 -0.1857 -0.8485
 8710SOL    HW137766   3.343   1.327   9.166 -1.0674  0.5613  0.4184
 8710SOL    HW237767   3.272   1.247   9.072 -0.1239  3.6100 -1.1571
 8711SOL     OW37768   4.585   4.725  10.472 -0.6564  0.3980  0.0958
 8711SOL    HW137769   4.616   0.027  10.389  0.2745  0.2857  0.3902
 8711SOL    HW237770   4.643   4.649  10.483 -0.9692  0.0786 -0.4338
 8712SOL     OW37771   3.496   1.121   5.362  0.2821  0.1126  0.4302
 8712SOL    HW137772   3.444   1.064   5.306  2.4107 -3.1659  1.7747
 8712SOL    HW237773   3.424   1.160   5.412  0.9846 -0.4632  1.8932
 8713SOL     OW37774   0.110   2.357  13.565  0.2198  0.3781  0.6116
 8713SOL    HW137775   0.083   2.448  13.553  2.5842  1.1070  0.9455
 8713SOL    HW237776   0.164   2.334  13.489 -0.7328 -0.5192  0.2083
 8714SOL     OW37777   0.726   0.738  15.111  0.5125  0.5428 -0.2670
 8714SOL    HW137778   0.643   0.690  15.113  0.5988  0.3409 -1.7860
 8714SOL    HW237779   0.777   0.680  15.054 -2.0930 -0.9361 -1.0909
 8715SOL     OW37780   2.234   4.297   5.845 -0.4112  0.1934 -0.3661
 8715SOL    HW137781   2.292   4.263   5.777  2.9674  1.3248  1.9867
 8715SOL    HW237782   2.262   4.236   5.913 -3.1748  0.3870  0.9445
 8716SOL     OW37783   2.113   0.825   6.731  0.5827 -0.2998  0.0549
 8716SOL    HW137784   2.159   0.904   6.758  1.7463 -0.3786 -1.7425
 8716SOL    HW237785   2.097   0.782   6.815  0.8367  0.2145  0.3629
 8717SOL     OW37786   4.655   0.136  10.700  0.1278 -0.0009 -0.4749
 8717SOL    HW137787   4.607   0.082  10.637 -1.9877  0.9267  0.3123
 8717SOL    HW237788   4.704   0.197  10.645 -2.5745  1.7487 -0.9586
 8718SOL     OW37789   2.775   1.758   4.355 -0.3171  0.1314  0.1561
 8718SOL    HW137790   2.823   1.827   4.399  0.1138 -0.6322  0.8942
 8718SOL    HW237791   2.688   1.766   4.395  0.0609 -1.2593  1.2921
 8719SOL     OW37792   3.929   0.074   5.054  0.0225  0.0144  0.2302
 8719SOL    HW137793   3.987   0.031   4.991 -0.2713  0.5796 -0.4317
 8719SOL    HW237794   3.863   0.008   5.075 -0.4073  0.8651  1.5604
 8720SOL     OW37795   1.091   3.620   6.752  0.0538  0.0627  0.1817
 8720SOL    HW137796   1.128   3.707   6.757  2.1433 -0.7060 -1.6532
 8720SOL    HW237797   1.065   3.612   6.844  0.2781 -1.0058  0.1565
 8721SOL     OW37798   1.660   3.316   9.788  0.2171  0.2427  0.1787
 8721SOL    HW137799   1.753   3.338   9.775  0.7586 -1.6363  0.9169
 8721SOL    HW237800   1.643   3.307   9.695 -0.8308  1.7883  0.2088
 8722SOL     OW37801   2.638   3.274   6.319 -0.5127 -0.0306 -0.3832
 8722SOL    HW137802   2.674   3.300   6.234  2.6783 -3.0951 -0.0013
 8722SOL    HW237803   2.666   3.346   6.375 -0.9632  1.2862 -1.8380
 8723SOL     OW37804   2.453   1.288  17.160  0.4497 -0.1170  0.0945
 8723SOL    HW137805   2.375   1.332  17.126 -0.7700 -2.5883 -0.3092
 8723SOL    HW237806   2.511   1.362  17.142  1.0422 -1.1659 -2.2936
 8724SOL     OW37807   2.645   1.236   3.018  0.1687  0.0729 -0.3656
 8724SOL    HW137808   2.607   1.149   3.006 -2.5335  1.0925  0.7754
 8724SOL    HW237809   2.700   1.229   3.096  2.7292 -2.9913 -2.4410
 8725SOL     OW37810   2.678   0.472   6.860  0.4256 -0.9080  0.1556
 8725SOL    HW137811   2.605   0.494   6.803  1.0058  0.0965 -0.1829
 8725SOL    HW237812   2.642   0.404   6.916  0.8249 -1.0884  0.1994
 8726SOL     OW37813   4.232   3.079   1.477  0.2063 -0.3153 -0.4707
 8726SOL    HW137814   4.275   3.160   1.449 -0.1909 -0.7153 -2.2313
 8726SOL    HW237815   4.138   3.094   1.466 -0.2705 -1.9296  1.2621
 8727SOL     OW37816   3.478   0.299   6.710  0.4105  0.0171  0.1932
 8727SOL    HW137817   3.413   0.293   6.640 -1.8429  1.7986  2.0957
 8727SOL    HW237818   3.448   0.377   6.757  1.1578 -0.9880  2.3648
 8728SOL     OW37819   3.455   2.930   2.007 -0.1152 -0.0034 -0.0492
 8728SOL    HW137820   3.523   2.877   2.049  0.9424  0.2139 -1.4920
 8728SOL    HW237821   3.377   2.877   2.024  0.1851 -0.1580  0.8216
 8729SOL     OW37822   3.599   1.446   0.789  0.3088 -0.2253 -0.6272
 8729SOL    HW137823   3.636   1.454   0.702 -0.4381  0.3309 -0.8912
 8729SOL    HW237824   3.528   1.382   0.782 -0.3900  0.4294  0.4293
 8730SOL     OW37825   0.903   2.541   4.865 -0.9327  0.0315  0.2560
 8730SOL    HW137826   0.865   2.505   4.785  1.2565  1.8368 -1.5823
 8730SOL    HW237827   0.822   2.538   4.916 -1.3281  3.0081 -0.2168
 8731SOL     OW37828   2.678   1.151   4.761 -0.8332  0.3168 -0.2074
 8731SOL    HW137829   2.720   1.085   4.705  0.9497  1.6429 -0.4089
 8731SOL    HW237830   2.715   1.227   4.716 -1.5423  0.4866 -0.5110
 8732SOL     OW37831   0.377   3.658   4.800  0.2324 -0.5023 -0.2143
 8732SOL    HW137832   0.458   3.708   4.812 -0.1567  0.0668  0.0349
 8732SOL    HW237833   0.314   3.718   4.840  1.6619 -0.6348  2.2634
 8733SOL     OW37834   4.512   0.853   1.851  0.1724  0.6118  0.2176
 8733SOL    HW137835   4.496   0.774   1.798  1.4043  0.8558 -0.5163
 8733SOL    HW237836   4.492   0.923   1.789 -0.9709  1.2957  1.3522
 8734SOL     OW37837   2.191   0.218   5.716  0.4490 -0.0704 -0.3484
 8734SOL    HW137838   2.234   0.301   5.695 -1.8785  1.4160  0.7526
 8734SOL    HW237839   2.104   0.218   5.676 -0.4433  0.5637  1.5749
 8735SOL     OW37840   1.866   2.813   4.120  0.1253  0.2490  0.2786
 8735SOL    HW137841   1.890   2.744   4.057 -0.3070 -0.2191  0.6304
 8735SOL    HW237842   1.806   2.761   4.174 -0.7324 -0.5767 -1.4617
 8736SOL     OW37843   0.688   3.253   1.741  0.2320  0.2467 -0.3477
 8736SOL    HW137844   0.713   3.258   1.649 -0.1840 -0.6689 -0.5119
 8736SOL    HW237845   0.705   3.161   1.760 -0.0923  0.5982  1.6575
 8737SOL     OW37846   2.324   0.404   3.463  0.7891 -0.0415 -0.6318
 8737SOL    HW137847   2.288   0.485   3.499  2.1606 -1.3431  3.6875
 8737SOL    HW237848   2.320   0.428   3.370 -2.5630  0.1083 -0.4299
 8738SOL     OW37849   3.727   1.072   7.577 -0.2574 -0.0765 -0.7169
 8738SOL    HW137850   3.695   1.120   7.501  0.4524 -0.1607 -1.0708
 8738SOL    HW237851   3.775   1.147   7.611 -0.9742  0.4986 -0.9752
 8739SOL     OW37852   0.050   4.599  15.252 -0.4371 -0.1802  0.4461
 8739SOL    HW137853   0.146   4.596  15.248 -0.4316 -0.4347  0.7512
 8739SOL    HW237854   0.030   4.626  15.163  0.3116  0.8893  0.6003
 8740SOL     OW37855   1.645   3.757  16.668  0.3445 -0.1992  0.0987
 8740SOL    HW137856   1.706   3.821  16.705 -1.2231  1.1800  0.2872
 8740SOL    HW237857   1.689   3.673  16.681 -0.3779 -0.5888  0.0334
 8741SOL     OW37858   3.832   0.009   1.805  0.5591  0.8097 -0.2045
 8741SOL    HW137859   3.750   0.017   1.755 -0.8097  1.2270  2.0917
 8741SOL    HW237860   3.796   4.681   1.869  0.5850 -0.7749 -1.7179
 8742SOL     OW37861   4.383   2.464   3.161  0.0643  0.5690 -0.2135
 8742SOL    HW137862   4.295   2.437   3.133  0.5257 -0.6562 -0.4926
 8742SOL    HW237863   4.386   2.559   3.151  0.9605  0.3639 -1.9972
 8743SOL     OW37864   0.762   2.669  12.120  0.0047 -0.1895  0.3439
 8743SOL    HW137865   0.794   2.758  12.116 -0.7476 -0.0347 -2.3226
 8743SOL    HW237866   0.670   2.687  12.141  0.0279  0.3787 -0.0753
 8744SOL     OW37867   3.912   2.195   5.679  0.1468 -0.0395 -0.6414
 8744SOL    HW137868   3.845   2.181   5.746 -1.9661  2.7677 -2.1688
 8744SOL    HW237869   3.921   2.291   5.685  0.0205 -0.0511 -0.3051
 8745SOL     OW37870   1.435   1.177  17.023 -0.6354 -0.2888 -0.2609
 8745SOL    HW137871   1.378   1.112  17.066  1.8465 -1.7022  0.8652
 8745SOL    HW237872   1.417   1.159  16.931 -1.8977  1.9010 -0.4496
 8746SOL     OW37873   2.348   4.207   1.695 -0.0163  0.0312  0.0434
 8746SOL    HW137874   2.332   4.254   1.613  2.7735  1.3859  0.2508
 8746SOL    HW237875   2.264   4.162   1.701 -0.0624  0.2772  1.2442
 8747SOL     OW37876   2.880   2.113  11.413  0.2815  0.1708 -0.7878
 8747SOL    HW137877   2.812   2.147  11.471  0.4882  1.8300 -1.5241
 8747SOL    HW237878   2.873   2.161  11.330  4.8446  0.7740 -0.7980
 8748SOL     OW37879   0.139   3.631   0.245  0.2159  0.1057 -0.2053
 8748SOL    HW137880   0.112   3.561   0.185 -0.3762 -0.6899  0.9823
 8748SOL    HW237881   0.176   3.697   0.187  1.2550  0.2533  0.6378
 8749SOL     OW37882   3.162   2.406   3.012  0.3732 -0.4754  0.0587
 8749SOL    HW137883   3.168   2.319   2.971  1.4208 -0.2122 -0.3384
 8749SOL    HW237884   3.165   2.376   3.102  0.7922  0.0003  0.2008
 8750SOL     OW37885   1.390   2.697   3.613  0.3257 -0.0608 -0.0885
 8750SOL    HW137886   1.459   2.630   3.611  0.3531  0.0619 -3.0759
 8750SOL    HW237887   1.318   2.640   3.585  0.3076  0.1629 -0.5012
 8751SOL     OW37888   0.360   4.647   4.017  0.5370 -0.2990 -0.6257
 8751SOL    HW137889   0.411   4.695   3.951  1.0958 -1.9035 -1.3447
 8751SOL    HW237890   0.431   4.602   4.063 -0.0589 -1.3156 -0.7031
 8752SOL     OW37891   0.492   2.441  15.896 -0.4137  0.4513  0.2487
 8752SOL    HW137892   0.540   2.508  15.847 -1.7713  1.0068 -0.3039
 8752SOL    HW237893   0.479   2.378  15.825  1.0466  1.7415 -1.1720
 8753SOL     OW37894   4.194   3.902   3.171 -0.0756 -0.0704  0.0287
 8753SOL    HW137895   4.225   3.811   3.174 -3.8365 -1.4750 -2.8574
 8753SOL    HW237896   4.100   3.893   3.187 -0.6547  1.7886 -2.3565
 8754SOL     OW37897   4.209   2.995   9.240 -0.4570  0.1892  0.3121
 8754SOL    HW137898   4.194   3.035   9.154  0.7507 -1.4590 -0.6510
 8754SOL    HW237899   4.170   3.059   9.300 -2.0530 -2.3435  1.9811
 8755SOL     OW37900   1.008   0.157   0.812 -0.3329  0.3570 -0.1882
 8755SOL    HW137901   0.984   0.178   0.902 -1.0641 -1.4272  0.0347
 8755SOL    HW237902   0.926   0.114   0.788 -0.8554 -0.0667  2.3459
 8756SOL     OW37903   1.357   4.217   7.302 -0.1782  0.4415  0.2571
 8756SOL    HW137904   1.271   4.253   7.280 -0.8136 -1.1760  0.0468
 8756SOL    HW237905   1.337   4.127   7.276  1.3770  0.1004  0.2668
 8757SOL     OW37906   0.258   3.853   6.331 -0.3094 -0.1061 -0.0701
 8757SOL    HW137907   0.264   3.768   6.286  3.5353  0.2579 -0.2309
 8757SOL    HW237908   0.239   3.916   6.262 -0.0075  1.0545  0.9067
 8758SOL     OW37909   3.765   0.720   4.839 -0.5920 -0.0034  0.0876
 8758SOL    HW137910   3.839   0.697   4.896 -0.2635  1.6117  0.3130
 8758SOL    HW237911   3.801   0.703   4.751 -0.3427  0.9035  0.0217
 8759SOL     OW37912   2.111   2.549  11.811  0.0733 -0.7178  0.1345
 8759SOL    HW137913   2.048   2.509  11.872 -1.5372  2.9336  0.9082
 8759SOL    HW237914   2.110   2.642  11.835 -2.1104 -0.1250 -2.2339
 8760SOL     OW37915   2.300   2.705  15.529  0.1073  0.7332  0.2743
 8760SOL    HW137916   2.368   2.721  15.595  0.7413 -0.4918 -0.0898
 8760SOL    HW237917   2.296   2.610  15.519 -0.1248  0.8116 -0.3728
 8761SOL     OW37918   0.831   3.227   5.078 -0.0440  0.2879  0.2538
 8761SOL    HW137919   0.896   3.288   5.043 -1.0395  0.9899 -0.3688
 8761SOL    HW237920   0.754   3.248   5.027 -0.4361 -0.7714  0.4111
 8762SOL     OW37921   3.618   0.298   9.672  0.7323 -0.2509 -0.3509
 8762SOL    HW137922   3.653   0.387   9.673 -0.2144  0.1024  0.6687
 8762SOL    HW237923   3.691   0.254   9.716  0.1759  0.5366  1.3300
 8763SOL     OW37924   3.647   2.236   3.565  0.3303  0.4025 -0.2152
 8763SOL    HW137925   3.558   2.227   3.532  0.8483 -0.0789 -1.4859
 8763SOL    HW237926   3.643   2.319   3.612 -1.6401  0.1035  0.1375
 8764SOL     OW37927   3.995   3.965   8.087 -0.0855  0.3936 -0.0099
 8764SOL    HW137928   3.998   3.950   7.993  1.3900  0.4099  0.0323
 8764SOL    HW237929   3.952   3.883   8.114 -0.0276 -0.0715 -1.3091
 8765SOL     OW37930   0.722   2.236   9.698  0.5759  0.1304 -0.3192
 8765SOL    HW137931   0.647   2.192   9.737  1.0995 -0.5750 -0.0943
 8765SOL    HW237932   0.698   2.328   9.702 -0.9698 -0.4232  3.0086
 8766SOL     OW37933   4.082   1.207  16.906  0.8190 -0.0078 -0.6544
 8766SOL    HW137934   4.052   1.242  16.822 -1.0290 -1.1921 -0.4963
 8766SOL    HW237935   4.155   1.152  16.880  1.8429  0.6535  0.8683
 8767SOL     OW37936   1.930   4.365  11.115 -0.2199  0.3641  0.2356
 8767SOL    HW137937   2.002   4.349  11.054  0.0489  1.7858  0.1879
 8767SOL    HW237938   1.986   4.402  11.184 -0.0367  0.8169 -0.1545
 8768SOL     OW37939   4.406   0.849   0.398 -0.1439  0.1907  0.2303
 8768SOL    HW137940   4.332   0.867   0.456  0.2865 -1.1913  1.2041
 8768SOL    HW237941   4.461   0.922   0.427 -0.6191 -0.0647  1.7633
 8769SOL     OW37942   4.140   1.241   0.630  0.0189  0.2911  0.3314
 8769SOL    HW137943   4.178   1.275   0.549  0.2394 -0.3052  0.1790
 8769SOL    HW237944   4.068   1.302   0.643  0.8707  1.0910  1.2690
 8770SOL     OW37945   3.408   3.665   2.355  0.1601  0.1437  0.1843
 8770SOL    HW137946   3.443   3.741   2.400  1.9858  0.3875 -1.6878
 8770SOL    HW237947   3.334   3.703   2.307 -0.3267  0.7987  1.4479
 8771SOL     OW37948   1.809   1.847   5.663 -0.2443  0.3757  0.3453
 8771SOL    HW137949   1.853   1.916   5.713  3.9581 -1.8548 -0.3241
 8771SOL    HW237950   1.805   1.887   5.576  1.8697  0.0386  0.0969
 8772SOL     OW37951   3.728   0.431   0.589  0.4585  0.0932  0.3634
 8772SOL    HW137952   3.673   0.456   0.663 -1.6863  0.2354 -1.2996
 8772SOL    HW237953   3.679   0.361   0.546 -2.5955  3.0561 -0.9151
 8773SOL     OW37954   1.206   1.416   5.764 -0.5670  0.7476 -0.8494
 8773SOL    HW137955   1.116   1.420   5.795 -1.1303  0.3348 -2.4208
 8773SOL    HW237956   1.241   1.345   5.818 -0.2103  0.2415 -1.7445
 8774SOL     OW37957   0.289   2.350  15.532 -0.0190 -0.4459  0.3966
 8774SOL    HW137958   0.327   2.302  15.606 -1.0061  2.4571  2.7812
 8774SOL    HW237959   0.196   2.352  15.557 -0.4404 -1.9245 -1.0196
 8775SOL     OW37960   1.217   4.155   3.684 -0.4784 -0.3091  0.1872
 8775SOL    HW137961   1.245   4.154   3.593  2.8847  0.4709  1.2363
 8775SOL    HW237962   1.276   4.228   3.701 -0.3014 -0.4391  0.1313
 8776SOL     OW37963   0.151   4.279   2.726 -0.0642  0.0930 -0.3741
 8776SOL    HW137964   0.098   4.302   2.649 -2.0009  0.5658  1.0983
 8776SOL    HW237965   0.233   4.249   2.687 -0.3579 -1.5032  0.2235
 8777SOL     OW37966   2.202   3.163   8.039  0.4519  0.3948  0.1714
 8777SOL    HW137967   2.165   3.244   8.073 -1.9047 -1.1735  1.3118
 8777SOL    HW237968   2.183   3.097   8.106  0.7191  0.5671  0.4164
 8778SOL     OW37969   2.187   3.002   4.922 -0.0972 -0.1035 -0.1113
 8778SOL    HW137970   2.092   2.992   4.920 -0.1485  0.2649  0.4384
 8778SOL    HW237971   2.197   3.027   4.830  1.2661 -1.3464 -0.2918
 8779SOL     OW37972   1.681   1.179   8.321 -0.3649  0.6609  0.0120
 8779SOL    HW137973   1.601   1.186   8.372 -1.3913  2.2770 -1.7813
 8779SOL    HW237974   1.645   1.219   8.241 -1.4774  2.5937  1.4840
 8780SOL     OW37975   4.174   0.650   7.774  0.0973  0.0121  0.2779
 8780SOL    HW137976   4.086   0.635   7.738  0.1763 -0.8432  0.4310
 8780SOL    HW237977   4.223   0.611   7.701  1.7289  1.3414  0.6741
 8781SOL     OW37978   3.767   2.531   4.352  0.0122 -0.0089 -0.7067
 8781SOL    HW137979   3.751   2.621   4.379 -2.5030 -0.2998 -1.2314
 8781SOL    HW237980   3.685   2.508   4.307  0.0794  3.7996 -2.7919
 8782SOL     OW37981   1.110   1.919   2.125  0.8373 -0.0241 -0.2701
 8782SOL    HW137982   1.019   1.896   2.143  0.8719  0.9989  1.1996
 8782SOL    HW237983   1.106   1.998   2.071 -0.0318 -2.1681 -3.3697
 8783SOL     OW37984   4.248   4.676   2.165  0.4782  0.4510 -0.1043
 8783SOL    HW137985   4.235   0.031   2.197  1.0625 -0.6689  3.2804
 8783SOL    HW237986   4.277   4.686   2.074 -3.3061  1.9121 -1.1352
 8784SOL     OW37987   1.893   0.746  15.520 -0.0632  0.4809 -0.7767
 8784SOL    HW137988   1.966   0.703  15.563 -0.0574  0.0184 -1.2515
 8784SOL    HW237989   1.840   0.671  15.493 -0.0160  0.8502 -1.8973
 8785SOL     OW37990   0.132   2.048   0.610  0.0551  0.1873  0.5994
 8785SOL    HW137991   0.170   2.126   0.569 -0.3594 -1.1877 -2.4132
 8785SOL    HW237992   0.127   2.073   0.702 -0.2882  0.3681  0.5330
 8786SOL     OW37993   1.373   2.487   7.081 -0.2407  0.1562  0.3966
 8786SOL    HW137994   1.394   2.524   7.167  1.1380  3.1129 -1.2598
 8786SOL    HW237995   1.316   2.413   7.106 -2.0830  1.2623 -0.5502
 8787SOL     OW37996   4.043   0.643   1.519  0.0328 -0.2890 -0.0970
 8787SOL    HW137997   3.967   0.699   1.504  0.7377  0.4759 -0.7617
 8787SOL    HW237998   4.008   0.558   1.547 -0.2183 -0.6487 -1.5277
 8788SOL     OW37999   2.226   4.090  11.560  0.2132  0.1424  0.1594
 8788SOL    HW138000   2.263   4.105  11.473 -1.7974  0.5901 -0.6280
 8788SOL    HW238001   2.138   4.119  11.534 -0.9165 -2.0630  1.4743
 8789SOL     OW38002   4.320   4.496   8.190 -0.3185 -0.4938  0.4918
 8789SOL    HW138003   4.251   4.507   8.256 -1.0277  0.3314 -0.3835
 8789SOL    HW238004   4.370   4.420   8.219 -1.3670 -1.3302  0.1445
 8790SOL     OW38005   3.725   1.727   2.664 -0.1138  0.0027  0.6125
 8790SOL    HW138006   3.648   1.782   2.675 -0.7053 -0.6270 -0.3753
 8790SOL    HW238007   3.781   1.788   2.615  0.8071  0.4639  2.2162
 8791SOL     OW38008   2.510   1.125  16.956  0.0560 -0.1529  0.4487
 8791SOL    HW138009   2.598   1.090  16.962  0.0799 -0.2518 -0.5356
 8791SOL    HW238010   2.509   1.192  17.024  1.8498  1.1924 -0.8763
 8792SOL     OW38011   1.344   3.831   7.716 -0.2598 -0.5460 -0.1873
 8792SOL    HW138012   1.429   3.837   7.760 -0.4218 -0.0181  0.0502
 8792SOL    HW238013   1.311   3.920   7.705  0.0737 -0.3024  0.7814
 8793SOL     OW38014   1.229   0.848   5.714 -0.5456  0.4239 -0.8728
 8793SOL    HW138015   1.145   0.883   5.745 -0.6808  0.8086 -1.6633
 8793SOL    HW238016   1.285   0.883   5.783  0.4358 -0.3708 -1.2817
 8794SOL     OW38017   3.714   0.587   4.390  0.0397  0.8356 -0.4377
 8794SOL    HW138018   3.687   0.655   4.328 -2.2684  1.0500  0.7869
 8794SOL    HW238019   3.736   0.515   4.332  1.8454  0.9005  0.1576
 8795SOL     OW38020   2.915   0.220  17.627 -0.9022  0.5048  0.0909
 8795SOL    HW138021   2.975   0.294  17.615 -0.6165  0.2139 -0.2558
 8795SOL    HW238022   2.845   0.267  17.671 -1.2788 -0.9211  1.0038
 8796SOL     OW38023   1.314   4.716  13.708  0.0834  0.5207  0.1580
 8796SOL    HW138024   1.384   0.047  13.701  0.3876 -0.0044 -1.8110
 8796SOL    HW238025   1.365   4.646  13.748 -0.5790 -0.7397 -1.1741
 8797SOL     OW38026   3.378   2.866   4.051 -0.3073 -0.0277 -0.0507
 8797SOL    HW138027   3.435   2.828   4.118 -0.7732 -0.5547  0.0467
 8797SOL    HW238028   3.424   2.946   4.028 -2.4109  0.6360 -2.0073
 8798SOL     OW38029   3.332   4.588   1.080  0.3995 -0.4846 -0.7003
 8798SOL    HW138030   3.311   4.652   1.013  0.6832  0.9383  0.5681
 8798SOL    HW238031   3.261   4.530   1.054 -0.8708  0.1724  1.3082
 8799SOL     OW38032   4.182   1.993   1.830 -0.2842  0.2089 -0.8180
 8799SOL    HW138033   4.218   1.905   1.834 -1.5284 -0.1931  1.5156
 8799SOL    HW238034   4.104   1.978   1.884  0.4001 -0.1914  0.0662
 8800SOL     OW38035   3.188   3.907   6.629 -0.3573  0.5306  0.1715
 8800SOL    HW138036   3.207   3.906   6.722 -0.1947  1.5359  0.1429
 8800SOL    HW238037   3.229   3.823   6.607  3.4663  2.4943 -0.2107
 8801SOL     OW38038   3.424   2.518   2.210  0.2470 -0.2370 -0.6932
 8801SOL    HW138039   3.499   2.513   2.151 -0.4167  2.6389 -1.7936
 8801SOL    HW238040   3.353   2.558   2.160 -0.6076 -2.8351 -1.5351
 8802SOL     OW38041   4.041   3.790   1.873  0.1273 -0.9084 -0.5036
 8802SOL    HW138042   4.066   3.786   1.965 -0.4348 -0.7095 -0.3396
 8802SOL    HW238043   3.953   3.756   1.890 -0.8653  1.7840 -0.3322
 8803SOL     OW38044   2.910   0.491   6.580 -0.5650  0.1231 -0.7412
 8803SOL    HW138045   2.949   0.538   6.507  0.5211  0.3801  0.0014
 8803SOL    HW238046   2.856   0.562   6.613 -0.2746  0.0753 -0.1607
 8804SOL     OW38047   3.580   3.051   8.070  0.8480  0.0946 -0.3273
 8804SOL    HW138048   3.671   3.054   8.043  0.4024  2.1182 -1.5753
 8804SOL    HW238049   3.571   3.144   8.088  1.9976 -0.4349  2.9863
 8805SOL     OW38050   2.485   0.266   2.317  0.6179  0.2883 -0.7882
 8805SOL    HW138051   2.390   0.268   2.307  0.5040  0.7805  0.4441
 8805SOL    HW238052   2.518   0.270   2.227 -2.2614  0.6628 -1.8273
 8806SOL     OW38053   2.384   1.526   7.936 -0.2487 -0.8496 -0.5285
 8806SOL    HW138054   2.335   1.536   8.017  3.6557 -0.5513  1.7784
 8806SOL    HW238055   2.326   1.462   7.893  0.0804 -1.3842 -0.1691
 8807SOL     OW38056   0.521   1.606  12.255  0.3351  0.0531  0.3453
 8807SOL    HW138057   0.544   1.600  12.162  0.2488 -1.8781  0.4449
 8807SOL    HW238058   0.428   1.583  12.248  0.0068  1.1596  1.1210
 8808SOL     OW38059   2.242   1.693   9.067  0.1690 -0.1711  0.1979
 8808SOL    HW138060   2.153   1.709   9.036  0.0761  0.4030  0.7699
 8808SOL    HW238061   2.253   1.761   9.134 -1.2099  1.7442 -1.5143
 8809SOL     OW38062   4.198   1.797   2.895  0.1742  0.7178 -0.4219
 8809SOL    HW138063   4.132   1.866   2.908  1.6209  1.5595  2.4899
 8809SOL    HW238064   4.184   1.748   2.976  1.4685 -1.6672 -1.6614
 8810SOL     OW38065   1.394   4.708   3.032  0.2978 -0.1059  0.3062
 8810SOL    HW138066   1.299   4.704   3.044  0.7218 -2.9446  2.6248
 8810SOL    HW238067   1.403   4.684   2.940  0.3428 -2.0358  0.8168
 8811SOL     OW38068   2.193   0.979   3.228 -0.4509 -0.0148  0.2248
 8811SOL    HW138069   2.173   1.007   3.139  1.8247  0.5451 -0.0987
 8811SOL    HW238070   2.159   0.890   3.223 -1.0165  0.2767 -1.3558
 8812SOL     OW38071   0.360   0.767   0.686 -0.0330  0.3208 -0.0382
 8812SOL    HW138072   0.360   0.719   0.602  0.0775  0.5278 -0.1548
 8812SOL    HW238073   0.447   0.806   0.690  1.1334 -2.2599  0.1713
 8813SOL     OW38074   4.008   3.511  15.315  0.0510 -0.4201 -0.1510
 8813SOL    HW138075   4.017   3.441  15.251 -1.0075 -1.1736  0.5387
 8813SOL    HW238076   4.049   3.475  15.393  0.1730  2.8495  1.2838
 8814SOL     OW38077   3.436   2.233   2.938 -0.1047  0.1460 -0.1715
 8814SOL    HW138078   3.451   2.325   2.918 -2.2941  0.4186 -0.5928
 8814SOL    HW238079   3.455   2.216   3.031 -0.2141 -0.9153 -0.3501
 8815SOL     OW38080   3.123   2.357   5.030 -0.1153  0.2696  0.3275
 8815SOL    HW138081   3.148   2.336   5.120  1.2482  0.5257  0.0010
 8815SOL    HW238082   3.150   2.448   5.025 -4.2870  1.6315  2.1272
 8816SOL     OW38083   1.269   3.329   6.779  0.5138  0.4013 -0.0474
 8816SOL    HW138084   1.250   3.238   6.798  1.5834 -0.0524 -1.1047
 8816SOL    HW238085   1.236   3.363   6.862  0.2826  0.3266 -0.1113
 8817SOL     OW38086   3.143   4.217   0.089 -0.0510 -0.1587 -0.9899
 8817SOL    HW138087   3.160   4.127   0.063  1.1876  0.0385 -0.8759
 8817SOL    HW238088   3.074   4.239   0.027  0.0061  0.7572 -0.7375
 8818SOL     OW38089   3.032   4.541   5.176 -0.4856 -0.3211 -0.1949
 8818SOL    HW138090   3.052   4.508   5.264 -2.6003 -3.9000 -1.0259
 8818SOL    HW238091   2.992   4.624   5.201 -4.6694 -2.2176 -0.7036
 8819SOL     OW38092   2.191   1.708   4.996 -0.0963 -0.2829  0.4690
 8819SOL    HW138093   2.108   1.683   4.956  1.0960 -0.3414 -1.9118
 8819SOL    HW238094   2.185   1.677   5.087 -0.8776 -1.3788  0.0417
 8820SOL     OW38095   3.766   2.457   9.179 -0.0675 -0.5485 -0.5805
 8820SOL    HW138096   3.779   2.510   9.257 -0.6497 -0.9982 -0.1747
 8820SOL    HW238097   3.854   2.453   9.141  0.4072 -0.7998  0.5617
 8821SOL     OW38098   1.688   2.458   4.918  0.8432  0.1129 -0.1921
 8821SOL    HW138099   1.716   2.445   5.009 -2.4825  1.7065  1.0319
 8821SOL    HW238100   1.770   2.488   4.879 -0.1943  1.6859 -1.1168
 8822SOL     OW38101   4.661   3.325   7.743  0.3724 -0.2128  0.3786
 8822SOL    HW138102   4.703   3.377   7.811 -1.2573 -0.2823  1.4309
 8822SOL    HW238103   4.711   3.345   7.664 -0.6042  1.7035  0.2595
 8823SOL     OW38104   4.335   2.102  15.941 -0.6633 -0.2941  0.6301
 8823SOL    HW138105   4.305   2.192  15.935 -1.8683 -0.6321  1.5294
 8823SOL    HW238106   4.348   2.099  16.035 -0.6919 -2.7628  0.5598
 8824SOL     OW38107   2.270   3.480   9.615  0.6905  0.0027  0.4536
 8824SOL    HW138108   2.346   3.463   9.671  0.9865 -1.1109 -0.2921
 8824SOL    HW238109   2.268   3.401   9.561  2.3008 -1.3989  2.4611
 8825SOL     OW38110   1.838   3.951   3.989  0.3991 -0.2489  0.1168
 8825SOL    HW138111   1.893   4.007   3.935  0.1412  0.0139  0.1261
 8825SOL    HW238112   1.902   3.916   4.051 -0.0271  0.1589  0.7861
 8826SOL     OW38113   2.934   0.857   4.284  0.0586  0.0266 -0.7524
 8826SOL    HW138114   2.894   0.776   4.315 -0.2475 -0.2900 -1.9799
 8826SOL    HW238115   3.028   0.847   4.295  0.1328 -0.1111 -1.5349
 8827SOL     OW38116   2.560   1.628   8.417 -0.0847  0.3475  0.8036
 8827SOL    HW138117   2.517   1.709   8.447  1.4714  0.6571  2.1962
 8827SOL    HW238118   2.641   1.663   8.380 -0.1846 -1.2962 -0.9541
 8828SOL     OW38119   1.626   2.798   5.221 -0.0422 -0.0571  0.6676
 8828SOL    HW138120   1.541   2.758   5.205  1.4293 -2.9766  0.1595
 8828SOL    HW238121   1.678   2.779   5.143  0.5494  0.6888  0.8795
 8829SOL     OW38122   3.316   0.522   4.749  0.4080  0.6252  0.0978
 8829SOL    HW138123   3.328   0.598   4.692 -0.8027  1.8663  1.4821
 8829SOL    HW238124   3.386   0.531   4.815  0.7234 -1.2828  0.0260
 8830SOL     OW38125   4.138   2.729   3.144 -0.2420 -0.0916  0.3610
 8830SOL    HW138126   4.084   2.653   3.163 -0.3757 -0.6441 -2.2435
 8830SOL    HW238127   4.088   2.776   3.077  1.9358  1.1521 -0.3878
 8831SOL     OW38128   0.682   1.517   2.809  0.3505  0.1022 -0.4397
 8831SOL    HW138129   0.703   1.423   2.804  0.7102  0.1319  0.4809
 8831SOL    HW238130   0.770   1.548   2.792  1.5794 -2.0779  1.8057
 8832SOL     OW38131   1.927   0.313  16.400 -0.3379  0.6693 -0.3915
 8832SOL    HW138132   1.967   0.307  16.314  1.4399  0.4258  0.4430
 8832SOL    HW238133   1.839   0.341  16.376 -0.7930 -0.9691 -0.5989
 8833SOL     OW38134   4.674   3.822   4.005  0.3560  0.1403 -0.5298
 8833SOL    HW138135   4.713   3.788   3.925  0.0001  0.5127 -0.8615
 8833SOL    HW238136   4.702   3.756   4.068  1.0770  1.2380  0.3082
 8834SOL     OW38137   3.824   4.283   4.349  0.3553 -0.4254 -0.3321
 8834SOL    HW138138   3.860   4.371   4.363  1.7869 -0.8282 -1.4964
 8834SOL    HW238139   3.825   4.238   4.433  0.1766 -2.7522 -1.5610
 8835SOL     OW38140   0.741   0.962   6.134  0.0969 -0.6528  0.6435
 8835SOL    HW138141   0.823   0.915   6.149  0.6728 -0.0753 -0.6993
 8835SOL    HW238142   0.688   0.905   6.191  1.9968 -2.5539  0.4843
 8836SOL     OW38143   3.544   1.086  16.830 -0.0899  0.6450  0.4462
 8836SOL    HW138144   3.603   1.121  16.763 -0.4522  0.7091  0.1597
 8836SOL    HW238145   3.602   1.103  16.904 -0.8615  0.5125  1.0815
 8837SOL     OW38146   4.663   0.221  12.353  0.2170 -0.7749 -0.8720
 8837SOL    HW138147   4.696   0.162  12.285 -2.0124 -0.6522 -2.0883
 8837SOL    HW238148   4.706   0.182  12.429 -1.1755  0.0497  0.3434
 8838SOL     OW38149   2.122   4.404   8.864 -1.0132  0.0714  0.1103
 8838SOL    HW138150   2.178   4.423   8.940 -0.7579 -0.4332  0.0504
 8838SOL    HW238151   2.037   4.381   8.903 -1.3910 -1.8129 -1.8055
 8839SOL     OW38152   2.793   2.437   7.213  0.0299  0.5626  0.0556
 8839SOL    HW138153   2.718   2.398   7.169  0.1835 -1.5158  1.6733
 8839SOL    HW238154   2.750   2.468   7.292 -1.5671  1.8600 -1.3088
 8840SOL     OW38155   1.216   4.345   8.365 -0.3015 -0.4845 -0.4559
 8840SOL    HW138156   1.274   4.417   8.389 -1.3646  0.5959 -1.1153
 8840SOL    HW238157   1.158   4.384   8.300 -1.5008  0.1576  0.9880
 8841SOL     OW38158   0.648   1.027   7.663 -0.1251 -0.0140  0.0219
 8841SOL    HW138159   0.650   1.054   7.755 -1.3807 -0.7097  0.2507
 8841SOL    HW238160   0.559   1.047   7.636 -0.3418 -0.0494  0.7157
 8842SOL     OW38161   4.193   3.304   9.214  0.4892 -0.2067  0.2405
 8842SOL    HW138162   4.278   3.294   9.173  1.2043 -1.0357  1.9516
 8842SOL    HW238163   4.169   3.386   9.171 -4.1078 -0.6360  1.9416
 8843SOL     OW38164   1.444   0.471   4.439  0.1587  0.0337  0.0871
 8843SOL    HW138165   1.428   0.377   4.432  1.5668 -0.2667  0.9090
 8843SOL    HW238166   1.362   0.502   4.399 -0.0494  0.1103  0.5711
 8844SOL     OW38167   2.650   3.201   5.610  0.3260  0.1106  0.4827
 8844SOL    HW138168   2.598   3.198   5.691  0.4949 -0.1205  0.5809
 8844SOL    HW238169   2.725   3.253   5.639  1.0387 -1.4773  1.4505
 8845SOL     OW38170   0.888   2.546  12.334 -0.3317  0.0995 -0.4155
 8845SOL    HW138171   0.835   2.468  12.350 -0.6489  0.0811 -1.6120
 8845SOL    HW238172   0.851   2.583  12.254 -0.9762 -0.6105 -0.4433
 8846SOL     OW38173   0.662   2.223   7.634 -0.0134  0.4158 -0.6266
 8846SOL    HW138174   0.664   2.203   7.727  2.1881  1.1438 -0.5009
 8846SOL    HW238175   0.692   2.145   7.586  1.4290 -0.1992  1.2896
 8847SOL     OW38176   2.007   3.950  10.791 -0.1416 -0.2243  0.2690
 8847SOL    HW138177   1.951   3.985  10.860 -2.4639 -1.1805 -1.1079
 8847SOL    HW238178   1.965   3.864  10.781 -0.1913 -0.0897 -0.7523
 8848SOL     OW38179   2.588   3.017  10.828  0.3227  0.2030  0.6426
 8848SOL    HW138180   2.639   2.937  10.839  0.7321  0.4412  0.4538
 8848SOL    HW238181   2.519   2.998  10.892  0.0698  0.9029  0.5754
 8849SOL     OW38182   2.778   3.424  11.788 -0.0153  0.5598 -0.2369
 8849SOL    HW138183   2.719   3.369  11.736  0.2138 -0.5315  0.6569
 8849SOL    HW238184   2.865   3.424  11.748  0.3962  0.0965  0.6676
 8850SOL     OW38185   3.029   2.521   7.542  0.1194  0.1007  0.2091
 8850SOL    HW138186   3.059   2.592   7.485  1.0028 -0.4054  0.0417
 8850SOL    HW238187   2.953   2.568   7.576 -0.1122 -0.6690  0.7358
 8851SOL     OW38188   2.348   4.207  10.770  0.6379  0.0063 -0.1868
 8851SOL    HW138189   2.439   4.227  10.751  0.6247  0.9544  0.7185
 8851SOL    HW238190   2.365   4.115  10.786 -3.7143 -0.9648 -0.9900
 8852SOL     OW38191   3.864   2.046   7.132 -0.2837 -0.2921 -0.0072
 8852SOL    HW138192   3.866   2.014   7.042  2.4027 -2.7293  0.9371
 8852SOL    HW238193   3.883   1.964   7.177 -1.0982 -0.7617 -0.5162
 8853SOL     OW38194   0.487   2.091  17.081 -0.5333 -0.4957 -0.6883
 8853SOL    HW138195   0.533   2.037  17.017  2.1256  1.8578 -0.7733
 8853SOL    HW238196   0.550   2.163  17.068 -0.8838  0.0564  0.7064
 8854SOL     OW38197   2.088   1.410   6.382  0.2914 -0.0033  0.8401
 8854SOL    HW138198   1.995   1.389   6.377  0.2230  0.2317  1.0899
 8854SOL    HW238199   2.122   1.345   6.322  1.7541  0.7367  0.8620
 8855SOL     OW38200   0.844   0.459  15.249  0.3347 -0.0079  0.2483
 8855SOL    HW138201   0.886   0.479  15.165 -0.2641 -0.5736 -0.1812
 8855SOL    HW238202   0.796   0.540  15.267  1.5345  0.8605 -0.4162
 8856SOL     OW38203   2.581   1.615   4.023  0.0350  0.1640 -0.0015
 8856SOL    HW138204   2.599   1.549   3.957  0.0691  0.3589 -0.1879
 8856SOL    HW238205   2.674   1.630   4.042  0.0514 -0.4086  0.3615
 8857SOL     OW38206   0.267   1.062   1.120  0.3841  0.1809  0.0554
 8857SOL    HW138207   0.271   1.038   1.028  0.1528 -0.7045  0.2719
 8857SOL    HW238208   0.340   1.124   1.119 -0.3933  1.0662 -1.4420
 8858SOL     OW38209   2.847   1.918   3.850  0.2875 -0.4554  0.2408
 8858SOL    HW138210   2.797   1.995   3.825  3.7023  2.2385  1.7988
 8858SOL    HW238211   2.827   1.924   3.943 -2.1146  2.2229 -0.4630
 8859SOL     OW38212   0.184   0.541  11.768  0.2861 -0.5978 -0.4752
 8859SOL    HW138213   0.170   0.532  11.674  0.3523 -0.7223 -0.4731
 8859SOL    HW238214   0.277   0.521  11.774  0.4112 -0.3660 -1.6883
 8860SOL     OW38215   2.248   1.275   7.711  0.1081  0.3659  0.6019
 8860SOL    HW138216   2.216   1.337   7.776 -0.0623  1.1507 -0.2241
 8860SOL    HW238217   2.223   1.191   7.748 -1.1941 -0.4492 -2.1401
 8861SOL     OW38218   4.187   4.239  11.662  0.2641  0.5227 -0.3315
 8861SOL    HW138219   4.122   4.238  11.733  1.8954  1.1817  1.1577
 8861SOL    HW238220   4.127   4.244  11.588  0.7690 -2.3727 -0.9591
 8862SOL     OW38221   2.472   1.879  16.702 -0.0978 -0.0180 -0.3249
 8862SOL    HW138222   2.492   1.910  16.614 -0.1315  0.8501 -0.0307
 8862SOL    HW238223   2.376   1.876  16.696 -0.2588  0.8448  1.7466
 8863SOL     OW38224   4.293   2.871   7.264 -0.7383  0.8268 -0.5928
 8863SOL    HW138225   4.370   2.815   7.258  0.2998  2.4402 -2.6425
 8863SOL    HW238226   4.335   2.942   7.313 -1.0262 -0.5787  1.6676
 8864SOL     OW38227   2.643   0.319   5.996 -0.4427 -0.1579  0.7941
 8864SOL    HW138228   2.737   0.316   5.976 -0.8509 -0.1555 -1.1974
 8864SOL    HW238229   2.612   0.311   5.906 -1.1448  0.5268  0.9757
 8865SOL     OW38230   3.180   1.979  12.655  0.5578  0.2846 -0.6571
 8865SOL    HW138231   3.166   2.015  12.742 -1.1842  1.2121 -1.3239
 8865SOL    HW238232   3.133   2.038  12.597  1.4673  0.4508 -1.2282
 8866SOL     OW38233   0.282   3.267   7.690  0.5837 -0.4310 -0.2842
 8866SOL    HW138234   0.367   3.243   7.654  0.7243  2.5990 -1.9078
 8866SOL    HW238235   0.241   3.182   7.675  0.4163 -0.4564  0.3265
 8867SOL     OW38236   1.454   4.697   4.319 -0.3518 -0.2338 -0.1025
 8867SOL    HW138237   1.549   4.699   4.307 -0.4159  0.7698 -0.4323
 8867SOL    HW238238   1.429   4.643   4.244 -1.1392 -1.3868  0.9767
 8868SOL     OW38239   2.486   3.350  13.781 -0.4061 -0.0395  0.8264
 8868SOL    HW138240   2.465   3.265  13.742  1.0484 -0.6715  1.3804
 8868SOL    HW238241   2.400   3.389  13.796 -0.6140 -0.4193  0.6073
 8869SOL     OW38242   1.776   4.093  11.628  0.2051 -0.4079 -0.0439
 8869SOL    HW138243   1.792   4.013  11.678  0.3114 -0.5969 -0.3784
 8869SOL    HW238244   1.697   4.066  11.581 -1.6741  1.0516  2.3079
 8870SOL     OW38245   3.788   0.312   2.196 -0.1626 -0.4582  0.0502
 8870SOL    HW138246   3.776   0.316   2.101  2.8972 -0.1435 -0.3205
 8870SOL    HW238247   3.754   0.226   2.221 -1.2273 -0.6701 -2.1827
 8871SOL     OW38248   0.131   1.869  14.612 -0.3844  0.3196 -0.0373
 8871SOL    HW138249   0.187   1.944  14.592 -0.2103  0.6304  1.6074
 8871SOL    HW238250   0.158   1.811  14.541  1.3605  0.3682  0.5877
 8872SOL     OW38251   3.990   4.094  11.163 -0.0711  0.0128 -0.1327
 8872SOL    HW138252   3.950   4.009  11.182 -0.6010  0.5599  1.2130
 8872SOL    HW238253   4.064   4.076  11.106  0.8693  0.2175  1.0152
 8873SOL     OW38254   0.792   4.131   0.941  0.5555 -0.1026 -0.4937
 8873SOL    HW138255   0.718   4.081   0.975  0.7757 -0.0122  0.1017
 8873SOL    HW238256   0.860   4.098   0.999  0.9163 -0.2799 -1.0207
 8874SOL     OW38257   2.690   4.127   3.151  0.4240 -0.2595 -0.4420
 8874SOL    HW138258   2.657   4.054   3.204 -2.1192  0.5681 -0.8590
 8874SOL    HW238259   2.635   4.119   3.073  0.3593 -2.4502 -0.1763
 8875SOL     OW38260   3.664   4.668   4.286 -0.2352  0.0617 -0.3421
 8875SOL    HW138261   3.616   4.661   4.203 -2.2405  1.6956  0.6756
 8875SOL    HW238262   3.590   4.700   4.338 -0.0836  2.0206 -1.3299
 8876SOL     OW38263   0.780   3.804   7.519  0.2813 -0.4330  0.0426
 8876SOL    HW138264   0.754   3.721   7.559 -0.6238 -0.7219 -1.1320
 8876SOL    HW238265   0.784   3.853   7.600  2.4501  1.7797 -1.3873
 8877SOL     OW38266   2.165   2.630   7.891 -0.2651 -0.1820 -0.0565
 8877SOL    HW138267   2.216   2.549   7.896 -0.2645 -0.2056 -0.5083
 8877SOL    HW238268   2.134   2.635   7.982 -2.2945 -2.1261 -0.6206
 8878SOL     OW38269   0.300   0.364   6.705 -0.3884 -0.2216  0.0070
 8878SOL    HW138270   0.263   0.453   6.708  1.9340  0.7367 -0.0231
 8878SOL    HW238271   0.344   0.360   6.620 -3.3433 -0.9653 -1.4841
 8879SOL     OW38272   4.360   2.817   3.718 -0.3792 -0.0331 -0.3788
 8879SOL    HW138273   4.277   2.802   3.765  0.9153  1.1169  2.2913
 8879SOL    HW238274   4.396   2.879   3.782  0.1155 -1.0865  0.3688
 8880SOL     OW38275   4.297   3.199  11.625 -0.0454 -0.1057 -0.2427
 8880SOL    HW138276   4.302   3.220  11.532 -1.0654  2.4781  0.2847
 8880SOL    HW238277   4.255   3.113  11.627 -0.9730  0.3677  1.0179
 8881SOL     OW38278   1.532   0.858   6.334 -0.1108 -0.2402  0.3278
 8881SOL    HW138279   1.573   0.867   6.248 -0.9511  0.1083 -0.0315
 8881SOL    HW238280   1.500   0.768   6.336  1.9911 -1.0091 -0.6393
 8882SOL     OW38281   4.300   0.992  17.290 -0.2933  0.2365 -0.9995
 8882SOL    HW138282   4.252   0.932  17.233 -0.4748 -0.6464  0.0842
 8882SOL    HW238283   4.382   0.998  17.240  1.6468  1.1893  2.2462
 8883SOL     OW38284   4.625   3.521   4.168 -0.4138  0.2514 -0.0288
 8883SOL    HW138285   4.687   3.503   4.239  1.4042 -0.7548 -1.8657
 8883SOL    HW238286   4.591   3.434   4.149  3.6950 -1.1911 -0.6321
 8884SOL     OW38287   4.110   2.580   7.499 -0.0016 -0.0719 -0.0295
 8884SOL    HW138288   4.054   2.652   7.529 -0.0588 -0.4107  0.6793
 8884SOL    HW238289   4.055   2.548   7.427  0.6610 -0.0515 -0.5420
 8885SOL     OW38290   2.681   3.107   7.536 -0.0619 -0.5017  0.0287
 8885SOL    HW138291   2.633   3.024   7.537 -1.7641  0.5002  1.6785
 8885SOL    HW238292   2.724   3.092   7.452 -1.2146  2.9323 -1.1839
 8886SOL     OW38293   2.683   4.393   6.785 -0.4174  0.2440 -0.3590
 8886SOL    HW138294   2.735   4.420   6.861  0.6515  0.4907 -1.1758
 8886SOL    HW238295   2.673   4.471   6.731  0.8653 -0.4577 -1.6173
 8887SOL     OW38296   2.456   0.921  10.471  0.4667  0.1262 -0.4691
 8887SOL    HW138297   2.541   0.924  10.516  0.6297 -1.6667 -0.6540
 8887SOL    HW238298   2.489   0.904  10.383 -0.2774  2.5190 -1.2001
 8888SOL     OW38299   0.198   2.993  13.217 -0.5302 -0.1638 -0.3436
 8888SOL    HW138300   0.136   3.015  13.148 -1.2771  0.1651  0.4256
 8888SOL    HW238301   0.233   2.907  13.192  0.6631  1.0371 -2.7828
 8889SOL     OW38302   2.731   2.743   5.875 -0.0265 -0.2352  0.7948
 8889SOL    HW138303   2.745   2.663   5.926 -0.7628  0.1473  1.5895
 8889SOL    HW238304   2.763   2.712   5.790 -1.1990  1.7507 -0.3689
 8890SOL     OW38305   4.141   4.001   8.866  0.4549 -0.2888  0.0535
 8890SOL    HW138306   4.228   3.975   8.836  0.2165  0.6951 -1.4749
 8890SOL    HW238307   4.143   4.091   8.834 -1.1777  0.3844  1.8987
 8891SOL     OW38308   2.270   1.814   1.323 -0.0034 -0.4800  0.1301
 8891SOL    HW138309   2.195   1.754   1.327 -0.2706 -0.2067 -0.7058
 8891SOL    HW238310   2.229   1.878   1.265 -1.3807  1.0839  2.7920
 8892SOL     OW38311   2.610   2.453   4.769 -0.1933 -0.3079  0.1311
 8892SOL    HW138312   2.654   2.377   4.807  1.0220 -0.3905 -1.4252
 8892SOL    HW238313   2.519   2.424   4.765 -0.8460  1.9329 -1.0420
 8893SOL     OW38314   0.588   2.760   5.741  0.3845 -0.4972  0.4040
 8893SOL    HW138315   0.498   2.790   5.724  0.8952  1.5725  1.3562
 8893SOL    HW238316   0.634   2.835   5.778 -1.5590  0.5561  0.6765
 8894SOL     OW38317   3.317   0.865  12.341 -0.1113  0.5031 -0.7022
 8894SOL    HW138318   3.382   0.867  12.412 -2.3827 -1.4529  1.4202
 8894SOL    HW238319   3.297   0.772  12.336  4.0701 -0.4660  0.4960
 8895SOL     OW38320   0.867   1.339  15.267 -0.0248  0.1368  0.0829
 8895SOL    HW138321   0.800   1.374  15.208 -1.1993 -0.7962  0.8583
 8895SOL    HW238322   0.829   1.258  15.303 -1.8001 -0.0858 -2.2747
 8896SOL     OW38323   0.691   0.844   8.306 -0.6869  0.1771  0.1197
 8896SOL    HW138324   0.690   0.881   8.218  2.9456 -1.1131 -0.4527
 8896SOL    HW238325   0.783   0.825   8.322 -1.3382 -1.2102  2.2475
 8897SOL     OW38326   3.610   3.901  11.346  0.9682  0.0661  0.6279
 8897SOL    HW138327   3.547   3.877  11.414 -1.2524 -0.2729 -1.5920
 8897SOL    HW238328   3.595   3.834  11.279  2.4385 -0.2572  0.6105
 8898SOL     OW38329   1.318   1.044   2.116  0.4720 -0.1147 -0.1439
 8898SOL    HW138330   1.356   0.973   2.168 -0.3934  0.0209  0.6723
 8898SOL    HW238331   1.267   1.100   2.175 -1.8552  0.4013 -2.6747
 8899SOL     OW38332   4.111   3.882   7.161 -0.3917  0.2181 -0.1249
 8899SOL    HW138333   4.043   3.899   7.227 -1.0928  0.2576 -0.8490
 8899SOL    HW238334   4.188   3.905   7.214 -0.2476  0.9005 -0.6225
 8900SOL     OW38335   0.696   3.025   5.793 -0.2000 -0.2495 -0.0183
 8900SOL    HW138336   0.791   3.029   5.795 -0.2469  0.8091  0.1289
 8900SOL    HW238337   0.684   3.036   5.699 -0.0864 -0.8398 -0.1062
 8901SOL     OW38338   2.056   4.640   1.532 -0.5787  0.1467 -0.2081
 8901SOL    HW138339   1.999   4.563   1.521  1.0271 -0.8548 -1.4300
 8901SOL    HW238340   2.117   4.594   1.590 -0.2347 -0.8439 -1.3600
 8902SOL     OW38341   0.435   4.461   7.253  0.0898  0.1351 -0.3325
 8902SOL    HW138342   0.509   4.503   7.297 -0.3954  2.6617 -1.9413
 8902SOL    HW238343   0.451   4.478   7.161 -2.5099  0.0969 -0.8014
 8903SOL     OW38344   1.821   3.207   6.558  0.1793 -0.5083  0.0493
 8903SOL    HW138345   1.862   3.164   6.633 -0.8979  0.7592  1.3446
 8903SOL    HW238346   1.791   3.288   6.597 -3.0681 -1.7213  0.0871
 8904SOL     OW38347   2.188   3.283   0.225  0.4826 -0.5383 -0.1846
 8904SOL    HW138348   2.237   3.203   0.205  2.2448  0.4229  0.2777
 8904SOL    HW238349   2.101   3.244   0.235  0.7595 -0.6095  1.9221
 8905SOL     OW38350   2.397   4.003   9.691  0.2393 -0.0667  0.8376
 8905SOL    HW138351   2.467   4.030   9.750 -0.3530  3.0290  0.1526
 8905SOL    HW238352   2.376   3.914   9.719 -1.1107  0.7782  2.5403
 8906SOL     OW38353   2.678   0.491  15.999 -0.3331  0.5749  0.0957
 8906SOL    HW138354   2.733   0.415  15.978 -0.5634  0.5201 -0.3042
 8906SOL    HW238355   2.610   0.489  15.932 -1.1228 -3.3846  0.9919
 8907SOL     OW38356   2.197   0.336   8.256 -0.0648  0.0623  0.2816
 8907SOL    HW138357   2.231   0.424   8.270  0.8599 -0.2772  0.1733
 8907SOL    HW238358   2.113   0.347   8.301 -0.3123 -1.0398  0.1023
 8908SOL     OW38359   1.697   1.057   2.671  0.3440 -0.1092  0.0429
 8908SOL    HW138360   1.792   1.055   2.662  0.3295 -1.0595  0.1427
 8908SOL    HW238361   1.689   1.026   2.761  2.1318  2.1991  1.0207
 8909SOL     OW38362   1.868   0.617   5.356  0.3228 -0.8486 -0.0520
 8909SOL    HW138363   1.958   0.623   5.386  0.6226  1.1271 -1.3099
 8909SOL    HW238364   1.828   0.586   5.437 -0.8849  2.1030  0.5003
 8910SOL     OW38365   3.693   1.869  11.174  0.4160  0.3625  0.5041
 8910SOL    HW138366   3.721   1.953  11.211 -1.5769  1.3743 -0.3045
 8910SOL    HW238367   3.766   1.816  11.208  1.3234  0.8240 -0.7235
 8911SOL     OW38368   3.841   0.408   1.022  0.3450  0.2117 -0.1850
 8911SOL    HW138369   3.786   0.478   1.055  2.8950  1.9642  0.3830
 8911SOL    HW238370   3.863   0.436   0.933 -1.0814  3.0654  0.3840
 8912SOL     OW38371   4.337   3.561   8.476  0.4640  0.1197 -1.1596
 8912SOL    HW138372   4.420   3.570   8.522 -0.5848 -1.1051  0.9989
 8912SOL    HW238373   4.342   3.619   8.400  0.1103  0.6443 -0.7860
 8913SOL     OW38374   4.661   2.190  13.080  0.2951  0.1322  0.3284
 8913SOL    HW138375   4.733   2.188  13.017 -0.4972  0.0125 -0.5929
 8913SOL    HW238376   4.709   2.180  13.161  2.9857  1.8847 -1.0621
 8914SOL     OW38377   2.439   4.111  13.408 -0.3414 -0.2681 -0.3056
 8914SOL    HW138378   2.432   4.096  13.502 -1.0706 -4.3677 -1.0270
 8914SOL    HW238379   2.350   4.086  13.382 -0.5840 -1.2920  1.5283
 8915SOL     OW38380   3.386   4.072   8.448  0.2172  0.1763 -0.5369
 8915SOL    HW138381   3.408   3.985   8.415  0.7076  1.6180 -4.0259
 8915SOL    HW238382   3.470   4.119   8.449 -0.2099  0.9585 -0.9069
 8916SOL     OW38383   4.071   1.740   0.451  0.1263 -0.0066  0.1200
 8916SOL    HW138384   4.116   1.824   0.454  1.9928 -0.9515 -0.7184
 8916SOL    HW238385   4.113   1.693   0.523 -1.0079 -0.2278  0.6269
 8917SOL     OW38386   1.833   0.384   0.807  0.1502  0.0599  0.6842
 8917SOL    HW138387   1.742   0.360   0.790  0.0698  0.1967  0.9233
 8917SOL    HW238388   1.814   0.477   0.819 -0.2278  0.0834 -0.0882
 8918SOL     OW38389   0.167   1.823   8.032  0.2986 -0.0165  0.3087
 8918SOL    HW138390   0.080   1.788   8.015 -0.2734  1.6192 -0.1164
 8918SOL    HW238391   0.193   1.757   8.096  0.4596  0.5124  0.7827
 8919SOL     OW38392   3.393   0.528   9.077  0.2296  0.0089 -0.8295
 8919SOL    HW138393   3.424   0.514   8.988  1.7520 -0.4607 -0.2324
 8919SOL    HW238394   3.460   0.596   9.094 -1.0659  1.2994 -0.8625
 8920SOL     OW38395   2.770   2.840  17.559  0.1496  0.0613 -0.3711
 8920SOL    HW138396   2.773   2.835  17.463  0.6758 -2.2504 -0.2218
 8920SOL    HW238397   2.748   2.752  17.589  0.8770 -0.6740 -2.0191
 8921SOL     OW38398   0.163   2.689   1.836 -0.3747  1.0465  0.1241
 8921SOL    HW138399   0.201   2.672   1.923  0.6644  0.1151 -0.5154
 8921SOL    HW238400   0.226   2.753   1.802  0.1738  1.8233  2.5870
 8922SOL     OW38401   0.311   1.507   1.317 -0.2768  0.3146 -0.0045
 8922SOL    HW138402   0.302   1.495   1.222  0.1906 -0.4306  0.0392
 8922SOL    HW238403   0.257   1.434   1.348 -0.5113 -0.3773 -2.0098
 8923SOL     OW38404   4.575   0.657   4.249 -0.5261  0.1165  0.4636
 8923SOL    HW138405   4.505   0.598   4.277 -0.0569 -0.4256  0.4868
 8923SOL    HW238406   4.518   0.725   4.213  0.6016  1.1280  0.5905
 8924SOL     OW38407   3.053   0.297   2.738  0.9347 -0.5235 -0.0830
 8924SOL    HW138408   3.097   0.313   2.655  0.3943 -0.6778 -0.3983
 8924SOL    HW238409   2.965   0.268   2.714  0.3668 -0.0178  1.3718
 8925SOL     OW38410   4.032   3.304   5.632  0.4924 -0.3528 -0.3618
 8925SOL    HW138411   4.101   3.255   5.677  0.1580  0.3232  0.8851
 8925SOL    HW238412   4.026   3.272   5.542 -0.8588  0.3343 -0.5223
 8926SOL     OW38413   1.062   2.224   8.431  0.0369  0.3973  0.6029
 8926SOL    HW138414   0.996   2.197   8.495  0.5117 -2.8791 -0.2973
 8926SOL    HW238415   1.002   2.283   8.386  0.9918  1.0760  0.2309
 8927SOL     OW38416   3.248   1.629   8.261  0.9730 -0.2827 -0.2583
 8927SOL    HW138417   3.255   1.723   8.271 -2.2462 -0.0479 -0.4138
 8927SOL    HW238418   3.319   1.601   8.319  1.8782 -0.2715 -1.3457
 8928SOL     OW38419   3.854   1.039   4.741  0.5070  0.2049 -0.7791
 8928SOL    HW138420   3.776   1.054   4.795 -0.5907  1.3296 -2.6356
 8928SOL    HW238421   3.900   0.970   4.788  2.1714  1.4626 -0.5978
 8929SOL     OW38422   1.268   4.293   5.157 -0.4446  0.5792 -0.2765
 8929SOL    HW138423   1.199   4.228   5.146 -0.8878  1.1388 -0.7719
 8929SOL    HW238424   1.256   4.363   5.093  1.1105  1.0592 -0.0598
 8930SOL     OW38425   0.944   0.587   8.114 -0.0117  0.0305  0.4397
 8930SOL    HW138426   1.030   0.627   8.112 -0.8335  1.7013 -0.9316
 8930SOL    HW238427   0.935   0.582   8.210  0.3240 -1.5856  0.3860
 8931SOL     OW38428   2.434   3.869   5.394  0.1340 -0.2599  0.3953
 8931SOL    HW138429   2.506   3.807   5.381 -0.3346 -0.3587 -1.7682
 8931SOL    HW238430   2.388   3.822   5.463  1.1760 -1.7285  0.0919
 8932SOL     OW38431   3.745   3.093   3.589 -0.3127 -1.0194 -0.1077
 8932SOL    HW138432   3.705   3.030   3.649  0.5117 -0.9744  0.4893
 8932SOL    HW238433   3.834   3.057   3.591  0.2338  0.4281  1.9829
 8933SOL     OW38434   3.178   0.964   0.074  1.0593 -0.5629  0.1002
 8933SOL    HW138435   3.188   1.031   0.006  1.0473 -0.7891 -0.1268
 8933SOL    HW238436   3.258   0.916   0.091  0.8529 -2.1701 -3.4512
 8934SOL     OW38437   0.412   1.670   7.257 -0.0847 -0.3297 -0.1602
 8934SOL    HW138438   0.488   1.631   7.214  0.4910  1.0425 -0.3739
 8934SOL    HW238439   0.439   1.762   7.257  0.5801 -0.5390  1.1464
 8935SOL     OW38440   2.760   1.626   6.687  0.0685  0.7031  0.0204
 8935SOL    HW138441   2.780   1.664   6.773 -0.2359  2.2723 -0.6048
 8935SOL    HW238442   2.837   1.570   6.680  0.8741  1.9345 -1.0646
 8936SOL     OW38443   3.763   4.452   6.618  0.2029 -0.1800 -0.0400
 8936SOL    HW138444   3.733   4.494   6.699  1.5602  1.6270 -0.4662
 8936SOL    HW238445   3.747   4.524   6.557 -0.9006 -2.2072 -2.1455
 8937SOL     OW38446   3.789   2.826   2.531 -0.2417  0.1178  0.0008
 8937SOL    HW138447   3.835   2.897   2.576  1.6346 -0.8133 -0.4274
 8937SOL    HW238448   3.789   2.845   2.437 -0.7725  0.2414  0.0301
 8938SOL     OW38449   0.735   2.139   8.158 -0.3221 -0.2299  0.5678
 8938SOL    HW138450   0.733   2.049   8.192  0.2271 -0.2241  0.6157
 8938SOL    HW238451   0.641   2.155   8.169  0.2394  2.1350  1.7623
 8939SOL     OW38452   3.414   3.750   3.967 -0.3942 -0.4423  0.1270
 8939SOL    HW138453   3.349   3.788   3.909  0.2388  1.3561  0.5994
 8939SOL    HW238454   3.425   3.814   4.037 -0.8909 -1.0111  0.7252
 8940SOL     OW38455   3.783   0.542   8.233  0.5144 -0.1710 -0.4119
 8940SOL    HW138456   3.872   0.560   8.264  0.5158 -0.8085 -0.0325
 8940SOL    HW238457   3.735   0.581   8.306 -1.9024 -1.3892 -1.3330
 8941SOL     OW38458   2.770   4.385   8.372 -0.1196 -0.1967  0.1251
 8941SOL    HW138459   2.676   4.396   8.389 -0.0701  0.5933 -0.1136
 8941SOL    HW238460   2.798   4.476   8.363 -0.9543  0.4002  3.5097
 8942SOL     OW38461   4.004   1.199   6.551 -0.3312 -0.4305 -0.7272
 8942SOL    HW138462   4.004   1.104   6.538 -1.4628 -0.5836  0.3660
 8942SOL    HW238463   4.098   1.216   6.546  0.1037 -2.6710 -0.2818
 8943SOL     OW38464   0.074   1.271   5.763 -0.3861 -0.8512  0.7144
 8943SOL    HW138465   0.166   1.246   5.755  0.1551  0.7291  1.9898
 8943SOL    HW238466   0.066   1.334   5.691  0.0091 -2.4429 -0.7104
 8944SOL     OW38467   1.019   3.962   8.160  0.0782 -0.5215 -0.1967
 8944SOL    HW138468   1.069   3.882   8.142  0.8013  0.6041 -3.2266
 8944SOL    HW238469   1.079   4.000   8.224  2.6787 -2.1039 -1.6675
 8945SOL     OW38470   0.062   2.825   4.979 -0.0773 -0.4178  0.0130
 8945SOL    HW138471   0.018   2.904   4.947  1.0343  0.9676  1.8687
 8945SOL    HW238472   0.146   2.865   5.004 -1.0614 -0.6597  3.7588
 8946SOL     OW38473   2.167   1.570  13.088  0.1277 -0.4395  0.0315
 8946SOL    HW138474   2.100   1.613  13.141  0.2889 -1.2079  0.8742
 8946SOL    HW238475   2.138   1.486  13.124 -0.3392  0.3640  1.5476
 8947SOL     OW38476   4.694   1.657   7.699 -0.1340 -1.3951  0.4856
 8947SOL    HW138477   4.717   1.738   7.655 -0.8538 -0.6899  1.4135
 8947SOL    HW238478   4.603   1.641   7.675  0.1971 -0.6236 -1.3192
 8948SOL     OW38479   2.263   0.606   2.091  0.3398 -0.4554 -0.3775
 8948SOL    HW138480   2.258   0.548   2.167 -2.0596 -0.8906 -0.8711
 8948SOL    HW238481   2.230   0.554   2.018 -0.1583  1.6925 -1.6836
 8949SOL     OW38482   4.438   2.798   6.898  0.2963 -0.0623  0.0891
 8949SOL    HW138483   4.397   2.772   6.815  0.8811 -0.9449  0.0797
 8949SOL    HW238484   4.506   2.730   6.899 -0.4821 -0.8471 -0.5751
 8950SOL     OW38485   2.680   2.565   5.039  0.4605 -0.0827 -0.7653
 8950SOL    HW138486   2.637   2.561   4.953 -3.2111  2.6059  0.9354
 8950SOL    HW238487   2.646   2.649   5.071  0.9299 -0.2661  0.1950
 8951SOL     OW38488   4.465   2.283   1.663 -0.0539  0.4937  0.1435
 8951SOL    HW138489   4.525   2.341   1.617 -2.3012  2.6350 -0.1082
 8951SOL    HW238490   4.506   2.197   1.657 -0.5069  0.4168 -1.7791
 8952SOL     OW38491   1.085   2.167  15.061 -0.0989 -0.1382  0.7291
 8952SOL    HW138492   1.050   2.214  15.136 -1.2350  0.4637 -0.1701
 8952SOL    HW238493   1.006   2.167  15.007 -0.7544 -1.6582  1.7159
 8953SOL     OW38494   1.778   1.972   7.914 -0.0702 -0.1278  0.4650
 8953SOL    HW138495   1.684   1.971   7.933 -0.4074 -1.9812 -1.2849
 8953SOL    HW238496   1.814   1.923   7.989 -2.3603 -1.3822  0.7464
 8954SOL     OW38497   4.447   3.394   8.170 -0.9429  0.0546 -0.2756
 8954SOL    HW138498   4.532   3.437   8.178 -0.1444 -1.3681 -1.0630
 8954SOL    HW238499   4.389   3.470   8.169  0.5903  1.2229 -0.5015
 8955SOL     OW38500   1.995   3.557   4.532 -0.5237  0.8458 -0.0338
 8955SOL    HW138501   2.050   3.631   4.557  2.1070 -0.7023 -1.1763
 8955SOL    HW238502   2.018   3.496   4.602  0.2556  0.0397 -0.9711
 8956SOL     OW38503   1.036   0.264   1.064 -0.1647 -0.0327 -0.0578
 8956SOL    HW138504   1.030   0.353   1.097 -0.1595  0.9215 -2.6902
 8956SOL    HW238505   0.975   0.214   1.119 -1.1214  0.7421 -0.4141
 8957SOL     OW38506   1.689   2.195   5.849  0.0346 -0.6970 -0.0069
 8957SOL    HW138507   1.606   2.207   5.895  0.1876 -1.6471  0.5333
 8957SOL    HW238508   1.669   2.119   5.794  0.0202 -0.1361 -0.7682
 8958SOL     OW38509   3.297   3.203  14.902 -0.1724 -0.1757  0.0092
 8958SOL    HW138510   3.271   3.134  14.964 -1.2491  0.4779  0.2960
 8958SOL    HW238511   3.297   3.279  14.960 -1.1350  0.0456 -0.2773
 8959SOL     OW38512   0.963   3.798   1.659  0.1006 -0.0002 -0.3126
 8959SOL    HW138513   0.968   3.776   1.567  0.6982  2.2194 -0.8069
 8959SOL    HW238514   0.889   3.749   1.695  0.2751 -0.2623 -0.3056
 8960SOL     OW38515   1.068   0.686   9.739 -0.1047 -0.1234 -0.7194
 8960SOL    HW138516   1.047   0.606   9.787 -1.5698  0.1736 -0.8388
 8960SOL    HW238517   1.031   0.759   9.790  0.3632 -1.3246  1.3374
 8961SOL     OW38518   1.094   0.879   4.125 -0.2240  0.5675  0.1768
 8961SOL    HW138519   1.166   0.818   4.107 -0.5069 -0.2271  1.7150
 8961SOL    HW238520   1.080   0.877   4.220  1.5655 -0.4589  0.4191
 8962SOL     OW38521   2.042   2.459   9.314  0.2233  0.0579  0.1615
 8962SOL    HW138522   2.022   2.536   9.368  0.9009 -0.4124  1.0713
 8962SOL    HW238523   1.983   2.475   9.240  0.4993  2.3180  0.4178
 8963SOL     OW38524   3.388   4.479   5.241 -0.5309 -0.4953 -0.1127
 8963SOL    HW138525   3.472   4.469   5.285 -1.3581 -1.3191  1.2583
 8963SOL    HW238526   3.349   4.538   5.304 -0.3918 -1.8668  1.2545
 8964SOL     OW38527   1.806   1.596   9.517 -0.2367 -0.1161 -0.5229
 8964SOL    HW138528   1.753   1.675   9.505 -1.3778 -0.5257  1.9029
 8964SOL    HW238529   1.766   1.536   9.455  1.5144 -1.4327 -0.3804
 8965SOL     OW38530   1.431   1.138   0.245  0.2995  0.1260  0.0901
 8965SOL    HW138531   1.475   1.188   0.177 -0.9260  3.2543  1.5876
 8965SOL    HW238532   1.358   1.097   0.199  0.2921  1.8322 -1.4240
 8966SOL     OW38533   3.664   4.119  11.739 -0.0318  0.0695  0.3094
 8966SOL    HW138534   3.701   4.202  11.710 -1.3027  1.1506  1.7694
 8966SOL    HW238535   3.733   4.097  11.802  0.4311 -2.8270 -1.1811
 8967SOL     OW38536   0.673   1.390  15.066  0.5418  0.1667  0.5230
 8967SOL    HW138537   0.762   1.391  15.032 -0.7990 -1.0684 -3.0316
 8967SOL    HW238538   0.625   1.387  14.983  1.3877  1.1274 -0.0012
 8968SOL     OW38539   2.794   4.620   9.639  0.1487 -0.5001 -0.3508
 8968SOL    HW138540   2.843   4.539   9.658 -1.9923 -1.2030  2.1644
 8968SOL    HW238541   2.781   4.655   9.727  2.2936 -0.0762 -0.1876
 8969SOL     OW38542   1.278   0.666   1.038  0.5703  0.7120  0.7573
 8969SOL    HW138543   1.363   0.624   1.051  1.0839  1.5392  0.0542
 8969SOL    HW238544   1.277   0.727   1.113 -0.4805  2.4970 -0.7052
 8970SOL     OW38545   4.404   4.549   1.606  0.0611  0.0214 -0.3268
 8970SOL    HW138546   4.480   4.495   1.586 -0.2455 -0.1542 -1.0301
 8970SOL    HW238547   4.343   4.554   1.531 -0.5788 -0.4448  0.1680
 8971SOL     OW38548   0.773   1.814  14.410 -0.3118  0.5838 -0.1608
 8971SOL    HW138549   0.836   1.771  14.352  1.8722  1.9315  1.2379
 8971SOL    HW238550   0.700   1.821  14.347  0.2554  0.5506 -0.8233
 8972SOL     OW38551   1.482   1.687   0.047 -0.3509 -0.0039 -0.4768
 8972SOL    HW138552   1.446   1.614   0.098  0.7749 -1.6830 -2.0463
 8972SOL    HW238553   1.458   1.664  17.693  1.2263 -1.2284 -0.6031
 8973SOL     OW38554   4.650   4.117   2.834  0.3057 -0.6159  0.3048
 8973SOL    HW138555   4.731   4.169   2.825 -2.3119  3.2238 -1.1839
 8973SOL    HW238556   4.647   4.113   2.929  1.2854  0.6857  0.3939
 8974SOL     OW38557   0.808   4.304  17.093 -0.0802 -0.5916  0.0001
 8974SOL    HW138558   0.840   4.279  17.006  1.5763 -3.0659  1.2941
 8974SOL    HW238559   0.713   4.294  17.101 -0.2492  1.4457  0.4227
 8975SOL     OW38560   1.026   1.092   3.616 -0.5723 -0.0881 -0.5447
 8975SOL    HW138561   0.992   1.038   3.687 -0.2008  2.8611  1.8872
 8975SOL    HW238562   1.026   1.025   3.547  0.4113 -0.2974 -0.3402
 8976SOL     OW38563   0.335   3.413   4.527 -0.2552  0.1023  0.1242
 8976SOL    HW138564   0.376   3.343   4.476  2.2415  1.8081 -0.2424
 8976SOL    HW238565   0.339   3.488   4.466  0.4746  0.2271  0.3235
 8977SOL     OW38566   1.107   2.396   5.357  0.3714  0.2812 -0.4885
 8977SOL    HW138567   1.115   2.435   5.444 -0.6718  1.0774 -0.7449
 8977SOL    HW238568   1.045   2.460   5.321  0.4542  0.0177 -1.0932
 8978SOL     OW38569   0.590   3.403  11.010 -0.1257 -0.2071  0.6148
 8978SOL    HW138570   0.611   3.349  11.085 -0.9878 -0.0215  0.9953
 8978SOL    HW238571   0.627   3.344  10.944 -0.9318 -0.3336  0.2648
 8979SOL     OW38572   2.161   1.192  11.823  0.4596  0.5516  0.1110
 8979SOL    HW138573   2.096   1.123  11.827  0.6680  0.4287  1.2110
 8979SOL    HW238574   2.239   1.143  11.796  1.6746  2.2277  0.5527
 8980SOL     OW38575   0.442   3.485   5.045 -0.2122 -0.3937 -0.3843
 8980SOL    HW138576   0.379   3.421   5.013 -0.2591 -0.6138  0.1438
 8980SOL    HW238577   0.447   3.555   4.980  1.0958  0.0148  0.1282
 8981SOL     OW38578   1.652   1.612   3.592 -0.1794  0.2972 -0.4511
 8981SOL    HW138579   1.688   1.661   3.518  0.0194  1.8561  0.6883
 8981SOL    HW238580   1.704   1.532   3.597 -0.0327  0.5203  1.4679
 8982SOL     OW38581   3.950   0.566   7.659 -0.0617  0.2899 -0.2987
 8982SOL    HW138582   3.881   0.579   7.594  1.4814  1.2361 -1.7304
 8982SOL    HW238583   3.989   0.485   7.627  0.4154 -0.3497  1.8710
 8983SOL     OW38584   0.530   2.522   5.846 -0.3844 -0.6410  0.3112
 8983SOL    HW138585   0.569   2.457   5.788 -1.2834 -2.0740  1.3284
 8983SOL    HW238586   0.549   2.606   5.804 -1.0692 -1.2370 -1.2300
 8984SOL     OW38587   0.912   3.906   5.700  0.0112  0.5600 -0.4308
 8984SOL    HW138588   0.998   3.939   5.727 -0.3513 -0.3877  1.8683
 8984SOL    HW238589   0.940   3.840   5.635 -1.3161 -0.1289 -0.3035
 8985SOL     OW38590   0.964   3.365  10.329  0.2560  0.3501 -0.5993
 8985SOL    HW138591   0.890   3.304  10.327  0.2560  0.3742 -1.5050
 8985SOL    HW238592   0.932   3.436  10.274 -0.9423 -1.2328 -1.9703
 8986SOL     OW38593   2.201   0.189   2.221 -0.4540 -0.5343 -0.3634
 8986SOL    HW138594   2.189   0.129   2.294  1.4852  0.0460  0.4390
 8986SOL    HW238595   2.267   0.141   2.171  0.7846 -0.1258  0.8961
 8987SOL     OW38596   0.615   2.745   7.793  0.2935 -0.0988 -0.0084
 8987SOL    HW138597   0.591   2.699   7.712 -1.6437 -0.1816  0.6233
 8987SOL    HW238598   0.709   2.730   7.783  0.2986 -0.3911  0.4837
 8988SOL     OW38599   4.650   0.084   2.630 -0.4883  0.0927  0.0737
 8988SOL    HW138600   4.702   0.005   2.611 -2.8486 -1.4217 -0.0619
 8988SOL    HW238601   4.632   0.086   2.724  1.3019  0.4999  0.4095
 8989SOL     OW38602   3.740   2.852   6.855 -0.4846  0.3759  0.0921
 8989SOL    HW138603   3.757   2.882   6.944  0.8940 -1.4452  0.4457
 8989SOL    HW238604   3.771   2.926   6.801 -3.3183  0.4983 -1.3501
 8990SOL     OW38605   3.402   0.525   7.753  0.5289 -0.0112  0.2299
 8990SOL    HW138606   3.352   0.545   7.832 -2.2361 -0.1021 -1.5084
 8990SOL    HW238607   3.458   0.464   7.800  0.0056 -0.2703  0.5147
 8991SOL     OW38608   1.439   4.470   8.926  0.0515  0.1400 -0.1361
 8991SOL    HW138609   1.470   4.407   8.861  0.7126 -0.1017  0.4236
 8991SOL    HW238610   1.486   4.549   8.899  1.2714  0.0686  1.8446
 8992SOL     OW38611   0.869   1.109   2.488 -0.2978  0.2223 -0.2001
 8992SOL    HW138612   0.896   1.082   2.576 -3.7190  0.9897  1.1049
 8992SOL    HW238613   0.843   1.024   2.452 -2.1231 -0.2169  2.1104
 8993SOL     OW38614   3.564   3.971   6.924  0.0470 -0.1975  0.0328
 8993SOL    HW138615   3.632   4.012   6.871 -0.9669  2.4236  0.7471
 8993SOL    HW238616   3.602   3.962   7.011  0.3995 -1.7985 -0.2795
 8994SOL     OW38617   3.720   3.363   5.672 -0.1427 -0.3884 -0.1227
 8994SOL    HW138618   3.794   3.414   5.640  1.2398  0.1277  3.8933
 8994SOL    HW238619   3.647   3.413   5.636 -0.4177 -1.9124 -1.6888
 8995SOL     OW38620   3.204   0.816   4.788 -0.1912 -0.2264 -0.3667
 8995SOL    HW138621   3.291   0.785   4.764 -0.8495 -1.5901 -1.0140
 8995SOL    HW238622   3.184   0.872   4.713  2.1995  2.5011  1.0547
 8996SOL     OW38623   0.026   1.345   5.176  0.3958 -0.2540  0.8450
 8996SOL    HW138624   0.004   1.311   5.090  1.7768  0.6381  0.1337
 8996SOL    HW238625   0.120   1.365   5.173  0.5162 -0.6841  1.6429
 8997SOL     OW38626   0.760   2.967   1.836 -0.1499 -0.5307 -0.5797
 8997SOL    HW138627   0.850   2.934   1.830 -0.3907 -1.0636 -1.3105
 8997SOL    HW238628   0.726   2.915   1.762  0.0570 -1.0982 -0.2785
 8998SOL     OW38629   3.379   0.265   0.376  0.4927 -0.4681 -0.0641
 8998SOL    HW138630   3.382   0.223   0.290 -1.1690  2.2482 -1.4482
 8998SOL    HW238631   3.362   0.354   0.344 -1.0239 -0.0489  1.8911
 8999SOL     OW38632   0.260   0.235   5.186 -0.1168 -0.2184 -0.4220
 8999SOL    HW138633   0.286   0.307   5.244 -0.7165 -0.4854  0.1814
 8999SOL    HW238634   0.197   0.185   5.238 -1.7468  0.2438 -1.9657
 9000SOL     OW38635   0.275   2.637   0.606  0.0257  0.0105 -0.4451
 9000SOL    HW138636   0.180   2.625   0.606  0.3245 -2.4173 -0.2158
 9000SOL    HW238637   0.276   2.721   0.652  0.2880 -0.4375  0.3767
 9001SOL     OW38638   0.295   0.094   9.837 -0.3772  0.0964  0.0839
 9001SOL    HW138639   0.387   0.112   9.859 -0.6056 -1.3937  2.2225
 9001SOL    HW238640   0.255   0.176   9.867 -1.0258 -0.1428 -0.1289
 9002SOL     OW38641   1.172   3.439   6.007 -0.3379  0.2079  0.7794
 9002SOL    HW138642   1.160   3.534   6.004  0.2659  0.3468  2.5814
 9002SOL    HW238643   1.156   3.412   5.917  1.2499  0.4393  0.4225
 9003SOL     OW38644   3.055   2.445   6.391  0.1169  0.1522  0.0797
 9003SOL    HW138645   2.962   2.423   6.404  0.4184 -1.0852  0.1978
 9003SOL    HW238646   3.094   2.361   6.367  1.6200  1.6006 -2.4808
 9004SOL     OW38647   4.173   3.262   3.479 -0.3501  0.0741 -0.4773
 9004SOL    HW138648   4.176   3.215   3.396  2.4696 -0.7207  0.0518
 9004SOL    HW238649   4.080   3.280   3.488 -0.8376 -2.5863 -0.4592
 9005SOL     OW38650   2.857   3.826   8.669  0.3921  0.0708 -0.2169
 9005SOL    HW138651   2.894   3.900   8.717 -1.0245  0.6445 -0.0133
 9005SOL    HW238652   2.883   3.852   8.580  3.4235  0.2134  0.7058
 9006SOL     OW38653   1.117   2.388   8.926  0.2594 -0.0825 -0.7705
 9006SOL    HW138654   1.028   2.354   8.934  0.6823 -0.3459  2.8575
 9006SOL    HW238655   1.121   2.411   8.833  0.5226 -0.4690 -0.8571
 9007SOL     OW38656   2.952   2.161   1.823  0.2027  0.3350  0.0849
 9007SOL    HW138657   2.922   2.247   1.793 -0.8098 -0.5053 -1.2769
 9007SOL    HW238658   2.877   2.108   1.799  1.2093 -0.9916 -0.1132
 9008SOL     OW38659   4.158   1.376   8.827  0.2313  0.2712 -0.2903
 9008SOL    HW138660   4.089   1.442   8.820 -0.7072 -0.6212  0.5174
 9008SOL    HW238661   4.127   1.306   8.771 -1.2360  0.5517  0.1815
 9009SOL     OW38662   4.233   0.131   1.805  0.5980 -0.0894  0.6504
 9009SOL    HW138663   4.189   0.057   1.762  1.8063  0.5390 -1.6758
 9009SOL    HW238664   4.157   0.179   1.838 -0.0382  0.5430 -1.7436
 9010SOL     OW38665   0.180   3.829   7.265 -0.5993  0.7484 -0.1700
 9010SOL    HW138666   0.186   3.892   7.336  0.5611  0.9508 -0.4409
 9010SOL    HW238667   0.232   3.871   7.196 -0.8800  1.8484  0.2824
 9011SOL     OW38668   1.647   3.195   5.602  0.7050 -0.0251  0.2300
 9011SOL    HW138669   1.727   3.243   5.578  0.7030 -0.1261  0.0196
 9011SOL    HW238670   1.641   3.226   5.693  1.1650 -0.1070  0.2872
 9012SOL     OW38671   2.952   1.285  14.734 -0.0327  0.4567  0.0578
 9012SOL    HW138672   2.970   1.197  14.702 -1.1010  0.0993  0.4491
 9012SOL    HW238673   2.915   1.276  14.822  3.8342  1.9275  1.8366
 9013SOL     OW38674   2.623   1.512   8.072 -0.2199 -0.3171 -0.6143
 9013SOL    HW138675   2.529   1.528   8.065  0.1032  1.3257 -1.1362
 9013SOL    HW238676   2.629   1.419   8.094 -0.6072 -0.3398 -0.5932
 9014SOL     OW38677   4.569   0.968   9.819 -0.1743  0.6538 -0.4517
 9014SOL    HW138678   4.596   0.905   9.885  1.2398  0.3715 -1.2973
 9014SOL    HW238679   4.519   1.028   9.874 -2.8475 -1.5845 -0.4893
 9015SOL     OW38680   0.719   3.538  16.612 -0.6778  0.3666 -0.0070
 9015SOL    HW138681   0.783   3.537  16.683 -1.3532 -4.3795  0.5595
 9015SOL    HW238682   0.770   3.487  16.549 -0.3693  1.7914 -0.8990
 9016SOL     OW38683   1.327   1.146  16.774 -0.7990 -0.4374  0.5604
 9016SOL    HW138684   1.389   1.106  16.714 -1.4548 -0.1638 -0.2980
 9016SOL    HW238685   1.304   1.225  16.725  2.0395 -0.3835 -0.6441
 9017SOL     OW38686   1.233   2.339   9.294  0.2430 -0.2192 -0.2219
 9017SOL    HW138687   1.150   2.373   9.260  0.6268 -2.1396 -3.0572
 9017SOL    HW238688   1.225   2.365   9.386 -0.3913  0.4718 -0.4714
 9018SOL     OW38689   3.396   2.133   7.485  0.6259 -0.0411  0.5632
 9018SOL    HW138690   3.483   2.172   7.476  0.9787 -0.3413  2.7193
 9018SOL    HW238691   3.337   2.208   7.487  1.5391  0.7148 -0.9288
 9019SOL     OW38692   2.345   3.549   3.240 -0.7022  0.1163 -0.1787
 9019SOL    HW138693   2.293   3.499   3.302  0.0655  0.3310  0.6400
 9019SOL    HW238694   2.288   3.560   3.163 -2.8592 -0.1169  1.3946
 9020SOL     OW38695   1.710   1.775   8.354 -0.5675  0.8770  0.1029
 9020SOL    HW138696   1.695   1.787   8.448  1.7490  0.3188  0.5421
 9020SOL    HW238697   1.784   1.716   8.363  0.0255  1.7956  1.2614
 9021SOL     OW38698   1.890   1.825  14.455  0.7053 -0.5523  0.1981
 9021SOL    HW138699   1.914   1.732  14.451 -0.1786 -0.8135  0.7458
 9021SOL    HW238700   1.817   1.825  14.393  1.0911 -0.1359 -0.2585
 9022SOL     OW38701   3.108   1.719  16.408  0.2148 -0.9932 -0.5143
 9022SOL    HW138702   3.049   1.784  16.371 -1.0465 -1.3659  0.8572
 9022SOL    HW238703   3.096   1.637  16.358 -3.1983 -0.9398  0.2471
 9023SOL     OW38704   4.386   3.999   5.578  0.1080  0.2177  0.1665
 9023SOL    HW138705   4.350   3.946   5.506 -0.7110  1.9515 -0.6882
 9023SOL    HW238706   4.303   4.026   5.617  1.1762  0.3815  2.2796
 9024SOL     OW38707   1.583   0.998  11.811 -0.1402  1.2211 -0.2254
 9024SOL    HW138708   1.575   1.093  11.806 -0.9557  1.1481 -0.2724
 9024SOL    HW238709   1.490   0.976  11.816  0.5139 -1.2116  1.1095
 9025SOL     OW38710   2.309   4.678   3.124 -0.5699  0.0740  0.4345
 9025SOL    HW138711   2.230   4.713   3.081 -0.7384 -0.1748  0.5388
 9025SOL    HW238712   2.380   4.690   3.062 -0.5265  0.1656  0.5032
 9026SOL     OW38713   3.682   0.643  16.334  0.3271  0.0335 -0.0845
 9026SOL    HW138714   3.751   0.583  16.362 -0.0002 -0.6620 -0.7818
 9026SOL    HW238715   3.602   0.592  16.317 -0.3030  0.8317  0.4812
 9027SOL     OW38716   3.777   0.994   8.890  0.0509 -0.3522 -0.3314
 9027SOL    HW138717   3.839   1.055   8.930 -1.8297  1.0906  0.4007
 9027SOL    HW238718   3.727   0.978   8.970  1.4907  1.8247  0.9982
 9028SOL     OW38719   4.642   1.197   2.540 -0.0518 -0.0536  0.7148
 9028SOL    HW138720   4.596   1.246   2.609  1.4139  2.7340 -0.3155
 9028SOL    HW238721   4.628   1.246   2.460  0.8433 -0.5572  0.2502
 9029SOL     OW38722   3.919   0.763   1.176  0.8018  0.0980  0.2901
 9029SOL    HW138723   3.916   0.846   1.224 -0.0887 -0.4330  1.1367
 9029SOL    HW238724   3.901   0.788   1.085  0.3311  1.0092  0.6387
 9030SOL     OW38725   2.574   3.886   2.287  0.2049 -0.2571  0.7419
 9030SOL    HW138726   2.514   3.819   2.318  0.8657 -0.8593  0.6990
 9030SOL    HW238727   2.532   3.968   2.315  1.1288  1.1740 -2.0543
 9031SOL     OW38728   1.704   1.744  12.577  0.5266 -0.1209  0.1523
 9031SOL    HW138729   1.782   1.695  12.602 -0.9449 -0.7369  3.6472
 9031SOL    HW238730   1.641   1.673  12.589 -0.6343  0.7873 -0.5316
 9032SOL     OW38731   2.260   4.589   5.324  0.0960 -0.6862 -0.4381
 9032SOL    HW138732   2.202   4.564   5.252  0.2097 -3.2231  0.3429
 9032SOL    HW238733   2.232   4.527   5.391  0.9616  0.1716  0.7065
 9033SOL     OW38734   4.328   1.317   8.507  0.2285 -0.1913  0.3630
 9033SOL    HW138735   4.305   1.307   8.414  4.0956  1.3105 -0.7571
 9033SOL    HW238736   4.252   1.274   8.545 -2.3297  2.0547 -2.1441
 9034SOL     OW38737   0.703   0.484   3.614  0.1060 -0.1652  0.7736
 9034SOL    HW138738   0.740   0.523   3.535  1.6569 -0.4024  1.3955
 9034SOL    HW238739   0.674   0.397   3.586  0.0447  0.3802 -0.8501
 9035SOL     OW38740   3.518   0.365  12.639 -0.3541 -0.3142 -0.0055
 9035SOL    HW138741   3.489   0.438  12.693  0.9970 -1.2680  2.0054
 9035SOL    HW238742   3.496   0.291  12.696  1.0365 -0.4873  0.2832
 9036SOL     OW38743   1.393   1.768  13.727 -1.2184 -0.2676  0.0703
 9036SOL    HW138744   1.351   1.821  13.794 -0.4990  1.6058 -0.9842
 9036SOL    HW238745   1.323   1.747  13.665 -0.0871  1.1482 -1.6761
 9037SOL     OW38746   4.225   4.273   0.353  0.4571 -0.0164 -0.0354
 9037SOL    HW138747   4.200   4.265   0.446  0.0468  0.1632 -0.1306
 9037SOL    HW238748   4.180   4.198   0.314 -0.0915  0.5858 -0.5525
 9038SOL     OW38749   3.398   3.151   4.303  0.0492  0.5399 -0.1250
 9038SOL    HW138750   3.468   3.198   4.257  0.8790 -1.1854 -0.6126
 9038SOL    HW238751   3.348   3.227   4.333  0.0716  0.4010  0.2644
 9039SOL     OW38752   1.060   0.828  14.220 -0.4832  0.1447  0.0326
 9039SOL    HW138753   1.092   0.887  14.288 -0.7938 -2.1351  2.1297
 9039SOL    HW238754   0.966   0.849  14.219 -0.7677 -1.2784 -3.0069
 9040SOL     OW38755   3.008   0.181   6.168  0.2571 -0.1045 -0.1317
 9040SOL    HW138756   2.949   0.224   6.230  0.0584  0.2684 -0.5770
 9040SOL    HW238757   2.981   0.090   6.179 -1.1812  0.4009  0.5236
 9041SOL     OW38758   3.894   1.045  13.163  0.0829  0.0277 -0.5273
 9041SOL    HW138759   3.944   1.127  13.169  2.2989 -1.2531 -1.4876
 9041SOL    HW238760   3.945   1.006  13.093  0.6474  1.1704 -0.7635
 9042SOL     OW38761   1.217   3.897   6.709 -0.1250 -0.0183  0.6804
 9042SOL    HW138762   1.264   3.862   6.634 -1.0440  0.7679 -0.2713
 9042SOL    HW238763   1.266   3.978   6.723  1.6220 -0.7304 -1.3688
 9043SOL     OW38764   1.960   2.104   4.611  0.0510 -0.2972 -0.1571
 9043SOL    HW138765   1.939   2.125   4.520  0.4230 -1.0221 -0.4085
 9043SOL    HW238766   1.978   2.011   4.600  3.7042  0.3863  0.2937
 9044SOL     OW38767   0.884   0.910   1.207  0.0448 -0.7118 -0.6638
 9044SOL    HW138768   0.918   0.851   1.141 -1.0419 -1.8279 -0.2086
 9044SOL    HW238769   0.911   0.854   1.280  0.5140  1.6890  1.0153
 9045SOL     OW38770   1.555   3.844   4.922 -0.6770 -0.4791 -0.3511
 9045SOL    HW138771   1.593   3.813   5.005  1.0293  1.1147 -0.5535
 9045SOL    HW238772   1.470   3.802   4.914 -1.0997  0.0964  1.0019
 9046SOL     OW38773   1.490   1.886   4.218 -0.7277 -0.0196  0.1190
 9046SOL    HW138774   1.401   1.851   4.213 -0.2898 -0.6741 -3.1434
 9046SOL    HW238775   1.539   1.804   4.225  2.1389  1.4009 -3.0858
 9047SOL     OW38776   3.417   0.129   3.447 -0.5668  0.1851  0.4207
 9047SOL    HW138777   3.469   0.207   3.465 -0.4314  0.2929 -0.4051
 9047SOL    HW238778   3.468   0.086   3.378  0.3109 -0.9873  1.8002
 9048SOL     OW38779   1.457   3.361   0.403  0.3326 -0.1280 -0.0012
 9048SOL    HW138780   1.413   3.356   0.488  0.9530 -1.3965  0.2295
 9048SOL    HW238781   1.411   3.437   0.366  0.0704 -0.0925  0.3970
 9049SOL     OW38782   4.678   1.867   8.440  0.2743 -0.2004 -1.0687
 9049SOL    HW138783   4.631   1.854   8.522  1.7079  0.4978 -0.1405
 9049SOL    HW238784   4.618   1.825   8.378  0.2523 -0.8474 -0.6077
 9050SOL     OW38785   2.696   4.171   1.896  0.5525 -0.1013 -0.1640
 9050SOL    HW138786   2.613   4.181   1.943  0.4142 -0.8438 -0.2523
 9050SOL    HW238787   2.707   4.078   1.915 -1.9243 -0.2525  0.5597
 9051SOL     OW38788   2.437   0.141   2.663  0.1446 -0.2381 -0.2585
 9051SOL    HW138789   2.356   0.173   2.624  0.2426 -0.5020 -0.6850
 9051SOL    HW238790   2.473   0.227   2.684 -0.3813 -0.1196  0.1482
 9052SOL     OW38791   2.701   0.333  10.769 -0.0354 -0.1973 -1.2838
 9052SOL    HW138792   2.726   0.415  10.726  1.4384  0.9323  1.7091
 9052SOL    HW238793   2.710   0.267  10.700  0.2647  0.0909 -1.5197
 9053SOL     OW38794   4.181   4.030   4.834 -0.2261 -0.0997  0.2083
 9053SOL    HW138795   4.209   3.967   4.768  0.6752 -1.4565  1.8823
 9053SOL    HW238796   4.107   4.066   4.785 -0.9141  0.3549  1.5749
 9054SOL     OW38797   1.026   3.075   2.640 -0.4140 -0.4376 -0.1165
 9054SOL    HW138798   1.002   3.096   2.730 -0.4125  1.2018 -0.4974
 9054SOL    HW238799   0.952   3.108   2.589 -0.4817  0.0271  0.2842
 9055SOL     OW38800   2.600   2.880   3.487 -0.4497  0.0605  0.3573
 9055SOL    HW138801   2.532   2.829   3.444  0.5408  1.4432 -2.8818
 9055SOL    HW238802   2.550   2.924   3.556  0.1831 -0.1656  0.9601
 9056SOL     OW38803   3.934   4.230   9.381  0.0064  0.1206 -0.1986
 9056SOL    HW138804   3.876   4.302   9.356 -0.2705 -0.4366 -1.1764
 9056SOL    HW238805   4.020   4.272   9.382 -0.1311  0.3408  2.1299
 9057SOL     OW38806   1.693   2.291   5.532 -0.0206  0.1676 -0.1819
 9057SOL    HW138807   1.616   2.333   5.494 -0.2080 -1.6730 -1.8444
 9057SOL    HW238808   1.752   2.367   5.536 -0.9803  0.7457  2.5355
 9058SOL     OW38809   3.110   4.665   2.341 -0.4926 -0.1162  0.2505
 9058SOL    HW138810   3.126   4.635   2.252 -1.3942 -0.7981  0.3166
 9058SOL    HW238811   3.037   4.722   2.319  1.1261  1.9160  0.1948
 9059SOL     OW38812   3.606   0.818  15.373 -0.3304  0.4287 -0.6240
 9059SOL    HW138813   3.637   0.849  15.458  0.3434 -2.3297  0.1383
 9059SOL    HW238814   3.530   0.875  15.359 -0.6317 -0.4165 -2.3891
 9060SOL     OW38815   2.641   1.679   1.317  0.3985 -0.1951 -0.4719
 9060SOL    HW138816   2.708   1.730   1.271  1.7189 -1.9455 -0.5101
 9060SOL    HW238817   2.603   1.746   1.373 -1.1705 -1.5441  0.0712
 9061SOL     OW38818   2.180   4.319   7.641  0.4396 -0.3107  0.2201
 9061SOL    HW138819   2.211   4.322   7.551  1.2704 -1.7924  0.4620
 9061SOL    HW238820   2.140   4.233   7.652  0.9890 -0.7018 -0.9235
 9062SOL     OW38821   3.203   2.319   3.517  0.0545  0.5305  0.6959
 9062SOL    HW138822   3.145   2.284   3.585  1.5113 -1.3580  0.9721
 9062SOL    HW238823   3.146   2.335   3.443 -1.4217  0.2146  1.7628
 9063SOL     OW38824   2.159   1.092   2.913 -0.3874 -0.0144 -0.6412
 9063SOL    HW138825   2.089   1.114   2.852  1.1094  1.0930 -1.9348
 9063SOL    HW238826   2.162   1.179   2.951  2.8604  0.2372 -1.5125
 9064SOL     OW38827   1.902   0.203  12.343  0.2773 -0.9249 -0.4218
 9064SOL    HW138828   1.946   0.143  12.403  0.6877 -1.3347 -1.1366
 9064SOL    HW238829   1.975   0.226  12.286 -0.5813 -0.0432 -1.1765
 9065SOL     OW38830   1.052   4.588  13.682  0.2320 -0.2501  0.1512
 9065SOL    HW138831   1.123   4.650  13.699  0.6273 -0.6265 -0.1348
 9065SOL    HW238832   1.118   4.521  13.659 -0.4913 -1.7918  2.4976
 9066SOL     OW38833   2.209   3.468   7.228 -0.0141  1.1756 -0.4021
 9066SOL    HW138834   2.132   3.438   7.179  0.1318  1.9370 -1.1100
 9066SOL    HW238835   2.266   3.398   7.195 -0.1782  0.6540  0.4203
 9067SOL     OW38836   4.616   0.404   2.853  0.0310 -0.1229  0.3169
 9067SOL    HW138837   4.535   0.363   2.883  1.6312 -2.6273  1.2291
 9067SOL    HW238838   4.672   0.337   2.813  0.6712  0.0165  0.9925
 9068SOL     OW38839   1.178   1.721  14.374 -0.1886  0.3198 -0.0406
 9068SOL    HW138840   1.114   1.654  14.350  0.3985 -0.0017 -0.7017
 9068SOL    HW238841   1.135   1.758  14.451 -1.7039 -1.1919 -0.1511
 9069SOL     OW38842   4.554   3.617  10.059  0.2890  0.2721  0.0987
 9069SOL    HW138843   4.542   3.674   9.983 -1.2602 -1.3985 -0.9039
 9069SOL    HW238844   4.628   3.567  10.024 -0.4405 -2.0833  1.9275
 9070SOL     OW38845   4.549   3.781   5.645 -0.1601  0.0996  0.0687
 9070SOL    HW138846   4.622   3.752   5.591 -0.4484  1.5848 -1.1109
 9070SOL    HW238847   4.531   3.865   5.604  1.0033  0.2199 -0.2000
 9071SOL     OW38848   2.809   0.210   2.645  0.3454 -0.3392  0.2057
 9071SOL    HW138849   2.762   0.236   2.725 -2.1148  1.6043 -1.8857
 9071SOL    HW238850   2.766   0.271   2.586  0.6306  0.3881  0.7490
 9072SOL     OW38851   2.332   0.094   4.957 -0.2458  0.7292  0.4375
 9072SOL    HW138852   2.289   0.073   4.875  0.1695 -0.9270  0.6409
 9072SOL    HW238853   2.285   0.042   5.023  1.9897 -0.6658  0.9298
 9073SOL     OW38854   3.056   4.535   5.740 -0.7713 -0.4044  0.1219
 9073SOL    HW138855   3.049   4.630   5.731  2.3074 -0.2425 -0.3402
 9073SOL    HW238856   2.997   4.503   5.672 -1.2245 -1.4911  1.0278
 9074SOL     OW38857   1.862   0.489   2.801 -0.3619 -0.0079 -0.1225
 9074SOL    HW138858   1.795   0.516   2.739 -1.3678  0.6615  1.2714
 9074SOL    HW238859   1.812   0.431   2.858 -0.0673  0.6489  0.7961
 9075SOL     OW38860   2.849   2.303  12.048  0.1944  0.2049  0.3330
 9075SOL    HW138861   2.898   2.344  11.977  0.9342 -0.6983  0.3257
 9075SOL    HW238862   2.840   2.212  12.023  3.1964 -0.7949  2.8484
 9076SOL     OW38863   0.287   1.280   5.099  0.2487 -0.4799  0.3311
 9076SOL    HW138864   0.324   1.361   5.063 -0.5664  0.3767  1.4205
 9076SOL    HW238865   0.340   1.209   5.064  0.5852  0.1367 -0.4047
 9077SOL     OW38866   1.791   1.142   1.669  0.5778  0.6846 -0.8980
 9077SOL    HW138867   1.868   1.195   1.647  2.0389 -0.8924  0.3584
 9077SOL    HW238868   1.717   1.203   1.667 -1.8160 -2.1999  0.4622
 9078SOL     OW38869   3.599   3.389   3.186 -0.3764 -0.1986  0.1792
 9078SOL    HW138870   3.661   3.316   3.191 -0.8747 -0.5352  1.4110
 9078SOL    HW238871   3.520   3.342   3.160 -0.9355  0.7369  0.1947
 9079SOL     OW38872   0.076   0.385  15.449  0.4773 -0.1237  0.0400
 9079SOL    HW138873   0.050   0.335  15.527 -0.9077  2.2073  1.0375
 9079SOL    HW238874   0.120   0.458  15.492 -1.3139  1.4807 -0.8530
 9080SOL     OW38875   3.547   2.628   1.744 -0.1267  0.1670 -0.2896
 9080SOL    HW138876   3.632   2.598   1.774  0.2909 -1.0903 -2.6959
 9080SOL    HW238877   3.491   2.569   1.794  1.0818 -1.9178 -1.4083
 9081SOL     OW38878   1.039   4.384   5.688  0.7486 -0.3468 -0.2953
 9081SOL    HW138879   0.945   4.365   5.686  0.2619  1.9132  0.4726
 9081SOL    HW238880   1.042   4.477   5.663  3.1563 -0.3924 -0.1203
 9082SOL     OW38881   3.209   1.009   5.933 -0.2227 -0.4004 -0.3341
 9082SOL    HW138882   3.258   1.053   5.862  0.6490 -0.2699  0.3506
 9082SOL    HW238883   3.144   0.966   5.877  1.4060 -0.8477 -1.9095
 9083SOL     OW38884   2.891   2.447   4.890  0.3273 -0.5400  0.6170
 9083SOL    HW138885   2.829   2.496   4.945 -2.7287 -3.2862 -0.3512
 9083SOL    HW238886   2.954   2.412   4.953  1.6542 -1.8641 -1.4685
 9084SOL     OW38887   1.635   0.894   4.285 -0.8928 -0.1561 -0.5216
 9084SOL    HW138888   1.615   0.817   4.233  0.8547  0.4931 -2.1617
 9084SOL    HW238889   1.728   0.881   4.305 -1.1010 -0.2009  0.4290
 9085SOL     OW38890   3.154   2.761   5.546  0.4401  0.4370 -0.2656
 9085SOL    HW138891   3.079   2.796   5.498  1.9386  1.4883 -1.8442
 9085SOL    HW238892   3.175   2.843   5.590 -0.7360  1.2336 -1.2020
 9086SOL     OW38893   1.727   2.555  10.939 -0.3370  0.1406  0.1540
 9086SOL    HW138894   1.679   2.485  10.896 -0.2646 -0.8223  1.6376
 9086SOL    HW238895   1.758   2.507  11.016  0.3415  0.7106  0.2418
 9087SOL     OW38896   1.917   0.571   7.599  0.5647  0.3882  0.0861
 9087SOL    HW138897   1.964   0.563   7.682  0.4398  2.0790  0.3189
 9087SOL    HW238898   1.919   0.483   7.561 -0.6660  1.0754 -1.5664
 9088SOL     OW38899   0.656   0.444   7.999  0.2024  0.2890  0.1378
 9088SOL    HW138900   0.725   0.448   8.065  1.0158 -0.2761 -0.6721
 9088SOL    HW238901   0.670   0.524   7.949 -0.3386  1.5058  1.9580
 9089SOL     OW38902   2.385   2.945   5.081 -0.2495  0.2045 -1.1741
 9089SOL    HW138903   2.451   2.901   5.028  0.7446 -0.4890  0.6301
 9089SOL    HW238904   2.321   2.960   5.011 -0.3117  0.1305 -1.1326
 9090SOL     OW38905   2.958   4.373   2.403 -0.3623 -0.2768 -0.0161
 9090SOL    HW138906   2.972   4.279   2.393  0.0209 -0.3918  1.6598
 9090SOL    HW238907   3.047   4.406   2.388 -0.2540 -0.0786  1.1037
 9091SOL     OW38908   1.228   2.999   4.982 -0.1966 -0.3029 -0.2227
 9091SOL    HW138909   1.158   2.938   4.960 -0.6680 -0.1519  0.8257
 9091SOL    HW238910   1.306   2.975   4.933  0.2905 -0.6564  0.7176
 9092SOL     OW38911   0.799   4.717   2.881 -0.4957 -0.0454 -0.2485
 9092SOL    HW138912   0.851   0.010   2.957 -0.4620 -0.9322  0.0405
 9092SOL    HW238913   0.774   4.628   2.905 -0.9321  0.1997  0.2136
 9093SOL     OW38914   2.229   1.019   7.850 -0.2756  0.5108 -0.2628
 9093SOL    HW138915   2.324   1.011   7.849 -0.3818 -0.8407 -0.0527
 9093SOL    HW238916   2.211   1.039   7.942 -1.6465 -0.1151 -0.3874
 9094SOL     OW38917   2.015   0.278  10.711 -0.1458  0.1622  0.2592
 9094SOL    HW138918   2.002   0.328  10.631  1.4294 -2.6349 -1.7464
 9094SOL    HW238919   2.100   0.303  10.747 -0.5499  2.4924 -0.3805
 9095SOL     OW38920   2.395   0.212   3.648  0.0249  0.1540 -0.4715
 9095SOL    HW138921   2.380   0.291   3.596 -0.4696  0.9270  0.8607
 9095SOL    HW238922   2.460   0.164   3.597 -0.2298 -1.2599  0.5382
 9096SOL     OW38923   3.307   4.562  11.091 -0.3386 -0.1573 -0.1957
 9096SOL    HW138924   3.229   4.616  11.107 -1.0070 -1.5533  1.1877
 9096SOL    HW238925   3.293   4.491  11.154 -2.2971 -0.7269 -1.3009
 9097SOL     OW38926   1.870   3.747   7.209 -0.5460 -0.2101 -0.8190
 9097SOL    HW138927   1.839   3.764   7.298 -0.0796  1.0582 -0.9063
 9097SOL    HW238928   1.808   3.791   7.151 -0.3697  3.4849  1.7862
 9098SOL     OW38929   3.712   3.885   5.509  0.2635 -0.7813  0.3765
 9098SOL    HW138930   3.642   3.879   5.445  1.4651  3.3413 -1.3468
 9098SOL    HW238931   3.683   3.836   5.586  0.1177  1.9111  2.0462
 9099SOL     OW38932   3.633   2.770   2.128 -0.6047  0.5079  0.0305
 9099SOL    HW138933   3.647   2.688   2.080  1.3411  0.3863  0.8225
 9099SOL    HW238934   3.608   2.730   2.211  0.0507 -1.2473 -0.6125
 9100SOL     OW38935   1.136   4.213   3.084  0.2168  0.0149 -0.2478
 9100SOL    HW138936   1.184   4.165   3.016  1.5481  2.9594 -1.3687
 9100SOL    HW238937   1.049   4.177   3.069 -0.1498  1.2114 -0.9659
 9101SOL     OW38938   1.633   2.613   9.448 -0.9489 -0.0090 -0.4999
 9101SOL    HW138939   1.620   2.523   9.418 -2.1738 -0.5784  1.7996
 9101SOL    HW238940   1.604   2.671   9.377  2.5713  1.0728 -1.0624
 9102SOL     OW38941   0.550   1.650   3.889  0.6408  0.4158  0.4580
 9102SOL    HW138942   0.579   1.641   3.798  0.0361  1.5675  0.1449
 9102SOL    HW238943   0.585   1.570   3.929 -1.8625 -1.6682 -1.5349
 9103SOL     OW38944   2.030   0.529  15.644 -0.3604  0.2606  0.1386
 9103SOL    HW138945   2.008   0.560  15.732 -0.4281 -0.6400  0.4383
 9103SOL    HW238946   2.097   0.463  15.661 -0.5889  0.2908  1.1220
 9104SOL     OW38947   3.840   4.637   0.220  0.0318 -0.4707 -0.0971
 9104SOL    HW138948   3.804   4.633   0.308 -0.2413 -2.2674 -0.2999
 9104SOL    HW238949   3.855   4.732   0.217  0.8910 -0.5305  2.8386
 9105SOL     OW38950   3.857   0.532   3.941  0.0164  0.1931  0.6887
 9105SOL    HW138951   3.783   0.486   3.981  0.2550 -0.3883  0.4679
 9105SOL    HW238952   3.813   0.613   3.916 -0.8772  0.0931  1.9372
 9106SOL     OW38953   1.512   3.833   5.307 -0.6088  0.1576  0.1114
 9106SOL    HW138954   1.565   3.870   5.236  0.1500  0.0015  0.5959
 9106SOL    HW238955   1.512   3.895   5.380  1.7594  2.0879 -1.5068
 9107SOL     OW38956   2.844   1.911   2.918  0.6060 -0.1787  0.3036
 9107SOL    HW138957   2.763   1.943   2.956 -1.1025 -0.7344 -2.8925
 9107SOL    HW238958   2.813   1.853   2.849  0.7650  0.8084 -0.5805
 9108SOL     OW38959   3.492   2.215   6.816 -0.1887  0.2586  0.3672
 9108SOL    HW138960   3.549   2.189   6.744 -0.4157  3.4833 -0.9921
 9108SOL    HW238961   3.551   2.272   6.866  2.2880 -0.6427 -1.5074
 9109SOL     OW38962   0.108   2.791   3.184 -0.3811  0.2204 -0.4454
 9109SOL    HW138963   0.203   2.803   3.177 -0.2498  0.0718  1.0827
 9109SOL    HW238964   0.090   2.822   3.273  0.0713 -0.0510 -0.2617
 9110SOL     OW38965   3.498   0.485   1.988 -0.5595  0.6629 -0.2625
 9110SOL    HW138966   3.508   0.455   1.898 -0.5926 -0.3275  0.0659
 9110SOL    HW238967   3.533   0.574   1.982 -1.9956  1.1795 -0.8033
 9111SOL     OW38968   1.746   2.776   7.271 -0.7256 -0.1077 -0.0791
 9111SOL    HW138969   1.774   2.864   7.293  1.4297 -0.8810  0.2496
 9111SOL    HW238970   1.817   2.718   7.298 -0.0835  0.1052 -1.2767
 9112SOL     OW38971   1.967   0.745   0.944  0.0663 -0.4125 -0.1830
 9112SOL    HW138972   1.915   0.732   0.865  0.3450 -0.7381 -0.3161
 9112SOL    HW238973   2.052   0.732   0.902 -1.3955 -1.7855 -2.7609
 9113SOL     OW38974   3.354   3.598   4.942  0.0242  0.0202 -0.3330
 9113SOL    HW138975   3.361   3.503   4.933  0.9477 -0.0032  0.6280
 9113SOL    HW238976   3.447   3.617   4.942 -0.0493  0.3722  0.2838
 9114SOL     OW38977   4.336   0.740   3.491 -0.0710 -0.8186 -0.2387
 9114SOL    HW138978   4.278   0.670   3.520  1.3402 -2.2482 -0.8741
 9114SOL    HW238979   4.402   0.699   3.436 -1.0303  0.2736 -2.2139
 9115SOL     OW38980   3.625   0.866  15.063  0.3143 -0.1860  0.4093
 9115SOL    HW138981   3.716   0.885  15.043  1.3104 -1.2589  3.8450
 9115SOL    HW238982   3.633   0.870  15.158  0.5617 -1.6392  0.4483
 9116SOL     OW38983   0.450   2.796   9.490  0.2763 -0.2124  0.3345
 9116SOL    HW138984   0.410   2.749   9.564 -0.2339 -0.6551 -0.2244
 9116SOL    HW238985   0.476   2.872   9.543 -2.9441  1.5718 -0.6680
 9117SOL     OW38986   1.882   4.075   7.188  0.2877  0.1658  0.6821
 9117SOL    HW138987   1.844   3.998   7.144 -1.6297  2.1811 -1.1819
 9117SOL    HW238988   1.802   4.122   7.210 -0.3504  0.2158 -1.7621
 9118SOL     OW38989   2.490   4.106   5.066 -0.0750 -0.2713  0.2683
 9118SOL    HW138990   2.509   4.015   5.045  1.2341 -0.1762  1.0349
 9118SOL    HW238991   2.573   4.144   5.037 -0.5873 -0.3286 -1.2606
 9119SOL     OW38992   1.558   2.378   6.884 -0.4748 -0.7190  0.2901
 9119SOL    HW138993   1.560   2.442   6.956  1.5112  1.2990 -1.5333
 9119SOL    HW238994   1.478   2.330   6.902 -2.4312  2.0202 -1.1787
 9120SOL     OW38995   2.897   3.319   0.859  0.2048 -0.2620 -0.1454
 9120SOL    HW138996   2.945   3.368   0.792 -2.7437  0.3419 -1.8260
 9120SOL    HW238997   2.966   3.308   0.925  0.3174 -0.7571 -0.3475
 9121SOL     OW38998   0.481   0.400   0.801 -0.4506 -0.1894 -0.2486
 9121SOL    HW138999   0.451   0.420   0.712  1.1048 -1.5438 -1.0880
 9121SOL    HW239000   0.402   0.413   0.853 -1.4155  2.3670 -2.4072
 9122SOL     OW39001   3.933   1.556   3.398 -0.4715 -0.2416  0.9560
 9122SOL    HW139002   4.013   1.593   3.436 -0.8147  0.0662  1.3774
 9122SOL    HW239003   3.966   1.477   3.356  0.8437  0.1542  1.2371
 9123SOL     OW39004   4.262   3.067   8.913  0.0761 -0.5951  0.0949
 9123SOL    HW139005   4.341   3.037   8.958 -0.3551 -1.1624  0.4815
 9123SOL    HW239006   4.292   3.084   8.824 -0.3701 -0.5604 -0.0476
 9124SOL     OW39007   2.725   0.388   0.002  0.0894 -0.0697 -0.0985
 9124SOL    HW139008   2.759   0.461   0.054 -1.8272  1.0187 -0.3926
 9124SOL    HW239009   2.678   0.433  17.668  1.6417  2.4463  0.4778
 9125SOL     OW39010   2.827   4.534  10.020  0.0503  0.5655 -0.3343
 9125SOL    HW139011   2.732   4.545  10.032  0.0380 -0.6757  0.7293
 9125SOL    HW239012   2.864   4.571  10.101 -0.8681 -0.1634  0.4227
 9126SOL     OW39013   0.772   2.246  17.534 -0.1413  0.4036  0.5686
 9126SOL    HW139014   0.843   2.191  17.568 -0.5317 -0.1490  0.4940
 9126SOL    HW239015   0.778   2.227  17.440 -1.8343 -0.1683  0.5863
 9127SOL     OW39016   3.435   4.149  16.322 -0.2848 -0.0988 -0.1316
 9127SOL    HW139017   3.513   4.148  16.266 -1.6871 -1.0231 -2.0389
 9127SOL    HW239018   3.476   4.079  16.373 -2.2719 -1.8104 -0.8970
 9128SOL     OW39019   4.325   3.441   3.309 -0.0159 -0.0734 -0.0241
 9128SOL    HW139020   4.295   3.390   3.384  0.0204  1.2450  0.8799
 9128SOL    HW239021   4.247   3.469   3.261  1.2889  0.6357 -1.7392
 9129SOL     OW39022   0.446   2.005   1.580 -0.2084 -0.0331  0.1913
 9129SOL    HW139023   0.449   2.008   1.675 -2.0694 -3.3563  0.3381
 9129SOL    HW239024   0.369   2.055   1.554  0.4549  1.8580  1.8491
 9130SOL     OW39025   4.688   2.846  11.086  0.1304  0.3243  0.0200
 9130SOL    HW139026   4.670   2.932  11.048  1.3444  1.5551  2.2885
 9130SOL    HW239027   4.606   2.802  11.061  0.9485  0.5023 -2.9240
 9131SOL     OW39028   4.387   1.702   9.018  0.5060  1.3261 -0.0345
 9131SOL    HW139029   4.417   1.751   8.942  0.2217  0.5838 -0.6269
 9131SOL    HW239030   4.385   1.615   8.977 -1.3168  1.4424 -0.2103
 9132SOL     OW39031   3.151   4.543   4.725 -0.4008  0.5241 -0.0578
 9132SOL    HW139032   3.180   4.579   4.809  0.2333 -2.4949  1.0481
 9132SOL    HW239033   3.212   4.580   4.662 -0.0107  0.9282  0.5593
 9133SOL     OW39034   1.444   3.452   7.227 -0.6555  0.2795  0.4974
 9133SOL    HW139035   1.447   3.361   7.197 -1.4979  0.7884 -1.1278
 9133SOL    HW239036   1.513   3.486   7.170 -0.3854 -0.0064  0.6534
 9134SOL     OW39037   4.209   1.332   0.358  0.2356 -0.0281 -0.6060
 9134SOL    HW139038   4.139   1.365   0.303 -0.5134 -2.2027 -0.9892
 9134SOL    HW239039   4.280   1.330   0.294  1.3841 -1.8417  0.7151
 9135SOL     OW39040   2.337   3.681   5.923 -0.0187 -0.4381  0.1774
 9135SOL    HW139041   2.395   3.690   5.999 -0.2225 -0.0929  0.2917
 9135SOL    HW239042   2.368   3.752   5.866  2.5598 -1.2800  0.5309
 9136SOL     OW39043   3.625   0.669  17.592  0.9314 -0.2773 -0.2775
 9136SOL    HW139044   3.669   0.685  17.508  1.5804 -1.2056 -0.1126
 9136SOL    HW239045   3.649   0.743  17.648  0.3760 -0.9413  0.8253
 9137SOL     OW39046   0.294   2.649  10.336 -0.2886  0.0170  0.0771
 9137SOL    HW139047   0.374   2.598  10.350  0.0059 -0.0984 -1.9847
 9137SOL    HW239048   0.301   2.711  10.408  0.8091  0.1639 -0.1621
 9138SOL     OW39049   2.950   4.613  10.253 -0.0647  0.1336 -0.5756
 9138SOL    HW139050   2.917   4.687  10.305  2.0306  1.3628 -0.9783
 9138SOL    HW239051   3.031   4.599  10.303 -0.3209 -0.9202 -0.4662
 9139SOL     OW39052   0.991   1.482  16.684 -0.1837 -0.2469  0.1417
 9139SOL    HW139053   0.995   1.518  16.773  3.3136  0.1483 -0.1715
 9139SOL    HW239054   0.984   1.388  16.702 -1.1322 -0.4136 -1.1746
 9140SOL     OW39055   0.864   2.418   8.784  0.1861 -0.2493 -0.0169
 9140SOL    HW139056   0.850   2.438   8.691  1.0931 -2.6526 -0.6854
 9140SOL    HW239057   0.873   2.505   8.824 -0.3587 -0.9633  1.6301
 9141SOL     OW39058   1.900   3.412  10.066  0.1491 -0.7584 -0.1674
 9141SOL    HW139059   1.876   3.440  10.155 -1.5186  2.7748 -1.7301
 9141SOL    HW239060   1.829   3.445  10.010  1.1758 -0.5992 -1.3676
 9142SOL     OW39061   0.097   2.102  14.348 -0.1222 -0.2250  0.3990
 9142SOL    HW139062   0.109   2.047  14.270 -1.2316 -1.3163  0.9998
 9142SOL    HW239063   0.039   2.039  14.388 -2.6029  1.3900 -0.6408
 9143SOL     OW39064   1.242   1.303   4.903  0.0652 -0.1002  0.6758
 9143SOL    HW139065   1.217   1.389   4.937 -1.1620  0.5094 -1.7861
 9143SOL    HW239066   1.325   1.324   4.861 -0.1414 -0.4259  0.1065
 9144SOL     OW39067   0.687   1.062   6.862  0.0563 -0.0309 -0.6209
 9144SOL    HW139068   0.660   1.040   6.951 -1.4749  0.2494 -1.0155
 9144SOL    HW239069   0.740   1.140   6.877  0.2241 -0.0393 -1.1589
 9145SOL     OW39070   0.275   3.464   7.121 -0.4805  0.2477 -0.0981
 9145SOL    HW139071   0.366   3.462   7.151  0.1845  2.3143 -1.9768
 9145SOL    HW239072   0.290   3.387   7.067 -0.2549 -0.0920  0.4435
 9146SOL     OW39073   1.757   3.075   5.154  0.2578  0.3628  0.2549
 9146SOL    HW139074   1.762   3.012   5.082  1.4777 -2.8928  3.1800
 9146SOL    HW239075   1.680   3.047   5.205 -0.9921  2.1936 -0.6418
 9147SOL     OW39076   4.092   0.126   4.340  0.1939  0.0260 -0.0642
 9147SOL    HW139077   4.105   0.072   4.262 -1.6773 -0.8945  0.2651
 9147SOL    HW239078   4.085   0.204   4.286  1.0183  0.4499  0.4373
 9148SOL     OW39079   2.693   4.342   8.080  0.8053  0.2583 -0.8175
 9148SOL    HW139080   2.734   4.339   8.166  2.5571  2.2030 -1.5711
 9148SOL    HW239081   2.599   4.335   8.098  0.6434 -1.5143 -2.3073
 9149SOL     OW39082   0.039   1.325   3.680  0.3167  0.0530  0.4066
 9149SOL    HW139083   4.684   1.293   3.689 -0.6488  2.1468 -1.8795
 9149SOL    HW239084   0.091   1.246   3.664  1.2369  0.5774  0.8190
 9150SOL     OW39085   2.067   0.723   6.999 -0.2075  1.2193 -0.3672
 9150SOL    HW139086   2.099   0.721   7.089 -2.3549  0.1399  0.3648
 9150SOL    HW239087   2.035   0.813   7.006  4.5722  2.9035  0.2556
 9151SOL     OW39088   2.250   0.534  17.370  0.0485  1.0831  0.0059
 9151SOL    HW139089   2.274   0.622  17.398  1.3291  1.1401 -1.2798
 9151SOL    HW239090   2.249   0.494  17.457  2.0708  1.5062  0.2180
 9152SOL     OW39091   0.992   3.538   1.597  0.0476  0.5281 -0.5621
 9152SOL    HW139092   0.997   3.556   1.691  0.5612 -1.6340 -0.1775
 9152SOL    HW239093   1.025   3.450   1.576  1.6603  0.8996  0.4407
 9153SOL     OW39094   0.089   3.128   6.258  0.2083  0.5644 -0.2647
 9153SOL    HW139095   0.105   3.077   6.337  0.3469 -1.2663 -1.4700
 9153SOL    HW239096   0.121   3.216   6.282  0.8640  0.0169  0.8445
 9154SOL     OW39097   3.735   1.440   8.807 -0.0764  0.1077 -0.0449
 9154SOL    HW139098   3.651   1.478   8.834 -0.4797 -1.0157  0.2514
 9154SOL    HW239099   3.796   1.466   8.876 -1.9561  0.7262  1.3974
 9155SOL     OW39100   3.350   0.449   4.043  0.3250 -0.2328 -0.3779
 9155SOL    HW139101   3.346   0.413   3.954 -1.2953  2.5876 -1.4532
 9155SOL    HW239102   3.321   0.370   4.088 -0.2349 -0.0581 -0.4297
 9156SOL     OW39103   4.286   0.617   2.040 -0.0055 -0.3933  0.0979
 9156SOL    HW139104   4.347   0.680   2.001  0.3525 -1.2926 -0.7963
 9156SOL    HW239105   4.213   0.617   1.978  0.6673 -0.6809 -0.7105
 9157SOL     OW39106   2.016   1.015   6.567  0.1948 -0.3938  0.1501
 9157SOL    HW139107   1.971   1.032   6.650  0.6356 -0.0799  0.3291
 9157SOL    HW239108   2.045   0.925   6.583  0.2126 -0.6588 -1.3830
 9158SOL     OW39109   4.264   1.009   0.572  0.7734 -0.5030 -0.0723
 9158SOL    HW139110   4.217   1.091   0.590  0.7698 -1.1571  2.9245
 9158SOL    HW239111   4.350   1.046   0.554  0.7930 -0.1598  0.7167
 9159SOL     OW39112   1.296   0.498   6.874  0.0680  0.4175  0.0840
 9159SOL    HW139113   1.386   0.512   6.847  0.1468 -1.0107 -0.4253
 9159SOL    HW239114   1.249   0.580   6.862  0.2179  0.3552 -0.8953
 9160SOL     OW39115   0.303   2.238  12.381 -0.5183 -0.5479 -0.1623
 9160SOL    HW139116   0.310   2.211  12.290  0.7054  0.5821 -0.4048
 9160SOL    HW239117   0.389   2.271  12.409 -0.3796 -0.0656 -1.1816
 9161SOL     OW39118   2.678   3.612   7.635  0.2070 -0.6834  0.3703
 9161SOL    HW139119   2.718   3.587   7.552 -1.0575 -0.3013 -0.3540
 9161SOL    HW239120   2.693   3.534   7.688 -1.4402 -0.6848  0.8547
 9162SOL     OW39121   2.598   3.716   9.560  0.1013 -0.6350  0.1870
 9162SOL    HW139122   2.513   3.723   9.604 -0.4146  0.0053 -0.8949
 9162SOL    HW239123   2.646   3.795   9.582  2.5983 -1.9317 -0.5541
 9163SOL     OW39124   0.629   1.129   4.636 -0.3141  0.0648  0.2081
 9163SOL    HW139125   0.641   1.171   4.551  0.6080  0.5411  0.5715
 9163SOL    HW239126   0.586   1.196   4.689 -0.0714  0.6772 -0.3734
 9164SOL     OW39127   2.144   2.338   3.618 -0.4273 -0.0697 -0.1103
 9164SOL    HW139128   2.182   2.288   3.690  0.2873  2.2293  1.0927
 9164SOL    HW239129   2.207   2.326   3.546  1.3792  1.8105  1.1668
 9165SOL     OW39130   2.504   2.154   6.473 -0.3742  0.0799 -0.6489
 9165SOL    HW139131   2.554   2.163   6.392  0.0696 -1.2597 -0.5271
 9165SOL    HW239132   2.423   2.204   6.467 -0.5579  0.0496  1.6211
 9166SOL     OW39133   2.600   1.256  16.261 -0.9690 -0.1389 -0.6411
 9166SOL    HW139134   2.577   1.198  16.333  1.2750 -0.0263  0.1745
 9166SOL    HW239135   2.537   1.233  16.193 -2.8797  2.0824  0.3798
 9167SOL     OW39136   0.150   4.404   5.149 -0.0186  0.1284  0.3365
 9167SOL    HW139137   0.215   4.394   5.080  0.3414  1.5878  0.4750
 9167SOL    HW239138   0.070   4.443   5.113 -0.7464 -0.7142  1.0135
 9168SOL     OW39139   0.448   1.511  11.616 -0.5457 -0.4262  0.0851
 9168SOL    HW139140   0.434   1.596  11.572  0.1586 -1.2968 -1.8390
 9168SOL    HW239141   0.527   1.537  11.663 -1.1200  0.6438  0.4545
 9169SOL     OW39142   2.160   1.144   2.409  0.0637  0.1695 -0.3590
 9169SOL    HW139143   2.129   1.116   2.323  1.5552 -1.5904 -0.3160
 9169SOL    HW239144   2.177   1.235   2.384  0.3912  0.4003  0.6868
 9170SOL     OW39145   1.585   2.317   8.946 -0.3246 -0.3115 -0.0335
 9170SOL    HW139146   1.496   2.293   8.918  0.5086 -2.0260 -1.1898
 9170SOL    HW239147   1.638   2.268   8.884  0.5945  0.1904  0.3512
 9171SOL     OW39148   2.407   2.089   3.341  0.4091  0.4364  0.5011
 9171SOL    HW139149   2.326   2.067   3.295  1.4112 -2.1279 -0.0321
 9171SOL    HW239150   2.473   2.081   3.273 -0.9228  0.9152 -0.8505
 9172SOL     OW39151   2.470   4.073  15.487  0.2021 -0.0198  0.1855
 9172SOL    HW139152   2.489   4.077  15.393 -0.7753  1.2666  0.0415
 9172SOL    HW239153   2.508   4.151  15.528  1.1325 -1.0247  1.2199
 9173SOL     OW39154   0.232   2.367   5.722  0.2950 -0.1583 -0.1126
 9173SOL    HW139155   0.161   2.432   5.714  0.4610  0.0595  0.1701
 9173SOL    HW239156   0.166   2.298   5.712 -1.8618  1.6686  1.3490
 9174SOL     OW39157   4.511   1.262   1.045  0.6107 -0.4142  0.1413
 9174SOL    HW139158   4.596   1.306   1.039  0.2399  0.3366  0.3507
 9174SOL    HW239159   4.517   1.228   0.956 -0.2106  0.5199 -0.2698
 9175SOL     OW39160   0.760   3.632  15.257  0.1739  0.0541  0.2080
 9175SOL    HW139161   0.803   3.549  15.233  1.8417  0.4589  1.7733
 9175SOL    HW239162   0.830   3.684  15.296 -0.6495 -0.6698  2.7194
 9176SOL     OW39163   1.486   1.215  12.342 -0.4187  0.4566  0.2874
 9176SOL    HW139164   1.427   1.196  12.270  2.7524 -0.3678 -2.0786
 9176SOL    HW239165   1.538   1.135  12.347  0.0457  0.7400 -0.0081
 9177SOL     OW39166   3.530   2.793  17.029 -0.7148 -0.2286  0.1695
 9177SOL    HW139167   3.577   2.768  16.950 -0.9286 -4.1545  1.2375
 9177SOL    HW239168   3.461   2.726  17.035  0.5891 -1.3794  2.3084
 9178SOL     OW39169   1.209   3.647   7.087  0.0863 -0.8507 -0.2123
 9178SOL    HW139170   1.229   3.704   7.161 -0.7440 -1.0822  0.1908
 9178SOL    HW239171   1.207   3.565   7.137  0.2662 -1.2601 -0.8674
 9179SOL     OW39172   4.531   2.681   4.184  0.2572  0.3961 -0.0632
 9179SOL    HW139173   4.569   2.597   4.211 -2.4880 -0.9550 -0.3128
 9179SOL    HW239174   4.459   2.688   4.247 -0.3797 -2.0883 -0.4881
 9180SOL     OW39175   2.128   0.534  15.027  0.4519  0.4960  0.6383
 9180SOL    HW139176   2.104   0.442  15.038  1.4286 -0.0015 -1.4902
 9180SOL    HW239177   2.138   0.532  14.932 -0.8150  0.0768  0.5131
 9181SOL     OW39178   1.326   4.258   9.589 -0.2377 -0.0550 -0.0694
 9181SOL    HW139179   1.361   4.240   9.676  2.3134  0.1066 -1.0668
 9181SOL    HW239180   1.394   4.222   9.532  0.8646  0.7157  0.7579
 9182SOL     OW39181   0.429   4.305   4.689  0.1497 -0.3918 -0.2169
 9182SOL    HW139182   0.351   4.268   4.648  1.0762 -1.6996 -0.7987
 9182SOL    HW239183   0.423   4.390   4.644 -0.0594 -0.0165  0.5190
 9183SOL     OW39184   2.506   0.092  11.468 -0.0559  0.3332  0.3766
 9183SOL    HW139185   2.431   0.038  11.492  0.4383 -0.5533 -0.0859
 9183SOL    HW239186   2.475   0.177  11.500  0.2874  0.6018 -0.0026
 9184SOL     OW39187   1.026   2.802  15.936  0.3988 -0.2331  0.0005
 9184SOL    HW139188   0.963   2.838  15.873 -0.1808 -0.5589  0.4017
 9184SOL    HW239189   0.969   2.751  15.992  0.9204 -1.6856 -0.7746
 9185SOL     OW39190   0.225   3.566   2.722 -0.4142 -0.3017 -0.0027
 9185SOL    HW139191   0.173   3.578   2.801  0.2103  1.0410  0.1901
 9185SOL    HW239192   0.272   3.646   2.702  0.2534 -1.2092 -2.0815
 9186SOL     OW39193   0.360   3.247  15.634 -0.0804 -0.6602  0.0983
 9186SOL    HW139194   0.426   3.179  15.646  1.4762  0.9076  0.5434
 9186SOL    HW239195   0.371   3.257  15.539  0.6608 -1.0129  0.1465
 9187SOL     OW39196   2.514   0.482   1.348 -0.5096 -0.1570  0.6638
 9187SOL    HW139197   2.425   0.498   1.316  0.1009  2.2518  0.1463
 9187SOL    HW239198   2.501   0.532   1.429 -0.6944 -0.9439  1.1222
 9188SOL     OW39199   4.247   2.200   9.230  0.2001  0.1422  0.2645
 9188SOL    HW139200   4.324   2.212   9.174 -1.3357 -0.4681 -2.0100
 9188SOL    HW239201   4.237   2.292   9.252 -0.0458 -0.0700  1.0451
 9189SOL     OW39202   2.624   3.772   4.703  0.2779 -0.2524 -0.2382
 9189SOL    HW139203   2.560   3.701   4.710 -0.7536  0.9471  2.2984
 9189SOL    HW239204   2.694   3.708   4.695 -1.0071 -1.5366 -1.3405
 9190SOL     OW39205   1.883   3.438   7.627 -0.1785 -0.3589  0.0893
 9190SOL    HW139206   1.951   3.462   7.565  1.2233 -2.1527  0.9233
 9190SOL    HW239207   1.925   3.374   7.684 -0.4262 -1.7150 -1.2441
 9191SOL     OW39208   3.123   0.985   4.590  0.3748  0.0514  0.3483
 9191SOL    HW139209   3.129   1.034   4.508 -3.3163 -1.9133 -1.1421
 9191SOL    HW239210   3.030   1.001   4.606  0.5070 -0.7857  1.9246
 9192SOL     OW39211   3.863   1.038  17.391  0.4585 -0.1043  0.2419
 9192SOL    HW139212   3.886   1.089  17.313 -2.0266  1.0404  0.2525
 9192SOL    HW239213   3.943   1.000  17.428 -0.0420  0.2911  1.7206
 9193SOL     OW39214   2.573   0.948   9.317 -0.3272  0.4814 -0.5308
 9193SOL    HW139215   2.548   0.923   9.228 -3.8598  0.4892  0.4433
 9193SOL    HW239216   2.663   0.980   9.307  0.3239 -0.4730  2.2574
 9194SOL     OW39217   0.831   2.622  13.607  0.7155 -0.1101 -0.6939
 9194SOL    HW139218   0.859   2.603  13.697 -0.5720 -1.2308 -0.5244
 9194SOL    HW239219   0.910   2.598  13.559  1.5145  1.1680 -0.0125
 9195SOL     OW39220   0.919   4.733   7.132 -0.2953  0.0567  0.6995
 9195SOL    HW139221   0.969   0.043   7.201  0.7478  1.1785 -0.7840
 9195SOL    HW239222   0.892   4.659   7.186  2.2387 -1.9467 -0.7623
 9196SOL     OW39223   2.296   1.721   4.667  0.3968  0.1190  0.4037
 9196SOL    HW139224   2.356   1.648   4.678 -2.0211 -2.0267 -0.7169
 9196SOL    HW239225   2.226   1.683   4.614 -0.1928  0.0651  1.2348
 9197SOL     OW39226   1.834   1.279   7.102 -0.6857  0.3961 -0.8602
 9197SOL    HW139227   1.855   1.296   7.010 -0.6978 -0.3721 -1.0051
 9197SOL    HW239228   1.887   1.344   7.147  2.1768 -1.8842 -0.9388
 9198SOL     OW39229   2.652   4.017  15.733 -0.0930 -0.2126 -0.5981
 9198SOL    HW139230   2.631   4.098  15.688 -1.3104 -0.3988 -0.3809
 9198SOL    HW239231   2.600   4.025  15.813  1.5035 -2.3032  0.6700
 9199SOL     OW39232   3.285   1.634   4.296  0.2261  0.4822  0.6957
 9199SOL    HW139233   3.210   1.642   4.355 -0.3253 -1.8729  0.2851
 9199SOL    HW239234   3.360   1.601   4.345 -0.2229 -1.7839 -0.1424
 9200SOL     OW39235   2.699   2.439   8.654 -0.3566 -0.2787  0.2582
 9200SOL    HW139236   2.641   2.382   8.705 -0.9966 -1.4423 -1.7776
 9200SOL    HW239237   2.762   2.477   8.715 -1.3401  3.3238 -0.9992
 9201SOL     OW39238   1.553   3.859  16.264  0.2352 -0.7098 -0.1509
 9201SOL    HW139239   1.507   3.929  16.218 -0.9974 -0.9636  0.6920
 9201SOL    HW239240   1.640   3.899  16.273 -1.2272  2.4551 -0.3163
 9202SOL     OW39241   0.668   2.989   2.070  0.1003 -0.0329 -0.3385
 9202SOL    HW139242   0.703   2.987   1.980  2.7297 -1.7610  0.7317
 9202SOL    HW239243   0.721   2.922   2.113  1.5061  1.4940  0.3070
 9203SOL     OW39244   0.344   3.352   0.206 -0.3061 -0.1582  0.8751
 9203SOL    HW139245   0.307   3.269   0.235 -0.7092 -1.1503 -2.4429
 9203SOL    HW239246   0.275   3.385   0.149 -0.3418  0.4450  1.2693
 9204SOL     OW39247   1.421   0.016   9.659  0.8166 -0.0973 -0.1416
 9204SOL    HW139248   1.372   4.673   9.687  2.3949 -1.5947 -1.4951
 9204SOL    HW239249   1.408   0.019   9.564  1.5198 -0.7710 -0.2585
 9205SOL     OW39250   1.206   0.061  17.198  0.2543  0.5450  0.2492
 9205SOL    HW139251   1.206   0.102  17.111  1.1358  0.0044 -0.0020
 9205SOL    HW239252   1.188   4.703  17.178  1.1917  0.8295 -1.9776
 9206SOL     OW39253   2.418   1.524   1.280 -0.0013  0.9080 -0.3331
 9206SOL    HW139254   2.498   1.577   1.276 -0.0046  0.9841  0.6703
 9206SOL    HW239255   2.348   1.561   1.226 -2.5406  2.0357  3.7489
 9207SOL     OW39256   4.582   2.910   6.600  0.7652  0.8237  0.3669
 9207SOL    HW139257   4.599   2.982   6.661  1.4024  0.3029  0.8051
 9207SOL    HW239258   4.571   2.837   6.660 -1.1394  0.1329 -0.8219
 9208SOL     OW39259   3.065   3.971   8.957  0.1168 -0.2204  0.3703
 9208SOL    HW139260   3.132   4.006   8.899 -1.2175  0.0069 -1.0208
 9208SOL    HW239261   2.988   4.009   8.915  0.0784 -2.8534 -1.8926
 9209SOL     OW39262   1.332   3.693   4.905  0.4659 -0.1670  0.2630
 9209SOL    HW139263   1.265   3.693   4.974 -0.9596  1.1742 -1.1166
 9209SOL    HW239264   1.311   3.621   4.845 -1.5253  1.4685 -1.0152
 9210SOL     OW39265   0.394   2.939   4.390 -0.2806  0.2083  0.1146
 9210SOL    HW139266   0.455   2.907   4.324 -0.1789  0.4002  0.1166
 9210SOL    HW239267   0.424   3.030   4.396  1.1514 -0.2864  0.4566
 9211SOL     OW39268   0.676   0.475   5.224 -0.5085  0.0725 -0.7132
 9211SOL    HW139269   0.605   0.515   5.173  0.5976  1.1438 -1.4149
 9211SOL    HW239270   0.624   0.431   5.291  0.7118 -0.4591 -0.1183
 9212SOL     OW39271   2.668   0.851  11.835 -0.0539 -0.2760 -0.0160
 9212SOL    HW139272   2.740   0.789  11.825 -0.2347 -0.7081  1.3602
 9212SOL    HW239273   2.700   0.909  11.766  2.0106 -1.1324  0.2520
 9213SOL     OW39274   4.472   1.481   4.009  0.2185 -0.2166  0.6655
 9213SOL    HW139275   4.424   1.509   3.931  2.2684 -2.8379 -1.5166
 9213SOL    HW239276   4.558   1.492   3.969 -0.0600  2.3842  0.7254
 9214SOL     OW39277   1.120   4.141   8.659 -0.4173 -0.2323  0.2413
 9214SOL    HW139278   1.026   4.127   8.670 -0.4774  0.3940  0.5518
 9214SOL    HW239279   1.151   4.099   8.740 -0.1316 -0.5842 -0.0502
 9215SOL     OW39280   1.964   4.195  16.339 -0.0883 -0.6119  0.6260
 9215SOL    HW139281   2.000   4.169  16.254  1.0517  0.3436  0.8045
 9215SOL    HW239282   1.883   4.240  16.316 -0.2873 -0.4570  1.6084
 9216SOL     OW39283   3.793   1.013   2.604  0.1328  0.0922  0.2555
 9216SOL    HW139284   3.771   1.006   2.511 -0.7011 -1.2691  0.5601
 9216SOL    HW239285   3.735   1.087   2.620  2.9244  2.1670  0.7933
 9217SOL     OW39286   3.348   2.026   3.938 -0.3112 -0.1434 -0.1874
 9217SOL    HW139287   3.400   1.978   3.873 -0.8251 -0.0294 -0.6742
 9217SOL    HW239288   3.318   1.957   3.997 -1.1045  1.0629  0.8145
 9218SOL     OW39289   0.037   0.115  10.959  0.3981 -0.1823  0.1601
 9218SOL    HW139290   0.073   0.204  10.968 -0.3219  0.0885  0.3778
 9218SOL    HW239291   0.004   0.123  10.869  1.8562  0.3899 -0.3276
 9219SOL     OW39292   4.086   4.325   7.605  0.3170  0.2310  0.8514
 9219SOL    HW139293   4.072   4.353   7.695 -1.4100  1.4052  0.2225
 9219SOL    HW239294   4.176   4.294   7.594 -0.0260 -1.6647  3.6696
 9220SOL     OW39295   3.282   3.997   8.042  0.4033 -0.5355 -0.0269
 9220SOL    HW139296   3.261   3.995   7.949 -1.6718  0.7287  0.4144
 9220SOL    HW239297   3.330   4.080   8.042  0.3456 -0.5022 -0.3512
 9221SOL     OW39298   2.393   1.582  12.935 -0.1788  0.0668  0.3345
 9221SOL    HW139299   2.304   1.594  12.968 -0.1627  0.3686  0.2701
 9221SOL    HW239300   2.383   1.575  12.840  0.8535 -0.6750  0.2840
 9222SOL     OW39301   0.417   0.414   7.208 -0.3013  0.3286  0.1442
 9222SOL    HW139302   0.378   0.474   7.145 -0.7436  3.1677  3.0832
 9222SOL    HW239303   0.414   0.333   7.158 -0.5301  0.6510 -0.3626
 9223SOL     OW39304   1.868   2.131   2.232  0.6969 -0.0069 -0.3847
 9223SOL    HW139305   1.779   2.139   2.267  0.7442 -2.1026  0.2421
 9223SOL    HW239306   1.889   2.046   2.270  0.5784 -0.3275 -1.0273
 9224SOL     OW39307   4.018   0.049   6.519 -0.4786  0.2286  0.1392
 9224SOL    HW139308   4.069   0.008   6.588  1.5592  2.2424 -0.1899
 9224SOL    HW239309   4.075   0.065   6.444 -1.9517  1.3302 -0.7473
 9225SOL     OW39310   0.998   4.166   2.267  0.0638  0.0601 -0.4251
 9225SOL    HW139311   1.044   4.103   2.322 -1.1096 -0.9701 -0.6087
 9225SOL    HW239312   0.945   4.212   2.331  1.9380 -0.0241  1.1859
 9226SOL     OW39313   0.357   3.785   2.370  0.2199 -0.2799  0.6198
 9226SOL    HW139314   0.440   3.741   2.387  0.3901  1.1121  3.3846
 9226SOL    HW239315   0.385   3.876   2.370  0.9422 -0.5009 -0.7671
 9227SOL     OW39316   1.086   0.514  14.941  0.8852 -0.4592 -0.3080
 9227SOL    HW139317   0.990   0.525  14.943  0.9909  0.3444  0.2862
 9227SOL    HW239318   1.087   0.420  14.958  0.5908 -0.7150 -1.6413
 9228SOL     OW39319   1.163   0.107   7.579  0.2609 -0.1645  0.4415
 9228SOL    HW139320   1.203   0.061   7.505  2.5278 -0.8791  2.1064
 9228SOL    HW239321   1.196   0.054   7.652  0.5321 -0.3750  0.1663
 9229SOL     OW39322   0.415   3.093   5.561  0.2683 -0.3429  0.4385
 9229SOL    HW139323   0.405   3.061   5.651  0.3687  1.3040  1.0469
 9229SOL    HW239324   0.363   3.031   5.511 -1.6261  3.4426 -2.3206
 9230SOL     OW39325   1.461   0.520   5.312 -0.0310  0.2838  0.1502
 9230SOL    HW139326   1.501   0.592   5.263 -1.7157 -0.4384 -2.3044
 9230SOL    HW239327   1.401   0.562   5.373 -2.3313 -2.9884  0.1034
 9231SOL     OW39328   2.751   1.765   5.265 -0.1852  0.0125 -0.5482
 9231SOL    HW139329   2.806   1.833   5.304  0.2838  0.7781 -2.5969
 9231SOL    HW239330   2.699   1.823   5.210 -1.9930 -1.2947 -0.2624
 9232SOL     OW39331   0.737   1.406   5.448  0.2034  0.1538 -0.2113
 9232SOL    HW139332   0.776   1.359   5.374  2.5921  0.1091  1.0646
 9232SOL    HW239333   0.669   1.344   5.475 -1.5538  1.4602 -1.6362
 9233SOL     OW39334   3.835   2.214  16.438  0.9054 -0.0390  0.3238
 9233SOL    HW139335   3.922   2.181  16.415  1.0168  0.9904 -0.7308
 9233SOL    HW239336   3.778   2.137  16.425  0.2650  0.7705 -1.6995
 9234SOL     OW39337   3.988   0.378   1.590  0.1120 -0.2094  0.2059
 9234SOL    HW139338   3.993   0.288   1.558  1.4600 -0.0753  0.0532
 9234SOL    HW239339   4.023   0.366   1.679  0.7856 -3.5860 -0.5389
 9235SOL     OW39340   0.345   2.151   6.901  0.0860  0.1632  0.0352
 9235SOL    HW139341   0.309   2.214   6.963 -1.5231 -1.2412  0.5153
 9235SOL    HW239342   0.311   2.074   6.946  0.3935  0.0817  0.1298
 9236SOL     OW39343   3.084   0.346  17.227  0.1866 -0.1503 -0.1525
 9236SOL    HW139344   3.041   0.271  17.270 -2.7890  0.9793 -1.1742
 9236SOL    HW239345   3.129   0.383  17.303 -1.0587  2.9107 -0.9403
 9237SOL     OW39346   4.484   2.022   2.352  0.2020  0.6494 -0.2616
 9237SOL    HW139347   4.515   1.973   2.276  0.4474  1.2947 -0.5801
 9237SOL    HW239348   4.425   2.081   2.305 -0.0453  0.4316 -0.2225
 9238SOL     OW39349   3.116   3.839   0.370  0.2218 -0.6162  0.4875
 9238SOL    HW139350   3.075   3.798   0.294 -0.0191 -0.4974  0.5525
 9238SOL    HW239351   3.187   3.890   0.333 -0.6380 -0.7884 -1.3707
 9239SOL     OW39352   0.071   3.365   4.557  0.1517  0.7034 -0.1754
 9239SOL    HW139353   0.049   3.277   4.586  1.2879  1.0666  1.8283
 9239SOL    HW239354   0.166   3.350   4.558 -0.1946 -1.2371  1.8941
 9240SOL     OW39355   3.816   3.283   6.100  1.0514 -0.1956  0.2496
 9240SOL    HW139356   3.785   3.197   6.071 -0.8456  0.1312  1.3006
 9240SOL    HW239357   3.888   3.262   6.159  0.3515 -1.5496  0.6139
 9241SOL     OW39358   2.056   0.729   3.856  0.1942  0.0084  0.3973
 9241SOL    HW139359   1.986   0.718   3.791 -1.3085  1.1009  1.8141
 9241SOL    HW239360   2.136   0.691   3.821  0.1612  1.1046 -0.8759
 9242SOL     OW39361   1.610   2.888   4.421  0.4224 -0.3582  0.4421
 9242SOL    HW139362   1.656   2.806   4.404  0.3172 -0.5888  1.2628
 9242SOL    HW239363   1.518   2.866   4.407  0.1974  0.0764  1.2210
 9243SOL     OW39364   4.487   0.774   7.344  0.3977  0.8665 -0.3100
 9243SOL    HW139365   4.540   0.703   7.383  1.8220  2.1114  0.0210
 9243SOL    HW239366   4.456   0.737   7.261  1.5825 -1.8170  0.4203
 9244SOL     OW39367   3.629   0.640  10.352  0.2475  0.4274  0.5427
 9244SOL    HW139368   3.716   0.677  10.361 -0.0531  0.7655  2.0790
 9244SOL    HW239369   3.575   0.719  10.355 -0.5811 -0.1253  0.5251
 9245SOL     OW39370   1.568   3.757   6.817 -0.4338  0.2735 -0.1607
 9245SOL    HW139371   1.573   3.775   6.723 -0.5685  0.9013 -0.0462
 9245SOL    HW239372   1.502   3.688   6.817 -0.4663  0.3093  0.6100
 9246SOL     OW39373   0.917   0.066   3.136  0.1788  0.4227  0.3152
 9246SOL    HW139374   0.884   4.715   3.164 -2.3152  0.6894 -1.7145
 9246SOL    HW239375   1.008   0.041   3.119  0.0722  0.0546  0.2877
 9247SOL     OW39376   4.666   1.808  13.931 -0.5930 -0.8151 -0.1147
 9247SOL    HW139377   4.617   1.752  13.990 -0.0530 -2.0598 -0.8508
 9247SOL    HW239378   4.602   1.827  13.863 -0.5736 -1.1480 -0.2252
 9248SOL     OW39379   4.384   2.760   2.007  0.0506  0.3311 -0.1954
 9248SOL    HW139380   4.371   2.760   2.102  0.6953 -1.6393 -0.1104
 9248SOL    HW239381   4.365   2.850   1.981  0.1707  0.8625  1.5687
 9249SOL     OW39382   3.617   4.555   7.955 -0.0551  0.5639  0.1593
 9249SOL    HW139383   3.641   4.611   7.882  1.3258 -1.9434 -1.3318
 9249SOL    HW239384   3.655   4.473   7.924 -0.5323 -0.0611  1.2223
 9250SOL     OW39385   3.688   1.337  12.476 -0.6001 -0.1177  0.5896
 9250SOL    HW139386   3.599   1.373  12.481  0.3752  2.6672 -1.8063
 9250SOL    HW239387   3.741   1.391  12.536  0.9233 -0.4624 -0.4507
 9251SOL     OW39388   1.543   2.366   6.196 -1.0090 -0.0811  0.1559
 9251SOL    HW139389   1.588   2.422   6.133 -3.2361 -0.4792 -1.7893
 9251SOL    HW239390   1.555   2.281   6.155 -2.2785 -0.1022 -0.1846
 9252SOL     OW39391   2.673   2.464   7.453 -0.2362 -0.1827 -0.2938
 9252SOL    HW139392   2.604   2.406   7.420 -0.2741  0.1411 -0.7873
 9252SOL    HW239393   2.631   2.532   7.507  2.6314  0.1046  1.5854
 9253SOL     OW39394   3.721   0.473   3.372  0.0004 -0.3242  0.2105
 9253SOL    HW139395   3.766   0.555   3.351 -0.3261 -0.3367 -0.5383
 9253SOL    HW239396   3.707   0.443   3.282  0.7446 -2.0674  0.6865
 9254SOL     OW39397   1.672   0.966   0.551  0.3813 -0.3273  0.5512
 9254SOL    HW139398   1.586   0.988   0.587  0.4519  0.9774 -0.0428
 9254SOL    HW239399   1.720   0.965   0.634  0.0508 -1.5553  0.7273
 9255SOL     OW39400   4.280   4.108   3.379  0.2121  0.5923 -0.5132
 9255SOL    HW139401   4.255   4.018   3.399  0.7604  0.6379  0.3777
 9255SOL    HW239402   4.331   4.099   3.298  0.5725 -0.9965 -0.1054
 9256SOL     OW39403   3.261   0.418   0.636 -0.0610  0.2593  0.1988
 9256SOL    HW139404   3.345   0.450   0.668  1.0695 -0.5995 -1.8878
 9256SOL    HW239405   3.292   0.339   0.591 -0.9579 -0.4818  0.8726
 9257SOL     OW39406   1.902   3.349   5.584  0.6187 -0.0453  0.0400
 9257SOL    HW139407   1.939   3.337   5.672  0.1462  0.3149  0.2883
 9257SOL    HW239408   1.961   3.288   5.540 -0.1338  0.2757 -1.4096
 9258SOL     OW39409   1.444   0.190   6.006 -0.4374  0.1347 -0.8907
 9258SOL    HW139410   1.407   0.122   5.949 -1.0986 -0.4843  0.2737
 9258SOL    HW239411   1.493   0.129   6.061 -0.6632  0.7303 -0.0206
 9259SOL     OW39412   3.744   0.182   3.733 -0.1364 -0.0878 -0.1070
 9259SOL    HW139413   3.660   0.149   3.701 -0.0776  1.9186 -2.3179
 9259SOL    HW239414   3.800   0.133   3.673  0.7984 -1.1262  1.6188
 9260SOL     OW39415   2.659   2.524   3.011 -0.1669 -0.0029  0.7398
 9260SOL    HW139416   2.668   2.436   3.047 -1.8881  0.3332  1.9614
 9260SOL    HW239417   2.599   2.564   3.073 -2.3669 -0.3228 -1.1883
 9261SOL     OW39418   0.853   3.953  11.288 -0.2748  0.1561  0.2291
 9261SOL    HW139419   0.888   3.967  11.201 -0.4056  0.6612  0.2552
 9261SOL    HW239420   0.932   3.974  11.338 -1.7365  1.9338  1.8501
 9262SOL     OW39421   3.947   3.144  13.110  0.1971 -0.6336  0.0779
 9262SOL    HW139422   3.985   3.203  13.045  2.6612 -1.5113  0.7077
 9262SOL    HW239423   3.858   3.179  13.123 -0.4378 -1.5448 -1.9301
 9263SOL     OW39424   0.879   3.333   6.961 -0.0234  0.7325 -0.0835
 9263SOL    HW139425   0.906   3.251   7.000 -3.2398  0.2520  1.1546
 9263SOL    HW239426   0.861   3.305   6.871 -1.4078 -1.8993  1.0266
 9264SOL     OW39427   0.960   3.378  11.166 -0.3003 -0.1972  0.2496
 9264SOL    HW139428   1.009   3.361  11.246 -1.8405 -2.2341  0.7718
 9264SOL    HW239429   1.027   3.381  11.098 -0.6038  0.0511 -0.0394
 9265SOL     OW39430   4.290   2.117   2.923  0.6739 -0.0092 -0.2309
 9265SOL    HW139431   4.314   2.128   2.831 -1.0466  0.7196 -0.5997
 9265SOL    HW239432   4.281   2.022   2.923 -1.4165  0.1805 -1.3586
 9266SOL     OW39433   3.639   3.266  16.840  0.8868  0.8767  0.0907
 9266SOL    HW139434   3.664   3.244  16.751  1.4706 -2.8987  1.2070
 9266SOL    HW239435   3.686   3.202  16.892 -0.7567  0.3760  0.9655
 9267SOL     OW39436   1.804   0.711   2.561  0.5110 -0.5312 -0.1367
 9267SOL    HW139437   1.827   0.783   2.620 -1.8588  0.5546 -0.5639
 9267SOL    HW239438   1.741   0.654   2.604  1.0998  1.0271  2.8352
 9268SOL     OW39439   0.671   3.570   5.969  0.1619  0.1682  0.1412
 9268SOL    HW139440   0.672   3.477   5.949 -0.9551  0.4164 -1.1115
 9268SOL    HW239441   0.673   3.611   5.882  1.4797 -0.4100 -0.1022
 9269SOL     OW39442   2.670   0.126  10.156  0.5202 -0.1656 -0.2826
 9269SOL    HW139443   2.654   0.053  10.215  0.0968 -0.7210 -1.0774
 9269SOL    HW239444   2.754   0.163  10.185  0.2043  0.0392  0.3569
 9270SOL     OW39445   4.301   4.586  10.352 -0.1936  0.1295 -0.0798
 9270SOL    HW139446   4.316   4.541  10.435  0.8178  0.8655  0.1352
 9270SOL    HW239447   4.285   4.507  10.301  1.1258  0.3651 -0.8546
 9271SOL     OW39448   1.893   1.844   2.344  0.8507  0.0633  0.6075
 9271SOL    HW139449   1.979   1.840   2.385  0.6864  0.7403  1.0195
 9271SOL    HW239450   1.832   1.835   2.417  0.7951 -0.5832  0.4776
 9272SOL     OW39451   0.448   3.470   9.670 -0.0434  0.6940  0.0692
 9272SOL    HW139452   0.391   3.457   9.746 -1.2785  1.4178 -0.7233
 9272SOL    HW239453   0.532   3.442   9.707 -0.6144 -0.6498  0.3284
 9273SOL     OW39454   4.121   1.240  10.722  0.2605  0.8181  0.4157
 9273SOL    HW139455   4.152   1.328  10.743 -2.1421  1.4316  1.4023
 9273SOL    HW239456   4.053   1.229  10.788  0.8574  1.0020  1.0631
 9274SOL     OW39457   0.345   3.945   8.729 -0.2425  0.1038  0.0843
 9274SOL    HW139458   0.380   4.021   8.683 -0.6004  0.2912  0.1202
 9274SOL    HW239459   0.341   3.973   8.820 -2.3598 -0.1806  0.0916
 9275SOL     OW39460   3.748   3.014   5.991  0.6068  0.1709  0.1403
 9275SOL    HW139461   3.667   3.006   6.042  0.1151  1.9520 -0.3798
 9275SOL    HW239462   3.717   3.010   5.901  0.5278  2.4890  0.0669
 9276SOL     OW39463   1.963   3.548   1.506 -0.1825 -0.2743 -0.1058
 9276SOL    HW139464   1.895   3.547   1.574 -0.5658  1.0592 -0.4589
 9276SOL    HW239465   1.980   3.639   1.483  1.0772  0.1882  2.6397
 9277SOL     OW39466   1.347   0.080   0.912  0.2377  0.4334  0.3665
 9277SOL    HW139467   1.265   0.040   0.942 -0.4830  0.8385 -1.1039
 9277SOL    HW239468   1.409   0.081   0.985  0.7840  0.4355 -0.0972
 9278SOL     OW39469   4.399   2.797   0.402  0.1471  0.1804 -0.6077
 9278SOL    HW139470   4.375   2.729   0.339  0.3114 -0.7628  0.3501
 9278SOL    HW239471   4.465   2.744   0.447 -1.2560 -0.8524  0.2382
 9279SOL     OW39472   4.557   3.510  11.399 -0.3246 -0.3478  0.1980
 9279SOL    HW139473   4.527   3.554  11.320  0.3285 -0.1531  0.0557
 9279SOL    HW239474   4.545   3.580  11.463  1.8362  1.1827 -1.1137
 9280SOL     OW39475   2.049   3.274   7.147 -0.2798 -0.0012  0.2866
 9280SOL    HW139476   2.004   3.203   7.102  1.8870 -0.1164 -1.7153
 9280SOL    HW239477   1.980   3.339   7.139  0.1848  0.2687 -1.6468
 9281SOL     OW39478   1.827   2.117   3.797  0.2856  0.5152  0.0584
 9281SOL    HW139479   1.794   2.207   3.796 -1.5164 -0.1536 -0.8688
 9281SOL    HW239480   1.831   2.100   3.702  1.7762 -1.0897  0.4067
 9282SOL     OW39481   3.343   2.034   4.673  0.4894  0.0644  0.1995
 9282SOL    HW139482   3.435   2.013   4.691  0.6303  0.5424  0.0401
 9282SOL    HW239483   3.308   1.946   4.682 -0.4349  0.1711 -2.3551
 9283SOL     OW39484   1.852   1.810   6.930  0.1167 -0.1511 -0.1110
 9283SOL    HW139485   1.911   1.738   6.951 -0.7532 -0.8792 -0.1732
 9283SOL    HW239486   1.788   1.806   7.002  0.2817 -1.1837 -0.0333
 9284SOL     OW39487   3.245   2.384   5.816 -0.5333  0.6967  0.5923
 9284SOL    HW139488   3.251   2.479   5.801  2.0140  0.3181 -0.7814
 9284SOL    HW239489   3.200   2.364   5.735  0.1399  1.8024 -0.0616
 9285SOL     OW39490   2.600   0.613   3.490  0.5300  0.1290 -0.1231
 9285SOL    HW139491   2.595   0.548   3.560  2.0667 -0.7938 -0.8532
 9285SOL    HW239492   2.669   0.568   3.442 -0.3377  0.4169 -1.6134
 9286SOL     OW39493   0.959   2.427  15.593 -0.6899  0.6413  0.4082
 9286SOL    HW139494   0.981   2.489  15.523 -3.2339 -0.2930 -1.2287
 9286SOL    HW239495   0.983   2.344  15.551 -0.4414  1.1792 -0.4998
 9287SOL     OW39496   2.612   2.315  14.746 -0.0985  0.4691  0.0376
 9287SOL    HW139497   2.685   2.282  14.694  2.6160  1.9193  2.9226
 9287SOL    HW239498   2.594   2.384  14.682 -1.8593  0.0041  0.0422
 9288SOL     OW39499   4.338   2.087  10.010  0.6535  0.7676  0.2930
 9288SOL    HW139500   4.371   1.997  10.012 -0.5387  0.2970 -1.1163
 9288SOL    HW239501   4.273   2.080   9.940  1.1935 -0.6927 -0.0523
 9289SOL     OW39502   3.666   2.682   3.353 -0.0708 -0.1605 -0.3307
 9289SOL    HW139503   3.689   2.630   3.430 -1.5651  1.0108  0.9211
 9289SOL    HW239504   3.706   2.633   3.282 -1.3735  0.0729 -1.2318
 9290SOL     OW39505   2.040   3.249   2.908  0.4788 -0.5825 -0.1990
 9290SOL    HW139506   2.084   3.169   2.877  0.1218 -1.3303  1.2287
 9290SOL    HW239507   2.019   3.297   2.828 -3.4979 -1.5439  0.2461
 9291SOL     OW39508   0.016   0.403   3.662 -0.4555  0.1205 -0.9547
 9291SOL    HW139509   0.023   0.359   3.747  0.5356  1.4378 -0.3466
 9291SOL    HW239510   4.656   0.409   3.646 -0.9149 -2.6171  0.7285
 9292SOL     OW39511   0.412   1.736   0.762 -0.1538 -0.3109 -0.0400
 9292SOL    HW139512   0.499   1.718   0.796 -0.1910  1.2931  0.9071
 9292SOL    HW239513   0.398   1.819   0.807  0.0016 -0.4320  0.2290
 9293SOL     OW39514   4.007   0.868   2.156 -0.0530  0.2954  0.4141
 9293SOL    HW139515   4.018   0.957   2.190 -0.5496  0.0625  1.1889
 9293SOL    HW239516   4.007   0.904   2.067  0.0458  1.3900  0.8553
 9294SOL     OW39517   2.514   1.541   6.818 -0.1595 -0.6121  0.4044
 9294SOL    HW139518   2.473   1.466   6.776  1.0870 -0.3309 -1.3191
 9294SOL    HW239519   2.582   1.563   6.754  0.6924 -1.3103  1.0691
 9295SOL     OW39520   1.130   1.714   6.727 -0.1560 -1.0769  0.4385
 9295SOL    HW139521   1.117   1.763   6.646 -1.3685 -4.6729 -1.5702
 9295SOL    HW239522   1.038   1.689   6.732  0.0530 -1.3990  2.5655
 9296SOL     OW39523   1.381   4.554  13.435  0.1504 -0.5024  0.0419
 9296SOL    HW139524   1.416   4.482  13.383  1.4543  0.6149 -0.6289
 9296SOL    HW239525   1.350   4.512  13.516  1.3395  0.6814  1.1053
 9297SOL     OW39526   0.889   4.013   3.233 -0.4843  0.4368  0.2215
 9297SOL    HW139527   0.898   3.956   3.309  1.2368 -0.6066 -0.7589
 9297SOL    HW239528   0.919   3.956   3.162 -1.5491  0.7701 -0.5083
 9298SOL     OW39529   2.056   1.354   7.498  0.7695  0.0811  0.0027
 9298SOL    HW139530   2.147   1.364   7.469  0.6024 -0.3241 -0.6666
 9298SOL    HW239531   2.005   1.420   7.452  1.6525  0.2109 -0.7774
 9299SOL     OW39532   1.416   3.462  14.514  0.1224 -0.1544 -0.6611
 9299SOL    HW139533   1.454   3.407  14.445  2.3386 -0.0476  0.4892
 9299SOL    HW239534   1.481   3.531  14.516 -1.3978  1.2874 -0.8864
 9300SOL     OW39535   0.303   1.359   6.035  0.2113 -0.0544  0.3432
 9300SOL    HW139536   0.345   1.314   6.108  1.1039  1.7375  0.9411
 9300SOL    HW239537   0.223   1.311   6.015 -1.0587  1.6248  1.4682
 9301SOL     OW39538   3.135   0.455   9.367 -0.1338  0.1926 -0.1249
 9301SOL    HW139539   3.095   0.380   9.323  3.9567 -0.6135 -2.5136
 9301SOL    HW239540   3.064   0.512   9.395  0.8070  0.6466  1.3510
 9302SOL     OW39541   3.517   4.327   4.126 -0.0158  0.4465  0.3799
 9302SOL    HW139542   3.590   4.310   4.066 -0.4356  0.2368 -0.0758
 9302SOL    HW239543   3.455   4.374   4.070  1.2910  0.5491 -0.9744
 9303SOL     OW39544   1.208   1.538   8.203  0.0016 -0.1293 -0.3866
 9303SOL    HW139545   1.167   1.619   8.233 -1.2186 -0.6604 -0.5972
 9303SOL    HW239546   1.219   1.491   8.286 -0.1051  0.8905  0.1973
 9304SOL     OW39547   3.601   1.467  11.124 -0.0327  0.0317  0.0537
 9304SOL    HW139548   3.680   1.445  11.076  0.4460 -1.1449  1.3887
 9304SOL    HW239549   3.576   1.375  11.131  0.3782 -0.2582 -2.1620
 9305SOL     OW39550   4.278   0.487   2.965 -0.3602 -0.0733  0.4750
 9305SOL    HW139551   4.240   0.471   2.878  0.8345  0.4268 -0.1285
 9305SOL    HW239552   4.200   0.530   3.000 -0.2297 -0.1420  0.8474
 9306SOL     OW39553   1.841   3.337   6.021 -0.0267  0.1743 -0.1834
 9306SOL    HW139554   1.861   3.313   6.111  1.8860 -2.3367 -1.2617
 9306SOL    HW239555   1.906   3.285   5.974 -0.0978  2.3583 -2.7336
 9307SOL     OW39556   1.148   2.922  17.525 -0.3503 -0.1131  0.1708
 9307SOL    HW139557   1.153   2.856  17.455 -3.0914  0.9701 -1.0387
 9307SOL    HW239558   1.240   2.949  17.526 -1.0739  2.3361 -1.4490
 9308SOL     OW39559   2.140   3.870   8.997 -0.1928  0.1369 -0.0959
 9308SOL    HW139560   2.231   3.898   9.006 -0.5307  0.5336  2.0263
 9308SOL    HW239561   2.117   3.888   9.088  0.1975 -0.4879  0.1280
 9309SOL     OW39562   3.648   4.223  12.241  0.5274 -0.4363  0.1423
 9309SOL    HW139563   3.619   4.247  12.329 -0.7699 -0.5483 -0.2556
 9309SOL    HW239564   3.568   4.198  12.194 -1.9263  3.6387  2.0804
 9310SOL     OW39565   1.552   3.200   7.148 -0.6674  0.0120 -0.0970
 9310SOL    HW139566   1.552   3.105   7.152  0.9593 -0.0131 -0.7106
 9310SOL    HW239567   1.620   3.222   7.211 -0.2354  1.1803 -0.9638
 9311SOL     OW39568   4.695   0.577  10.667 -0.6544 -0.0697  0.1531
 9311SOL    HW139569   4.627   0.537  10.721  1.3939 -5.2388 -1.1106
 9311SOL    HW239570   4.641   0.642  10.621 -0.6774  0.8764  1.5376
 9312SOL     OW39571   2.222   4.361  10.538 -0.4977 -0.3398 -0.1216
 9312SOL    HW139572   2.240   4.291  10.600 -2.3902 -0.1076  0.6755
 9312SOL    HW239573   2.153   4.407  10.587  1.0631  2.4493 -0.5254
 9313SOL     OW39574   2.456   3.867  11.446 -0.2330  0.0471  0.1248
 9313SOL    HW139575   2.466   3.803  11.516  2.0779  1.3367  0.9787
 9313SOL    HW239576   2.523   3.927  11.478 -1.7167  1.0799  1.3127
 9314SOL     OW39577   3.689   0.746   5.945 -0.5972 -0.4721  0.5428
 9314SOL    HW139578   3.713   0.819   5.888 -2.2820  0.4204  0.9525
 9314SOL    HW239579   3.593   0.739   5.938 -0.7797  1.8054  0.6495
 9315SOL     OW39580   1.539   1.740   2.682  0.3403  0.6272 -0.0716
 9315SOL    HW139581   1.469   1.802   2.700  0.0467 -0.1869  1.6420
 9315SOL    HW239582   1.489   1.662   2.657 -0.3015  0.6841  1.0154
 9316SOL     OW39583   1.467   2.030  15.011 -0.1061  0.2121  0.6033
 9316SOL    HW139584   1.384   2.007  15.052 -0.4405 -0.7768 -0.6123
 9316SOL    HW239585   1.435   2.051  14.923 -0.7579  2.2293  1.3189
 9317SOL     OW39586   1.824   4.504   1.498  0.0210 -0.0198 -0.0782
 9317SOL    HW139587   1.744   4.462   1.530 -0.4767  1.9203  1.2456
 9317SOL    HW239588   1.797   4.548   1.417  0.0390 -0.4633 -0.3225
 9318SOL     OW39589   0.640   0.053   2.679  0.4178 -0.0118  0.4066
 9318SOL    HW139590   0.686   0.032   2.760  2.5013 -0.4235 -0.9153
 9318SOL    HW239591   0.555   0.040   2.723  2.0823  0.3960  3.7159
 9319SOL     OW39592   1.880   2.398   8.442 -0.3932  0.3404  0.2718
 9319SOL    HW139593   1.966   2.387   8.402 -0.8532  0.3427 -0.7139
 9319SOL    HW239594   1.832   2.318   8.420  0.6786 -0.4420  0.7975
 9320SOL     OW39595   0.717   3.532   3.386  0.2910 -0.2750  0.4841
 9320SOL    HW139596   0.631   3.566   3.361  0.1922 -1.3217 -0.5630
 9320SOL    HW239597   0.726   3.593   3.460 -0.7362 -1.1638  1.3461
 9321SOL     OW39598   4.523   3.863   4.667 -0.3012 -0.3098  0.4329
 9321SOL    HW139599   4.616   3.870   4.691  0.3476 -1.6201 -1.7694
 9321SOL    HW239600   4.527   3.866   4.572 -0.7512 -1.2230  0.3878
 9322SOL     OW39601   1.200   3.448   8.875  0.4515  0.5298  0.5373
 9322SOL    HW139602   1.120   3.413   8.915  0.0565  1.2064  0.3379
 9322SOL    HW239603   1.206   3.391   8.799  0.5815  3.0568 -1.3301
 9323SOL     OW39604   1.207   2.466   2.713 -0.5476  0.2443  0.2634
 9323SOL    HW139605   1.223   2.384   2.760  1.6247  0.0719 -0.7527
 9323SOL    HW239606   1.111   2.459   2.716 -0.5830  0.0338 -1.1547
 9324SOL     OW39607   2.355   0.477   7.369  0.6954  0.2655  0.2094
 9324SOL    HW139608   2.389   0.506   7.454  1.5775  1.6802 -0.6280
 9324SOL    HW239609   2.391   0.388   7.370 -0.6801 -0.2882  0.9423
 9325SOL     OW39610   2.830   0.096   2.980  0.0027  0.2916 -0.2224
 9325SOL    HW139611   2.922   0.120   2.988 -0.3287  1.6633 -0.4909
 9325SOL    HW239612   2.847   0.021   2.923 -1.2644 -1.5997  1.9179
 9326SOL     OW39613   1.615   3.570   7.040 -0.1573 -0.1130 -0.0462
 9326SOL    HW139614   1.556   3.616   6.981 -0.8546  0.0476  0.7813
 9326SOL    HW239615   1.676   3.642   7.054  0.1928 -0.7820  1.8127
 9327SOL     OW39616   1.356   4.263  14.552 -0.3384  0.3951  0.2125
 9327SOL    HW139617   1.411   4.215  14.614  0.4772 -0.3555 -1.0980
 9327SOL    HW239618   1.274   4.214  14.561  0.4623 -1.0738 -0.5363
 9328SOL     OW39619   1.975   0.743   0.187  0.1778  0.2388  0.0819
 9328SOL    HW139620   2.032   0.678   0.147 -1.0175 -1.0444  0.4492
 9328SOL    HW239621   1.886   0.721   0.157  0.3876  1.0335 -1.0993
 9329SOL     OW39622   3.868   0.960  15.162  0.0732  0.0017  0.0871
 9329SOL    HW139623   3.898   1.021  15.230 -0.9319 -0.3829  0.8782
 9329SOL    HW239624   3.925   0.884  15.175 -0.7854 -0.5608  0.5996
 9330SOL     OW39625   3.687   0.888   0.012  0.1293 -0.6854 -1.0204
 9330SOL    HW139626   3.706   0.971  17.706 -2.0216 -0.7874 -2.1724
 9330SOL    HW239627   3.706   0.916   0.101 -0.5798 -1.2662 -0.6879
 9331SOL     OW39628   2.909   1.561   3.107 -0.2935 -0.6092  0.1408
 9331SOL    HW139629   2.969   1.486   3.101  2.4351  1.6520 -1.0552
 9331SOL    HW239630   2.911   1.586   3.200  3.4651 -0.8275  0.1428
 9332SOL     OW39631   4.403   1.253   0.178  0.3581 -0.0451  0.3761
 9332SOL    HW139632   4.355   1.200   0.115  0.0495  3.3288 -2.2165
 9332SOL    HW239633   4.454   1.301   0.112 -0.4248  0.1268 -0.1034
 9333SOL     OW39634   3.538   4.284  12.599 -0.5067 -0.0881 -0.0121
 9333SOL    HW139635   3.595   4.216  12.635  0.6222  0.8005 -0.1570
 9333SOL    HW239636   3.612   4.337  12.570 -1.5978  0.6929 -1.3814
 9334SOL     OW39637   2.217   0.469   6.986  0.2865  0.0545  0.4509
 9334SOL    HW139638   2.162   0.543   7.010  1.9924  1.6974 -0.6537
 9334SOL    HW239639   2.290   0.510   6.940  1.2016 -0.9410  1.0158
 9335SOL     OW39640   3.012   1.077   6.158 -0.2142 -0.3068  0.2462
 9335SOL    HW139641   3.085   1.062   6.218 -0.0225 -1.0376 -0.1588
 9335SOL    HW239642   3.021   1.015   6.085  0.2806 -0.7093  0.6516
 9336SOL     OW39643   0.733   0.784   6.621  0.1853 -0.2641  0.8685
 9336SOL    HW139644   0.795   0.830   6.678  0.0004  0.1319  0.7479
 9336SOL    HW239645   0.776   0.805   6.538  0.1737 -0.9042  0.7002
 9337SOL     OW39646   0.059   3.188   8.303  0.1660 -0.0502  0.5979
 9337SOL    HW139647   0.080   3.121   8.368  0.6162  0.0870  0.5960
 9337SOL    HW239648   0.052   3.258   8.368 -0.2778  0.1551  0.3246
 9338SOL     OW39649   3.131   3.939   3.904 -0.2834  0.1646 -0.1605
 9338SOL    HW139650   3.101   4.013   3.851 -0.1381  0.1777 -0.2259
 9338SOL    HW239651   3.116   3.864   3.848 -0.7454 -0.0112  0.1950
 9339SOL     OW39652   2.449   3.045   7.171 -0.0919  0.4851 -0.4166
 9339SOL    HW139653   2.527   3.005   7.211  0.9812  4.0206  1.0184
 9339SOL    HW239654   2.409   3.075   7.253  1.2387  0.7607  0.1396
 9340SOL     OW39655   0.360   4.295   6.720  0.5982 -0.7184 -0.5706
 9340SOL    HW139656   0.314   4.213   6.732 -1.2618  0.7872  2.4691
 9340SOL    HW239657   0.429   4.297   6.786 -2.2189  1.2451  2.3287
 9341SOL     OW39658   2.302   4.120  11.808 -0.8554 -1.1346 -0.2583
 9341SOL    HW139659   2.230   4.179  11.831  0.3748  0.2420  0.1152
 9341SOL    HW239660   2.290   4.110  11.713  0.7536  1.4724 -0.7656
 9342SOL     OW39661   4.405   4.454   5.266 -0.0916  0.7398  0.5112
 9342SOL    HW139662   4.349   4.490   5.197  1.2863 -1.4501 -1.7792
 9342SOL    HW239663   4.354   4.379   5.297  0.8900 -0.1906 -0.1093
 9343SOL     OW39664   3.153   1.402   7.505  0.4863 -0.1968 -0.4958
 9343SOL    HW139665   3.067   1.400   7.547  0.2071  0.0726 -1.0589
 9343SOL    HW239666   3.170   1.496   7.499  0.8144 -0.2008  0.3644
 9344SOL     OW39667   1.105   1.559  17.146 -0.2861 -0.7308 -0.0846
 9344SOL    HW139668   1.023   1.585  17.103 -0.4412  0.0983  0.7162
 9344SOL    HW239669   1.150   1.506  17.080  0.7672 -0.7909  0.6848
 9345SOL     OW39670   0.282   3.815  17.571  0.4935  0.1459 -0.1419
 9345SOL    HW139671   0.266   3.724  17.549 -2.5095  0.6039  0.1395
 9345SOL    HW239672   0.275   3.804  17.666  0.3877 -0.5613 -0.2327
 9346SOL     OW39673   2.536   0.652   1.606 -0.1614 -0.0894 -0.0951
 9346SOL    HW139674   2.573   0.737   1.630 -1.1621 -0.7095  3.6105
 9346SOL    HW239675   2.447   0.649   1.641 -0.0486  0.2550  0.2244
 9347SOL     OW39676   2.844   3.516   7.429 -0.1527  0.2575 -0.3666
 9347SOL    HW139677   2.924   3.564   7.411  0.6246 -2.2028 -3.5566
 9347SOL    HW239678   2.876   3.426   7.425  0.8728  0.5549  1.1153
 9348SOL     OW39679   2.156   4.495   8.129  0.1434  0.2165 -0.2393
 9348SOL    HW139680   2.151   4.471   8.036 -1.5392 -0.7427  0.0905
 9348SOL    HW239681   2.117   4.582   8.122 -1.9014 -0.5917  0.8016
 9349SOL     OW39682   0.264   1.899  14.223 -0.7922 -0.7563 -0.6246
 9349SOL    HW139683   0.349   1.942  14.232 -1.5214  0.6605 -0.5208
 9349SOL    HW239684   0.257   1.903  14.128 -1.0051 -0.2800 -0.5907
 9350SOL     OW39685   3.199   3.551   4.024  0.6912  0.4186  0.2003
 9350SOL    HW139686   3.144   3.592   4.090 -1.9267 -0.2356 -1.5672
 9350SOL    HW239687   3.272   3.612   4.025  2.0010 -1.1265  0.1530
 9351SOL     OW39688   1.575   1.692   7.357  0.1053  0.1452 -0.3349
 9351SOL    HW139689   1.525   1.633   7.414 -0.1153 -1.1249 -1.8636
 9351SOL    HW239690   1.508   1.696   7.289 -0.0517 -0.9023 -0.2376
 9352SOL     OW39691   3.842   1.941   5.971 -0.3575 -0.4421 -0.1859
 9352SOL    HW139692   3.771   2.003   5.955  0.5538 -0.0837 -2.8997
 9352SOL    HW239693   3.861   1.913   5.881 -2.4304  0.2907 -0.8475
 9353SOL     OW39694   0.750   4.139  14.143  0.2455  0.2501  0.8851
 9353SOL    HW139695   0.756   4.232  14.122 -0.4723  0.1102  0.0572
 9353SOL    HW239696   0.667   4.117  14.101 -1.8788  2.3884  3.9904
 9354SOL     OW39697   3.406   2.834  16.492 -0.3750 -0.0341 -0.6078
 9354SOL    HW139698   3.330   2.784  16.520 -0.1285 -1.2358 -2.0342
 9354SOL    HW239699   3.384   2.847  16.400 -4.6607 -1.8875  0.1685
 9355SOL     OW39700   2.038   1.395  15.191 -0.7400  0.0256  0.7699
 9355SOL    HW139701   2.068   1.484  15.172  0.9198 -0.3044  1.9123
 9355SOL    HW239702   2.119   1.348  15.175 -0.2767  0.3353  2.2157
 9356SOL     OW39703   2.342   0.834   7.635 -0.3822 -0.1928  0.1254
 9356SOL    HW139704   2.321   0.882   7.555 -1.9740  0.5008  0.9785
 9356SOL    HW239705   2.291   0.878   7.703  1.3159  1.9644  0.0016
 9357SOL     OW39706   1.259   3.354   9.277 -0.0141 -0.1237 -0.0444
 9357SOL    HW139707   1.216   3.292   9.219  0.3128  2.2957 -2.8372
 9357SOL    HW239708   1.339   3.367   9.225  1.4368 -2.5166  1.5579
 9358SOL     OW39709   2.595   2.818   7.452 -0.1231 -1.1907  0.3129
 9358SOL    HW139710   2.539   2.766   7.394  0.2105 -0.8826 -0.2892
 9358SOL    HW239711   2.615   2.758   7.524 -0.8329 -1.2777  0.4353
 9359SOL     OW39712   3.614   0.305   4.965  0.6095  0.3975 -0.3821
 9359SOL    HW139713   3.524   0.282   4.989  0.5377  0.7569 -0.3003
 9359SOL    HW239714   3.598   0.398   4.946  3.4487  1.0715  0.4234
 9360SOL     OW39715   1.927   3.085   1.778  0.1416 -0.2481  0.8852
 9360SOL    HW139716   1.920   3.086   1.683  1.1387 -2.3992  0.7735
 9360SOL    HW239717   1.835   3.097   1.802 -0.5402 -0.9489 -1.4358
 9361SOL     OW39718   2.961   3.442   6.892 -0.0262  0.0530 -0.3828
 9361SOL    HW139719   2.924   3.364   6.934  1.0225 -0.0210  0.4045
 9361SOL    HW239720   3.053   3.429   6.915 -0.1444  1.2077  0.7363
 9362SOL     OW39721   2.965   1.664   4.660  0.0038  0.0343  0.3429
 9362SOL    HW139722   2.970   1.621   4.745  0.4036 -0.8762 -0.1352
 9362SOL    HW239723   2.872   1.648   4.647  0.2747 -2.4951  1.4473
 9363SOL     OW39724   1.225   1.059  12.822 -0.1355 -0.1100 -0.1118
 9363SOL    HW139725   1.155   1.099  12.771 -0.5573 -1.5639 -0.7008
 9363SOL    HW239726   1.213   1.100  12.907  2.0165  0.8328 -0.2659
 9364SOL     OW39727   1.082   0.013   8.904 -0.1030 -0.1882 -0.3207
 9364SOL    HW139728   1.078   0.097   8.949  2.0660 -0.3422  0.1522
 9364SOL    HW239729   1.013   0.029   8.840 -1.9449  2.5650  2.3788
 9365SOL     OW39730   3.391   0.532  14.473  0.4223  0.0164  0.1591
 9365SOL    HW139731   3.362   0.573  14.554 -0.2153  1.1838 -0.6550
 9365SOL    HW239732   3.314   0.513  14.420  0.3063 -0.5641  0.5341
 9366SOL     OW39733   0.817   2.510   1.595 -0.3002 -0.4459  0.1996
 9366SOL    HW139734   0.751   2.461   1.547  0.0366 -0.6632 -0.0342
 9366SOL    HW239735   0.820   2.599   1.561  2.4487 -0.2971  0.8288
 9367SOL     OW39736   0.060   3.465  12.033  0.2903  0.1996  0.5562
 9367SOL    HW139737   0.071   3.425  11.947  0.0304 -2.1121  1.5914
 9367SOL    HW239738   4.724   3.524  12.010  0.5415  0.4476  0.4284
 9368SOL     OW39739   2.423   1.235   8.779 -0.0003  0.3880  0.4465
 9368SOL    HW139740   2.455   1.281   8.701 -0.4820  0.5551  0.3529
 9368SOL    HW239741   2.354   1.297   8.801 -0.4690 -0.2330  0.7091
 9369SOL     OW39742   4.366   2.681   6.666 -0.3435 -0.2672 -0.3768
 9369SOL    HW139743   4.275   2.710   6.664 -1.1350 -2.6590  1.6691
 9369SOL    HW239744   4.373   2.628   6.586 -0.6544 -1.5052  0.4252
 9370SOL     OW39745   0.426   4.622   4.745  0.0628  0.3796 -0.5004
 9370SOL    HW139746   0.357   4.663   4.693 -0.1836  0.8689  0.2114
 9370SOL    HW239747   0.504   4.675   4.728  2.9745 -4.0118 -0.8962
 9371SOL     OW39748   0.213   4.003   6.111  0.6579 -0.1426  0.4329
 9371SOL    HW139749   0.268   4.036   6.040  0.0716  0.0021  0.0525
 9371SOL    HW239750   0.132   4.027   6.067  1.1407  0.3221 -0.1961
 9372SOL     OW39751   2.838   0.479   7.564  0.7371  0.5049  0.3788
 9372SOL    HW139752   2.768   0.415   7.552  1.8524 -0.4714 -0.8144
 9372SOL    HW239753   2.787   0.559   7.551 -1.0647 -0.4100  1.8432
 9373SOL     OW39754   2.236   0.431   2.441  0.4774 -0.4898 -0.3050
 9373SOL    HW139755   2.237   0.519   2.479 -0.6297 -1.1558  1.2773
 9373SOL    HW239756   2.153   0.400   2.477  0.5045 -0.2239 -0.0114
 9374SOL     OW39757   3.146   0.576  14.330  0.2581  0.0729 -0.1793
 9374SOL    HW139758   3.101   0.547  14.251 -0.2754 -1.7028  0.7822
 9374SOL    HW239759   3.091   0.654  14.338  0.8659  0.6907 -1.9699
 9375SOL     OW39760   3.231   2.863   2.328  0.2224 -0.2466 -0.2599
 9375SOL    HW139761   3.176   2.870   2.250  2.2308  1.0767 -1.5463
 9375SOL    HW239762   3.269   2.951   2.330 -1.5202  0.5077 -0.5052
 9376SOL     OW39763   0.105   0.123  10.248  0.5756 -0.0350 -0.8178
 9376SOL    HW139764   0.128   0.031  10.260  0.2488  0.0160  0.2113
 9376SOL    HW239765   0.025   0.116  10.197  1.9063  0.1388 -2.9688
 9377SOL     OW39766   0.785   2.798   3.248 -0.1861  0.1548 -0.2859
 9377SOL    HW139767   0.797   2.839   3.334 -0.0126 -0.1887 -0.1468
 9377SOL    HW239768   0.735   2.867   3.205 -0.6705 -0.4398 -0.6604
 9378SOL     OW39769   0.748   2.097   3.056  0.3520  0.3109  0.5596
 9378SOL    HW139770   0.761   2.018   3.003 -1.2709 -0.3656  1.1697
 9378SOL    HW239771   0.668   2.128   3.013  0.3921 -0.2073  0.1155
 9379SOL     OW39772   3.760   2.065   2.616  0.1051  0.0025  0.3038
 9379SOL    HW139773   3.852   2.087   2.630 -0.0761  1.2064 -0.3685
 9379SOL    HW239774   3.740   2.035   2.704  0.8639  1.6342  1.0286
 9380SOL     OW39775   2.976   1.966   8.517  0.1167 -0.5643 -0.4358
 9380SOL    HW139776   2.942   1.971   8.428 -0.7984 -2.8135 -0.2093
 9380SOL    HW239777   2.894   1.937   8.557  0.4173 -0.7219  0.0642
 9381SOL     OW39778   3.470   0.289   7.895  0.4098 -0.5007 -0.5162
 9381SOL    HW139779   3.443   0.202   7.926 -1.6411 -0.0395 -1.0796
 9381SOL    HW239780   3.560   0.292   7.928  0.4080 -0.2073 -0.5424
 9382SOL     OW39781   3.387   2.517   2.765 -0.3193  0.3579  0.1677
 9382SOL    HW139782   3.299   2.513   2.801  0.1157  0.0681  1.1934
 9382SOL    HW239783   3.371   2.561   2.681  0.4729 -0.2499 -0.3078
 9383SOL     OW39784   1.674   4.430  11.175 -0.4033 -0.5523  0.2355
 9383SOL    HW139785   1.762   4.417  11.140 -0.3163 -0.1214  0.2917
 9383SOL    HW239786   1.663   4.375  11.252  0.3398  1.1109  1.5141
 9384SOL     OW39787   3.406   1.113   2.976  0.0984  0.4800 -0.8856
 9384SOL    HW139788   3.371   1.193   2.937  2.8033  3.5925  3.0208
 9384SOL    HW239789   3.338   1.058   2.938  1.1209 -0.8817 -0.7359
 9385SOL     OW39790   1.935   1.125   5.237  0.3163 -0.2733  0.6603
 9385SOL    HW139791   1.869   1.127   5.306 -1.5624 -2.4652 -1.0610
 9385SOL    HW239792   1.927   1.212   5.199  1.2808  0.2594  1.6657
 9386SOL     OW39793   0.453   0.118   5.016  0.6168 -0.1722 -1.0508
 9386SOL    HW139794   0.389   0.180   5.051  1.4310  0.4976 -0.7498
 9386SOL    HW239795   0.510   0.107   5.092  0.0532 -0.5628 -0.6882
 9387SOL     OW39796   2.552   4.700   3.520  0.0496  0.6665 -0.6345
 9387SOL    HW139797   2.583   4.691   3.610 -1.9579  0.9069  0.0864
 9387SOL    HW239798   2.521   4.610   3.505  0.7768 -0.0719  2.3203
 9388SOL     OW39799   4.207   4.522  12.583 -0.3246 -0.2676 -0.5817
 9388SOL    HW139800   4.301   4.512  12.599 -0.5995 -0.9150  0.6580
 9388SOL    HW239801   4.184   4.560  12.668  1.3891  0.1338 -0.2965
 9389SOL     OW39802   2.421   4.457  15.305  0.1481 -0.8816 -0.8540
 9389SOL    HW139803   2.430   4.456  15.210 -0.1429 -2.6979 -0.8448
 9389SOL    HW239804   2.340   4.508  15.302  0.3078 -0.6456 -1.1581
 9390SOL     OW39805   1.589   2.584  12.281  0.0337 -0.2074  0.1100
 9390SOL    HW139806   1.509   2.545  12.247  0.6077 -0.1281 -1.3411
 9390SOL    HW239807   1.660   2.541  12.234  0.4198  1.3979 -0.7364
 9391SOL     OW39808   0.798   3.990   9.677  0.0676  0.2093 -0.0108
 9391SOL    HW139809   0.878   4.041   9.662 -1.1154  1.5867 -1.6304
 9391SOL    HW239810   0.751   4.056   9.728 -0.3811  0.2936 -0.5333
 9392SOL     OW39811   3.730   4.315  14.851 -0.0995 -0.3764  0.5283
 9392SOL    HW139812   3.638   4.304  14.830 -0.0334 -1.2482  0.7256
 9392SOL    HW239813   3.754   4.249  14.916  1.7180  0.6697  0.9332
 9393SOL     OW39814   2.517   2.047   9.991 -0.3858  0.2950 -0.3542
 9393SOL    HW139815   2.495   2.103   9.916  0.3745 -0.0328 -0.8232
 9393SOL    HW239816   2.612   2.057   9.983 -0.1743 -0.5075  1.1471
 9394SOL     OW39817   2.967   1.143   6.735  0.5611 -0.4094 -0.0375
 9394SOL    HW139818   2.974   1.048   6.731  1.3702 -0.3503  0.0254
 9394SOL    HW239819   3.045   1.174   6.780  1.4279  1.4422 -2.8570
 9395SOL     OW39820   1.279   4.081   7.599  0.7060 -0.6238  0.6249
 9395SOL    HW139821   1.363   4.109   7.634 -0.1625  0.3808  1.8717
 9395SOL    HW239822   1.255   4.157   7.546 -0.8426 -2.0428 -0.7094
 9396SOL     OW39823   4.656   4.678   5.986  0.5167  0.4025  0.1429
 9396SOL    HW139824   4.626   0.004   5.917 -1.6302 -0.9805 -0.1105
 9396SOL    HW239825   4.593   4.606   5.988  3.4175 -2.0031  3.5160
 9397SOL     OW39826   1.069   4.006   1.876  0.0145 -0.1853  0.0795
 9397SOL    HW139827   0.998   3.945   1.855 -0.5355  1.4176 -2.6726
 9397SOL    HW239828   1.065   4.080   1.816  2.1046 -0.8711 -0.9397
 9398SOL     OW39829   3.494   2.996   6.461 -0.3751  0.2535 -0.2019
 9398SOL    HW139830   3.546   2.920   6.486  1.5191  1.8797  0.8522
 9398SOL    HW239831   3.404   2.963   6.459  0.1241 -1.2955  2.2714
 9399SOL     OW39832   3.224   4.105   7.781 -0.2473  0.2390 -0.3507
 9399SOL    HW139833   3.155   4.170   7.794 -0.3136 -0.0286  0.5823
 9399SOL    HW239834   3.295   4.153   7.738  0.2544  0.1639  0.3979
 9400SOL     OW39835   2.540   1.215   8.391 -0.6165 -0.2221  0.0975
 9400SOL    HW139836   2.623   1.186   8.430 -0.9527 -1.2049  0.0752
 9400SOL    HW239837   2.513   1.282   8.454  1.5998  1.6338 -0.9388
 9401SOL     OW39838   1.659   4.344  15.821  0.9522  0.1570 -0.0567
 9401SOL    HW139839   1.746   4.385  15.828  1.1757 -0.3130 -0.0679
 9401SOL    HW239840   1.655   4.299  15.905 -0.2903  0.0478 -0.1870
 9402SOL     OW39841   1.829   2.372  11.112  0.4966 -0.1811  0.0717
 9402SOL    HW139842   1.769   2.316  11.160  0.8422  2.5116  3.6912
 9402SOL    HW239843   1.897   2.406  11.170 -0.0421 -2.1039  1.8348
 9403SOL     OW39844   0.523   4.729   0.123 -0.1252  0.6725 -0.2241
 9403SOL    HW139845   0.581   4.661   0.089 -1.8059 -0.4507 -0.8486
 9403SOL    HW239846   0.457   4.672   0.165  0.1536  0.3912 -0.1656
 9404SOL     OW39847   4.096   0.376   4.823  0.2000  0.1695  0.6141
 9404SOL    HW139848   4.022   0.318   4.838  0.4711 -0.2523  0.3145
 9404SOL    HW239849   4.159   0.329   4.877 -0.8369 -0.3973  1.3200
 9405SOL     OW39850   0.212   0.675   8.891  0.0756  0.0050 -0.4169
 9405SOL    HW139851   0.164   0.668   8.974 -0.5186  2.4798 -0.5517
 9405SOL    HW239852   0.230   0.582   8.875 -0.6890 -0.3930  0.9874
 9406SOL     OW39853   0.072   3.150  11.622 -0.1197 -0.1108  0.4741
 9406SOL    HW139854   0.016   3.225  11.605 -2.3948 -2.0739 -0.5986
 9406SOL    HW239855   0.067   3.156  11.717  0.3682 -1.0849  0.5608
 9407SOL     OW39856   2.403   3.224   7.708 -0.1846 -0.3654  0.0995
 9407SOL    HW139857   2.362   3.309   7.690 -1.2064 -0.9371 -0.2419
 9407SOL    HW239858   2.496   3.243   7.696  0.1850 -2.2056  0.1316
 9408SOL     OW39859   2.495   0.832   4.655 -0.0185  0.0151 -1.0149
 9408SOL    HW139860   2.445   0.751   4.664 -0.1940  0.1810 -0.5031
 9408SOL    HW239861   2.423   0.891   4.678  1.2741  1.1244  0.2117
 9409SOL     OW39862   0.173   1.898  17.381  0.6199 -0.3782 -0.0892
 9409SOL    HW139863   0.149   1.991  17.386  2.0467  0.0062 -0.4005
 9409SOL    HW239864   0.259   1.898  17.423  1.4490 -0.4944 -1.7879
 9410SOL     OW39865   3.739   2.302   5.370 -0.7136 -0.4268  0.2351
 9410SOL    HW139866   3.665   2.287   5.310 -0.6189 -1.5835  0.4080
 9410SOL    HW239867   3.795   2.226   5.355  0.6767  0.7266 -0.4287
 9411SOL     OW39868   0.043   4.725   1.710  0.0463  0.1497  0.5869
 9411SOL    HW139869   0.026   0.084   1.727  0.0506  0.1726  0.4719
 9411SOL    HW239870   4.708   4.712   1.646 -0.4490  0.4601  1.0621
 9412SOL     OW39871   2.978   0.978   8.667  0.3705  0.0825  0.4339
 9412SOL    HW139872   2.975   1.059   8.718 -2.7839  1.1079 -1.3428
 9412SOL    HW239873   2.945   0.909   8.724 -0.9847 -0.4406 -0.9702
 9413SOL     OW39874   2.189   1.724   2.519  0.4448  0.5466 -0.0219
 9413SOL    HW139875   2.204   1.765   2.434 -3.1118 -0.9056 -1.3409
 9413SOL    HW239876   2.263   1.664   2.530 -0.5730 -0.5109  1.0940
 9414SOL     OW39877   1.650   4.485   3.572 -0.5690 -0.0213  0.0231
 9414SOL    HW139878   1.680   4.527   3.492 -0.2375 -2.1274 -0.9496
 9414SOL    HW239879   1.556   4.467   3.559 -0.3265 -0.8190 -0.5942
 9415SOL     OW39880   3.581   2.076  17.199 -0.0545  0.3018 -0.7954
 9415SOL    HW139881   3.603   2.153  17.148  0.0853 -0.7880 -2.3677
 9415SOL    HW239882   3.486   2.078  17.209 -0.0372 -1.8089 -0.1029
 9416SOL     OW39883   2.225   1.413   5.638 -0.1653  0.0674 -0.1611
 9416SOL    HW139884   2.162   1.347   5.609  0.9663 -0.9716 -0.2720
 9416SOL    HW239885   2.226   1.390   5.731  2.1720  1.1378  0.0933
 9417SOL     OW39886   1.507   1.530  12.423 -0.7141  0.0523 -0.5494
 9417SOL    HW139887   1.584   1.549  12.369  0.2484 -1.8592  0.1465
 9417SOL    HW239888   1.520   1.439  12.450 -2.0549 -0.1448 -0.5809
 9418SOL     OW39889   4.300   0.417   4.146 -0.3196  0.3391 -0.2754
 9418SOL    HW139890   4.209   0.396   4.168 -0.4117  0.0259 -0.9459
 9418SOL    HW239891   4.346   0.454   4.221 -0.5237 -3.4125  1.7228
 9419SOL     OW39892   0.329   0.092   0.993 -0.5585  0.4313 -0.2161
 9419SOL    HW139893   0.284   0.149   0.931  1.0296  1.2055 -0.6449
 9419SOL    HW239894   0.272   0.113   1.067  0.9967 -2.0251  1.6717
 9420SOL     OW39895   1.791   1.298   4.875 -0.7724  0.8047 -0.2770
 9420SOL    HW139896   1.852   1.279   4.803 -1.5840  1.5621 -1.1693
 9420SOL    HW239897   1.722   1.237   4.849 -1.4847  0.3124  2.8383
 9421SOL     OW39898   0.713   3.784   3.567  0.7536 -0.2322 -0.6310
 9421SOL    HW139899   0.722   3.845   3.641 -2.4782 -1.8010  1.0381
 9421SOL    HW239900   0.647   3.823   3.510  0.0063 -0.8679 -0.1996
 9422SOL     OW39901   3.770   2.682   4.714  0.2452 -0.0977 -0.3549
 9422SOL    HW139902   3.832   2.611   4.733 -3.3686 -2.5409  2.3489
 9422SOL    HW239903   3.689   2.631   4.720  0.0503  0.2293 -0.2154
 9423SOL     OW39904   4.615   1.763   4.967 -0.1421  0.3937  0.4537
 9423SOL    HW139905   4.625   1.785   5.059  2.0100 -0.5435  0.4421
 9423SOL    HW239906   4.674   1.689   4.953  0.5562  1.0020  0.1234
 9424SOL     OW39907   0.971   0.393   9.750 -0.0746 -0.6920  0.0639
 9424SOL    HW139908   1.002   0.404   9.840 -0.4455 -0.0532  0.1147
 9424SOL    HW239909   0.943   0.302   9.743  1.7583 -0.9790 -3.4950
 9425SOL     OW39910   2.120   2.313   6.876 -0.1111 -0.1325 -0.2959
 9425SOL    HW139911   2.191   2.333   6.937  1.2963 -1.3611 -1.4975
 9425SOL    HW239912   2.039   2.350   6.911  0.1270 -0.3203  0.4474
 9426SOL     OW39913   3.331   2.504   1.162  0.0408  0.2788  0.2480
 9426SOL    HW139914   3.349   2.598   1.167 -0.2327  0.3902 -0.7212
 9426SOL    HW239915   3.374   2.479   1.080 -1.1587  0.8587 -0.5606
 9427SOL     OW39916   3.581   1.326   4.707 -0.3696  0.3209  0.1577
 9427SOL    HW139917   3.531   1.263   4.759  1.2175 -2.8389 -2.0638
 9427SOL    HW239918   3.581   1.406   4.759  2.4465  0.0655  0.5596
 9428SOL     OW39919   1.928   2.893   3.072  0.5015 -0.3206  0.3466
 9428SOL    HW139920   1.992   2.915   3.003 -1.0829  0.4288 -0.8903
 9428SOL    HW239921   1.938   2.799   3.087  0.6945 -0.1895  1.0235
 9429SOL     OW39922   4.491   3.805   7.578  0.0169 -0.4506 -0.2446
 9429SOL    HW139923   4.443   3.755   7.644 -2.0102 -0.1917 -1.5515
 9429SOL    HW239924   4.524   3.738   7.518  1.4912  1.7211 -1.8521
 9430SOL     OW39925   0.230   0.291   2.912 -0.2660  0.0037  0.3947
 9430SOL    HW139926   0.184   0.350   2.971 -0.9588 -0.3024  0.1613
 9430SOL    HW239927   0.178   0.281   2.832 -1.6392 -3.4324  1.6948
 9431SOL     OW39928   0.154   0.948   5.678  0.5855 -0.0657  0.1684
 9431SOL    HW139929   0.217   0.965   5.749 -0.4096  0.8608  0.8437
 9431SOL    HW239930   0.172   0.863   5.639 -1.6477 -0.4673  0.0248
 9432SOL     OW39931   0.557   2.984   6.010  0.8826 -0.3342  0.0516
 9432SOL    HW139932   0.609   3.021   5.938  0.3516  2.1179  0.9233
 9432SOL    HW239933   0.626   2.929   6.047  0.9991  0.5032  1.0777
 9433SOL     OW39934   1.638   1.328   8.844  0.1496 -0.3915  0.1831
 9433SOL    HW139935   1.698   1.393   8.809 -0.6069 -0.9008 -2.0692
 9433SOL    HW239936   1.653   1.251   8.789  1.1831  1.0000 -1.4769
 9434SOL     OW39937   2.049   4.729   7.244  0.7293 -0.4366  0.2492
 9434SOL    HW139938   1.974   4.718   7.186  0.1179  1.9077  0.5978
 9434SOL    HW239939   2.011   0.059   7.304  0.1008  1.6831 -2.4093
 9435SOL     OW39940   4.020   3.943   7.833 -0.4168  0.6077 -0.2483
 9435SOL    HW139941   4.088   3.911   7.773 -0.2940  2.5589 -1.1396
 9435SOL    HW239942   3.951   3.958   7.769 -1.1269 -0.9440  0.1474
 9436SOL     OW39943   2.629   3.483  16.750 -0.0296  0.0828 -0.0145
 9436SOL    HW139944   2.621   3.396  16.789 -0.9966 -0.5003 -1.4913
 9436SOL    HW239945   2.670   3.453  16.669 -2.1151 -2.4310 -0.1660
 9437SOL     OW39946   2.631   1.156   4.009  0.2733  0.1079 -0.2256
 9437SOL    HW139947   2.627   1.087   4.075 -0.7580 -0.7121 -1.1590
 9437SOL    HW239948   2.699   1.122   3.951 -0.5897 -0.5629 -0.8267
 9438SOL     OW39949   0.392   1.037   7.804 -0.3927 -0.4103  0.2733
 9438SOL    HW139950   0.311   1.086   7.813  0.2019  0.8613 -1.1112
 9438SOL    HW239951   0.362   0.946   7.801  2.2691 -1.4177  3.3642
 9439SOL     OW39952   3.631   3.282   8.940 -0.6378  0.6367  0.1938
 9439SOL    HW139953   3.554   3.330   8.971 -0.5688  1.0570 -0.2745
 9439SOL    HW239954   3.646   3.324   8.855 -1.4501 -1.0031 -0.7580
 9440SOL     OW39955   1.486   0.990   7.941 -0.3634 -0.2195  0.5155
 9440SOL    HW139956   1.424   0.993   8.014  1.9309  1.6901  2.3696
 9440SOL    HW239957   1.430   0.960   7.870 -1.9898  1.5323  1.0475
 9441SOL     OW39958   2.947   0.307  10.517 -0.1910 -0.4437  0.0699
 9441SOL    HW139959   2.912   0.390  10.551  0.8102 -1.1931  2.9127
 9441SOL    HW239960   3.015   0.341  10.458  0.1944  1.8042  1.7929
 9442SOL     OW39961   1.429   3.460   6.590  0.3738  0.1224  0.5378
 9442SOL    HW139962   1.373   3.428   6.661  1.8527  0.6677  1.9637
 9442SOL    HW239963   1.403   3.390   6.530 -0.4906  3.5219 -2.9996
 9443SOL     OW39964   4.710   4.181   2.059 -1.0335  0.0240 -0.0835
 9443SOL    HW139965   4.624   4.185   2.101 -0.2662  2.7160  1.2788
 9443SOL    HW239966   4.685   4.211   1.971 -0.7114  1.3894  0.2924
 9444SOL     OW39967   4.463   3.186   4.406  0.2198 -0.3326  0.3052
 9444SOL    HW139968   4.370   3.183   4.387  0.5089 -0.8161 -1.0362
 9444SOL    HW239969   4.500   3.196   4.318 -0.8311  1.6582  0.1085
 9445SOL     OW39970   2.787   1.418   7.858 -0.3605  0.0714  0.7651
 9445SOL    HW139971   2.854   1.485   7.871  1.1407 -0.6963 -3.0371
 9445SOL    HW239972   2.713   1.456   7.905 -1.3432 -0.2851 -0.5066
 9446SOL     OW39973   0.626   3.831   4.586 -0.3806  0.3958 -0.3868
 9446SOL    HW139974   0.710   3.786   4.590 -0.9896 -0.8345 -1.2834
 9446SOL    HW239975   0.624   3.894   4.658  0.7344  2.4782 -2.1717
 9447SOL     OW39976   0.063   3.326  16.415 -0.1606  0.6166 -0.0710
 9447SOL    HW139977   0.018   3.399  16.459 -1.6398 -1.8318  2.4760
 9447SOL    HW239978   0.027   3.254  16.467  1.6544 -0.2973 -0.0931
 9448SOL     OW39979   3.935   3.492  12.711 -0.3756 -0.7505 -0.2348
 9448SOL    HW139980   3.965   3.420  12.655  0.3831  0.9672 -2.0372
 9448SOL    HW239981   3.962   3.567  12.658  1.6276  0.5877  2.7009
 9449SOL     OW39982   3.292   2.640   5.740 -0.0144 -0.0365 -0.3760
 9449SOL    HW139983   3.364   2.621   5.679 -0.0495  0.7117 -0.6444
 9449SOL    HW239984   3.230   2.693   5.691 -0.8942  1.0813  1.9471
 9450SOL     OW39985   2.485   0.484   8.425  0.2701 -0.2403  0.1758
 9450SOL    HW139986   2.496   0.576   8.450  3.7940 -0.1788 -1.4740
 9450SOL    HW239987   2.392   0.479   8.407  0.9417  2.2992 -3.8626
 9451SOL     OW39988   1.689   3.978   8.035 -0.3934 -0.8180 -0.6345
 9451SOL    HW139989   1.671   4.017   8.121 -1.9758  1.1427 -1.8500
 9451SOL    HW239990   1.778   3.947   8.052  0.8001  3.0900  0.4055
 9452SOL     OW39991   2.061   0.367   2.932 -0.1023 -0.5359 -0.1181
 9452SOL    HW139992   1.989   0.414   2.891  0.9991  0.2838 -1.1494
 9452SOL    HW239993   2.134   0.427   2.915  0.0473 -0.5200  0.5840
 9453SOL     OW39994   4.303   4.263  15.855  0.0649  0.1538 -0.0917
 9453SOL    HW139995   4.382   4.255  15.908  1.4936 -0.7082 -2.3671
 9453SOL    HW239996   4.341   4.306  15.779 -4.4189  0.5867 -2.0993
 9454SOL     OW39997   4.426   4.010   4.084  0.1838 -0.0368  0.0870
 9454SOL    HW139998   4.485   3.954   4.033  0.4272  1.8033 -1.6397
 9454SOL    HW239999   4.491   4.074   4.113 -0.3454  0.4103  0.2762
 9455SOL     OW40000   3.231   1.198   5.106 -0.3588 -0.3521  0.5331
 9455SOL    HW140001   3.207   1.106   5.094 -0.1483 -0.1743 -1.3132
 9455SOL    HW240002   3.151   1.249   5.118  0.1824  0.5018  0.5514
 9456SOL     OW40003   0.573   4.019   6.337 -0.1965  0.4333 -0.4313
 9456SOL    HW140004   0.540   3.951   6.278  1.5319 -0.6600 -0.1316
 9456SOL    HW240005   0.525   4.097   6.310 -2.7780 -0.4824  1.4888
 9457SOL     OW40006   2.663   3.055  17.731 -0.3258  0.0854 -0.0782
 9457SOL    HW140007   2.721   2.986  17.698 -1.7712 -0.9877 -0.4079
 9457SOL    HW240008   2.593   3.007   0.040  1.2463 -0.4152  1.7948
 9458SOL     OW40009   2.636   1.375   9.627  0.6019  0.5094 -0.1117
 9458SOL    HW140010   2.605   1.341   9.544  1.6970 -1.3828  0.2504
 9458SOL    HW240011   2.700   1.437   9.591 -1.1802  0.5692 -3.1579
 9459SOL     OW40012   0.630   0.194   6.576  0.7246 -1.1345 -0.3461
 9459SOL    HW140013   0.647   0.113   6.527  1.7981  0.0061 -1.8511
 9459SOL    HW240014   0.540   0.210   6.547  0.1537 -0.4281  1.8204
 9460SOL     OW40015   2.210   1.606  15.996  0.5809  0.4218 -0.0707
 9460SOL    HW140016   2.220   1.556  16.078  1.6907 -2.2417 -1.8295
 9460SOL    HW240017   2.170   1.689  16.022  1.3160  0.5158  0.7741
 9461SOL     OW40018   4.547   4.479   6.760 -0.1050 -0.0120  0.0722
 9461SOL    HW140019   4.583   4.545   6.819 -0.1524 -0.9079  1.1202
 9461SOL    HW240020   4.617   4.414   6.766  0.0957  0.1027 -1.0469
 9462SOL     OW40021   3.948   2.839  17.533 -0.3547 -0.4179 -0.1923
 9462SOL    HW140022   4.020   2.824  17.472  1.1002  0.5367  1.2770
 9462SOL    HW240023   4.000   2.856  17.612 -1.5905  0.8408  0.3273
 9463SOL     OW40024   4.576   0.937   8.341 -0.4658  0.4231 -0.1054
 9463SOL    HW140025   4.657   0.886   8.337 -1.2209 -0.7112 -0.8817
 9463SOL    HW240026   4.602   1.028   8.328  0.3627  0.3477  1.0314
 9464SOL     OW40027   1.740   3.855   5.130  0.1783 -0.1783 -0.0437
 9464SOL    HW140028   1.791   3.782   5.094 -0.0236 -0.3040 -0.0772
 9464SOL    HW240029   1.780   3.845   5.217  1.3322  2.5546 -0.2651
 9465SOL     OW40030   2.513   2.543   2.453  0.2299  0.2346  0.3769
 9465SOL    HW140031   2.441   2.555   2.391 -0.2041 -0.1304  0.8122
 9465SOL    HW240032   2.464   2.541   2.536 -2.3195 -4.5244 -1.2595
 9466SOL     OW40033   3.852   1.909  10.388  0.2938 -0.3919 -0.1069
 9466SOL    HW140034   3.934   1.892  10.340  0.4262  1.5881 -0.5860
 9466SOL    HW240035   3.791   1.841  10.359 -1.5461  0.8372  0.9261
 9467SOL     OW40036   2.180   1.810   2.831 -0.2248  0.1836 -0.0941
 9467SOL    HW140037   2.191   1.785   2.739  1.0922 -0.2973  0.2091
 9467SOL    HW240038   2.127   1.890   2.825 -0.4631  0.0194 -0.2346
 9468SOL     OW40039   2.353   1.160   4.550  0.3957 -0.4104  0.1885
 9468SOL    HW140040   2.282   1.125   4.497 -0.0811  1.2257 -0.2534
 9468SOL    HW240041   2.382   1.238   4.504 -1.9243 -0.7052 -1.7614
 9469SOL     OW40042   2.442   0.520   7.658  0.1128 -0.2522 -0.1377
 9469SOL    HW140043   2.520   0.573   7.642 -0.0465  0.7793  2.5199
 9469SOL    HW240044   2.383   0.594   7.643  0.8519  0.4373  0.3231
 9470SOL     OW40045   3.987   1.576   7.230  0.0838  0.8147 -0.3153
 9470SOL    HW140046   4.065   1.522   7.245 -1.2465 -0.6569  1.2265
 9470SOL    HW240047   3.937   1.549   7.307 -0.3868  1.4839 -0.3868
 9471SOL     OW40048   0.493   2.562   8.194 -0.0997  0.2531  0.0090
 9471SOL    HW140049   0.439   2.641   8.192  0.5670  0.7439  1.6674
 9471SOL    HW240050   0.483   2.528   8.105 -2.3315 -1.5062  0.9482
 9472SOL     OW40051   2.361   2.814   3.771 -0.2111  0.0922 -0.3208
 9472SOL    HW140052   2.328   2.866   3.845 -1.8181  0.2900 -1.1717
 9472SOL    HW240053   2.383   2.885   3.711  0.6912  0.1439  0.0714
 9473SOL     OW40054   3.176   2.287   5.303 -0.0871  0.4798 -0.2461
 9473SOL    HW140055   3.217   2.358   5.352 -0.4292  0.4495  0.0841
 9473SOL    HW240056   3.112   2.270   5.372  0.0007  2.7547  0.3759
 9474SOL     OW40057   1.705   2.548   0.290  0.7595  0.3448  0.2438
 9474SOL    HW140058   1.676   2.513   0.206 -0.9748  1.2859  0.4651
 9474SOL    HW240059   1.768   2.615   0.263  1.3046 -0.5226 -0.6534
 9475SOL     OW40060   4.089   2.001  15.887  0.5238  0.0402  0.5974
 9475SOL    HW140061   4.148   2.065  15.846  0.6201  0.6884  1.7394
 9475SOL    HW240062   4.143   1.958  15.953  2.4786  0.0304 -0.9732
 9476SOL     OW40063   1.966   0.007   8.397  0.2641  0.6203  0.2906
 9476SOL    HW140064   1.922   0.086   8.427 -2.0283 -0.3490 -0.5257
 9476SOL    HW240065   2.057   0.037   8.393  0.0267  1.3508  0.4516
 9477SOL     OW40066   0.055   0.239   3.177 -0.6425 -0.0951 -0.6142
 9477SOL    HW140067   4.695   0.227   3.188 -0.6557  0.4283 -0.1386
 9477SOL    HW240068   0.082   0.162   3.127 -0.8779 -0.1480 -0.6594
 9478SOL     OW40069   1.186   2.637   6.877 -0.0083 -0.0185 -0.3984
 9478SOL    HW140070   1.238   2.567   6.916  1.7967  0.6951 -1.5026
 9478SOL    HW240071   1.241   2.686   6.815  2.0020 -0.7706  0.7848
 9479SOL     OW40072   2.812   0.409   4.724 -0.1255  0.5431  0.4431
 9479SOL    HW140073   2.779   0.499   4.722 -0.8842  0.2629  0.3193
 9479SOL    HW240074   2.729   0.366   4.703  0.9615 -0.3784 -1.8722
 9480SOL     OW40075   1.315   2.822   8.856  0.6070 -0.4379  0.2707
 9480SOL    HW140076   1.305   2.745   8.913  3.3139  0.7306  2.2931
 9480SOL    HW240077   1.319   2.893   8.920 -1.3642  1.3343 -1.6070
 9481SOL     OW40078   2.056   2.874  16.890  0.4831 -0.1472  0.6092
 9481SOL    HW140079   2.047   2.779  16.896 -3.0925  0.0525 -1.4048
 9481SOL    HW240080   2.041   2.889  16.983 -0.4786  2.5097  0.0116
 9482SOL     OW40081   0.432   0.879   8.914 -0.3125  0.6700 -0.1986
 9482SOL    HW140082   0.384   0.958   8.890  0.0111  0.8639 -0.2075
 9482SOL    HW240083   0.359   0.817   8.912 -0.4630  0.8330  0.4052
 9483SOL     OW40084   0.699   4.468   6.482 -0.2347 -0.5233 -0.5385
 9483SOL    HW140085   0.607   4.467   6.507 -0.2463 -2.8219 -0.6780
 9483SOL    HW240086   0.707   4.556   6.446 -0.0800 -0.8198 -1.2343
 9484SOL     OW40087   3.452   1.767   4.543  0.3520 -0.2625 -0.5426
 9484SOL    HW140088   3.520   1.721   4.592  1.7923 -0.4022 -2.6938
 9484SOL    HW240089   3.395   1.787   4.617 -0.5875 -0.4052 -1.2203
 9485SOL     OW40090   2.621   3.173   2.929 -0.1866  0.3128  0.3070
 9485SOL    HW140091   2.579   3.110   2.988 -0.2605 -0.8137 -0.9592
 9485SOL    HW240092   2.714   3.153   2.934  0.0462  0.9169 -1.7359
 9486SOL     OW40093   1.864   1.127   6.208 -0.2587  0.3582 -0.4366
 9486SOL    HW140094   1.843   1.212   6.169 -0.5485  1.1392  1.4215
 9486SOL    HW240095   1.840   1.072   6.134  0.2785 -0.4583 -0.0107
 9487SOL     OW40096   1.875   0.468   6.661  0.1713  0.0049  0.6526
 9487SOL    HW140097   1.878   0.510   6.747 -1.7884 -1.4887  1.4469
 9487SOL    HW240098   1.963   0.490   6.630  0.7717  0.1787  2.4655
 9488SOL     OW40099   1.883   0.073   2.967 -0.0383  0.1876  0.3541
 9488SOL    HW140100   1.827   0.148   2.950 -1.9059 -1.3198 -0.1823
 9488SOL    HW240101   1.928   0.099   3.047 -0.3633  2.5359 -0.2325
 9489SOL     OW40102   4.585   3.191  16.935 -0.4118  1.1748  0.6260
 9489SOL    HW140103   4.591   3.181  17.030 -2.1838  0.1411  0.6258
 9489SOL    HW240104   4.679   3.203  16.918 -0.2954 -1.4320 -0.6381
 9490SOL     OW40105   3.296   3.937   6.858 -0.0238  0.1220  0.0322
 9490SOL    HW140106   3.327   4.001   6.922  0.3437  1.0946 -1.1175
 9490SOL    HW240107   3.386   3.912   6.836 -0.4768 -2.7488  1.3447
 9491SOL     OW40108   2.200   4.227   6.240  0.4990  0.1121 -0.1481
 9491SOL    HW140109   2.240   4.164   6.179  0.6863 -1.1611  1.2720
 9491SOL    HW240110   2.234   4.194   6.323  0.5831 -0.5804 -0.4535
 9492SOL     OW40111   0.620   2.867   3.024  0.3699  0.4205 -0.0485
 9492SOL    HW140112   0.592   2.945   3.073  1.6963 -0.0392  1.4289
 9492SOL    HW240113   0.548   2.803   3.023  1.4308 -0.7557 -0.3484
 9493SOL     OW40114   1.995   1.709   3.411 -0.1082 -0.2402  0.1401
 9493SOL    HW140115   1.960   1.730   3.324  0.3078  0.9294  0.2521
 9493SOL    HW240116   2.020   1.800   3.430  3.5894 -1.6886  2.2196
 9494SOL     OW40117   4.045   1.079   5.811 -0.2003  0.2661  0.4092
 9494SOL    HW140118   4.137   1.079   5.782 -0.5487 -1.5933 -0.6813
 9494SOL    HW240119   4.023   0.989   5.788  1.0321 -0.5834  2.5092
 9495SOL     OW40120   1.958   4.081   3.769 -0.0081  0.0740 -0.1202
 9495SOL    HW140121   1.910   4.158   3.739  0.1886  0.2475  0.0097
 9495SOL    HW240122   1.945   4.011   3.705  2.3726  0.2339 -0.7754
 9496SOL     OW40123   2.036   3.393   7.860 -0.6014 -0.1790 -0.5233
 9496SOL    HW140124   2.051   3.312   7.812  0.7202  0.7269 -1.6357
 9496SOL    HW240125   2.043   3.371   7.953 -0.0823  0.1129 -0.4957
 9497SOL     OW40126   1.672   2.011   3.010 -0.2153  0.0658  0.2935
 9497SOL    HW140127   1.692   1.931   2.961  0.0190 -0.0668  0.6052
 9497SOL    HW240128   1.741   2.075   2.995 -0.3181  0.3702  1.1779
 9498SOL     OW40129   0.591   2.535   3.341  0.3779 -0.7556 -0.0494
 9498SOL    HW140130   0.501   2.554   3.315  0.7362  1.2730  0.1660
 9498SOL    HW240131   0.577   2.517   3.434  0.5051 -0.2781  0.0637
 9499SOL     OW40132   0.807   0.593   3.868  0.0410  0.2512 -0.1151
 9499SOL    HW140133   0.743   0.628   3.806 -1.0574 -3.6603 -1.2179
 9499SOL    HW240134   0.789   0.499   3.857  0.1398  0.3764 -1.3624
 9500SOL     OW40135   4.278   0.347   6.417 -0.8813  0.4203 -0.2310
 9500SOL    HW140136   4.269   0.442   6.425  1.2007  0.6089 -0.3040
 9500SOL    HW240137   4.365   0.334   6.453 -1.6279 -0.9508  1.0990
 9501SOL     OW40138   4.305   2.953   6.489 -0.3408  0.3832  0.0503
 9501SOL    HW140139   4.391   2.964   6.529 -0.0021  1.8705 -1.0736
 9501SOL    HW240140   4.269   2.882   6.542  2.5578  0.2161  1.7621
 9502SOL     OW40141   4.594   2.335   5.209  0.4601 -0.0013  0.6709
 9502SOL    HW140142   4.601   2.266   5.143 -3.2864 -1.7695  2.1121
 9502SOL    HW240143   4.642   2.292   5.280  0.4385 -0.2081  0.5602
 9503SOL     OW40144   3.374   4.121   2.348  0.1803 -0.1406 -0.7232
 9503SOL    HW140145   3.363   4.197   2.405  1.0893 -1.2998  1.0111
 9503SOL    HW240146   3.336   4.151   2.265 -1.7761 -1.7825 -0.4227
 9504SOL     OW40147   0.067   4.666   2.281  0.6571  0.1757 -0.2388
 9504SOL    HW140148   0.098   4.701   2.197 -1.9381  0.2205 -1.1554
 9504SOL    HW240149   0.136   4.602   2.300  0.0359 -0.0876  1.1517
 9505SOL     OW40150   1.614   0.720  14.931  0.1862 -0.4089 -0.6572
 9505SOL    HW140151   1.706   0.742  14.945 -0.1101  1.7824 -2.1113
 9505SOL    HW240152   1.623   0.627  14.950 -0.7096 -0.3960 -0.1491
 9506SOL     OW40153   2.031   1.699  11.953  0.3358 -0.4586  0.0407
 9506SOL    HW140154   2.070   1.714  11.867 -2.6036 -1.0281 -1.3720
 9506SOL    HW240155   2.052   1.606  11.955 -0.8585 -0.7753 -2.3942
 9507SOL     OW40156   4.563   2.021   1.649 -0.3553 -0.7131  0.5149
 9507SOL    HW140157   4.618   1.977   1.714  0.0398 -0.4619  0.3552
 9507SOL    HW240158   4.560   1.963   1.574 -2.7031 -0.3699  0.3463
 9508SOL     OW40159   3.005   0.549   6.084 -0.2729  0.1271  0.1349
 9508SOL    HW140160   3.051   0.605   6.021  1.2362 -0.3409  0.8223
 9508SOL    HW240161   2.930   0.509   6.040  0.3894 -0.9410 -0.0309
 9509SOL     OW40162   0.606   2.696   4.794 -0.1471  0.0504  0.2314
 9509SOL    HW140163   0.519   2.719   4.824 -0.6618  0.6753 -1.7236
 9509SOL    HW240164   0.617   2.629   4.861  1.0569  0.8537  0.8303
 9510SOL     OW40165   3.345   3.629   8.454 -0.2175 -0.3006 -0.5723
 9510SOL    HW140166   3.336   3.704   8.394 -2.6223  0.4979  0.8226
 9510SOL    HW240167   3.398   3.664   8.526  0.2442 -0.4843 -0.8176
 9511SOL     OW40168   4.726   3.351   1.985 -0.0904  0.1261 -0.0160
 9511SOL    HW140169   4.700   3.427   2.039 -3.2251 -0.4860 -0.6530
 9511SOL    HW240170   4.641   3.308   1.977  0.3031 -0.7894  0.8400
 9512SOL     OW40171   2.448   1.883   6.393  0.2623 -0.1826 -0.6347
 9512SOL    HW140172   2.540   1.907   6.390  0.3910 -0.9434 -3.5011
 9512SOL    HW240173   2.451   1.812   6.456  1.0827 -0.7571 -1.3138
 9513SOL     OW40174   0.639   3.898   0.839  0.3933 -0.2555  0.2324
 9513SOL    HW140175   0.604   3.967   0.782 -2.1646 -0.6494  1.3049
 9513SOL    HW240176   0.585   3.903   0.918  2.3752 -2.2668  1.7099
 9514SOL     OW40177   0.889   1.925  10.609  0.0878 -0.1464 -0.2056
 9514SOL    HW140178   0.921   1.855  10.665 -0.2977 -1.2858 -1.4000
 9514SOL    HW240179   0.971   1.966  10.578  0.7156 -1.3658 -0.1483
 9515SOL     OW40180   3.540   2.550   5.331  0.2603 -0.0935 -0.0051
 9515SOL    HW140181   3.533   2.573   5.423  2.2173  1.7424 -0.3295
 9515SOL    HW240182   3.600   2.476   5.336 -2.4649 -2.2448  1.3801
 9516SOL     OW40183   2.616   0.856   9.593 -0.1816  0.5678  0.4262
 9516SOL    HW140184   2.541   0.803   9.564 -1.0697  1.8467  0.4191
 9516SOL    HW240185   2.599   0.937   9.546 -0.2354 -0.8904 -2.0628
 9517SOL     OW40186   3.943   3.529   2.365  0.5418 -0.0423 -0.3409
 9517SOL    HW140187   3.877   3.596   2.384  0.1242 -0.1384 -1.4102
 9517SOL    HW240188   4.016   3.587   2.345 -0.6024  1.5147 -0.0445
 9518SOL     OW40189   2.774   4.072   7.554  0.3540  0.1243  0.1817
 9518SOL    HW140190   2.694   4.061   7.606 -0.5088  1.7025 -0.8256
 9518SOL    HW240191   2.780   3.985   7.515 -0.4914 -0.9298  2.3889
 9519SOL     OW40192   2.936   2.198   6.560 -0.1748  0.2002  0.1478
 9519SOL    HW140193   3.005   2.153   6.511 -0.7848  1.9654 -2.3828
 9519SOL    HW240194   2.890   2.241   6.487  1.4863 -1.3829 -1.8467
 9520SOL     OW40195   2.141   2.593   8.388  0.4993 -0.4723 -0.0743
 9520SOL    HW140196   2.174   2.646   8.316  0.5154  0.5671  0.6962
 9520SOL    HW240197   2.119   2.520   8.330 -1.9867  0.3694 -0.1677
 9521SOL     OW40198   0.906   3.276   9.711 -0.0330  0.4131  0.4664
 9521SOL    HW140199   0.939   3.193   9.745  0.3269  0.7301  0.8910
 9521SOL    HW240200   0.985   3.330   9.706  0.3644 -0.2584 -0.4071
 9522SOL     OW40201   2.812   0.646   4.442  0.4648 -0.1722  0.2752
 9522SOL    HW140202   2.797   0.631   4.535  0.8366 -1.2659  0.1688
 9522SOL    HW240203   2.871   0.571   4.433 -0.9826 -1.3934  1.0440
 9523SOL     OW40204   0.468   0.640   9.414 -0.6771  0.0298  0.2793
 9523SOL    HW140205   0.476   0.721   9.363 -0.6127  0.8329  1.5513
 9523SOL    HW240206   0.375   0.627   9.398 -0.4044 -2.2310  0.6292
 9524SOL     OW40207   1.588   2.389   7.534  0.2244 -0.1864  0.0228
 9524SOL    HW140208   1.576   2.394   7.439  0.4550  0.5003  0.0294
 9524SOL    HW240209   1.501   2.392   7.572  0.2702 -0.2224  0.1311
 9525SOL     OW40210   3.538   3.312  15.615  0.3482 -0.4413 -0.0008
 9525SOL    HW140211   3.587   3.249  15.564 -1.1866 -0.5380 -1.3734
 9525SOL    HW240212   3.456   3.267  15.636  0.6320 -1.6275 -1.4444
 9526SOL     OW40213   4.626   2.523   4.631  0.3181  0.0936 -0.6016
 9526SOL    HW140214   4.707   2.557   4.669  0.6561  0.3355 -1.5680
 9526SOL    HW240215   4.620   2.435   4.669 -2.4889  0.2902 -0.6320
 9527SOL     OW40216   0.007   1.303   0.515  0.1257  0.3969 -0.0235
 9527SOL    HW140217   0.020   1.386   0.559  0.3794  0.0608  0.5367
 9527SOL    HW240218   0.093   1.262   0.510 -0.4148 -0.7047 -0.5363
 9528SOL     OW40219   3.069   1.472   7.202  0.1177 -0.0843 -0.0933
 9528SOL    HW140220   3.076   1.470   7.297 -0.3418  0.8871 -0.0453
 9528SOL    HW240221   3.145   1.527   7.182  0.6367 -0.1012  1.8026
 9529SOL     OW40222   0.295   0.315   9.335 -0.3577 -0.8761 -0.2110
 9529SOL    HW140223   0.233   0.300   9.264 -0.4212 -1.1193 -0.1063
 9529SOL    HW240224   0.266   0.404   9.355 -0.5770 -1.2651  1.2008
 9530SOL     OW40225   0.549   1.578   0.534 -0.2211  0.1004  0.1010
 9530SOL    HW140226   0.608   1.521   0.486 -0.9780 -1.8687  1.5304
 9530SOL    HW240227   0.560   1.665   0.494 -1.1151  0.3573  0.4173
 9531SOL     OW40228   4.628   0.780   4.691  0.2356  0.1863 -0.0003
 9531SOL    HW140229   4.589   0.848   4.745 -2.0637 -2.2556  1.3696
 9531SOL    HW240230   4.550   0.775   4.636 -0.2109  2.1399  0.4560
 9532SOL     OW40231   0.529   0.834   1.113  0.2229 -0.3651  0.1531
 9532SOL    HW140232   0.531   0.894   1.038  1.7866  1.5358  1.7216
 9532SOL    HW240233   0.445   0.853   1.155  0.2144  0.2238 -0.1316
 9533SOL     OW40234   2.810   3.555  10.242 -0.0860 -0.5683  0.5338
 9533SOL    HW140235   2.728   3.547  10.291 -0.3955  0.8817  0.2449
 9533SOL    HW240236   2.866   3.500  10.297  1.7699  0.5790 -0.2144
 9534SOL     OW40237   4.417   2.726   3.150  0.3157 -0.3522 -0.3596
 9534SOL    HW140238   4.324   2.745   3.142  0.7258  1.9367  0.3049
 9534SOL    HW240239   4.442   2.784   3.222  1.0561 -2.2259  0.8844
 9535SOL     OW40240   0.994   2.620   5.238  0.6476 -0.1880  0.1922
 9535SOL    HW140241   0.998   2.715   5.255 -0.5755 -0.0664 -0.1653
 9535SOL    HW240242   1.049   2.601   5.163  1.5499 -2.3569  1.4244
 9536SOL     OW40243   1.981   4.046   5.751 -0.0172 -0.4600  0.0633
 9536SOL    HW140244   2.074   4.040   5.728  0.2806 -0.0934  1.1427
 9536SOL    HW240245   1.943   4.023   5.666  1.7464 -0.2719 -0.7869
 9537SOL     OW40246   3.256   3.457  12.475 -0.8596 -0.0818  0.0456
 9537SOL    HW140247   3.274   3.365  12.456 -1.7238 -0.8060  2.7418
 9537SOL    HW240248   3.320   3.457  12.547 -0.2155 -0.7590 -0.5328
 9538SOL     OW40249   3.324   2.955   3.034 -0.7490  0.3170  0.3152
 9538SOL    HW140250   3.268   2.878   3.039 -1.0827  0.4914 -0.7459
 9538SOL    HW240251   3.277   3.004   2.967 -1.1812  2.5198  2.2422
 9539SOL     OW40252   2.738   4.156   2.435  0.1284 -0.3387  0.3230
 9539SOL    HW140253   2.766   4.171   2.525 -0.3005 -0.9625  0.5584
 9539SOL    HW240254   2.768   4.066   2.428 -0.5587 -0.6297  1.2269
 9540SOL     OW40255   2.439   4.268  10.076 -0.0213 -0.3659 -0.2023
 9540SOL    HW140256   2.387   4.196  10.111  1.0024 -1.1460 -0.2898
 9540SOL    HW240257   2.527   4.249  10.109  0.3608  1.1614 -0.3257
 9541SOL     OW40258   1.632   0.054   3.683 -0.1018 -0.0897 -0.2626
 9541SOL    HW140259   1.674   0.136   3.656 -0.7517 -0.3854 -2.2116
 9541SOL    HW240260   1.700   0.007   3.731  0.9948  1.4012 -0.3529
 9542SOL     OW40261   3.354   1.072   1.523 -0.1043  0.0158  0.5373
 9542SOL    HW140262   3.325   1.048   1.611 -0.0317  0.4871  0.6866
 9542SOL    HW240263   3.277   1.118   1.489  1.6620  0.6693 -2.5666
 9543SOL     OW40264   2.658   3.648   1.825 -0.2654 -0.5772 -0.0580
 9543SOL    HW140265   2.748   3.624   1.845  0.6852 -0.5563 -4.1851
 9543SOL    HW240266   2.625   3.655   1.914 -0.5860 -1.3402 -0.1166
 9544SOL     OW40267   2.905   3.309  10.381 -0.0995 -0.0596  0.1327
 9544SOL    HW140268   2.911   3.230  10.327  1.8952  0.8206 -0.9260
 9544SOL    HW240269   2.994   3.315  10.415 -0.2909 -2.1985  1.0271
 9545SOL     OW40270   3.057   1.890   1.892  0.2147  0.3954  0.4333
 9545SOL    HW140271   3.024   1.894   1.982 -2.3117  1.1724 -0.5170
 9545SOL    HW240272   3.068   1.984   1.874  4.3661 -0.1468  0.2355
 9546SOL     OW40273   2.073   3.401   1.911 -0.0107  0.7228 -0.1815
 9546SOL    HW140274   2.075   3.491   1.880 -0.5653  1.5668  2.1754
 9546SOL    HW240275   1.983   3.370   1.898  1.1594 -3.1494  1.0238
 9547SOL     OW40276   4.220   1.831  16.073 -0.7241 -0.2346 -0.1494
 9547SOL    HW140277   4.189   1.826  16.163  0.4400 -0.8792  0.2136
 9547SOL    HW240278   4.309   1.800  16.090 -0.5047 -0.3953 -1.6237
 9548SOL     OW40279   0.731   4.418  14.059  0.4864  0.1824 -0.2551
 9548SOL    HW140280   0.775   4.484  14.006  1.7994  1.4810  2.4821
 9548SOL    HW240281   0.666   4.471  14.104  0.0081  0.2668 -1.0420
 9549SOL     OW40282   2.485   0.504   4.444  0.0804 -0.1920  0.0302
 9549SOL    HW140283   2.469   0.434   4.380  2.1458  0.3277 -1.0390
 9549SOL    HW240284   2.539   0.573   4.406  1.2688 -0.3836  1.4162
 9550SOL     OW40285   0.238   3.823   8.223  0.3180 -0.5186  0.2726
 9550SOL    HW140286   0.216   3.810   8.131 -2.8239 -2.0534  1.2456
 9550SOL    HW240287   0.156   3.869   8.246 -0.6538 -2.1939  0.1318
 9551SOL     OW40288   1.358   3.504   3.379  0.3964  0.0941  0.4530
 9551SOL    HW140289   1.312   3.584   3.356  0.5880 -0.0496 -0.4656
 9551SOL    HW240290   1.366   3.508   3.474 -1.9152  0.4259  0.6128
 9552SOL     OW40291   0.003   1.492   2.140 -0.1452 -0.2930 -0.4106
 9552SOL    HW140292   4.672   1.422   2.139  1.0867 -1.4274 -2.8417
 9552SOL    HW240293   0.076   1.452   2.188 -1.8140 -0.7161  1.8100
 9553SOL     OW40294   0.547   1.729  12.632 -0.7570 -0.3883 -0.3369
 9553SOL    HW140295   0.493   1.655  12.603 -0.5016 -1.5640  2.1583
 9553SOL    HW240296   0.637   1.699  12.622  0.0816  2.4602 -1.2893
 9554SOL     OW40297   4.367   2.026   5.579 -0.0470 -0.8604 -0.0035
 9554SOL    HW140298   4.278   2.041   5.545  0.1068 -2.0733 -0.9448
 9554SOL    HW240299   4.354   2.075   5.660 -0.5885 -0.1100 -0.5484
 9555SOL     OW40300   2.938   3.054  11.022  0.6376 -0.4766 -0.2089
 9555SOL    HW140301   3.024   3.012  11.023  0.4244 -0.8095  4.0907
 9555SOL    HW240302   2.950   3.124  10.957  1.8613 -1.2667 -0.8318
 9556SOL     OW40303   1.926   4.244   8.002 -0.4893 -0.0867  0.1663
 9556SOL    HW140304   1.862   4.197   7.949  1.8207 -0.2810 -2.4793
 9556SOL    HW240305   1.878   4.278   8.078  0.4387  0.6501  0.4330
 9557SOL     OW40306   3.057   2.858   2.093  0.5488 -0.1970 -0.4095
 9557SOL    HW140307   2.967   2.837   2.067  0.4705 -0.8635  0.3901
 9557SOL    HW240308   3.057   2.945   2.051  0.7106  1.2218  2.5348
 9558SOL     OW40309   1.840   3.131   3.185  0.4794 -0.9053  0.1591
 9558SOL    HW140310   1.858   3.048   3.141 -0.0663 -0.7221 -0.3953
 9558SOL    HW240311   1.746   3.147   3.185  0.4297 -1.1923  0.6435
 9559SOL     OW40312   4.108   0.279   0.919  0.0264  0.3232  0.2311
 9559SOL    HW140313   4.061   0.363   0.924  0.1691  0.5411 -1.9831
 9559SOL    HW240314   4.041   0.232   0.869 -1.1668 -0.2254  2.3720
 9560SOL     OW40315   4.516   2.957   4.723  0.8672  0.0097  0.0329
 9560SOL    HW140316   4.597   2.989   4.765  1.6320 -0.8028 -0.8279
 9560SOL    HW240317   4.458   3.033   4.732  0.2913 -0.6482  1.9072
 9561SOL     OW40318   2.994   1.596   6.138 -0.8142  0.3120  0.1658
 9561SOL    HW140319   3.001   1.607   6.233  0.6969 -0.8127  0.1877
 9561SOL    HW240320   3.041   1.512   6.132  2.4356  2.0999  0.3031
 9562SOL     OW40321   3.994   2.933  13.293  0.2437  0.2531  0.0401
 9562SOL    HW140322   4.012   3.010  13.239  0.9859 -0.6186 -0.9561
 9562SOL    HW240323   3.997   2.874  13.217 -1.2666 -0.1976  0.3259
 9563SOL     OW40324   0.380   0.860   4.142 -0.6261  0.2165  0.3817
 9563SOL    HW140325   0.437   0.897   4.209 -0.4743 -1.1633  1.0087
 9563SOL    HW240326   0.429   0.792   4.095  0.3295 -0.6545  2.6149
 9564SOL     OW40327   0.898   0.590   6.327 -0.1365  0.2144 -0.2846
 9564SOL    HW140328   0.990   0.604   6.303  0.3243  0.6078  1.6867
 9564SOL    HW240329   0.883   0.666   6.384  0.3646  0.3486 -0.3292
 9565SOL     OW40330   2.788   3.330  10.607 -0.0432 -0.0239 -0.0634
 9565SOL    HW140331   2.839   3.327  10.526 -0.8829  2.8020 -0.7078
 9565SOL    HW240332   2.707   3.370  10.574  0.2096  0.1085 -0.5201
 9566SOL     OW40333   0.907   2.033  14.499 -0.5284 -1.0984 -0.3853
 9566SOL    HW140334   0.829   1.983  14.477 -1.0948 -0.0572 -0.7296
 9566SOL    HW240335   0.979   1.974  14.475 -1.4874 -1.4709 -2.3634
 9567SOL     OW40336   2.516   0.904   5.875  0.0832 -0.6892 -0.4046
 9567SOL    HW140337   2.494   0.938   5.961  0.8327  1.0294 -0.8922
 9567SOL    HW240338   2.582   0.965   5.842  0.4406 -0.8593 -0.0109
 9568SOL     OW40339   3.342   0.546   8.022 -0.4251  0.2420 -0.5581
 9568SOL    HW140340   3.385   0.479   8.077  1.8770  0.1553 -2.4850
 9568SOL    HW240341   3.263   0.557   8.074 -0.8651 -1.8819 -0.7770
 9569SOL     OW40342   3.661   1.529   3.762  0.2917  0.3160  0.0308
 9569SOL    HW140343   3.671   1.528   3.667  0.3592  0.4835  0.0367
 9569SOL    HW240344   3.751   1.540   3.792  0.3199  1.4903 -0.4777
   4.73424   4.73424  17.73603
