Membrane in water
40344
    1TMC1    C1    1   0.793   3.538  11.387 -0.4971  0.6015  0.3232
    1TMC1    C2    2   0.689   3.620  11.363  0.5589 -0.1569 -0.9044
    1TMC1    C3    3   0.714   3.747  11.319  0.3872  0.3885  0.6901
    1TMC1    C4    4   0.925   3.581  11.374  0.1863 -0.6852  0.0434
    1TMC1    C5    5   0.946   3.710  11.331  0.3766  0.5431 -0.5024
    1TMC1    C6    6   0.839   3.798  11.303  0.4549  0.2639 -0.6287
    1TMC1     C    7   0.757   3.407  11.437  0.1405 -0.1273 -0.6359
    1TMC1     O    8   0.638   3.390  11.460  0.4784  0.1997 -0.2093
    1TMC1     H    9   0.586   3.602  11.392  0.5547  0.9158 -0.2617
    1TMC1    H1   10   1.009   3.520  11.404 -0.0359 -0.3614  1.3100
    1TMC1    H2   11   0.857   3.899  11.270  1.2649 -0.0813 -1.2315
    1TMC1    C7   12   1.084   3.752  11.316  0.0043 -0.1933  0.0857
    1TMC1    C8   13   0.604   3.834  11.289 -0.1196  0.3630 -0.2716
    1TMC1    O1   14   1.146   3.738  11.211  0.4825  0.1689  0.4820
    1TMC1    O2   15   0.496   3.841  11.348  0.3334  0.2516  0.7844
    1TMC1    O3   16   1.138   3.741  11.441 -0.1037  0.0259  0.4725
    1TMC1    H3   17   1.076   3.763  11.513  0.0330  0.7070  0.3778
    1TMC1    O5   18   0.637   3.901  11.180 -0.0697 -0.4415 -0.1755
    1TMC1    H5   19   0.708   3.856  11.129 -1.2143  1.1561 -3.2061
    2MPD2     C   20   0.921   2.997  11.710  0.1190 -0.9545 -0.6601
    2MPD2    C1   21   0.791   3.027  11.677  0.1949  0.3475 -0.5519
    2MPD2    C2   22   0.762   3.136  11.594  0.2952  0.6223  0.9766
    2MPD2    C3   23   0.876   3.212  11.557  0.2696 -0.2219  0.1111
    2MPD2    C4   24   1.005   3.181  11.596  0.0674 -0.1647  0.4641
    2MPD2    C5   25   1.021   3.074  11.673  0.6916 -0.2260 -0.2590
    2MPD2     H   26   0.661   3.167  11.570  0.6498  0.5098 -0.6364
    2MPD2    H1   27   1.089   3.243  11.568 -0.6447  0.1699 -0.9485
    2MPD2    H2   28   0.959   2.911  11.765  1.5179 -0.1821 -0.4189
    2MPD2    H3   29   1.122   3.061  11.711  0.0012 -0.1699  1.6048
    2MPD2     N   30   0.872   3.331  11.480  0.1769  0.2697  0.1113
    2MPD2    H5   31   0.957   3.385  11.469  0.6497 -0.6647 -0.8565
    2MPD2    N1   32   0.683   2.948  11.719 -0.0776  0.1865 -0.3253
    2MPD2    H7   33   0.589   2.981  11.702  1.1590  3.0143 -1.7352
    3TMC1    C1   34   4.578   3.482  11.124  0.6775  0.0359 -0.0462
    3TMC1    C2   35   4.643   3.548  11.019  0.0289  0.0136 -0.5361
    3TMC1    C3   36   4.700   3.467  10.927 -0.3211  0.1728 -0.0190
    3TMC1    C4   37   4.550   3.354  11.119 -0.5930  0.1227  0.0820
    3TMC1    C5   38   4.598   3.278  11.020 -0.0015  0.2675  0.7620
    3TMC1    C6   39   4.684   3.326  10.929  0.1535  0.2112 -0.5529
    3TMC1     C   40   4.480   3.563  11.201  0.0186  0.4576  0.0826
    3TMC1     O   41   4.423   3.493  11.283 -0.0791 -0.2530  0.4453
    3TMC1     H   42   4.655   3.656  11.008  1.1498 -0.3280 -2.6195
    3TMC1    H1   43   4.482   3.306  11.189  0.2281 -1.6274 -0.3208
    3TMC1    H2   44   4.724   3.261  10.853  1.9662 -0.2999  0.8059
    3TMC1    C7   45   4.552   3.139  11.017  0.2172  0.3537 -0.8086
    3TMC1    C8   46   0.023   3.532  10.818  0.3857 -0.3968  0.3708
    3TMC1    O1   47   4.448   3.108  10.960 -0.0664  0.4435  0.3407
    3TMC1    O2   48   4.736   3.647  10.789 -0.1683 -0.3765 -0.2804
    3TMC1    O3   49   4.588   3.099  11.142 -0.6322  0.1132 -0.2044
    3TMC1    H3   50   4.652   3.162  11.181 -0.3516 -0.0231 -0.4501
    3TMC1    O5   51   0.145   3.469  10.804  0.7588 -0.0394 -0.3851
    3TMC1    H5   52   0.170   3.399  10.868 -0.2420 -0.3677 -0.3459
    4MPD2     C   53   4.197   3.969  11.331 -0.5998  0.1499  0.3242
    4MPD2    C1   54   4.297   4.014  11.244 -0.1830  0.4474 -0.0938
    4MPD2    C2   55   4.383   3.923  11.193 -0.7563 -0.0405  0.1697
    4MPD2    C3   56   4.376   3.789  11.229 -0.4391 -0.6074 -0.0666
    4MPD2    C4   57   4.285   3.746  11.320  0.0256  0.3141  0.7487
    4MPD2    C5   58   4.188   3.833  11.358 -0.1871 -0.4858 -0.8096
    4MPD2     H   59   4.455   3.955  11.118 -0.7214 -1.1206 -0.2500
    4MPD2    H1   60   4.287   3.648  11.366 -0.9674 -0.6560 -1.2711
    4MPD2    H2   61   4.132   4.041  11.379 -1.1406  0.6525 -1.1554
    4MPD2    H3   62   4.118   3.804  11.435  0.4612 -1.3951 -0.5625
    4MPD2     N   63   4.468   3.699  11.175 -0.2001 -0.4934 -0.4171
    4MPD2    H5   64   4.538   3.743  11.115 -0.9466 -0.2716 -1.1160
    4MPD2    N1   65   4.302   4.146  11.194 -0.1337  0.3968 -0.4988
    4MPD2    H7   66   4.371   4.165  11.122  1.7579  0.8267  1.4333
    5TCq1    O1   67   0.276   1.368  12.159  0.4870 -0.6964  0.8633
    5TCq1    C1   68   0.275   1.345  12.027 -0.2480 -0.3641  0.0684
    5TCq1    O2   69   0.357   1.278  11.968 -0.1042  0.5077 -0.5687
    5TCq1    C2   70   0.146   1.384  11.966  0.2481 -0.2287  0.2154
    5TCq1    C3   71   0.062   1.464  12.032 -0.3200  1.0496  0.0799
    5TCq1    C4   72   4.679   1.486  11.971 -0.6854 -0.4221 -0.5041
    5TCq1    C5   73   4.635   1.417  11.860  0.4483 -0.4241 -0.6965
    5TCq1    C6   74   4.721   1.321  11.807 -0.2937 -0.2183 -0.7601
    5TCq1    C7   75   0.115   1.310  11.859  0.2229  0.5485  0.4224
    5TCq1    C8   76   4.671   1.216  11.726  0.1370  0.3730 -0.4662
    5TCq1    O4   77   0.005   1.124  11.690  0.1244 -0.2572  0.2475
    5TCq1    C9   78   4.594   1.581  12.032 -0.9621  0.4505  0.0405
    5TCq1    O5   79   4.477   1.565  11.996  0.0702  0.4285 -0.0637
    5TCq1    O6   80   4.633   1.666  12.119  0.1371 -1.1264  0.1167
    5TCq1    H1   81   0.188   1.397  12.192  1.2536 -0.8265  3.0038
    5TCq1    H2   82   0.094   1.538  12.105  2.6724 -1.3573  1.2246
    5TCq1    H3   83   4.534   1.428  11.824  1.1875  0.8664 -2.3495
    5TCq1    H4   84   0.176   1.227  11.824 -0.1242  1.3749 -2.1649
    6MPD2     C   85   4.342   1.213  11.583  0.5709 -0.4416 -0.4202
    6MPD2    C1   86   4.471   1.173  11.587  0.5665 -0.4162  0.6731
    6MPD2    C2   87   4.530   1.092  11.493 -0.6007  0.7179  0.0171
    6MPD2    C3   88   4.450   1.053  11.386 -0.2681 -0.5128  0.4864
    6MPD2    C4   89   4.318   1.096  11.374  0.3524  0.5756 -0.5441
    6MPD2    C5   90   4.270   1.178  11.473  0.5297  0.0574 -0.0628
    6MPD2     H   91   4.637   1.072  11.499 -0.9236 -2.0237 -3.4562
    6MPD2    H1   92   4.251   1.070  11.293  0.9333  0.9104 -1.1248
    6MPD2    H2   93   4.291   1.259  11.667 -1.5306 -1.3228 -1.1988
    6MPD2    H3   94   4.163   1.195  11.466  0.6470  0.6640 -0.3535
    6MPD2     N   95   4.510   0.976  11.277  0.0557  0.2249 -0.6079
    6MPD2    H5   96   4.603   0.937  11.291  0.3597  0.6010 -1.5722
    6MPD2    N1   97   4.539   1.232  11.693 -0.3548  0.8846  0.6302
    6MPD2    H7   98   4.482   1.292  11.752  1.8374  1.7373  1.8713
    7TCq1    O1   99   1.843   0.427  13.722  0.0514 -0.4795  0.5098
    7TCq1    C1  100   1.914   0.443  13.837 -0.5767 -0.8569  0.5088
    7TCq1    O2  101   1.925   0.352  13.922  0.4290 -0.4886 -0.1569
    7TCq1    C2  102   2.021   0.535  13.834 -0.1488  0.2206 -0.4682
    7TCq1    C3  103   2.013   0.651  13.760 -0.8058  0.1107  0.3563
    7TCq1    C4  104   2.121   0.733  13.760 -0.1942 -0.2560  0.7510
    7TCq1    C5  105   2.228   0.706  13.832 -0.1571  0.4380 -0.8303
    7TCq1    C6  106   2.233   0.588  13.899 -0.5705 -0.5992  0.1946
    7TCq1    C7  107   2.129   0.499  13.902 -0.5834  0.4592 -0.1664
    7TCq1    C8  108   2.359   0.529  13.936  0.1874  0.0689  0.6841
    7TCq1    O4  109   2.370   0.408  13.940 -0.0546 -0.1724  0.3526
    7TCq1    C9  110   2.116   0.857  13.689 -0.1210 -0.4166  0.3375
    7TCq1    O5  111   2.002   0.906  13.668 -0.4679 -0.5617  0.0896
    7TCq1    O6  112   2.228   0.918  13.682  0.5427  0.3388  0.7236
    7TCq1    H1  113   1.859   0.494  13.653  0.3189 -0.7442  0.3135
    7TCq1    H2  114   1.929   0.681  13.699  1.3401  4.5165 -0.4713
    7TCq1    H3  115   2.319   0.765  13.826  1.5522 -2.1047  0.2670
    7TCq1    H4  116   2.127   0.409  13.963 -0.0396 -0.2684 -1.2132
    8MPD2     C  117   2.858   0.562  13.942 -0.0800 -0.1877 -0.1657
    8MPD2    C1  118   2.780   0.483  13.868  0.5387  0.4878  0.7803
    8MPD2    C2  119   2.642   0.494  13.889  0.0465  0.2323 -0.7286
    8MPD2    C3  120   2.590   0.595  13.973  0.0226  0.9187 -0.0608
    8MPD2    C4  121   2.676   0.675  14.046  0.0122 -0.2981  0.3580
    8MPD2    C5  122   2.809   0.657  14.029 -0.0167 -0.3619 -0.0284
    8MPD2     H  123   2.571   0.440  13.828 -0.5310  0.0551  0.0956
    8MPD2    H1  124   2.638   0.757  14.105  1.3572  1.0548 -0.6809
    8MPD2    H2  125   2.963   0.556  13.915  0.5557  1.6347  1.8716
    8MPD2    H3  126   2.871   0.729  14.082 -3.2927  2.4703 -0.0955
    8MPD2     N  127   2.455   0.620  13.980 -0.1166  0.4825 -0.0556
    8MPD2    H5  128   2.426   0.712  14.013 -1.1284 -0.0915  0.6555
    8MPD2    N1  129   2.834   0.378  13.794 -0.0009 -0.5994  0.0968
    8MPD2    H7  130   2.935   0.367  13.804  0.0551  0.2033  0.3969
    9TMC1    C1  131   0.224   4.291  11.528 -0.0162  0.0224 -1.2770
    9TMC1    C2  132   0.127   4.358  11.597  0.6793  0.2076  0.5448
    9TMC1    C3  133   0.113   4.494  11.576  0.3784  0.9321 -0.0676
    9TMC1    C4  134   0.300   4.357  11.430 -0.8488  0.1808 -0.0233
    9TMC1    C5  135   0.278   4.491  11.400 -0.0295  0.0312 -0.7248
    9TMC1    C6  136   0.187   4.563  11.479  0.3839  0.2836  0.3754
    9TMC1     C  137   0.241   4.145  11.534  1.2047  1.1259 -0.5064
    9TMC1     O  138   0.326   4.102  11.459  0.2486  0.4514  0.3126
    9TMC1     H  139   0.075   4.310  11.679  1.3635 -2.9664 -0.8913
    9TMC1    H1  140   0.373   4.305  11.370 -2.5143 -2.1880  0.0090
    9TMC1    H2  141   0.163   4.667  11.460 -0.1139  0.0056 -0.5460
    9TMC1    C7  142   0.387   4.556  11.327  0.5120  0.5275  0.0516
    9TMC1    C8  143   0.023   4.570  11.661 -0.7002  0.2469  0.3948
    9TMC1    O1  144   0.492   4.502  11.308 -0.2035  0.1241  0.4196
    9TMC1    O2  145   4.638   4.553  11.658 -0.2671 -0.0803 -0.3829
    9TMC1    O3  146   0.367   4.684  11.334  0.3758 -0.1946 -0.0581
    9TMC1    H3  147   0.275   4.701  11.307 -0.0607 -1.0838  0.8796
    9TMC1    O5  148   0.073   4.691  11.682  0.0452 -0.6036  0.1041
    9TMC1    H5  149   0.171   4.692  11.694  0.2142  1.8471 -1.3670
   10MPD2     C  150   0.250   3.855  11.607 -0.1291 -0.5009 -0.0736
   10MPD2    C1  151   0.174   3.948  11.673  0.4094  0.4931 -0.3106
   10MPD2    C2  152   0.097   3.905  11.780  0.6261  1.0065 -0.5132
   10MPD2    C3  153   0.101   3.770  11.821 -0.4625 -0.5187 -0.1756
   10MPD2    C4  154   0.170   3.682  11.751  0.8203  0.4285  0.2317
   10MPD2    C5  155   0.243   3.726  11.645 -0.3150 -0.2668  0.4191
   10MPD2     H  156   0.036   3.981  11.827  0.3685 -0.4611  1.5257
   10MPD2    H1  157   0.161   3.577  11.775 -1.8776  0.2898 -1.3598
   10MPD2    H2  158   0.306   3.870  11.515 -0.8027 -0.7417 -0.5227
   10MPD2    H3  159   0.299   3.647  11.596 -2.7495 -1.5277 -0.3132
   10MPD2     N  160   0.036   3.719  11.935 -0.2742 -0.5363  0.2079
   10MPD2    H5  161   0.039   3.618  11.948  1.8530 -0.3158  1.2983
   10MPD2    N1  162   0.172   4.087  11.639  0.0326 -0.5482  0.3195
   10MPD2    H7  163   0.130   4.141  11.714 -0.7497  1.3510 -1.4940
   11TCq1    O1  164   0.061   4.046  14.955 -0.1190 -0.0378  0.4579
   11TCq1    C1  165   0.001   3.935  14.902 -0.1035 -0.1923 -0.3728
   11TCq1    O2  166   4.619   3.909  14.900 -0.1144  0.0085  0.4308
   11TCq1    C2  167   0.103   3.851  14.830 -0.0679 -0.2639  0.2589
   11TCq1    C3  168   0.240   3.852  14.872  0.0596 -0.7301 -0.5535
   11TCq1    C4  169   0.320   3.764  14.806  0.2833  0.1764 -0.0145
   11TCq1    C5  170   0.275   3.675  14.713  0.4283  0.0905 -0.4529
   11TCq1    C6  171   0.144   3.667  14.691 -0.0373  0.0991 -0.3441
   11TCq1    C7  172   0.054   3.753  14.747  0.4878  0.3446  0.1583
   11TCq1    C8  173   0.093   3.572  14.589 -0.3085  0.0956  0.1173
   11TCq1    O4  174   0.180   3.490  14.567 -0.3022 -0.6866  0.3698
   11TCq1    C9  175   0.454   3.760  14.844  0.1604  0.3642 -0.0602
   11TCq1    O5  176   0.524   3.665  14.792  0.0731  0.7867  0.1189
   11TCq1    O6  177   0.491   3.840  14.937  0.3699  0.3156  0.0005
   11TCq1    H1  178   0.156   4.055  14.933 -0.1266 -0.2004  0.3517
   11TCq1    H2  179   0.282   3.927  14.938  1.2112 -2.0922  0.2745
   11TCq1    H3  180   0.343   3.614  14.655 -0.6252 -0.9176 -0.6418
   11TCq1    H4  181   4.686   3.731  14.744  0.7806 -1.3726  2.5818
   12MPD2     C  182   4.512   3.540  14.417 -0.0284  0.1821  0.1083
   12MPD2    C1  183   4.639   3.502  14.452 -0.2003  0.8604 -0.7817
   12MPD2    C2  184   4.689   3.375  14.413 -0.5502 -0.0383 -1.0862
   12MPD2    C3  185   4.633   3.300  14.315 -0.7043 -0.2746  0.4626
   12MPD2    C4  186   4.503   3.342  14.277  0.2274  0.2177 -0.5237
   12MPD2    C5  187   4.446   3.454  14.332 -0.0089  1.0499  0.3878
   12MPD2     H  188   0.056   3.357  14.436 -1.3323  0.7316  3.1042
   12MPD2    H1  189   4.440   3.287  14.207  0.6442  0.7612 -1.3202
   12MPD2    H2  190   4.459   3.629  14.447 -1.0337  0.2395 -1.8192
   12MPD2    H3  191   4.350   3.493  14.302 -0.7081 -0.7436  0.3010
   12MPD2     N  192   4.685   3.180  14.265 -0.0751  0.4421 -0.3273
   12MPD2    H5  193   4.649   3.149  14.175 -2.4335  0.1439  0.7267
   12MPD2    N1  194   4.705   3.590  14.543  0.1678 -0.1440 -0.2129
   12MPD2    H7  195   4.662   3.681  14.561  0.8778  0.1745 -0.1286
   13TCq1    O1  196   0.356   4.414  10.582  0.5800 -0.1947 -0.1117
   13TCq1    C1  197   0.293   4.294  10.590 -0.5726  0.0011 -0.1746
   13TCq1    O2  198   0.176   4.286  10.622 -0.3910  0.4325 -0.3851
   13TCq1    C2  199   0.384   4.186  10.616  0.4314  0.4352  0.8011
   13TCq1    C3  200   0.515   4.167  10.571 -0.0249  0.1508 -0.2344
   13TCq1    C4  201   0.600   4.074  10.630 -0.5001  0.5774 -0.3024
   13TCq1    C5  202   0.550   4.001  10.732 -0.7726  0.2782 -0.2809
   13TCq1    C6  203   0.421   4.005  10.757  0.5068  0.4906 -0.3230
   13TCq1    C7  204   0.336   4.092  10.700 -0.1557  0.8165 -0.4132
   13TCq1    C8  205   0.362   3.909  10.857  0.6227 -0.1563 -0.1252
   13TCq1    O4  206   0.248   3.929  10.896  0.2720  0.0995  0.3584
   13TCq1    C9  207   0.737   4.056  10.585 -0.2291 -0.5185 -0.1229
   13TCq1    O5  208   0.761   4.128  10.485  0.2276  0.0796 -0.0138
   13TCq1    O6  209   0.798   3.957  10.629  0.9824  0.0763 -0.5885
   13TCq1    H1  210   0.454   4.418  10.571  0.5483  2.1326  0.4712
   13TCq1    H2  211   0.557   4.233  10.496  0.5046  0.2450  0.1478
   13TCq1    H3  212   0.614   3.928  10.781 -1.2587  1.0001  1.4213
   13TCq1    H4  213   0.235   4.090  10.741 -0.1042  3.0486 -0.1567
   14MPD2     C  214   0.501   3.606  11.021  0.0941  0.5763  0.5029
   14MPD2    C1  215   0.415   3.703  10.983 -1.1881  0.4080 -0.5981
   14MPD2    C2  216   0.298   3.706  11.066 -0.5540 -0.1693  0.0604
   14MPD2    C3  217   0.267   3.615  11.168  1.2750 -0.0178 -0.1095
   14MPD2    C4  218   0.359   3.514  11.191  0.5003  0.3701  0.6334
   14MPD2    C5  219   0.477   3.513  11.120 -0.0580 -0.8603 -0.0562
   14MPD2     H  220   0.222   3.780  11.040 -2.1443 -2.0406 -0.6028
   14MPD2    H1  221   0.350   3.432  11.262 -1.0205  0.0494  0.0714
   14MPD2    H2  222   0.600   3.608  10.977  0.4050  1.3889  1.2302
   14MPD2    H3  223   0.552   3.437  11.140  1.2201 -0.0180 -1.6463
   14MPD2     N  224   0.146   3.626  11.236 -0.0193 -0.0416 -0.0820
   14MPD2    H5  225   0.087   3.703  11.205 -1.4800 -1.3970 -0.6582
   14MPD2    N1  226   0.443   3.803  10.881 -0.2885  0.0386  0.4858
   14MPD2    H7  227   0.531   3.803  10.830 -0.1931  0.8706  0.6534
   15TCq1    O1  228   2.656   3.766   2.157 -0.0151 -0.0591 -0.5257
   15TCq1    C1  229   2.731   3.810   2.059 -0.1090 -0.0708  0.3316
   15TCq1    O2  230   2.854   3.826   2.067  0.4758 -0.1772  0.3731
   15TCq1    C2  231   2.644   3.901   1.976  0.1164  0.5554 -0.2119
   15TCq1    C3  232   2.725   3.986   1.906  0.7978 -0.0256  0.7528
   15TCq1    C4  233   2.690   4.008   1.773 -0.4649  0.8192  0.7313
   15TCq1    C5  234   2.570   3.971   1.723  0.1158  0.0728 -0.4514
   15TCq1    C6  235   2.494   3.879   1.797  0.1687  0.3085  0.2499
   15TCq1    C7  236   2.525   3.857   1.930  0.5400  0.1680 -0.2271
   15TCq1    C8  237   2.407   3.776   1.734 -0.2776  0.0779 -0.2425
   15TCq1    O4  238   2.441   3.745   1.620  0.1518 -0.3226 -0.4397
   15TCq1    C9  239   2.781   4.087   1.688 -0.3605 -0.5059  0.2190
   15TCq1    O5  240   2.720   4.147   1.594 -0.7505 -0.2547  0.1487
   15TCq1    O6  241   2.893   4.110   1.739  0.1751  0.0757 -0.1813
   15TCq1    H1  242   2.576   3.717   2.130  0.7901 -0.0367 -3.0076
   15TCq1    H2  243   2.827   4.016   1.930  0.7694  0.7093 -0.0411
   15TCq1    H3  244   2.530   4.002   1.627 -0.5121  1.4756  0.2726
   15TCq1    H4  245   2.459   3.798   1.993 -0.6306  2.2510  0.5006
   16MPD2     C  246   2.078   3.653   1.837  0.4974  0.5922 -0.5403
   16MPD2    C1  247   2.199   3.653   1.769 -0.5270 -0.0927  0.2672
   16MPD2    C2  248   2.233   3.556   1.685 -0.6777 -0.6305  0.1939
   16MPD2    C3  249   2.128   3.477   1.639 -1.1158 -0.1512 -0.4438
   16MPD2    C4  250   2.003   3.488   1.694  0.3720  0.9466 -0.4432
   16MPD2    C5  251   1.978   3.570   1.797 -0.3159  0.5909  0.3924
   16MPD2     H  252   2.336   3.546   1.653 -0.9567 -2.5694 -0.1325
   16MPD2    H1  253   1.923   3.434   1.645  1.1404 -1.0970  0.5489
   16MPD2    H2  254   2.064   3.722   1.920  1.1770 -1.4397  1.2549
   16MPD2    H3  255   1.882   3.562   1.846 -0.2143 -1.5497  0.2572
   16MPD2     N  256   2.164   3.378   1.550  0.2159 -0.1114 -0.1010
   16MPD2    H5  257   2.262   3.365   1.524  0.7273  0.8896  1.3309
   16MPD2    N1  258   2.295   3.748   1.807 -0.0624 -0.1949 -0.1811
   16MPD2    H7  259   2.278   3.799   1.893  1.4444  1.4849 -0.8603
   17TMC1    C1  260   4.706   2.427  11.882  0.2184 -0.0832  0.1950
   17TMC1    C2  261   0.030   2.306  11.848 -0.1843 -0.0414  0.1754
   17TMC1    C3  262   0.001   2.206  11.940 -0.4390 -0.2758  0.2069
   17TMC1    C4  263   4.610   2.441  11.982 -0.3208 -0.0184 -0.7898
   17TMC1    C5  264   4.591   2.336  12.072  0.9581 -0.1817 -0.2023
   17TMC1    C6  265   4.658   2.220  12.046  0.1256 -0.2521  0.3951
   17TMC1     C  266   4.718   2.538  11.789 -0.1105 -0.2306  0.2725
   17TMC1     O  267   4.658   2.640  11.825 -0.2138 -0.2080 -0.0684
   17TMC1     H  268   0.103   2.292  11.769 -0.0669  1.2738  0.0467
   17TMC1    H1  269   4.570   2.541  11.998  0.3072  0.2658 -0.9833
   17TMC1    H2  270   4.678   2.142  12.119  2.1316 -0.8204 -0.7595
   17TMC1    C7  271   4.448   2.318  12.106 -0.3997  0.4872 -0.5401
   17TMC1    C8  272   0.104   2.107  11.948  0.4310  0.5966  0.0967
   17TMC1    O1  273   4.360   2.385  12.054  0.4393  0.7014 -0.1793
   17TMC1    O2  274   0.170   2.105  12.050 -0.1241 -0.0954  0.3601
   17TMC1    O3  275   4.421   2.199  12.167  0.8841 -0.4545 -0.4126
   17TMC1    H3  276   4.494   2.138  12.193  1.1066  0.2612  0.6524
   17TMC1    O5  277   0.143   2.061  11.822  0.4713 -0.8803  0.5092
   17TMC1    H5  278   0.077   2.062  11.749  1.7571  0.3909 -0.6487
   18MPD2     C  279   0.061   2.724  11.574  0.0607  0.1532 -0.6790
   18MPD2    C1  280   0.142   2.631  11.626 -0.1030 -0.1236 -0.9708
   18MPD2    C2  281   0.270   2.628  11.576 -0.6074  0.6493 -0.9491
   18MPD2    C3  282   0.311   2.727  11.489 -0.6936  0.3520 -0.5635
   18MPD2    C4  283   0.230   2.822  11.439  0.1669  0.5606 -0.5263
   18MPD2    C5  284   0.102   2.819  11.481 -0.5147 -0.7105  0.4592
   18MPD2     H  285   0.336   2.552  11.615 -0.1841  0.8630 -1.2505
   18MPD2    H1  286   0.267   2.902  11.375  0.3938  0.2227 -0.8198
   18MPD2    H2  287   4.693   2.731  11.598 -0.1422 -0.1664 -1.4672
   18MPD2    H3  288   0.035   2.894  11.441 -0.2759 -0.6983  0.0836
   18MPD2     N  289   0.446   2.750  11.456 -0.1735 -0.6715  0.1929
   18MPD2    H5  290   0.467   2.840  11.414  0.1963 -0.6597  0.4056
   18MPD2    N1  291   0.092   2.529  11.711 -0.5065  0.3674  0.0773
   18MPD2    H7  292   0.148   2.445  11.720  1.6212  1.5170 -2.4504
   19TMC2    C1  293   1.498   3.874  14.366 -0.9592  0.4825 -0.3033
   19TMC2    C2  294   1.437   3.988  14.422 -0.1258  0.2899  0.4727
   19TMC2    C3  295   1.305   3.975  14.467  0.2449 -0.3580 -0.1034
   19TMC2    C4  296   1.438   3.754  14.350 -0.3089 -0.4300 -0.6533
   19TMC2    C5  297   1.315   3.744  14.407 -0.0414 -0.0257  0.2628
   19TMC2    C6  298   1.251   3.849  14.465  0.7264 -0.7549  0.0292
   19TMC2     C  299   1.637   3.890  14.328  0.7669 -0.9975 -0.1218
   19TMC2     O  300   1.672   4.005  14.305 -0.3036  0.1295 -0.2852
   19TMC2     H  301   1.489   4.083  14.429  1.8064 -0.8779  1.6536
   19TMC2    H1  302   1.466   3.677  14.279 -3.2308 -1.8797 -0.2196
   19TMC2    H2  303   1.148   3.845  14.499 -0.0439  0.4454 -2.1768
   19TMC2    C7  304   1.259   3.610  14.390  1.0184 -0.3566  0.3053
   19TMC2    C8  305   1.281   4.043  14.598 -0.1212  0.1306  0.2987
   19TMC2    O1  306   1.329   3.526  14.341  0.1283  0.0120  0.5699
   19TMC2    O2  307   1.270   3.972  14.691  0.0405 -0.1302  0.3833
   19TMC2    O5  308   1.327   4.171  14.589  0.7463  0.0645 -0.0967
   19TMC2    H5  309   1.325   4.197  14.494  0.3480  1.7625  0.3907
   20MPD2     C  310   1.910   3.851  14.237  0.5471 -0.1535 -0.5986
   20MPD2    C1  311   1.835   3.753  14.305  0.6044 -0.5387 -0.3654
   20MPD2    C2  312   1.898   3.647  14.360 -0.3822  0.0328  0.3187
   20MPD2    C3  313   2.034   3.631  14.337 -0.4985 -0.6917 -0.1767
   20MPD2    C4  314   2.107   3.722  14.267  0.0052  0.0787  0.4235
   20MPD2    C5  315   2.045   3.832  14.217 -0.1052  0.1756 -0.5063
   20MPD2     H  316   1.844   3.585  14.431 -2.0931 -0.4515 -1.4156
   20MPD2    H1  317   2.214   3.720  14.251  0.1585  0.8708  1.3964
   20MPD2    H2  318   1.869   3.938  14.187 -0.4205 -2.1883 -3.3546
   20MPD2    H3  319   2.101   3.896  14.149 -0.2129 -1.4965 -2.1694
   20MPD2     N  320   2.101   3.528  14.396 -0.5126 -0.4640 -0.1089
   20MPD2    H5  321   2.199   3.521  14.371 -0.5204  0.4895 -0.3978
   20MPD2    N1  322   1.698   3.768  14.327  0.7127  0.0153  0.2619
   20MPD2    H7  323   1.649   3.695  14.378  1.8923 -0.7140  0.3564
   21TMC2    C1  324   3.876   3.852  14.299  0.2265 -0.6687 -0.5056
   21TMC2    C2  325   3.972   3.761  14.288 -0.3832 -0.4416 -0.8974
   21TMC2    C3  326   4.004   3.697  14.405 -0.4023  0.4299  0.0961
   21TMC2    C4  327   3.791   3.872  14.404 -0.0720 -0.4422 -0.4530
   21TMC2    C5  328   3.831   3.808  14.521 -0.4641  0.0610 -0.9139
   21TMC2    C6  329   3.937   3.725  14.524  0.4439 -0.3444 -0.5570
   21TMC2     C  330   3.846   3.929  14.175 -0.1047  1.1514  0.5074
   21TMC2     O  331   3.840   3.868  14.069 -0.5577  0.8285  0.6048
   21TMC2     H  332   4.022   3.734  14.195 -0.6383 -1.2055 -0.8131
   21TMC2    H1  333   3.724   3.957  14.401  0.9500  0.3747 -0.2014
   21TMC2    H2  334   3.964   3.677  14.617 -3.2168 -0.2505  0.5507
   21TMC2    C7  335   3.801   3.868  14.652 -0.2357  0.4153  0.3887
   21TMC2    C8  336   4.074   3.574  14.392  0.7332 -0.2833  0.4351
   21TMC2    O1  337   3.829   3.807  14.754 -0.4601 -0.2540 -0.3040
   21TMC2    O2  338   4.101   3.516  14.288 -0.5141 -0.2057 -0.1223
   21TMC2    O5  339   4.137   3.553  14.512 -0.2228  0.3342  0.0792
   21TMC2    H5  340   4.121   3.625  14.576 -1.0273  0.4000 -0.1998
   22MPD2     C  341   3.935   4.334  14.501 -0.8085  0.0860 -0.0742
   22MPD2    C1  342   4.003   4.209  14.488  0.2091  1.0495 -0.2811
   22MPD2    C2  343   3.966   4.122  14.388  0.2200  0.2092  0.1025
   22MPD2    C3  344   3.867   4.150  14.297  0.3978 -0.2712 -0.0787
   22MPD2    C4  345   3.803   4.268  14.314 -0.0914  0.5948  0.3751
   22MPD2    C5  346   3.828   4.358  14.413  0.1884  0.8704  0.1216
   22MPD2     H  347   4.029   4.034  14.378 -0.2438 -0.0584 -0.4747
   22MPD2    H1  348   3.727   4.293  14.241 -0.5901 -3.3158 -0.4275
   22MPD2    H2  349   3.964   4.402  14.580  0.8920 -1.3951  0.5619
   22MPD2    H3  350   3.767   4.447  14.418 -0.6693  0.2447  0.8779
   22MPD2     N  351   3.816   4.063  14.191 -0.3109  0.2374  0.3392
   22MPD2    H5  352   3.757   4.114  14.126 -0.5697  1.1644  1.3107
   22MPD2    N1  353   4.081   4.147  14.588  0.5795  0.2340 -0.0930
   22MPD2    H7  354   4.126   4.058  14.570 -0.3537  0.1850 -2.0785
   23TMC2    C1  355   0.514   0.140  14.967 -0.1196 -0.1720  0.1939
   23TMC2    C2  356   0.542   0.198  14.847 -0.0996 -1.0314  0.5622
   23TMC2    C3  357   0.449   0.187  14.750  0.3095  0.3642 -0.0265
   23TMC2    C4  358   0.404   0.065  14.994 -0.7040  0.5153 -0.5710
   23TMC2    C5  359   0.314   0.057  14.896  1.0061 -0.6151  0.4765
   23TMC2    C6  360   0.330   0.119  14.772  0.8362  0.1618 -0.1270
   23TMC2     C  361   0.600   0.166  15.083  0.2939  0.0074  0.3810
   23TMC2     O  362   0.589   0.094  15.183 -0.2243 -0.2357  0.1440
   23TMC2     H  363   0.640   0.242  14.834 -0.6294 -0.8723 -2.9392
   23TMC2    H1  364   0.380   0.039  15.097 -4.8113  1.1395 -1.3983
   23TMC2    H2  365   0.257   0.115  14.692  1.4279 -3.1077 -0.5201
   23TMC2    C7  366   0.195   4.725  14.928  0.5751 -0.4895  0.6072
   23TMC2    C8  367   0.437   0.317  14.686  0.1120 -0.0703  0.9248
   23TMC2    O1  368   0.204   4.643  15.017 -0.5207 -0.2303 -0.4838
   23TMC2    O2  369   0.523   0.353  14.605 -0.1632  0.2136 -1.2517
   23TMC2    O5  370   0.362   0.398  14.760  0.6827 -0.0288 -0.8962
   23TMC2    H5  371   0.312   0.358  14.833 -1.5769  0.2078 -2.3258
   24MPD2     C  372   0.888   0.462  15.386 -0.5676  0.1018  0.1761
   24MPD2    C1  373   0.832   0.339  15.409 -0.3653 -0.7367 -0.0557
   24MPD2    C2  374   0.778   0.263  15.306  0.4058  0.2276 -0.2748
   24MPD2    C3  375   0.752   0.330  15.181  0.6438  0.1786 -0.3994
   24MPD2    C4  376   0.806   0.456  15.158  0.1278  0.1713  0.4749
   24MPD2    C5  377   0.877   0.517  15.261 -0.3088 -0.1716 -0.1804
   24MPD2     H  378   0.761   0.157  15.323 -1.0183  0.7190  1.4655
   24MPD2    H1  379   0.789   0.508  15.065  3.8737 -0.5442 -0.6177
   24MPD2    H2  380   0.943   0.516  15.461 -2.1999 -1.5537  2.5993
   24MPD2    H3  381   0.928   0.610  15.239  0.1961 -0.0829  1.3277
   24MPD2     N  382   0.668   0.281  15.075  0.4151 -0.3473 -0.4502
   24MPD2    H5  383   0.651   0.344  14.997 -2.1162 -2.6508 -1.7509
   24MPD2    N1  384   0.852   0.271  15.533  0.3273  0.1278  0.1894
   24MPD2    H7  385   0.816   0.176  15.535 -0.0110  0.2989  2.3647
   25TMC2    C1  386   0.354   1.802  12.300 -0.0862  0.2501 -0.5075
   25TMC2    C2  387   0.368   1.714  12.400 -0.0634  0.0692 -0.3814
   25TMC2    C3  388   0.300   1.743  12.515  0.3775  0.4484  0.0389
   25TMC2    C4  389   0.284   1.915  12.303  0.0354  0.9098 -0.3957
   25TMC2    C5  390   0.227   1.943  12.427  0.1208  0.0492  0.2831
   25TMC2    C6  391   0.238   1.861  12.536  0.0187 -0.1043 -0.2829
   25TMC2     C  392   0.408   1.759  12.168 -0.5329 -0.6794 -0.1672
   25TMC2     O  393   0.489   1.668  12.165  0.8210  0.3172 -0.7888
   25TMC2     H  394   0.423   1.620  12.399 -1.0654 -0.5354  0.4786
   25TMC2    H1  395   0.289   1.995  12.230 -0.4899 -0.0407 -1.4724
   25TMC2    H2  396   0.178   1.883  12.624  0.9094  0.9533  0.0534
   25TMC2    C7  397   0.142   2.064  12.433  0.1821  0.3906 -0.0939
   25TMC2    C8  398   0.311   1.662  12.631  0.1927  0.2652 -0.0665
   25TMC2    O1  399   0.065   2.079  12.532 -0.3343 -0.1905 -0.2884
   25TMC2    O2  400   0.211   1.649  12.704  0.7937  0.9281 -0.1402
   25TMC2    O5  401   0.417   1.573  12.619 -0.4156  0.4889  0.5864
   25TMC2    H5  402   0.483   1.612  12.558  0.8451 -0.0253  1.6397
   26MPD2     C  403   0.290   1.591  11.717  0.0177  0.7008  0.2945
   26MPD2    C1  404   0.190   1.665  11.762 -0.0417 -0.3414  0.3643
   26MPD2    C2  405   0.202   1.745  11.869 -0.0073  0.1600 -0.7751
   26MPD2    C3  406   0.317   1.745  11.942  0.6792 -0.1944  1.6647
   26MPD2    C4  407   0.422   1.660  11.899  0.3587 -0.4942  0.2014
   26MPD2    C5  408   0.407   1.591  11.783  0.5530  0.3727  0.2533
   26MPD2     H  409   0.120   1.810  11.897 -0.1353  0.5587 -2.0632
   26MPD2    H1  410   0.517   1.637  11.945  0.5812  2.2739  1.1100
   26MPD2    H2  411   0.279   1.542  11.621  0.4039 -2.1150  1.7055
   26MPD2    H3  412   0.485   1.523  11.750  0.9459  0.8302  0.2430
   26MPD2     N  413   0.317   1.797  12.072  0.4629  0.4234 -0.3724
   26MPD2    H5  414   0.238   1.842  12.116  0.3584  0.7375 -0.8844
   26MPD2    N1  415   0.079   1.670  11.671  0.1332 -0.1492 -0.5540
   26MPD2    H7  416   0.096   1.625  11.582 -0.6876 -1.9792  0.2053
   27TMC2    C1  417   3.205   0.178  12.243 -0.1546 -0.6536  0.3917
   27TMC2    C2  418   3.112   0.270  12.301 -0.2350 -0.3513 -1.5095
   27TMC2    C3  419   3.131   0.400  12.255  0.3662 -0.1527  0.3114
   27TMC2    C4  420   3.326   0.207  12.193 -0.1752  0.5575 -0.0212
   27TMC2    C5  421   3.343   0.337  12.160  0.0021  0.0191  0.6103
   27TMC2    C6  422   3.251   0.430  12.198 -0.0079 -0.1720  0.3696
   27TMC2     C  423   3.178   0.033  12.260 -0.3298 -0.5387 -0.4942
   27TMC2     O  424   3.247   4.688  12.203  0.2283  0.2895 -0.2714
   27TMC2     H  425   3.018   0.248  12.350  0.1994 -1.6685 -1.2558
   27TMC2    H1  426   3.397   0.137  12.151  0.1403  1.4991 -1.0481
   27TMC2    H2  427   3.274   0.529  12.162 -0.2838  0.3808  1.7127
   27TMC2    C7  428   3.418   0.365  12.042  0.0936  0.1295  1.3340
   27TMC2    C8  429   3.031   0.497  12.298 -0.3860  0.2012 -0.1636
   27TMC2    O1  430   3.376   0.461  11.974  0.1848 -0.0698  0.2051
   27TMC2    O2  431   3.007   0.603  12.240 -0.0988  0.2446 -0.0802
   27TMC2    O5  432   2.983   0.459  12.416 -0.4981  0.1521  0.2489
   27TMC2    H5  433   3.036   0.386  12.455 -0.8289 -0.7199 -0.9406
   28MPD2     C  434   2.925   4.381  12.491 -0.7033 -0.1767 -0.1664
   28MPD2    C1  435   2.871   4.500  12.539 -0.4094 -0.0190 -0.0334
   28MPD2    C2  436   2.920   4.622  12.483 -0.3375  0.0161  0.0054
   28MPD2    C3  437   3.019   4.622  12.386  0.4475  0.4810  0.2528
   28MPD2    C4  438   3.077   4.497  12.344 -0.4439 -0.1455 -0.5514
   28MPD2    C5  439   3.023   4.378  12.400  0.3034 -0.0369  0.1070
   28MPD2     H  440   2.882   4.721  12.505  0.3024 -0.3721  2.8388
   28MPD2    H1  441   3.160   4.494  12.274 -1.0745  0.8148 -1.3363
   28MPD2    H2  442   2.904   4.283  12.532 -0.8719  1.3550  3.4097
   28MPD2    H3  443   3.079   4.289  12.375 -1.3234 -1.1073  0.2627
   28MPD2     N  444   3.067   0.010  12.342  0.4117 -0.5058 -0.3774
   28MPD2    H5  445   3.019   0.087  12.387  1.1102  0.0460 -0.5758
   28MPD2    N1  446   2.784   4.494  12.647  0.4346  0.5154 -0.1375
   28MPD2    H7  447   2.767   4.401  12.684  0.4153  0.9395  0.9339
   29TMC2    C1  448   2.632   2.453  14.761  0.5319  0.1160 -0.3823
   29TMC2    C2  449   2.558   2.483  14.873 -0.5799 -0.3453  0.5315
   29TMC2    C3  450   2.557   2.617  14.919  0.4299  0.1134  0.0114
   29TMC2    C4  451   2.695   2.553  14.690 -0.1754  0.0260 -0.0962
   29TMC2    C5  452   2.700   2.673  14.743 -0.1721  0.0866 -1.1106
   29TMC2    C6  453   2.630   2.711  14.854 -0.2394 -0.5465 -0.1327
   29TMC2     C  454   2.632   2.319  14.700  0.4309  0.2506 -0.3688
   29TMC2     O  455   2.612   2.218  14.767 -0.7371  0.0135 -0.2892
   29TMC2     H  456   2.497   2.411  14.926 -2.0340 -0.2244 -0.9728
   29TMC2    H1  457   2.760   2.532  14.606  0.9438 -0.7155  0.9591
   29TMC2    H2  458   2.635   2.812  14.895  1.7030 -0.7707  0.1890
   29TMC2    C7  459   2.798   2.766  14.696  0.1112  0.7771 -0.0899
   29TMC2    C8  460   2.452   2.662  15.003 -0.5690 -0.3320  0.3841
   29TMC2    O1  461   2.912   2.745  14.733  0.2281  0.1659  0.1465
   29TMC2    O2  462   2.410   2.609  15.106 -0.2832  0.0949  0.1855
   29TMC2    O5  463   2.379   2.753  14.930  0.6752 -0.8583  0.4276
   29TMC2    H5  464   2.436   2.803  14.867  2.6863 -1.7064  1.5505
   30MPD2     C  465   2.579   2.030  14.290 -0.0526  0.4959 -0.0992
   30MPD2    C1  466   2.647   1.998  14.406  0.4808 -0.1441 -0.4803
   30MPD2    C2  467   2.662   2.105  14.498  0.0459  0.6181 -0.6566
   30MPD2    C3  468   2.601   2.224  14.479 -0.1964 -0.3270 -0.3338
   30MPD2    C4  469   2.536   2.251  14.361  0.1548 -0.1714  0.7546
   30MPD2    C5  470   2.528   2.157  14.264 -0.0073 -0.3415  0.1380
   30MPD2     H  471   2.704   2.075  14.593 -1.1226 -0.5380 -0.5080
   30MPD2    H1  472   2.492   2.346  14.334 -2.9230 -1.7767  0.1181
   30MPD2    H2  473   2.571   1.951  14.216 -1.1272  0.1616  0.3794
   30MPD2    H3  474   2.468   2.173  14.175 -1.3333  0.5750  1.2030
   30MPD2     N  475   2.608   2.336  14.567  0.0021 -0.2562 -0.4636
   30MPD2    H5  476   2.601   2.429  14.526  1.0068  0.2500  0.5190
   30MPD2    N1  477   2.712   1.882  14.437 -0.5909 -0.0671  0.6098
   30MPD2    H7  478   2.763   1.891  14.524 -1.0743 -0.0353  0.8930
   31TMC2    C1  479   0.616   0.875  15.859 -0.4457 -0.4292  0.3486
   31TMC2    C2  480   0.478   0.893  15.865 -0.0841  0.3245  0.1318
   31TMC2    C3  481   0.421   0.897  15.994 -1.1477  0.6511  0.4746
   31TMC2    C4  482   0.692   0.850  15.972  0.4578  1.1205 -0.0160
   31TMC2    C5  483   0.635   0.851  16.098 -0.8397  0.1535  0.8496
   31TMC2    C6  484   0.497   0.877  16.105 -0.4499 -0.5577  0.3815
   31TMC2     C  485   0.679   0.921  15.734  1.1018  0.3003  0.6017
   31TMC2     O  486   0.621   0.913  15.627  0.5976  0.5930  0.1068
   31TMC2     H  487   0.416   0.882  15.776 -1.8512  1.7675  1.1921
   31TMC2    H1  488   0.797   0.826  15.963  0.3567  1.0879 -1.1154
   31TMC2    H2  489   0.444   0.874  16.200  0.2072  0.8496  0.7938
   31TMC2    C7  490   0.694   0.839  16.226  0.1023  0.3948  0.3187
   31TMC2    C8  491   0.274   0.876  16.018 -0.1179 -0.3799 -0.1192
   31TMC2    O1  492   0.635   0.912  16.307 -0.3351  0.8329  0.3418
   31TMC2    O2  493   0.237   0.821  16.118 -0.2659  0.2028  0.0043
   31TMC2    O5  494   0.198   0.910  15.912  0.3589 -0.2698 -0.5947
   31TMC2    H5  495   0.225   0.995  15.870  1.0511 -0.1952  0.0006
   32MPD2     C  496   1.023   1.248  15.527  0.3423 -0.5134  0.3426
   32MPD2    C1  497   0.904   1.200  15.474 -0.2160 -0.4113 -0.4484
   32MPD2    C2  498   0.825   1.118  15.552 -0.0360  0.5175  0.3676
   32MPD2    C3  499   0.876   1.066  15.669 -0.1508  0.5862  0.0863
   32MPD2    C4  500   1.004   1.096  15.705  0.1342 -0.3668 -0.3080
   32MPD2    C5  501   1.074   1.192  15.642  0.2025  0.2084 -0.3247
   32MPD2     H  502   0.730   1.079  15.519 -0.1576  1.0921  0.0257
   32MPD2    H1  503   1.038   1.057  15.800 -0.6827 -0.5688 -0.0999
   32MPD2    H2  504   1.088   1.318  15.477 -1.4875  0.7592 -0.2740
   32MPD2    H3  505   1.169   1.225  15.682  0.0550  0.0942  0.1210
   32MPD2     N  506   0.804   0.968  15.749  0.1483  0.5315 -0.4009
   32MPD2    H5  507   0.842   0.953  15.841 -1.6747 -0.3924  0.2129
   32MPD2    N1  508   0.877   1.234  15.338 -0.2074 -0.5916  0.0592
   32MPD2    H7  509   0.950   1.287  15.292  0.0778 -0.5714  0.5346
   33TMC2    C1  510   0.459   3.377  10.707 -0.5472  0.1489 -0.1910
   33TMC2    C2  511   0.365   3.301  10.642 -0.3149 -0.0435  0.4356
   33TMC2    C3  512   0.300   3.353  10.537 -1.0948  0.2185 -0.0533
   33TMC2    C4  513   0.499   3.500  10.656 -0.4541  0.4843  0.2703
   33TMC2    C5  514   0.437   3.549  10.544  0.3293 -0.2702 -0.2669
   33TMC2    C6  515   0.332   3.478  10.489 -0.0575 -0.4095 -0.8470
   33TMC2     C  516   0.526   3.317  10.816 -0.3152 -0.4369  0.8760
   33TMC2     O  517   0.486   3.211  10.862  0.0223  0.3908  0.4724
   33TMC2     H  518   0.330   3.207  10.684 -1.2060 -0.6867 -1.7278
   33TMC2    H1  519   0.578   3.557  10.702 -0.0874  1.4342 -1.5099
   33TMC2    H2  520   0.283   3.515  10.399 -1.2391 -1.2470 -0.5517
   33TMC2    C7  521   0.463   3.677  10.503  0.0036 -0.3544  0.3064
   33TMC2    C8  522   0.170   3.313  10.487  0.0605 -0.3637 -1.2224
   33TMC2    O1  523   0.576   3.719  10.513 -0.2181 -0.1213  0.0581
   33TMC2    O2  524   0.110   3.378  10.402 -0.0377  0.4915  0.1429
   33TMC2    O5  525   0.207   3.182  10.476  0.0498  0.0313 -0.2948
   33TMC2    H5  526   0.243   3.146  10.560  1.1188  1.1312 -0.2762
   34MPD2     C  527   0.947   3.278  11.102 -0.0057  0.4309  0.0156
   34MPD2    C1  528   0.831   3.208  11.107  0.5571  0.1891 -0.5293
   34MPD2    C2  529   0.723   3.236  11.023 -0.0100 -0.5330 -0.5711
   34MPD2    C3  530   0.738   3.344  10.938  0.4098 -1.0777 -0.4821
   34MPD2    C4  531   0.851   3.421  10.932  0.5000  0.3706  0.0473
   34MPD2    C5  532   0.951   3.385  11.024  0.4339 -0.2052 -0.2843
   34MPD2     H  533   0.625   3.191  11.034 -0.5613  0.1077 -2.9879
   34MPD2    H1  534   0.844   3.507  10.866  0.8154  1.9091  2.0066
   34MPD2    H2  535   1.024   3.251  11.174  1.5628  2.8609 -0.7577
   34MPD2    H3  536   1.041   3.445  11.022  0.7329 -0.6229  0.8903
   34MPD2     N  537   0.639   3.377  10.836 -0.1664  0.5194  0.4897
   34MPD2    H5  538   0.667   3.449  10.770  2.8337 -1.7021 -0.7087
   34MPD2    N1  539   0.831   3.112  11.207 -0.6238 -0.1241  0.4239
   34MPD2    H7  540   0.913   3.089  11.262  0.1172 -0.2353 -0.7179
   35TMC2    C1  541   1.708   4.529  11.424 -0.4401  0.0270  0.4315
   35TMC2    C2  542   1.686   4.487  11.294 -0.4985 -0.0883 -0.0715
   35TMC2    C3  543   1.573   4.424  11.265  0.2204  0.4258  0.1960
   35TMC2    C4  544   1.605   4.522  11.511 -0.1265  0.0709  0.8999
   35TMC2    C5  545   1.492   4.454  11.469  0.0067  0.5883 -0.1120
   35TMC2    C6  546   1.468   4.405  11.345  0.4119  0.0156 -0.1090
   35TMC2     C  547   1.835   4.594  11.451 -0.2490 -0.1056 -0.4658
   35TMC2     O  548   1.910   4.604  11.359  0.0271  0.2810 -0.7748
   35TMC2     H  549   1.775   4.468  11.235  0.1708 -2.3817  1.6552
   35TMC2    H1  550   1.599   4.551  11.615  0.0203  0.9606  0.6628
   35TMC2    H2  551   1.379   4.350  11.319 -2.2192  3.6517  1.1683
   35TMC2    C7  552   1.420   4.392  11.574  0.2176 -0.1656 -0.4011
   35TMC2    C8  553   1.549   4.368  11.136 -1.0394 -0.5784 -0.2097
   35TMC2    O1  554   1.479   4.375  11.679  0.6702  0.3588 -0.4737
   35TMC2    O2  555   1.434   4.354  11.091  0.4679 -0.2749  0.3715
   35TMC2    O5  556   1.665   4.355  11.065  1.0731 -0.0492  0.1008
   35TMC2    H5  557   1.745   4.340  11.120  0.7147  3.2160  1.5177
   36MPD2     C  558   2.186   0.088  11.733 -0.5096  0.1831 -0.8647
   36MPD2    C1  559   2.130   4.730  11.813  0.3535  0.0203 -0.0585
   36MPD2    C2  560   2.015   4.660  11.773  0.2825  0.3223 -1.2711
   36MPD2    C3  561   1.970   4.682  11.641  0.4612  0.0542  0.1711
   36MPD2    C4  562   2.024   0.040  11.566 -0.5051 -0.7963 -0.1118
   36MPD2    C5  563   2.130   0.112  11.610  0.4596  0.2073  0.4796
   36MPD2     H  564   1.967   4.580  11.828  0.7718  1.1408  0.3420
   36MPD2    H1  565   1.984   0.074  11.471  3.8162 -0.7325 -1.8788
   36MPD2    H2  566   2.270   0.146  11.772 -1.4503  1.5463 -0.8529
   36MPD2    H3  567   2.158   0.192  11.541  4.3513 -2.1554 -0.7091
   36MPD2     N  568   1.860   4.608  11.591  0.1488 -0.5690  0.3479
   36MPD2    H5  569   1.821   4.544  11.660  0.3211  0.0029  0.9754
   36MPD2    N1  570   2.188   4.712  11.942 -0.0477  1.6906  0.4865
   36MPD2    H7  571   2.274   0.027  11.957  0.4823  1.5168 -2.0746
   37TMC2    C1  572   4.082   0.806  11.894 -0.7896  0.0949  0.8741
   37TMC2    C2  573   3.973   0.884  11.850  0.6134 -0.0597 -0.1551
   37TMC2    C3  574   3.964   0.910  11.711 -0.4248  0.0203 -0.1286
   37TMC2    C4  575   4.184   0.770  11.818 -0.7008  0.1177 -0.4223
   37TMC2    C5  576   4.172   0.800  11.679  0.3947 -0.2322 -0.9498
   37TMC2    C6  577   4.064   0.866  11.623  0.1548  0.1470 -0.2194
   37TMC2     C  578   4.080   0.774  12.035 -0.1051  0.8323  0.0344
   37TMC2     O  579   3.994   0.822  12.100 -0.0307 -0.7544  0.0228
   37TMC2     H  580   3.903   0.920  11.924  0.8850  1.6041 -0.7227
   37TMC2    H1  581   4.263   0.702  11.846  0.0145  0.2932 -2.0093
   37TMC2    H2  582   4.050   0.883  11.517  0.4214 -1.5930 -0.5313
   37TMC2    C7  583   4.266   0.733  11.591  0.8037  0.3711 -0.2435
   37TMC2    C8  584   3.846   0.976  11.652 -0.8978 -0.3497 -0.2679
   37TMC2    O1  585   4.371   0.703  11.645 -0.4170  0.3448  0.8794
   37TMC2    O2  586   3.848   1.049  11.557  0.8988  0.2197  0.0656
   37TMC2    O5  587   3.751   0.887  11.670  0.5225 -0.1280 -0.0901
   37TMC2    H5  588   3.740   0.861  11.764  1.0811 -3.5791 -0.9815
   38MPD2     C  589   4.200   0.512  12.458  0.5289 -0.2020  0.5175
   38MPD2    C1  590   4.300   0.487  12.370  0.5701 -0.0271 -0.1369
   38MPD2    C2  591   4.291   0.537  12.244 -0.0036 -0.3625 -0.1150
   38MPD2    C3  592   4.178   0.620  12.212 -0.3974  0.0812 -0.5258
   38MPD2    C4  593   4.075   0.633  12.301  0.4534  0.3094  0.3062
   38MPD2    C5  594   4.089   0.573  12.423 -0.1932  0.5070 -0.1434
   38MPD2     H  595   4.378   0.527  12.180 -1.9985 -0.8176 -2.7214
   38MPD2    H1  596   3.981   0.681  12.275  0.0146 -0.7632 -0.0693
   38MPD2    H2  597   4.201   0.468  12.557  3.4645 -3.1290 -0.8312
   38MPD2    H3  598   4.007   0.578  12.494 -0.1008 -1.0159  0.0647
   38MPD2     N  599   4.170   0.676  12.079  0.1328  0.0889 -0.1056
   38MPD2    H5  600   4.245   0.654  12.014  0.7023 -0.0880  0.6097
   38MPD2    N1  601   4.407   0.407  12.391 -0.1691 -0.5949  0.5148
   38MPD2    H7  602   4.471   0.413  12.312  0.6439  2.3388  1.3962
   39TMC2    C1  603   2.562   2.011   1.955  0.5364 -0.0985  0.0122
   39TMC2    C2  604   2.622   1.900   2.010 -0.4614  0.0365 -0.2187
   39TMC2    C3  605   2.750   1.911   2.049 -0.4625 -0.7988  0.2590
   39TMC2    C4  606   2.629   2.131   1.937 -0.5737  0.7619  0.9350
   39TMC2    C5  607   2.756   2.141   1.995 -0.3625 -0.0794  0.2738
   39TMC2    C6  608   2.818   2.030   2.038  0.0421 -0.4973  0.2380
   39TMC2     C  609   2.439   2.008   1.883  0.2217  0.2936  0.5467
   39TMC2     O  610   2.414   2.110   1.812 -0.4187  0.7498  0.3638
   39TMC2     H  611   2.580   1.800   2.004  1.5012 -0.8086  0.1950
   39TMC2    H1  612   2.593   2.221   1.888  0.2296  1.2970  1.3451
   39TMC2    H2  613   2.923   2.036   2.062  0.6174  1.8046 -2.9820
   39TMC2    C7  614   2.828   2.265   2.018  0.0321  0.6853  0.0244
   39TMC2    C8  615   2.829   1.799   2.009  0.2344  0.8478 -0.9530
   39TMC2    O1  616   2.937   2.257   2.069 -0.1293 -0.1219  0.4183
   39TMC2    O2  617   2.943   1.822   1.980 -0.3107 -0.1972  0.0842
   39TMC2    O5  618   2.785   1.689   2.073  0.6487  0.3273 -0.2423
   39TMC2    H5  619   2.712   1.703   2.137 -2.2310 -0.7782 -3.2774
   40MPD2     C  620   2.178   1.749   1.907  0.0580 -0.5492 -0.1612
   40MPD2    C1  621   2.240   1.861   1.854 -0.4730  0.6480  0.0726
   40MPD2    C2  622   2.178   1.925   1.746  0.2707  0.0945  0.0245
   40MPD2    C3  623   2.062   1.881   1.702 -0.0259 -0.2314  0.1542
   40MPD2    C4  624   1.999   1.770   1.752 -0.2262  0.3939 -1.2481
   40MPD2    C5  625   2.057   1.703   1.857 -0.0087 -0.3924  0.1816
   40MPD2     H  626   2.225   2.013   1.701 -0.0703 -0.0166 -0.5492
   40MPD2    H1  627   1.924   1.714   1.697 -1.1761  0.1926  0.2417
   40MPD2    H2  628   2.229   1.697   1.988  0.1598 -2.3197 -1.3774
   40MPD2    H3  629   2.011   1.613   1.895  1.3505 -1.3600 -0.5052
   40MPD2     N  630   1.995   1.956   1.602  0.1185  0.5772  0.0907
   40MPD2    H5  631   1.907   1.921   1.564 -0.4866 -0.1415  2.1411
   40MPD2    N1  632   2.367   1.895   1.906 -0.0482 -1.0277 -0.3659
   40MPD2    H7  633   2.403   1.831   1.977 -1.0525  0.1840  1.2516
   41TMC2    C1  634   1.004   4.500  14.310 -0.4468  0.3821  0.2978
   41TMC2    C2  635   1.117   4.435  14.341  0.3283 -0.3785 -0.8390
   41TMC2    C3  636   1.221   4.464  14.268 -1.1619  0.0011 -0.3434
   41TMC2    C4  637   0.994   4.581  14.198 -0.0060 -0.4390 -0.6845
   41TMC2    C5  638   1.098   4.606  14.118 -0.6407  0.4884  0.5844
   41TMC2    C6  639   1.214   4.542  14.155 -0.8218 -0.4491 -0.8071
   41TMC2     C  640   0.909   4.530  14.418  0.2729  0.5981 -0.5924
   41TMC2     O  641   0.790   4.508  14.402 -0.2278  0.2181 -0.1263
   41TMC2     H  642   1.108   4.381  14.435 -0.3764  3.1409  1.1138
   41TMC2    H1  643   0.902   4.633  14.172 -0.2572 -1.4990 -1.9648
   41TMC2    H2  644   1.306   4.557  14.100  0.0916  2.6950  1.5778
   41TMC2    C7  645   1.108   4.730  14.047  0.9563  0.8033  0.6836
   41TMC2    C8  646   1.324   4.359  14.284  0.5036 -0.4914  0.2170
   41TMC2    O1  647   1.033   0.080  14.086 -0.4166 -0.1386  0.4229
   41TMC2    O2  648   1.314   4.254  14.346  0.1299 -0.0176 -0.1998
   41TMC2    O5  649   1.447   4.416  14.267 -0.1859 -0.2935 -0.1043
   41TMC2    H5  650   1.448   4.506  14.228  0.6811 -0.9200 -1.5252
   42MPD2     C  651   0.800   4.582  14.685 -0.4322  0.8411 -0.4553
   42MPD2    C1  652   0.907   4.653  14.630 -0.6424 -0.4332  0.7706
   42MPD2    C2  653   0.970   0.011  14.712  0.5249  0.1909  0.1907
   42MPD2    C3  654   0.929   0.036  14.837 -0.0464 -0.1615  0.3747
   42MPD2    C4  655   0.813   4.710  14.885 -0.1158  0.0551  0.0239
   42MPD2    C5  656   0.754   4.621  14.808 -0.0693  0.0038  0.2641
   42MPD2     H  657   1.058   0.060  14.673 -0.4721 -0.2426 -2.6497
   42MPD2    H1  658   0.778   0.000  14.984 -1.2595  1.9017 -0.8896
   42MPD2    H2  659   0.747   4.501  14.637  1.7376 -1.4709  1.0882
   42MPD2    H3  660   0.655   4.582  14.830 -0.2782 -0.5547 -1.6084
   42MPD2     N  661   1.016   0.105  14.922  1.1941 -0.3603 -0.2136
   42MPD2    H5  662   1.083   0.167  14.877  1.2621 -0.7162 -0.5998
   42MPD2    N1  663   0.966   4.616  14.509 -0.3439 -0.0523 -0.4121
   42MPD2    H7  664   1.049   4.668  14.485 -0.6246 -0.1301 -1.5770
   43TMC2    C1  665   2.594   3.566   0.915 -0.1746 -0.4511  0.0149
   43TMC2    C2  666   2.471   3.633   0.934  0.8419 -0.6410  0.2989
   43TMC2    C3  667   2.466   3.729   1.032  0.0707  0.2960 -0.2508
   43TMC2    C4  668   2.707   3.590   0.989 -0.3683  0.0298  0.2905
   43TMC2    C5  669   2.696   3.690   1.087  0.7050  0.0317  0.3388
   43TMC2    C6  670   2.575   3.758   1.113 -0.1443 -0.7668 -0.1587
   43TMC2     C  671   2.619   3.498   0.786 -0.0268  0.0807  0.0219
   43TMC2     O  672   2.730   3.446   0.770 -0.4401 -0.6015 -0.9561
   43TMC2     H  673   2.389   3.618   0.865  0.6477  0.0095  0.3872
   43TMC2    H1  674   2.801   3.542   0.967 -1.6891 -0.7659 -3.6879
   43TMC2    H2  675   2.559   3.842   1.179  2.6377 -1.2628  1.1559
   43TMC2    C7  676   2.819   3.780   1.091  0.1685  0.2966  0.0768
   43TMC2    C8  677   2.351   3.812   1.063  0.5539  0.4396  0.1503
   43TMC2    O1  678   2.907   3.754   1.012 -0.2315  0.7747 -0.1804
   43TMC2    O2  679   2.369   3.925   1.093 -0.1102 -0.2020  0.0203
   43TMC2    O5  680   2.235   3.780   1.005 -0.1195  0.1111  0.1530
   43TMC2    H5  681   2.231   3.683   0.991 -3.1394  0.4109 -1.0937
   44MPD2     C  682   2.555   3.390   0.284 -0.3462 -0.2521 -0.3850
   44MPD2    C1  683   2.645   3.340   0.378  0.0347  0.4531 -0.7776
   44MPD2    C2  684   2.637   3.379   0.507  0.3505  0.5813  0.6655
   44MPD2    C3  685   2.537   3.468   0.548  1.0047  0.2743 -0.3121
   44MPD2    C4  686   2.452   3.521   0.453 -0.5301 -0.4248 -0.5297
   44MPD2    C5  687   2.460   3.478   0.325 -0.8224 -0.5928 -0.2491
   44MPD2     H  688   2.685   3.324   0.588  1.1052  0.3172  0.0430
   44MPD2    H1  689   2.378   3.593   0.485  0.7441  1.5016 -1.9645
   44MPD2    H2  690   2.563   3.369   0.178 -1.1149 -0.8843 -0.3165
   44MPD2    H3  691   2.391   3.515   0.250  0.2724  0.5450 -0.6911
   44MPD2     N  692   2.521   3.516   0.686 -0.0678 -0.3283  0.0708
   44MPD2    H5  693   2.447   3.585   0.695  0.2485  0.3334 -2.4313
   44MPD2    N1  694   2.734   3.234   0.351  0.1259 -0.8426  0.1205
   44MPD2    H7  695   2.740   3.166   0.425 -1.2611 -0.6269  0.4447
   45TMC2    C1  696   3.938   0.028   9.967  0.5183 -0.0509 -0.6550
   45TMC2    C2  697   4.021   4.663   9.997  0.5676  0.4111 -1.0421
   45TMC2    C3  698   4.145   4.692  10.038  0.8349  0.0172  0.6205
   45TMC2    C4  699   3.961   0.160  10.005  0.0207  0.0151 -0.0637
   45TMC2    C5  700   4.080   0.177  10.059  0.9785  0.5351 -0.0873
   45TMC2    C6  701   4.177   0.082  10.081  0.0066  0.4726  0.4337
   45TMC2     C  702   3.805   4.718   9.945 -0.3689 -0.2071 -0.5636
   45TMC2     O  703   3.769   4.616   9.996  0.2781  0.2306 -0.1265
   45TMC2     H  704   3.999   4.558   9.979 -2.6256  1.1535 -1.3996
   45TMC2    H1  705   3.893   0.243   9.992  0.6586  1.0715  3.3253
   45TMC2    H2  706   4.272   0.106  10.126  0.5228 -1.1841  0.2506
   45TMC2    C7  707   4.109   0.304  10.116  0.2185  0.0564 -0.4095
   45TMC2    C8  708   4.245   4.620   9.965 -0.4232  0.7824  0.2940
   45TMC2    O1  709   4.193   0.307  10.204  0.1348 -0.4078 -0.8202
   45TMC2    O2  710   4.228   4.501   9.937  0.2777 -0.7733  0.0422
   45TMC2    O5  711   4.326   4.709   9.905 -0.0487 -0.1193 -0.1608
   45TMC2    H5  712   4.309   0.058   9.949 -0.0628 -0.7098  0.9935
   46MPD2     C  713   3.531   4.630   9.840 -0.3630 -0.3702  0.0785
   46MPD2    C1  714   3.593   0.024   9.829 -0.1563 -0.3083 -0.3469
   46MPD2    C2  715   3.534   0.119   9.748 -0.9647  0.7925  0.2054
   46MPD2    C3  716   3.406   0.104   9.700  0.3524  0.8038  0.4871
   46MPD2    C4  717   3.340   4.724   9.721 -0.5994  0.5317  0.4439
   46MPD2    C5  718   3.402   4.621   9.790  0.4205  0.1686 -0.6286
   46MPD2     H  719   3.584   0.215   9.738 -1.6895  1.1823  0.3742
   46MPD2    H1  720   3.239   4.705   9.688  0.1291 -1.6329 -0.5712
   46MPD2    H2  721   3.584   4.552   9.894 -0.1311  0.9679  1.7659
   46MPD2    H3  722   3.339   4.533   9.797 -0.3514  0.7066 -0.7583
   46MPD2     N  723   3.353   0.215   9.628  0.0020 -0.5940 -0.0826
   46MPD2    H5  724   3.417   0.293   9.620 -1.4148  0.1160 -4.3782
   46MPD2    N1  725   3.719   0.067   9.875 -0.3498 -0.4842  0.3026
   46MPD2    H7  726   3.753   0.154   9.837 -2.5418  0.6672  0.9835
   47TMC2    C1  727   1.283   4.636   8.581 -0.8704  0.1205 -0.5330
   47TMC2    C2  728   1.245   4.571   8.468  0.1424  0.8929 -0.2597
   47TMC2    C3  729   1.118   4.534   8.448 -0.1822 -0.0941  0.3036
   47TMC2    C4  730   1.191   4.663   8.679 -0.1383  0.5639 -0.1666
   47TMC2    C5  731   1.061   4.613   8.660 -0.2344  0.2873  0.5389
   47TMC2    C6  732   1.028   4.531   8.551 -0.2215 -0.0017  0.2128
   47TMC2     C  733   1.427   4.658   8.616 -0.1871  0.7943  0.5330
   47TMC2     O  734   1.511   4.657   8.525 -0.1026  0.0064  0.3542
   47TMC2     H  735   1.320   4.574   8.389  1.2005 -0.4583  0.6965
   47TMC2    H1  736   1.220   4.711   8.772  0.9671  2.8391 -1.7109
   47TMC2    H2  737   0.931   4.488   8.529  0.5688 -1.0329 -1.2353
   47TMC2    C7  738   0.968   4.617   8.775 -0.8486  0.5219 -0.6332
   47TMC2    C8  739   1.070   4.491   8.321  0.6401 -0.0468  0.7196
   47TMC2    O1  740   0.992   4.704   8.857 -0.6752 -0.4051  0.9392
   47TMC2    O2  741   0.954   4.521   8.284  0.0063 -0.4410 -0.0470
   47TMC2    O5  742   1.180   4.451   8.249  0.1917  0.0084  0.3333
   47TMC2    H5  743   1.250   4.422   8.312 -0.4937 -0.2711  0.9549
   48MPD2     C  744   1.679   4.674   8.771  0.9327 -0.0781 -0.2816
   48MPD2    C1  745   1.565   4.608   8.811  0.3282 -0.5317  0.6303
   48MPD2    C2  746   1.574   4.522   8.921 -0.2107 -1.0456  0.6181
   48MPD2    C3  747   1.697   4.504   8.980  0.0374  0.2346  0.1447
   48MPD2    C4  748   1.805   4.579   8.944  0.2120 -0.1377 -0.6786
   48MPD2    C5  749   1.798   4.664   8.842 -0.0190 -0.1091 -0.5040
   48MPD2     H  750   1.489   4.472   8.965 -0.4123  0.3562  1.8329
   48MPD2    H1  751   1.901   4.565   8.991  0.0562 -2.3998 -1.0165
   48MPD2    H2  752   1.673   0.018   8.699 -1.0909  0.7234  0.7963
   48MPD2    H3  753   1.875   4.735   8.815 -0.5120 -0.0834 -1.8734
   48MPD2     N  754   1.693   4.407   9.086  0.3021 -0.0606  0.7495
   48MPD2    H5  755   1.599   4.375   9.108  0.1316 -1.1732 -1.5843
   48MPD2    N1  756   1.444   4.615   8.746  0.5850  0.3669 -0.0989
   48MPD2    H7  757   1.358   4.585   8.789 -0.8501  2.1367 -1.7158
   49TMC2    C1  758   0.303   2.692  10.556 -0.0680  0.2983  0.3592
   49TMC2    C2  759   0.419   2.740  10.505 -0.9590  0.0507 -0.4669
   49TMC2    C3  760   0.458   2.693  10.389 -0.9841 -0.1965 -0.6887
   49TMC2    C4  761   0.225   2.610  10.477 -0.2067  0.0285 -0.4310
   49TMC2    C5  762   0.271   2.554  10.366 -0.0129 -0.2344  0.5120
   49TMC2    C6  763   0.389   2.601  10.320 -0.8063  0.1832 -0.4091
   49TMC2     C  764   0.271   2.757  10.684 -0.2148  0.3697 -0.2587
   49TMC2     O  765   0.353   2.834  10.730 -0.4304  0.3613  0.4878
   49TMC2     H  766   0.494   2.795  10.561  1.1417 -0.8780 -2.3777
   49TMC2    H1  767   0.125   2.583  10.511 -0.2116  0.0204 -0.4524
   49TMC2    H2  768   0.426   2.564  10.224 -0.1299 -2.1112  0.7348
   49TMC2    C7  769   0.239   2.417  10.332  0.4139  0.7787  0.8038
   49TMC2    C8  770   0.600   2.708  10.357  0.3288 -0.3125  0.3579
   49TMC2    O1  771   0.294   2.380  10.232 -0.1736  0.3223  0.1722
   49TMC2    O2  772   0.674   2.740  10.446 -0.1854 -0.1348  0.7802
   49TMC2    O5  773   0.598   2.768  10.235 -0.1427  0.0328  0.6729
   49TMC2    H5  774   0.509   2.779  10.197  0.3887 -2.2194 -1.2438
   50MPD2     C  775   0.179   2.834  10.946 -0.6212 -0.6032  0.1083
   50MPD2    C1  776   0.094   2.766  10.856 -0.3575  0.2337 -0.5194
   50MPD2    C2  777   4.704   2.733  10.898  0.1746  0.1889  0.2111
   50MPD2    C3  778   4.663   2.774  11.020 -0.4320 -0.6878  0.5035
   50MPD2    C4  779   0.010   2.847  11.108 -0.2955  0.3121  0.4112
   50MPD2    C5  780   0.138   2.871  11.074 -0.8881 -0.0354 -0.1351
   50MPD2     H  781   4.639   2.673  10.835  1.8878  1.6927 -3.0321
   50MPD2    H1  782   4.717   2.891  11.203 -0.5636 -0.3641  0.6413
   50MPD2    H2  783   0.283   2.860  10.929 -0.6473 -1.9879 -2.1327
   50MPD2    H3  784   0.200   2.930  11.141 -0.3066  1.9281 -2.3969
   50MPD2     N  785   4.529   2.766  11.063 -0.3010  0.0857  0.1272
   50MPD2    H5  786   4.498   2.833  11.133  0.9541 -1.3440  2.0445
   50MPD2    N1  787   0.142   2.736  10.726  0.2766  0.6821 -0.5940
   50MPD2    H7  788   0.082   2.681  10.665  0.2676 -0.5569  0.5472
   51TMC2    C1  789   0.130   1.634   1.650 -0.5973  0.8659  0.2006
   51TMC2    C2  790   0.005   1.668   1.682  0.5426 -1.0714  0.3745
   51TMC2    C3  791   4.701   1.796   1.634 -0.5395 -0.2799 -0.1443
   51TMC2    C4  792   0.215   1.716   1.580 -0.0381 -0.5268 -0.5207
   51TMC2    C5  793   0.173   1.840   1.538  0.6412 -0.1525 -0.2529
   51TMC2    C6  794   0.048   1.888   1.580 -0.4460  0.1060  0.5016
   51TMC2     C  795   0.173   1.502   1.670  0.4480  0.3501  0.0934
   51TMC2     O  796   0.287   1.473   1.629 -0.1408  0.5966  0.0456
   51TMC2     H  797   4.675   1.610   1.744 -1.4527 -0.6271 -1.3762
   51TMC2    H1  798   0.310   1.676   1.547 -0.9410 -1.8607 -1.5185
   51TMC2    H2  799   0.018   1.992   1.573  0.5082  0.5493  2.9691
   51TMC2    C7  800   0.259   1.930   1.471 -0.1018 -0.2133 -0.6586
   51TMC2    C8  801   4.566   1.840   1.656  0.4414 -1.0844  0.3762
   51TMC2    O1  802   0.211   2.011   1.391 -0.5987  0.0598 -0.0177
   51TMC2    O2  803   4.542   1.957   1.689 -0.2693  0.5794  0.4262
   51TMC2    O5  804   4.487   1.732   1.678  0.1188  0.7056 -0.5386
   51TMC2    H5  805   4.516   1.648   1.636  0.0685  1.4886 -2.1519
   52MPD2     C  806   0.101   0.994   1.732  0.1588 -0.9193  0.5334
   52MPD2    C1  807   0.188   1.066   1.655 -0.5587 -0.1468 -0.3252
   52MPD2    C2  808   0.177   1.202   1.646  0.2799 -0.0552  0.6732
   52MPD2    C3  809   0.083   1.272   1.718 -0.2999  0.2571 -0.4179
   52MPD2    C4  810   4.729   1.198   1.791  0.2718  0.1454  0.5872
   52MPD2    C5  811   0.004   1.063   1.799 -0.0805  0.7306 -0.7064
   52MPD2     H  812   0.249   1.248   1.578 -1.1837  1.0231 -0.1501
   52MPD2    H1  813   4.667   1.236   1.872 -0.1484  3.1999 -1.1986
   52MPD2    H2  814   0.089   0.887   1.721 -2.6234 -0.6713  1.1815
   52MPD2    H3  815   4.681   1.004   1.868 -0.0380  1.3574 -0.1353
   52MPD2     N  816   0.083   1.413   1.726 -0.3526 -0.8401 -0.2041
   52MPD2    H5  817   4.730   1.451   1.751  0.3924  0.0385  1.1457
   52MPD2    N1  818   0.278   1.004   1.564  0.2313 -0.0325 -0.1794
   52MPD2    H7  819   0.312   1.063   1.488  0.1992 -0.3130 -0.4127
   53TMC2    C1  820   0.092   0.416  11.298  0.3393  0.1282  0.1284
   53TMC2    C2  821   0.208   0.418  11.233 -0.4365 -0.2972 -0.4709
   53TMC2    C3  822   0.326   0.413  11.305 -0.1189  0.6034  0.1046
   53TMC2    C4  823   0.083   0.392  11.435  0.1403 -0.6998  0.7363
   53TMC2    C5  824   0.198   0.368  11.495  1.1239  0.3957 -0.0869
   53TMC2    C6  825   0.323   0.384  11.437  0.2061  0.0747  0.5720
   53TMC2     C  826   4.716   0.446  11.223  0.1468  0.4605 -0.9115
   53TMC2     O  827   4.716   0.448  11.101  0.4413  0.0848 -0.3260
   53TMC2     H  828   0.203   0.415  11.125 -2.6536 -1.8293 -0.3323
   53TMC2    H1  829   4.726   0.357  11.475 -0.3679  0.7027  0.7656
   53TMC2    H2  830   0.416   0.363  11.490  0.1491  2.2510  1.5441
   53TMC2    C7  831   0.188   0.356  11.645 -0.5396  0.3880  0.3239
   53TMC2    C8  832   0.443   0.371  11.239  0.1021 -0.0862 -0.3172
   53TMC2    O1  833   0.089   0.409  11.699 -0.3551  0.1288  0.4925
   53TMC2    O2  834   0.545   0.350  11.303 -0.2849  0.3882 -0.0049
   53TMC2    O5  835   0.450   0.420  11.115 -0.2563 -0.1814 -0.0502
   53TMC2    H5  836   0.362   0.433  11.072 -0.0044  0.8687 -0.2636
   54MPD2     C  837   4.434   0.501  11.165 -0.0249  0.2183  0.1197
   54MPD2    C1  838   4.496   0.538  11.283 -0.0077  0.2611  0.0448
   54MPD2    C2  839   4.425   0.609  11.378  0.3107 -0.4763 -0.2569
   54MPD2    C3  840   4.292   0.638  11.363  0.3779 -0.5405 -0.3233
   54MPD2    C4  841   4.229   0.593  11.244  0.5510  0.2108 -0.5682
   54MPD2    C5  842   4.299   0.522  11.151  0.1369 -0.1726 -0.7799
   54MPD2     H  843   4.486   0.649  11.458 -2.7931  1.6783  1.0102
   54MPD2    H1  844   4.123   0.611  11.230  0.6734  0.4905 -1.1122
   54MPD2    H2  845   4.487   0.441  11.092  1.7618  0.7964  0.9485
   54MPD2    H3  846   4.250   0.472  11.068 -1.5341 -0.7098  0.5340
   54MPD2     N  847   4.216   0.701  11.465  0.0088 -0.3666  0.0801
   54MPD2    H5  848   4.117   0.712  11.445 -0.0422  0.7509  0.9982
   54MPD2    N1  849   4.631   0.515  11.304  0.5796  0.5808  0.5634
   54MPD2    H7  850   4.670   0.548  11.392  3.4039 -0.9698 -0.1236
   55TMC2    C1  851   0.736   3.754   0.167  0.6286 -0.6739 -0.1450
   55TMC2    C2  852   0.834   3.833   0.116 -0.2821 -1.1316  0.3821
   55TMC2    C3  853   0.951   3.777   0.077 -0.3265  0.5428 -0.0122
   55TMC2    C4  854   0.754   3.619   0.188  0.2585 -0.8997 -0.0662
   55TMC2    C5  855   0.877   3.571   0.159 -0.5763  0.4412 -0.6365
   55TMC2    C6  856   0.980   3.645   0.096 -0.6293  0.0781 -0.8271
   55TMC2     C  857   0.639   3.834   0.244 -0.9391 -0.4573  0.3120
   55TMC2     O  858   0.611   3.788   0.351 -0.6775 -0.6163 -0.4220
   55TMC2     H  859   0.824   3.941   0.122 -0.7469 -1.0381 -2.0482
   55TMC2    H1  860   0.679   3.551   0.226  0.6079 -1.9115 -1.1830
   55TMC2    H2  861   1.080   3.603   0.089  0.2666  1.8275  1.2526
   55TMC2    C7  862   0.914   3.439   0.201  0.4948 -0.6491  0.4462
   55TMC2    C8  863   1.064   3.869   0.071  0.5838  0.4480  0.3463
   55TMC2    O1  864   1.002   3.384   0.138  0.8475  0.4646 -0.3457
   55TMC2    O2  865   1.058   3.981   0.112 -0.0811  0.2646  0.7980
   55TMC2    O5  866   1.157   3.812  17.739  0.2915  0.4508  0.2770
   55TMC2    H5  867   1.134   3.725  17.700 -1.2712  0.5607  0.9647
   56MPD2     C  868   0.507   4.162   0.166 -0.0083 -0.1006 -0.7493
   56MPD2    C1  869   0.520   4.046   0.239 -0.6075  0.0388  0.0347
   56MPD2    C2  870   0.464   4.037   0.365 -0.0195  0.2293  0.6750
   56MPD2    C3  871   0.393   4.145   0.413  0.0161 -0.0807 -0.0053
   56MPD2    C4  872   0.392   4.268   0.342 -0.0772  0.1723  0.1958
   56MPD2    C5  873   0.452   4.280   0.222  0.0328 -0.1122 -0.5955
   56MPD2     H  874   0.459   3.947   0.424 -0.1096 -0.7945 -0.8911
   56MPD2    H1  875   0.351   4.361   0.381 -5.1719 -1.3158 -1.6922
   56MPD2    H2  876   0.542   4.163   0.063 -0.7782 -2.4172 -1.0244
   56MPD2    H3  877   0.438   4.369   0.163  1.2798 -0.1072 -0.8777
   56MPD2     N  878   0.327   4.124   0.533  0.1477  0.3596 -0.2880
   56MPD2    H5  879   0.341   4.035   0.580  1.4422  0.9582  0.4760
   56MPD2    N1  880   0.600   3.947   0.179  0.8490 -0.8143  0.5070
   56MPD2    H7  881   0.640   3.954   0.086 -2.2441  1.8212 -0.6519
   57TMC2    C1  882   0.082   3.715  13.734 -0.1244  0.0145 -0.8670
   57TMC2    C2  883   0.020   3.612  13.675  0.5269  0.1615  0.6436
   57TMC2    C3  884   0.100   3.511  13.627 -0.7485 -0.5111  0.2795
   57TMC2    C4  885   0.221   3.720  13.745  0.3564  0.1671  0.5797
   57TMC2    C5  886   0.291   3.617  13.696 -0.0360  0.1566 -0.7885
   57TMC2    C6  887   0.236   3.512  13.629 -0.0550  0.0533  0.6170
   57TMC2     C  888   0.011   3.794  13.832 -0.4689 -0.2306 -0.7582
   57TMC2     O  889   0.049   3.908  13.843 -0.1688  0.7516  0.4890
   57TMC2     H  890   4.653   3.595  13.700 -0.0307  2.8485  0.1585
   57TMC2    H1  891   0.270   3.782  13.819 -0.2238 -1.7149  2.5617
   57TMC2    H2  892   0.286   3.429  13.580 -0.0392 -0.0771  0.8488
   57TMC2    C7  893   0.432   3.603  13.731 -0.5078  0.0997 -0.1682
   57TMC2    C8  894   0.040   3.394  13.566  0.0627 -0.3385  0.1447
   57TMC2    O1  895   0.486   3.706  13.770  0.1639 -0.2138  0.1495
   57TMC2    O2  896   0.088   3.287  13.577  0.1547 -0.1377  0.1755
   57TMC2    O5  897   4.663   3.424  13.497  0.2196  0.1997  0.0078
   57TMC2    H5  898   4.646   3.520  13.487 -0.4633  0.2312  1.5543
   58MPD2     C  899   4.361   3.846  14.165  0.0388 -0.5788  0.3040
   58MPD2    C1  900   4.448   3.938  14.117  0.0428 -0.0661  1.1561
   58MPD2    C2  901   4.549   3.902  14.028 -0.2420  0.9461  0.2337
   58MPD2    C3  902   4.561   3.767  13.992 -0.3201  0.2213  0.0143
   58MPD2    C4  903   4.467   3.680  14.038 -0.4340 -0.0874  0.2841
   58MPD2    C5  904   4.372   3.721  14.121  0.2472 -0.5804 -0.2165
   58MPD2     H  905   4.625   3.972  13.995 -0.5378  0.7790 -0.7962
   58MPD2    H1  906   4.460   3.580  13.997  2.3055 -0.3779  0.5220
   58MPD2    H2  907   4.278   3.862  14.233  2.1323  0.5226  2.6060
   58MPD2    H3  908   4.307   3.641  14.156  0.6249 -0.4436  0.7887
   58MPD2     N  909   4.657   3.720  13.898  0.3765 -0.6598 -0.1602
   58MPD2    H5  910   4.656   3.620  13.878  0.4995 -0.3170 -1.8636
   58MPD2    N1  911   4.434   4.079  14.129  0.1309  0.1343  0.2134
   58MPD2    H7  912   4.494   4.131  14.067  2.0895  0.8666  2.7339
   59TMC2    C1  913   2.896   4.047  12.875  0.7835  0.6760 -0.4952
   59TMC2    C2  914   2.890   3.974  12.989 -0.4661 -0.5256  0.6155
   59TMC2    C3  915   2.822   3.861  12.983  0.0000 -0.1045 -0.0086
   59TMC2    C4  916   2.821   4.014  12.764  0.4108 -0.7143 -0.1128
   59TMC2    C5  917   2.736   3.912  12.778  0.3606 -0.2339  0.1800
   59TMC2    C6  918   2.736   3.826  12.885  0.0990 -0.7095  0.1689
   59TMC2     C  919   2.934   4.184  12.900  0.1269 -0.0055 -0.5379
   59TMC2     O  920   2.872   4.264  12.827  0.0790 -0.6290 -0.0139
   59TMC2     H  921   2.952   3.999  13.075 -1.6596 -2.4474  2.0292
   59TMC2    H1  922   2.812   4.074  12.675  1.1236 -0.0701  0.2526
   59TMC2    H2  923   2.681   3.733  12.881 -0.3163 -0.5392  1.7672
   59TMC2    C7  924   2.636   3.876  12.678  0.4115  0.4154 -0.5943
   59TMC2    C8  925   2.813   3.783  13.102  0.5536  0.2850  0.1042
   59TMC2    O1  926   2.600   3.759  12.670  0.1537  0.0874 -0.4191
   59TMC2    O2  927   2.902   3.786  13.187 -0.1827 -0.5099 -0.8849
   59TMC2    O5  928   2.687   3.807  13.146  0.1661 -0.5423 -0.0172
   59TMC2    H5  929   2.626   3.793  13.070  0.0603 -0.0376 -0.0304
   60MPD2     C  930   3.028   4.446  13.012 -0.1289 -0.0529 -0.3848
   60MPD2    C1  931   3.083   4.325  13.043 -0.6414  0.4603 -0.4467
   60MPD2    C2  932   3.194   4.335  13.120 -0.7628  0.6693  0.8953
   60MPD2    C3  933   3.244   4.449  13.175 -0.5711 -0.3800  0.9883
   60MPD2    C4  934   3.181   4.563  13.156  0.0186 -0.4698  0.3542
   60MPD2    C5  935   3.077   4.561  13.069  0.6302  0.2134 -0.6795
   60MPD2     H  936   3.242   4.241  13.146 -1.3919 -0.7989 -3.1314
   60MPD2    H1  937   3.222   4.648  13.209 -1.9291 -0.4602  1.8651
   60MPD2    H2  938   2.943   4.447  12.944 -0.3793  0.9212 -0.0489
   60MPD2    H3  939   3.029   4.656  13.049  0.3778 -0.0502 -1.3014
   60MPD2     N  940   3.362   4.457  13.255 -0.2588 -0.1896  0.5461
   60MPD2    H5  941   3.399   4.539  13.302  2.0223 -1.6475  1.3009
   60MPD2    N1  942   3.032   4.202  12.995  0.9242  0.4830  0.1573
   60MPD2    H7  943   3.075   4.116  13.029 -3.1747 -0.9008  1.7759
   61TMC2    C1  944   2.078   0.745  16.039  0.0096  0.7747  0.3226
   61TMC2    C2  945   2.058   0.728  16.174  0.3088  0.0588  0.3916
   61TMC2    C3  946   1.978   0.823  16.229 -0.5867 -0.1358 -0.0511
   61TMC2    C4  947   2.026   0.844  15.966  0.7676 -0.6273 -0.3133
   61TMC2    C5  948   1.962   0.944  16.035 -0.3658 -1.1466  0.1010
   61TMC2    C6  949   1.936   0.937  16.171  0.6287 -0.1420 -0.3204
   61TMC2     C  950   2.158   0.643  15.984 -0.1542 -0.0190 -0.3767
   61TMC2     O  951   2.232   0.578  16.060  0.0246 -0.1999  0.0911
   61TMC2     H  952   2.096   0.647  16.235 -1.5730 -1.0760  0.0653
   61TMC2    H1  953   2.040   0.851  15.859 -0.7925  1.0797 -0.4073
   61TMC2    H2  954   1.872   1.002  16.230  1.6340 -0.7894  1.4868
   61TMC2    C7  955   1.934   1.060  15.960 -0.2726 -0.8840  0.3776
   61TMC2    C8  956   1.947   0.809  16.369  0.0975  1.4972 -0.6490
   61TMC2    O1  957   2.008   1.107  15.872 -0.2272  0.4750  0.0102
   61TMC2    O2  958   1.937   0.905  16.444  0.1096 -0.1519 -0.2168
   61TMC2    O5  959   1.861   0.701  16.371  0.6656 -0.2273  0.0504
   61TMC2    H5  960   1.850   0.657  16.284 -0.5916  1.1881 -0.5034
   62MPD2     C  961   2.335   0.474  15.795 -0.2603  0.7888 -0.7029
   62MPD2    C1  962   2.232   0.565  15.754 -0.0152  0.7909  0.1478
   62MPD2    C2  963   2.202   0.581  15.623 -0.0340  0.1144  0.1305
   62MPD2    C3  964   2.288   0.536  15.522  0.0234  0.4650 -0.4027
   62MPD2    C4  965   2.388   0.448  15.557 -1.0430  1.1640 -0.4147
   62MPD2    C5  966   2.410   0.409  15.692  0.8852 -0.2375 -0.8686
   62MPD2     H  967   2.121   0.650  15.604  0.8524  1.4360  1.1846
   62MPD2    H1  968   2.456   0.395  15.491 -0.9115  0.0536  0.6074
   62MPD2    H2  969   2.365   0.451  15.896 -1.5490  0.0469 -0.5009
   62MPD2    H3  970   2.493   0.342  15.712  0.2625 -1.0816 -1.1158
   62MPD2     N  971   2.280   0.583  15.380 -1.1004 -0.2856 -0.3837
   62MPD2    H5  972   2.346   0.542  15.315 -0.8473 -0.7884  0.1880
   62MPD2    N1  973   2.147   0.641  15.842  1.0568 -0.2492 -0.4113
   62MPD2    H7  974   2.068   0.695  15.807  0.7494 -0.8422 -0.6330
   63TMC2    C1  975   1.922   0.373  11.666  0.6024  0.7112  0.5489
   63TMC2    C2  976   2.036   0.393  11.741  0.5553 -0.3231 -0.4835
   63TMC2    C3  977   2.134   0.460  11.679  0.1385  0.3484  0.3015
   63TMC2    C4  978   1.903   0.434  11.543  0.3959  0.1733  0.2013
   63TMC2    C5  979   2.009   0.497  11.480  0.4679  0.3385 -0.2940
   63TMC2    C6  980   2.125   0.503  11.546 -0.3583  0.2413  0.2809
   63TMC2     C  981   1.813   0.301  11.724  0.7036 -0.2943  0.5847
   63TMC2     O  982   1.817   0.272  11.843 -0.2571 -0.1104 -0.1354
   63TMC2     H  983   2.040   0.354  11.842  1.0820  1.8126  0.3074
   63TMC2    H1  984   1.804   0.440  11.501  0.6955  0.1336 -0.5107
   63TMC2    H2  985   2.208   0.548  11.492  0.2871 -2.0957 -0.6759
   63TMC2    C7  986   1.977   0.570  11.358 -0.1527  0.4574 -0.3328
   63TMC2    C8  987   2.271   0.425  11.717  0.4441  0.7747  0.4481
   63TMC2    O1  988   1.861   0.559  11.314 -0.8174  0.5903  0.3358
   63TMC2    O2  989   2.368   0.436  11.648  0.3993 -0.3815  0.4369
   63TMC2    O5  990   2.276   0.394  11.851 -0.3698 -1.0532 -0.0626
   63TMC2    H5  991   2.199   0.429  11.901 -0.2611 -0.6841 -0.1493
   64MPD2     C  992   1.364   0.064  11.613  0.3007 -0.8027  0.4770
   64MPD2    C1  993   1.446   0.072  11.500 -0.3882  0.1269 -0.1858
   64MPD2    C2  994   1.571   0.133  11.510  0.0850  0.0226 -0.2227
   64MPD2    C3  995   1.618   0.173  11.630 -0.8704 -0.3677  0.0625
   64MPD2    C4  996   1.540   0.159  11.740  0.2021  0.2459 -0.3789
   64MPD2    C5  997   1.408   0.122  11.727 -0.2897 -1.1123 -1.0621
   64MPD2     H  998   1.623   0.166  11.420 -0.4404 -1.1166 -0.9419
   64MPD2    H1  999   1.580   0.184  11.838 -3.2641 -0.7922  1.2906
   64MPD2    H2 1000   1.266   0.019  11.624  0.8520 -1.9082  0.9086
   64MPD2    H3 1001   1.335   0.115  11.806  0.3172  2.1336 -0.2302
   64MPD2     N 1002   1.738   0.240  11.625 -0.4300 -0.8463  0.3149
   64MPD2    H5 1003   1.776   0.255  11.532 -0.1345 -1.3991  0.3463
   64MPD2    N1 1004   1.400   0.040  11.368 -0.2274 -0.0225 -0.1579
   64MPD2    H7 1005   1.457   0.063  11.287 -0.7533 -0.1136 -0.5550
   65TMC2    C1 1006   2.776   0.492  15.693  0.5432  0.0790  0.2229
   65TMC2    C2 1007   2.781   0.441  15.571  0.0849 -0.3144 -0.0082
   65TMC2    C3 1008   2.729   0.518  15.472  0.2532  0.1091 -0.2641
   65TMC2    C4 1009   2.699   0.600  15.724  0.1524 -0.3143 -0.0039
   65TMC2    C5 1010   2.631   0.661  15.623  0.0172  0.1640  0.1209
   65TMC2    C6 1011   2.648   0.629  15.491  0.4299  0.3315  0.0297
   65TMC2     C 1012   2.790   0.412  15.809  0.1738  0.6757  0.0487
   65TMC2     O 1013   2.840   0.464  15.908  0.1690 -0.1531 -0.0421
   65TMC2     H 1014   2.850   0.362  15.545 -0.1636 -0.4854 -0.1527
   65TMC2    H1 1015   2.697   0.629  15.829 -0.2424  0.5694 -0.2541
   65TMC2    H2 1016   2.602   0.690  15.414  1.8964 -1.4855 -2.2898
   65TMC2    C7 1017   2.572   0.801  15.645  1.0611 -0.1956  0.8431
   65TMC2    C8 1018   2.747   0.467  15.330  0.3605 -0.1428 -0.1154
   65TMC2    O1 1019   2.545   0.866  15.547  0.1594 -0.0963 -0.0669
   65TMC2    O2 1020   2.789   0.358  15.290  0.2017  0.5889  0.2285
   65TMC2    O5 1021   2.714   0.567  15.249 -0.0977 -0.3446 -0.5073
   65TMC2    H5 1022   2.713   0.657  15.289 -2.6258 -0.4365 -0.3656
   66MPD2     C 1023   2.807   0.172  15.983  0.3518  0.1735 -0.3322
   66MPD2    C1 1024   2.762   0.173  15.853 -0.0413  0.3371 -0.2508
   66MPD2    C2 1025   2.709   0.062  15.793  0.2315 -0.0497 -0.1525
   66MPD2    C3 1026   2.716   4.679  15.857 -0.4376 -0.4012 -0.4439
   66MPD2    C4 1027   2.749   4.681  15.987  0.9116  0.2467  0.0313
   66MPD2    C5 1028   2.795   0.055  16.050  0.1575 -0.0404  0.4449
   66MPD2     H 1029   2.664   0.072  15.695 -0.2035  0.6167  0.1158
   66MPD2    H1 1030   2.746   4.588  16.043 -1.0749  0.3599  0.1332
   66MPD2    H2 1031   2.856   0.255  16.033  2.6070 -1.3117 -0.0559
   66MPD2    H3 1032   2.835   0.043  16.151 -0.7000  0.3574  0.8293
   66MPD2     N 1033   2.662   4.560  15.804  0.1397 -0.2634  0.3115
   66MPD2    H5 1034   2.643   4.480  15.864 -0.3225  1.1224  2.0193
   66MPD2    N1 1035   2.754   0.280  15.778 -0.1754  0.6300 -0.0122
   66MPD2    H7 1036   2.710   0.276  15.686  1.9657 -0.4078 -0.9903
   67TMC2    C1 1037   2.838   4.484  14.371 -0.3252 -0.1417  0.5472
   67TMC2    C2 1038   2.734   4.576  14.406  0.1241 -0.1838  0.4299
   67TMC2    C3 1039   2.756   4.643  14.522  0.0780  0.3789 -0.1986
   67TMC2    C4 1040   2.951   4.459  14.450 -0.7321  0.0404  0.1209
   67TMC2    C5 1041   2.957   4.531  14.567 -0.0700 -0.2059 -0.4101
   67TMC2    C6 1042   2.864   4.625  14.607  0.6642 -0.4636 -0.3062
   67TMC2     C 1043   2.827   4.405  14.247 -0.1837  0.6542 -0.4225
   67TMC2     O 1044   2.889   4.297  14.243 -0.2992  0.1499  0.1135
   67TMC2     H 1045   2.641   4.574  14.350  0.6505 -0.7063 -0.4314
   67TMC2    H1 1046   3.030   4.389  14.425 -0.2120  0.7180 -0.1107
   67TMC2    H2 1047   2.875   4.711  14.672  1.4994 -0.1746 -0.8456
   67TMC2    C7 1048   3.065   4.499  14.660 -0.5978  0.6769  0.4617
   67TMC2    C8 1049   2.676   0.019  14.563  0.0401 -0.1431 -0.0468
   67TMC2    O1 1050   3.158   4.429  14.618  0.3660 -0.0593 -0.1660
   67TMC2    O2 1051   2.679   0.061  14.676 -0.3652 -0.2599  0.2897
   67TMC2    O5 1052   2.598   0.057  14.462 -0.3674 -0.1001 -0.2383
   67TMC2    H5 1053   2.612   0.009  14.377  1.1064  0.0337 -0.0814
   68MPD2     C 1054   2.753   4.308  13.976 -0.3018  0.0681 -0.0129
   68MPD2    C1 1055   2.726   4.432  14.020  0.7394 -0.6852 -0.2176
   68MPD2    C2 1056   2.652   4.518  13.940 -0.7086  0.4173 -0.6128
   68MPD2    C3 1057   2.603   4.476  13.815  0.4754 -0.0054 -0.8877
   68MPD2    C4 1058   2.643   4.357  13.766 -0.0364  0.2668 -0.1767
   68MPD2    C5 1059   2.715   4.275  13.851  0.0671  0.2932 -0.3077
   68MPD2     H 1060   2.624   4.616  13.978  1.1389  0.9491 -0.6003
   68MPD2    H1 1061   2.611   4.326  13.667  0.1698 -3.1887  0.8362
   68MPD2    H2 1062   2.806   4.233  14.035  0.5632  1.8388  1.4750
   68MPD2    H3 1063   2.733   4.170  13.828 -1.7607  0.0416 -0.6430
   68MPD2     N 1064   2.510   4.558  13.745  0.2453  0.2325 -0.1346
   68MPD2    H5 1065   2.488   4.528  13.651 -3.8461 -0.3685  1.0342
   68MPD2    N1 1066   2.758   4.480  14.153 -0.0102  0.2376  0.0182
   68MPD2    H7 1067   2.731   4.575  14.175  3.2062  1.2436 -0.4908
   69TMC2    C1 1068   0.162   0.953  12.933  0.6423 -0.6069 -0.4889
   69TMC2    C2 1069   0.056   1.040  12.961 -0.1194 -0.1471  0.3633
   69TMC2    C3 1070   4.728   1.081  12.851  0.5054  0.3696 -0.2108
   69TMC2    C4 1071   0.183   0.900  12.807 -0.4473  0.0421 -0.0636
   69TMC2    C5 1072   0.110   0.952  12.703 -0.5417 -0.6212 -0.1263
   69TMC2    C6 1073   0.018   1.050  12.725 -0.0526 -0.4648  0.1095
   69TMC2     C 1074   0.234   0.893  13.044 -0.0792  0.1134  0.3724
   69TMC2     O 1075   0.208   0.934  13.157 -0.4989  0.5581  0.4254
   69TMC2     H 1076   0.042   1.068  13.064 -0.4460 -2.4126  0.9391
   69TMC2    H1 1077   0.248   0.815  12.792  0.1107  0.4907 -0.1613
   69TMC2    H2 1078   4.699   1.107  12.652  2.2707 -0.1348 -1.4281
   69TMC2    C7 1079   0.151   0.921  12.567 -0.3383  0.1746  0.2881
   69TMC2    C8 1080   4.632   1.186  12.863  0.7741  0.4542  0.1115
   69TMC2    O1 1081   0.240   0.844  12.544  0.2757 -0.2534 -0.2036
   69TMC2    O2 1082   4.616   1.271  12.777 -0.2170  0.3381 -0.5129
   69TMC2    O5 1083   4.545   1.157  12.964  0.3951 -0.3614 -0.0061
   69TMC2    H5 1084   4.566   1.068  13.002  2.2819 -0.1153 -0.4366
   70MPD2     C 1085   0.559   0.724  13.029  0.5776  0.6586  0.2580
   70MPD2    C1 1086   0.451   0.780  13.092 -0.2457 -0.6404 -0.5414
   70MPD2    C2 1087   0.440   0.762  13.229  0.2690 -0.4414  0.7723
   70MPD2    C3 1088   0.536   0.686  13.293  0.4378 -0.1905  0.2014
   70MPD2    C4 1089   0.650   0.641  13.223  0.1512 -0.2446  0.5031
   70MPD2    C5 1090   0.660   0.663  13.094  0.0388  0.0011  0.1214
   70MPD2     H 1091   0.348   0.781  13.283 -2.1170 -1.3866 -2.9703
   70MPD2    H1 1092   0.731   0.594  13.278  0.6499  0.0717  0.0355
   70MPD2    H2 1093   0.576   0.735  12.922 -0.0865  2.5549  0.3473
   70MPD2    H3 1094   0.755   0.649  13.043 -0.0251  1.6363 -0.4262
   70MPD2     N 1095   0.514   0.626  13.418  0.4042  0.2191  0.1070
   70MPD2    H5 1096   0.586   0.567  13.458 -2.8057 -1.6302  3.2030
   70MPD2    N1 1097   0.353   0.838  13.004  0.1672 -0.0463  0.2103
   70MPD2    H7 1098   0.378   0.841  12.905  2.0671 -0.4637  0.6730
   71TMC2    C1 1099   2.187   1.275   1.968  0.2408 -0.0280  0.6474
   71TMC2    C2 1100   2.266   1.298   2.077 -0.4451 -0.7523  0.6558
   71TMC2    C3 1101   2.245   1.231   2.191 -0.0472 -0.7599 -0.7578
   71TMC2    C4 1102   2.087   1.184   1.977 -0.1784 -0.0314 -0.4338
   71TMC2    C5 1103   2.082   1.101   2.091  0.5209 -0.3450 -0.3260
   71TMC2    C6 1104   2.165   1.123   2.195  0.0506  0.2900  0.2334
   71TMC2     C 1105   2.208   1.357   1.849  0.1586  0.0462  0.2637
   71TMC2     O 1106   2.306   1.429   1.845  0.0469 -0.3115  0.1203
   71TMC2     H 1107   2.347   1.369   2.073  0.6825 -2.0614  0.3785
   71TMC2    H1 1108   2.030   1.158   1.889 -0.5742 -1.8890  0.3634
   71TMC2    H2 1109   2.153   1.053   2.277  2.3879  1.0530  1.2430
   71TMC2    C7 1110   1.978   1.005   2.113 -0.3927 -0.1742 -0.3592
   71TMC2    C8 1111   2.342   1.235   2.298  0.0436 -0.6088  0.0277
   71TMC2    O1 1112   1.985   0.909   2.185  0.1391  0.3168 -0.7017
   71TMC2    O2 1113   2.461   1.249   2.274  0.2524 -0.6481 -0.0593
   71TMC2    O5 1114   2.279   1.242   2.420  0.4000  0.0854  0.1517
   71TMC2    H5 1115   2.185   1.266   2.402 -0.2914 -1.9361  1.0643
   72MPD2     C 1116   2.099   1.541   1.395  0.8659 -0.7381 -0.6643
   72MPD2    C1 1117   2.185   1.593   1.486 -0.2632 -0.5920 -0.4247
   72MPD2    C2 1118   2.192   1.520   1.601 -0.2321 -0.0910 -0.3502
   72MPD2    C3 1119   2.102   1.418   1.632  0.3821 -0.5064  0.1378
   72MPD2    C4 1120   1.998   1.390   1.545 -0.1731  0.2553  0.0427
   72MPD2    C5 1121   2.007   1.449   1.417 -0.5345  0.3315 -0.6344
   72MPD2     H 1122   2.273   1.558   1.662  0.6237 -0.6358 -1.1526
   72MPD2    H1 1123   1.920   1.316   1.563 -0.8271  1.0372  0.4425
   72MPD2    H2 1124   2.110   1.574   1.292  0.4662 -1.9868 -1.1060
   72MPD2    H3 1125   1.934   1.417   1.343  0.4036 -0.5098 -1.1896
   72MPD2     N 1126   2.110   1.344   1.753  0.1494 -0.5495  0.1205
   72MPD2    H5 1127   2.033   1.285   1.781  0.0009 -0.2294  0.3931
   72MPD2    N1 1128   2.271   1.707   1.475 -0.8964  0.2698  0.8433
   72MPD2    H7 1129   2.336   1.737   1.547  1.0396  0.3888 -0.9526
   73TMC2    C1 1130   1.754   3.397  13.808 -0.6231  0.4083 -0.4192
   73TMC2    C2 1131   1.661   3.480  13.863 -0.0983  0.2508 -0.1985
   73TMC2    C3 1132   1.702   3.570  13.960  0.3542 -0.1689 -0.3177
   73TMC2    C4 1133   1.890   3.422  13.835 -0.4148 -0.8967  0.1596
   73TMC2    C5 1134   1.922   3.536  13.907  0.4137 -0.1943  0.2784
   73TMC2    C6 1135   1.829   3.603  13.983  0.9271  0.7933 -0.2972
   73TMC2     C 1136   1.734   3.367  13.663 -0.0701 -0.6323  0.3411
   73TMC2     O 1137   1.825   3.411  13.586  0.6686 -0.2492  0.1982
   73TMC2     H 1138   1.555   3.459  13.850 -0.2877  2.4667 -2.3078
   73TMC2    H1 1139   1.973   3.368  13.791 -1.1017 -2.0453  0.2829
   73TMC2    H2 1140   1.853   3.690  14.044 -1.4940  0.5650  0.9737
   73TMC2    C7 1141   2.018   3.627  13.848 -0.3061 -0.2053 -0.6541
   73TMC2    C8 1142   1.609   3.674  13.998 -0.5982  0.5017 -0.5666
   73TMC2    O1 1143   2.080   3.707  13.916  0.0212 -0.3033 -0.3387
   73TMC2    O2 1144   1.642   3.790  14.013 -0.5576  0.1419  0.6832
   73TMC2    O5 1145   1.492   3.616  14.049 -0.0320 -0.4792  0.0831
   73TMC2    H5 1146   1.491   3.520  14.031  0.9354 -0.6197  0.7759
   74MPD2     C 1147   1.569   3.152  13.245  0.6283  0.1874  0.2721
   74MPD2    C1 1148   1.634   3.273  13.256 -0.9654 -0.1323 -0.6952
   74MPD2    C2 1149   1.651   3.313  13.388 -0.3276 -0.1148 -0.1818
   74MPD2    C3 1150   1.592   3.257  13.498 -0.0844 -0.1732 -0.1029
   74MPD2    C4 1151   1.507   3.154  13.482 -0.8661  0.4592 -0.4245
   74MPD2    C5 1152   1.504   3.099  13.353  0.4024  0.0609 -0.7573
   74MPD2     H 1153   1.707   3.405  13.403 -0.2806 -0.2583  0.5006
   74MPD2    H1 1154   1.461   3.100  13.564 -0.1884  0.9428  0.2792
   74MPD2    H2 1155   1.558   3.096  13.153 -1.8001 -2.8127  2.3390
   74MPD2    H3 1156   1.436   3.016  13.341  0.5309 -0.3724  1.5540
   74MPD2     N 1157   1.627   3.295  13.631  0.2190 -0.2090  0.2478
   74MPD2    H5 1158   1.566   3.264  13.705  1.4149  0.2744  1.4337
   74MPD2    N1 1159   1.713   3.325  13.151 -0.2921  0.1072 -0.0524
   74MPD2    H7 1160   1.714   3.278  13.061  1.6991  3.2779 -1.6974
   75TMC2    C1 1161   2.389   0.012  13.672  0.1185 -0.2258  0.4583
   75TMC2    C2 1162   2.373   0.150  13.688 -0.0765 -0.6503  0.6194
   75TMC2    C3 1163   2.275   0.206  13.609 -0.1666  0.2042 -0.0359
   75TMC2    C4 1164   2.303   4.678  13.595 -0.5774  0.2322 -0.7910
   75TMC2    C5 1165   2.207   0.000  13.521  0.4554  0.2815 -0.2386
   75TMC2    C6 1166   2.188   0.137  13.537 -0.0136 -0.3256 -0.1681
   75TMC2     C 1167   2.458   4.682  13.775  0.7385  0.1944  0.0591
   75TMC2     O 1168   2.477   0.008  13.876  0.4223 -0.1981  0.6985
   75TMC2     H 1169   2.430   0.208  13.760 -0.7923  0.5390  0.2267
   75TMC2    H1 1170   2.299   4.570  13.602  0.2411  0.2995  0.8031
   75TMC2    H2 1171   2.109   0.187  13.482 -0.7302  0.2133  1.3709
   75TMC2    C7 1172   2.095   4.653  13.486 -0.0506 -0.2660 -0.0145
   75TMC2    C8 1173   2.271   0.350  13.611 -0.5917 -0.2940  0.4086
   75TMC2    O1 1174   2.113   4.555  13.418 -0.5027  0.4661  0.1215
   75TMC2    O2 1175   2.171   0.405  13.575 -0.1073 -0.3444  0.0915
   75TMC2    O5 1176   2.392   0.401  13.585  0.3654  0.5990  0.0505
   75TMC2    H5 1177   2.467   0.341  13.605 -0.0132 -0.2808 -1.2291
   76TMC2    C1 1178   0.713   0.032  12.566 -0.1538 -0.2137  0.1369
   76TMC2    C2 1179   0.605   0.044  12.652  0.6550 -0.1454 -0.2371
   76TMC2    C3 1180   0.623   0.019  12.783 -0.2442 -0.8932 -0.0465
   76TMC2    C4 1181   0.830   4.720  12.611  0.2381  0.6064 -0.2838
   76TMC2    C5 1182   0.841   4.687  12.746 -0.1895 -0.4995 -0.5911
   76TMC2    C6 1183   0.740   4.707  12.836  0.5455 -0.3892  0.0099
   76TMC2     C 1184   0.692   0.092  12.434  0.0648  0.1273  0.2084
   76TMC2     O 1185   0.595   0.169  12.429  0.4342  0.5756  0.4429
   76TMC2     H 1186   0.510   0.087  12.623  1.2388  2.9943  2.6251
   76TMC2    H1 1187   0.922   4.723  12.554  1.9133 -1.9266  2.3354
   76TMC2    H2 1188   0.755   4.690  12.942 -1.3450 -0.4136  0.2761
   76TMC2    C7 1189   0.969   4.641  12.800  0.3497  0.0328 -1.0063
   76TMC2    C8 1190   0.532   0.088  12.865  0.4732 -0.5606 -0.2476
   76TMC2    O1 1191   0.980   4.656  12.924  0.2128 -0.2335  0.3244
   76TMC2    O2 1192   0.475   0.191  12.825 -0.3382 -0.0979  0.2592
   76TMC2    O5 1193   0.511   0.024  12.977 -0.2289  0.4765 -0.3209
   76TMC2    H5 1194   0.563   4.680  12.956 -0.6262  0.4797 -1.2863
   77MPD2     C 1195   0.885   0.267  11.997  0.2469  0.2476 -0.0760
   77MPD2    C1 1196   0.776   0.299  12.069 -0.3515  0.5466  0.4224
   77MPD2    C2 1197   0.745   0.236  12.186  0.0195 -0.4959 -0.7903
   77MPD2    C3 1198   0.823   0.140  12.233  0.0197  0.2518 -0.6204
   77MPD2    C4 1199   0.933   0.102  12.162  0.3219  0.2901  0.5410
   77MPD2    C5 1200   0.970   0.168  12.049  0.2391  0.2280 -0.4729
   77MPD2     H 1201   0.656   0.269  12.238  0.7668 -0.2299  0.3311
   77MPD2    H1 1202   0.992   0.019  12.201  1.3794  0.4462 -0.7290
   77MPD2    H2 1203   0.920   0.315  11.906  2.3414  0.6267  0.9127
   77MPD2    H3 1204   1.061   0.147  11.994  0.6396 -0.6022  0.5053
   77MPD2     N 1205   0.796   0.069  12.352  0.4203 -0.1513  0.3449
   77MPD2    H5 1206   0.853   4.727  12.380  1.3078  0.5689  0.5626
   77MPD2    N1 1207   0.690   0.406  12.026 -0.2865  0.5482  0.2372
   77MPD2    H7 1208   0.599   0.426  12.067  0.1192  0.5691  1.1459
   78TMC2    C1 1209   2.224   1.036   1.608 -0.7925  0.0213 -0.1255
   78TMC2    C2 1210   2.209   1.123   1.497 -0.1051 -0.4219  0.7758
   78TMC2    C3 1211   2.321   1.165   1.437  0.5276 -0.3044 -0.2568
   78TMC2    C4 1212   2.346   0.994   1.645  0.1526 -0.7232  0.0527
   78TMC2    C5 1213   2.453   1.029   1.566  0.2146  0.2222  0.4262
   78TMC2    C6 1214   2.440   1.111   1.458  0.1725  0.1429  0.3185
   78TMC2     C 1215   2.109   0.980   1.670  0.3150  0.1982  0.2862
   78TMC2     O 1216   2.117   0.931   1.784  0.2128  0.3468  0.0417
   78TMC2     H 1217   2.112   1.166   1.473  0.1153 -0.7197 -0.6252
   78TMC2    H1 1218   2.362   0.916   1.718 -1.6582 -1.1952 -0.0356
   78TMC2    H2 1219   2.525   1.143   1.400  1.0119  0.8227  1.9104
   78TMC2    C7 1220   2.580   0.957   1.579 -0.0719  0.0307  0.1909
   78TMC2    C8 1221   2.314   1.262   1.327 -0.2657  0.3874 -0.3403
   78TMC2    O1 1222   2.655   0.966   1.481  0.1042 -0.2888  0.1171
   78TMC2    O2 1223   2.221   1.263   1.246  0.0893  0.2074  0.4636
   78TMC2    O5 1224   2.398   1.361   1.350  0.2679  0.4317 -0.0335
   78TMC2    H5 1225   2.465   1.340   1.419  1.6934 -1.9769 -2.1487
   79MPD1     C 1226   1.647   0.761   1.626 -0.2744  0.2314  0.1331
   79MPD1    C1 1227   1.720   0.788   1.735  0.0454 -0.7144  0.1084
   79MPD1    C2 1228   1.840   0.864   1.726  1.0299  0.6105 -0.4068
   79MPD1    C3 1229   1.883   0.913   1.601  0.2431 -0.4704  0.1596
   79MPD1    C4 1230   1.795   0.888   1.490 -0.3635 -0.7478 -0.1739
   79MPD1    C5 1231   1.681   0.813   1.501  0.6177 -0.1342 -0.2495
   79MPD1     H 1232   1.896   0.866   1.819 -2.3728 -2.8722  1.7376
   79MPD1    H1 1233   1.821   0.923   1.391  0.0632  0.2824  0.2970
   79MPD1    H2 1234   1.561   0.695   1.634 -0.0356 -0.3365 -1.8885
   79MPD1    H3 1235   1.616   0.788   1.418  0.6240 -0.5143 -0.1425
   79MPD1     N 1236   2.007   0.973   1.583  0.0429 -0.5543 -0.4009
   79MPD1    H5 1237   2.020   1.007   1.488 -2.7116  2.8192  0.4375
   79MPD1    N1 1238   1.698   0.714   1.852 -0.2648  0.0257  0.3361
   79MPD1    H6 1239   1.720   0.772   1.933  1.2096 -2.7778  1.9316
   79MPD1    H7 1240   1.604   0.674   1.854 -0.4413  0.4010 -1.1306
   80TMC2    C1 1241   4.515   4.272  11.909 -0.1402 -0.7632  0.7658
   80TMC2    C2 1242   4.417   4.342  11.846  0.4801  0.3196 -0.2161
   80TMC2    C3 1243   4.298   4.282  11.838  0.3565  0.3093  0.3593
   80TMC2    C4 1244   4.498   4.153  11.967 -0.1489 -0.0937 -0.2463
   80TMC2    C5 1245   4.373   4.098  11.961  0.3299 -0.4317  0.1979
   80TMC2    C6 1246   4.269   4.163  11.899  0.2060  0.2302 -1.4199
   80TMC2     C 1247   4.646   4.312  11.910 -0.1026  0.3250  0.0446
   80TMC2     O 1248   4.731   4.227  11.879 -0.7193 -0.2491 -0.2275
   80TMC2     H 1249   4.434   4.429  11.785  2.5931 -0.5336 -0.8299
   80TMC2    H1 1250   4.580   4.106  12.019 -0.3700  1.9133  1.9461
   80TMC2    H2 1251   4.169   4.123  11.895  0.1307  0.1008  1.3799
   80TMC2    C7 1252   4.345   3.983  12.053 -0.3038 -0.3585 -0.4010
   80TMC2    C8 1253   4.193   4.350  11.767 -0.3041  0.8407  0.8336
   80TMC2    O1 1254   4.243   3.915  12.036 -0.5869 -0.5135 -0.0796
   80TMC2    O2 1255   4.185   4.471  11.786  0.3549  0.7779 -0.3251
   80TMC2    O5 1256   4.213   4.306  11.643 -0.2617  0.8089  0.0993
   80TMC2    H5 1257   4.218   4.209  11.634 -1.7125  0.5203  2.4330
   81MPD2     C 1258   0.170   4.420  12.007 -1.1915 -0.2557 -0.1859
   81MPD2    C1 1259   0.048   4.477  12.031 -0.2280 -1.0357  0.4669
   81MPD2    C2 1260   0.042   4.590  12.110  0.0094  0.6172 -0.0287
   81MPD2    C3 1261   0.156   4.643  12.166 -0.3469 -0.0049  0.0847
   81MPD2    C4 1262   0.276   4.588  12.144 -0.0693  0.8465 -0.3739
   81MPD2    C5 1263   0.282   4.479  12.061  0.8502  0.3987  0.3749
   81MPD2     H 1264   4.680   4.624  12.134 -0.9015 -0.2656 -2.5207
   81MPD2    H1 1265   0.368   4.620  12.191  0.0162  0.0757 -0.0209
   81MPD2    H2 1266   0.169   4.332  11.944 -0.6648  1.1434 -2.1779
   81MPD2    H3 1267   0.383   4.442  12.042 -0.1477 -1.7266 -0.7711
   81MPD2     N 1268   0.145   0.008  12.255  0.2026  0.2603 -0.0783
   81MPD2    H5 1269   0.225   0.040  12.308 -0.3050  1.3200  0.0530
   81MPD2    N1 1270   4.663   4.427  11.981  0.8575 -0.0234 -0.1797
   81MPD2    H7 1271   4.577   4.470  12.015 -0.1671 -0.4613 -2.2324
   82TMC2    C1 1272   2.831   4.081  11.291  0.3345 -1.1944 -0.6810
   82TMC2    C2 1273   2.887   4.144  11.398 -0.1072  0.3048  0.3217
   82TMC2    C3 1274   2.898   4.073  11.517  0.2820 -0.4264  0.5267
   82TMC2    C4 1275   2.789   3.947  11.298 -0.0412  0.3361 -0.0267
   82TMC2    C5 1276   2.816   3.887  11.415 -0.2447 -0.2553 -0.2022
   82TMC2    C6 1277   2.860   3.946  11.527  0.3310 -0.0897 -0.0340
   82TMC2     C 1278   2.798   4.162  11.174  0.0385 -0.2524 -0.2741
   82TMC2     O 1279   2.725   4.108  11.090 -0.7099  0.0905 -0.3832
   82TMC2     H 1280   2.920   4.247  11.393 -0.4677  0.4083  0.0466
   82TMC2    H1 1281   2.757   3.893  11.209 -1.6780  2.7002 -0.8957
   82TMC2    H2 1282   2.858   3.895  11.622 -1.7143 -0.1433 -0.1128
   82TMC2    C7 1283   2.775   3.755  11.433  0.1305 -0.6040 -0.1999
   82TMC2    C8 1284   2.940   4.147  11.631 -1.0589 -0.8016 -0.6723
   82TMC2    O1 1285   2.764   3.721  11.550  0.0941  0.0261 -0.0259
   82TMC2    O2 1286   2.917   4.269  11.641 -0.4658  0.2130  0.2336
   82TMC2    O5 1287   2.975   4.067  11.726 -0.2159  0.6327  0.0720
   82TMC2    H5 1288   3.014   3.982  11.695  2.6519  2.1370 -0.4883
   83MPD2     C 1289   2.836   4.573  10.872 -0.7896  0.2367  0.4297
   83MPD2    C1 1290   2.728   4.497  10.905 -0.0981  0.1117 -0.8364
   83MPD2    C2 1291   2.744   4.394  11.003  0.8252  0.0148 -0.4159
   83MPD2    C3 1292   2.869   4.372  11.058 -0.4871  0.1976  0.2417
   83MPD2    C4 1293   2.980   4.457  11.026  0.7375  0.6201 -0.5294
   83MPD2    C5 1294   2.962   4.547  10.925 -0.0494  0.3609  0.2872
   83MPD2     H 1295   2.661   4.331  11.031  1.4042 -0.5613  0.0009
   83MPD2    H1 1296   3.078   4.445  11.070  0.7924 -1.1312 -1.1008
   83MPD2    H2 1297   2.825   4.654  10.801 -1.7427  1.0452  1.4895
   83MPD2    H3 1298   3.043   4.611  10.891  1.7935 -3.2643 -2.0247
   83MPD2     N 1299   2.878   4.275  11.160  0.0997  0.2510 -0.1693
   83MPD2    H5 1300   2.963   4.273  11.216 -1.2021  1.1618  1.8342
   83MPD2    N1 1301   2.612   4.524  10.828  0.3039  0.8828 -0.2109
   83MPD2    H7 1302   2.636   4.595  10.759 -1.8921  1.0183 -0.8362
   84TMC2    C1 1303   4.146   2.901  11.101 -0.1137 -0.3414 -0.3598
   84TMC2    C2 1304   4.046   2.820  11.057  0.3042  0.3257 -0.0712
   84TMC2    C3 1305   4.069   2.697  11.004  0.4640  0.3321 -0.8388
   84TMC2    C4 1306   4.280   2.859  11.094 -0.1548  0.4537 -0.1794
   84TMC2    C5 1307   4.296   2.730  11.044  0.0317  0.0761  0.5785
   84TMC2    C6 1308   4.195   2.645  10.998  0.4204  0.2896 -0.6984
   84TMC2     C 1309   4.103   3.019  11.180  0.4417 -0.4532 -0.4454
   84TMC2     O 1310   3.989   3.055  11.165  0.8931 -0.3827 -0.6281
   84TMC2     H 1311   3.944   2.856  11.059 -0.5269 -1.8653 -2.1550
   84TMC2    H1 1312   4.361   2.928  11.114  0.4677  0.0458 -1.3115
   84TMC2    H2 1313   4.215   2.548  10.955 -1.1197 -0.6493  0.6999
   84TMC2    C7 1314   4.435   2.683  11.016 -0.0305 -0.0722 -0.2651
   84TMC2    C8 1315   3.966   2.641  10.929 -0.4037 -0.3853 -0.3959
   84TMC2    O1 1316   4.444   2.571  10.967 -0.7954  0.2647  0.3278
   84TMC2    O2 1317   3.879   2.707  10.874  0.0067  0.3546 -0.1503
   84TMC2    O5 1318   3.967   2.510  10.956 -0.6915 -0.0226 -0.1246
   84TMC2    H5 1319   4.037   2.485  11.019  1.7226  2.9891 -1.6187
   85TMC2    C1 1320   0.197   1.710  16.448  0.0478  0.4604 -0.5828
   85TMC2    C2 1321   0.075   1.735  16.504 -0.5406  0.5629  0.5133
   85TMC2    C3 1322   0.020   1.854  16.481  0.9342  0.3501 -1.0580
   85TMC2    C4 1323   0.267   1.807  16.370 -0.2560  0.1446  0.0309
   85TMC2    C5 1324   0.212   1.933  16.361  0.1738 -0.3135 -0.0903
   85TMC2    C6 1325   0.087   1.955  16.413  0.0064  0.0036 -0.0883
   85TMC2     C 1326   0.244   1.568  16.445  0.0648  0.4139 -0.9389
   85TMC2     O 1327   0.363   1.559  16.420  0.1554 -0.0191  0.5487
   85TMC2     H 1328   0.025   1.662  16.567 -0.8480  0.6327  0.3543
   85TMC2    H1 1329   0.351   1.778  16.309 -1.1170 -2.3088 -0.0242
   85TMC2    H2 1330   0.044   2.054  16.398 -0.5533 -0.1947  0.2153
   85TMC2    C7 1331   0.258   2.008  16.248  0.9004  0.2493  0.2063
   85TMC2    C8 1332   4.637   1.894  16.554 -0.3691  0.4355  0.0644
   85TMC2    O1 1333   0.179   2.079  16.185  0.0102  0.1067  0.0830
   85TMC2    O2 1334   4.593   1.857  16.663  0.5657  0.1061  0.0749
   85TMC2    O5 1335   4.562   1.961  16.469  0.7347 -0.5521  0.0925
   85TMC2    H5 1336   4.607   1.969  16.382  1.6344 -0.0275  0.6050
   86MPD2     C 1337   0.175   1.069  16.335 -0.5303 -0.9229  0.7661
   86MPD2    C1 1338   0.052   1.125  16.355 -0.0506  1.0249  0.0539
   86MPD2    C2 1339   0.050   1.262  16.381  0.4453  0.0459 -0.2313
   86MPD2    C3 1340   0.162   1.340  16.405 -0.2712  0.7846  0.5780
   86MPD2    C4 1341   0.285   1.278  16.386  0.3653 -0.1533  0.2119
   86MPD2    C5 1342   0.291   1.144  16.351  0.1734 -0.5807 -0.0683
   86MPD2     H 1343   4.696   1.318  16.394  0.6814  0.0351  1.4685
   86MPD2    H1 1344   0.379   1.333  16.387  0.4887 -0.3572 -0.9374
   86MPD2    H2 1345   0.179   0.962  16.319 -1.3487 -0.8598  0.1225
   86MPD2    H3 1346   0.379   1.082  16.366  1.7376  2.5534  3.5389
   86MPD2     N 1347   0.141   1.471  16.444  0.2996 -0.0111 -0.2426
   86MPD2    H5 1348   0.044   1.497  16.455 -0.5518 -3.1031 -0.4581
   86MPD2    N1 1349   4.684   1.038  16.357  0.6376 -0.4252 -0.5737
   86MPD2    H7 1350   4.696   0.945  16.317  0.2420  0.1873 -2.1230
   87TMC2    C1 1351   1.846   4.415   0.951 -0.1857  0.1695  0.5454
   87TMC2    C2 1352   1.711   4.401   0.974  0.3688  0.2932 -0.3598
   87TMC2    C3 1353   1.651   4.481   1.076  0.1089 -0.2128 -0.0698
   87TMC2    C4 1354   1.931   4.491   1.026 -0.2405 -0.0263 -0.1407
   87TMC2    C5 1355   1.879   4.555   1.134  0.7532 -0.5005  0.1956
   87TMC2    C6 1356   1.745   4.562   1.154  0.3480 -0.4002 -0.2104
   87TMC2     C 1357   1.906   4.370   0.826 -0.4406 -0.5245 -0.3108
   87TMC2     O 1358   1.998   4.438   0.780  0.1099 -0.2732 -0.5415
   87TMC2     H 1359   1.654   4.359   0.892 -0.5313  3.1172 -1.1665
   87TMC2    H1 1360   2.033   4.504   0.993  0.3801 -2.0629  1.0241
   87TMC2    H2 1361   1.712   4.632   1.230  1.5950  1.2176 -1.1793
   87TMC2    C7 1362   1.962   4.661   1.192 -0.2218 -0.2742 -0.1545
   87TMC2    C8 1363   1.505   4.467   1.099 -0.4095  0.1057  0.3114
   87TMC2    O1 1364   1.908   0.018   1.249 -0.1131  0.3767  0.0343
   87TMC2    O2 1365   1.443   4.368   1.049 -0.0968  0.2936 -0.2250
   87TMC2    O5 1366   1.452   4.565   1.172  0.6119  0.0879 -0.2173
   87TMC2    H5 1367   1.518   4.617   1.223  1.6706 -1.5650  0.1136
   88MPD2     C 1368   2.328   4.667   1.207  0.8846  0.6316  0.1632
   88MPD2    C1 1369   2.198   4.720   1.218  0.3635 -0.7282 -0.0458
   88MPD2    C2 1370   2.189   0.105   1.284  0.6628  0.6002  0.6922
   88MPD2    C3 1371   2.302   0.166   1.335 -0.5122 -0.4946  0.3956
   88MPD2    C4 1372   2.424   0.105   1.317 -0.3077 -0.3355 -0.0551
   88MPD2    C5 1373   2.443   4.724   1.251 -0.0385  0.5620 -0.8678
   88MPD2     H 1374   2.088   0.140   1.300  0.0056 -0.7446 -0.4733
   88MPD2    H1 1375   2.517   0.153   1.347  0.0572 -0.3023 -1.2233
   88MPD2    H2 1376   2.340   4.575   1.151  1.5567  1.4059 -0.9811
   88MPD2    H3 1377   2.538   4.671   1.247 -0.7555 -0.6609 -1.7837
   88MPD2     N 1378   2.300   0.280   1.405 -0.3527  0.0100 -0.4557
   88MPD2    H5 1379   2.380   0.307   1.461 -0.1690  1.6160 -1.4589
   88MPD2    N1 1380   2.099   4.637   1.179 -0.3461  0.2443  0.1257
   88MPD2    H7 1381   2.133   4.549   1.141  0.3527  0.7470 -0.4267
   89TMC2    C1 1382   2.657   3.083   1.895 -0.8616 -0.7540  0.2067
   89TMC2    C2 1383   2.526   3.044   1.911  0.4864  0.3077  0.9531
   89TMC2    C3 1384   2.432   3.143   1.877  0.4209 -0.5316  0.7440
   89TMC2    C4 1385   2.702   3.198   1.837 -0.3393 -0.0177 -0.1432
   89TMC2    C5 1386   2.608   3.289   1.808 -0.1019 -0.3855  0.1846
   89TMC2    C6 1387   2.475   3.264   1.823 -0.1810 -0.2896  0.3033
   89TMC2     C 1388   2.756   2.986   1.932 -0.8161 -0.0785  0.0609
   89TMC2     O 1389   2.870   3.034   1.948 -0.0387  0.2224  0.4864
   89TMC2     H 1390   2.495   2.952   1.957 -2.2335  0.0639 -1.3721
   89TMC2    H1 1391   2.806   3.227   1.845 -0.2653 -0.4835  0.6370
   89TMC2    H2 1392   2.406   3.343   1.796 -0.7959 -0.3532  1.6856
   89TMC2    C7 1393   2.652   3.422   1.781 -0.5469 -0.1516 -0.7527
   89TMC2    C8 1394   2.289   3.120   1.857 -0.0301  0.5962 -0.6118
   89TMC2    O1 1395   2.605   3.513   1.851  0.2034 -0.5148  0.3600
   89TMC2    O2 1396   2.209   3.212   1.845  0.4478 -0.4664  0.8444
   89TMC2    O5 1397   2.294   3.013   1.777  0.3979 -0.0038 -0.0061
   89TMC2    H5 1398   2.380   2.969   1.792  0.6297  0.8411  1.2363
   90MPD2     C 1399   2.953   2.528   2.004 -0.1687 -0.3065  0.5060
   90MPD2    C1 1400   2.819   2.509   1.984 -0.0665 -0.1265 -0.3728
   90MPD2    C2 1401   2.743   2.619   1.966 -0.0510  0.0840 -0.3111
   90MPD2    C3 1402   2.800   2.746   1.959 -0.0788 -0.5455  0.1849
   90MPD2    C4 1403   2.929   2.764   1.995  0.3228  0.5301 -0.0877
   90MPD2    C5 1404   3.008   2.656   2.004 -0.9822  0.0623  0.2758
   90MPD2     H 1405   2.635   2.615   1.951 -0.0476  1.4302 -0.7423
   90MPD2    H1 1406   2.978   2.860   1.999 -0.9302  1.1302  0.8027
   90MPD2    H2 1407   3.027   2.450   2.001  0.2587  0.0832  0.9168
   90MPD2    H3 1408   3.114   2.662   2.024 -0.8895 -1.5428  0.2556
   90MPD2     N 1409   2.717   2.853   1.925  0.2857  0.2300 -0.0007
   90MPD2    H5 1410   2.623   2.831   1.892 -0.3141  4.0929 -0.8760
   90MPD2    N1 1411   2.758   2.383   1.988  0.0894 -0.1463 -0.7919
   90MPD2    H7 1412   2.662   2.372   1.957 -0.6206  2.9227  0.2488
   91TMC2    C1 1413   0.099   1.803  16.987  0.3614 -0.6955 -0.2732
   91TMC2    C2 1414   0.138   1.692  17.062 -0.5998  0.1904  0.5311
   91TMC2    C3 1415   0.042   1.608  17.109 -0.2172  0.5089 -1.4211
   91TMC2    C4 1416   4.703   1.827  16.955 -0.8187  0.5173  0.0423
   91TMC2    C5 1417   4.612   1.739  17.008  0.1238  0.1381  0.4436
   91TMC2    C6 1418   4.647   1.620  17.073 -0.2153 -0.2749  0.1065
   91TMC2     C 1419   0.201   1.904  16.974  0.1015  0.7063 -0.3542
   91TMC2     O 1420   0.313   1.869  16.939  0.9812  0.2117  0.1002
   91TMC2     H 1421   0.242   1.679  17.090 -0.7603 -0.0398  1.0326
   91TMC2    H1 1422   4.675   1.924  16.915  1.0236  0.1107 -2.2167
   91TMC2    H2 1423   4.573   1.550  17.110 -0.7408 -0.4440 -1.2598
   91TMC2    C7 1424   4.473   1.761  17.006 -0.1465  0.5559  0.4876
   91TMC2    C8 1425   0.088   1.494  17.178 -0.4825 -0.0904  0.4628
   91TMC2    O1 1426   4.407   1.684  17.066 -0.1945  0.0087  0.7337
   91TMC2    O2 1427   0.207   1.484  17.209  0.0725  0.1578  0.4052
   91TMC2    O5 1428   4.736   1.398  17.194 -0.5829 -0.1274  0.6498
   91TMC2    H5 1429   4.662   1.411  17.131  0.1687 -0.5519 -0.3315
   92MPD2     C 1430   0.156   2.250  17.095 -0.1153 -0.0871  0.0450
   92MPD2    C1 1431   0.208   2.152  17.015  0.1672 -0.2122 -0.0829
   92MPD2    C2 1432   0.314   2.182  16.934 -0.6779  0.3225  0.1929
   92MPD2    C3 1433   0.368   2.301  16.923 -0.5957  1.2059  0.1194
   92MPD2    C4 1434   0.310   2.402  16.998  0.0355  0.1872  0.0404
   92MPD2    C5 1435   0.209   2.369  17.085  0.4964  0.9545  0.0228
   92MPD2     H 1436   0.348   2.104  16.866 -1.1481  1.5082 -1.4166
   92MPD2    H1 1437   0.347   2.504  16.995 -0.6480  0.3762 -1.8195
   92MPD2    H2 1438   0.069   2.233  17.157 -0.5876 -1.5030 -0.9897
   92MPD2    H3 1439   0.164   2.444  17.150 -0.7565 -0.5923  0.9352
   92MPD2     N 1440   0.463   2.324  16.821 -0.1476  0.0632  0.1849
   92MPD2    H5 1441   0.492   2.244  16.766  0.0612 -1.9820  3.2512
   92MPD2    N1 1442   0.148   2.025  17.015  0.3604 -0.2017  0.2001
   92MPD2    H7 1443   0.063   2.012  17.068 -0.2216  0.0270 -0.6839
   93TMC2    C1 1444   2.103   2.572  14.318 -0.2130  0.6771 -0.2199
   93TMC2    C2 1445   2.074   2.549  14.450  0.1585 -0.4345 -0.1977
   93TMC2    C3 1446   2.164   2.602  14.541 -0.2089 -0.7261  0.3737
   93TMC2    C4 1447   2.210   2.656  14.276 -0.0457  0.3318 -0.2820
   93TMC2    C5 1448   2.294   2.701  14.373  0.7834 -0.0428  0.2057
   93TMC2    C6 1449   2.276   2.666  14.499  0.3617  0.0021 -0.0315
   93TMC2     C 1450   2.039   2.490  14.217 -0.4167  0.6129  0.4340
   93TMC2     O 1451   2.113   2.480  14.116  0.6349 -0.9378  0.8667
   93TMC2     H 1452   2.004   2.474  14.487 -0.2082  0.0082  0.0125
   93TMC2    H1 1453   2.218   2.670  14.169  1.7746  0.4796 -0.1245
   93TMC2    H2 1454   2.332   2.713  14.579 -0.3204 -1.2031  1.1610
   93TMC2    C7 1455   2.406   2.787  14.343  0.8886  0.4798 -0.1016
   93TMC2    C8 1456   2.188   2.529  14.659 -0.3375 -0.4561  0.7338
   93TMC2    O1 1457   2.505   2.778  14.416  0.1406  0.4497  0.0791
   93TMC2    O2 1458   2.302   2.507  14.701 -0.2143 -0.0453  0.1465
   93TMC2    O5 1459   2.072   2.519  14.721  0.4188  0.1554 -0.3077
   93TMC2    H5 1460   1.992   2.535  14.667 -0.3175 -0.4408  0.6188
   94MPD2     C 1461   1.884   2.305  14.065  0.1491  0.1897  0.2950
   94MPD2    C1 1462   1.825   2.374  14.167 -0.0060 -0.6936  0.1626
   94MPD2    C2 1463   1.682   2.371  14.192 -0.6501  0.0110  0.2229
   94MPD2    C3 1464   1.607   2.279  14.117  0.3189  0.0903 -0.1266
   94MPD2    C4 1465   1.671   2.212  14.013 -0.1847 -0.0036 -0.1084
   94MPD2    C5 1466   1.804   2.212  13.998 -0.8220 -0.0945  0.1615
   94MPD2     H 1467   1.632   2.430  14.268 -2.1502  0.4397 -1.0886
   94MPD2    H1 1468   1.618   2.140  13.952 -2.2587  0.0622  1.6190
   94MPD2    H2 1469   1.987   2.304  14.032 -0.4506 -0.9529 -1.6047
   94MPD2    H3 1470   1.855   2.150  13.926  1.2123  1.8543 -0.0845
   94MPD2     N 1471   1.464   2.258  14.131  0.2370  0.3443 -0.1386
   94MPD2    H5 1472   1.430   2.180  14.077  1.8856 -1.1671  1.0053
   94MPD2    N1 1473   1.905   2.459  14.251  0.5279 -0.0690 -0.5033
   94MPD2    H7 1474   1.858   2.496  14.333  1.3808  0.6963 -0.3549
   95TMC2    C1 1475   1.641   4.441  15.966 -0.0645  1.1231 -0.3346
   95TMC2    C2 1476   1.601   4.406  16.095  0.6981  0.2588  0.3396
   95TMC2    C3 1477   1.527   4.493  16.165  0.0572  0.7088 -0.2011
   95TMC2    C4 1478   1.598   4.560  15.918  0.4183 -0.5609 -0.7404
   95TMC2    C5 1479   1.514   4.640  15.990  0.6080  0.2355 -0.1511
   95TMC2    C6 1480   1.480   4.612  16.119 -0.4356 -0.0087 -0.3087
   95TMC2     C 1481   1.759   4.376  15.902 -0.2667  0.0979 -0.5387
   95TMC2     O 1482   1.836   4.441  15.833 -0.0064  0.0878  0.1750
   95TMC2     H 1483   1.645   4.314  16.134 -0.8725  0.1562  1.8287
   95TMC2    H1 1484   1.635   4.585  15.819  1.5999 -0.5487 -0.2979
   95TMC2    H2 1485   1.411   4.676  16.173  1.6046  0.2905  1.9580
   95TMC2    C7 1486   1.475   0.030  15.931 -0.2938  0.2194 -0.2870
   95TMC2    C8 1487   1.487   4.456  16.298 -0.5430  0.2807  0.1817
   95TMC2    O1 1488   1.452   0.038  15.812  0.3244 -0.0747 -0.1290
   95TMC2    O2 1489   1.446   4.535  16.384 -0.0394 -0.2597  0.3246
   95TMC2    O5 1490   1.477   4.318  16.300 -0.2371 -0.4630  0.0651
   95TMC2    H5 1491   1.486   4.258  16.223 -0.9191 -1.5743  0.8423
   96MPD2     C 1492   2.069   3.978  15.812 -0.3490  0.4095 -0.6108
   96MPD2    C1 1493   2.095   4.112  15.782  0.0469 -0.7195 -0.2002
   96MPD2    C2 1494   2.000   4.202  15.829  0.4039  0.1171  0.0614
   96MPD2    C3 1495   1.880   4.155  15.884  0.0540 -0.0038 -0.5990
   96MPD2    C4 1496   1.856   4.029  15.906  0.2821  0.3216 -0.4348
   96MPD2    C5 1497   1.950   3.939  15.874  0.0920 -0.0894 -0.2167
   96MPD2     H 1498   2.014   4.310  15.825  0.6631  0.0637 -0.3911
   96MPD2    H1 1499   1.769   4.006  15.967  1.1431 -1.1492  0.2636
   96MPD2    H2 1500   2.131   3.902  15.765 -0.1551 -0.4630  1.0684
   96MPD2    H3 1501   1.934   3.832  15.865  0.8697 -0.3611  1.5272
   96MPD2     N 1502   1.776   4.244  15.933  0.1463 -0.8053  0.3624
   96MPD2    H5 1503   1.696   4.200  15.976 -0.6449 -1.0368 -1.3493
   96MPD2    N1 1504   2.220   4.154  15.726 -0.2094 -0.2313  0.4311
   96MPD2    H7 1505   2.277   4.081  15.685 -0.7269 -1.3053  1.6269
   97TMC2    C1 1506   4.174   2.116   0.377  0.7753 -0.2342 -0.3258
   97TMC2    C2 1507   4.056   2.042   0.373  0.1101  0.6395 -0.3332
   97TMC2    C3 1508   3.956   2.093   0.291 -0.8105  0.2474 -0.8845
   97TMC2    C4 1509   4.190   2.223   0.292 -0.3833 -0.5985 -0.0589
   97TMC2    C5 1510   4.092   2.268   0.210 -0.5851 -0.7537  0.6552
   97TMC2    C6 1511   3.972   2.208   0.211  0.1125  0.5270  0.0522
   97TMC2     C 1512   4.287   2.073   0.454 -0.4626  0.4659 -0.4144
   97TMC2     O 1513   4.398   2.097   0.403  0.1784  0.2331  0.0918
   97TMC2     H 1514   4.036   1.947   0.423  1.1780  0.6345  0.0814
   97TMC2    H1 1515   4.287   2.270   0.309 -0.1359 -0.7585 -1.0009
   97TMC2    H2 1516   3.888   2.254   0.161  0.0176 -0.0948 -0.3566
   97TMC2    C7 1517   4.074   2.409   0.177  0.0059 -0.1079  0.0663
   97TMC2    C8 1518   3.833   2.025   0.300 -0.0861 -0.2977 -0.7078
   97TMC2    O1 1519   3.999   2.441   0.087 -0.2554 -0.0798 -0.4145
   97TMC2    O2 1520   3.751   2.031   0.214  0.4958 -0.0363 -0.5983
   97TMC2    O5 1521   3.794   2.058   0.429 -0.7697  0.4779 -0.4402
   97TMC2    H5 1522   3.868   2.074   0.491 -0.7148 -1.0260 -0.1219
   98MPD2     C 1523   4.476   1.847   0.890  0.0530 -0.1246  0.3238
   98MPD2    C1 1524   4.341   1.868   0.906 -0.1446 -0.6460  1.1015
   98MPD2    C2 1525   4.271   1.921   0.792  0.6337 -0.5900 -0.4410
   98MPD2    C3 1526   4.328   1.955   0.672  0.7338  0.7745 -0.6850
   98MPD2    C4 1527   4.460   1.931   0.664  0.1818  0.7257  0.2105
   98MPD2    C5 1528   4.539   1.880   0.774 -0.4287  0.1074  0.3907
   98MPD2     H 1529   4.164   1.936   0.794  0.6570 -0.9054  4.9354
   98MPD2    H1 1530   4.504   1.943   0.565  1.7921  0.9772  0.9639
   98MPD2    H2 1531   4.538   1.815   0.973  3.2887  2.8172 -0.9731
   98MPD2    H3 1532   4.645   1.867   0.753 -0.0926  0.0640  2.0724
   98MPD2     N 1533   4.247   2.008   0.567  0.2330 -0.6681 -0.4506
   98MPD2    H5 1534   4.149   2.018   0.591  0.3574  0.1704 -0.2759
   98MPD2    N1 1535   4.280   1.841   1.029  0.1523  0.1514 -0.2622
   98MPD2    H7 1536   4.337   1.787   1.094 -1.9837 -1.6586  0.1208
   99TMC2    C1 1537   2.969   4.455   1.570 -0.3232 -1.0930  0.0590
   99TMC2    C2 1538   3.066   4.526   1.633  0.0601  0.5821 -0.3530
   99TMC2    C3 1539   3.040   4.570   1.763  0.1718 -0.8738 -0.3246
   99TMC2    C4 1540   2.854   4.431   1.633 -0.6774  0.2579 -0.0800
   99TMC2    C5 1541   2.828   4.479   1.760 -0.2150 -0.2646  0.5841
   99TMC2    C6 1542   2.914   4.561   1.828  0.2301  0.4971 -0.3747
   99TMC2     C 1543   3.011   4.380   1.456 -0.9726  0.0226  0.4757
   99TMC2     O 1544   3.096   4.442   1.385  0.5465  0.0217 -0.3327
   99TMC2     H 1545   3.161   4.544   1.585 -0.2813  0.1507 -1.2019
   99TMC2    H1 1546   2.777   4.387   1.571 -1.3111  1.7018 -0.3339
   99TMC2    H2 1547   2.891   4.608   1.923 -1.0778 -2.7168  0.8886
   99TMC2    C7 1548   2.699   4.465   1.829 -0.1880  0.1946 -0.3563
   99TMC2    C8 1549   3.143   4.666   1.809 -0.0061  0.5039  0.1896
   99TMC2    O1 1550   2.693   4.507   1.943  0.0851 -0.7838  0.5391
   99TMC2    O2 1551   3.185   0.010   1.729 -0.5733 -0.7130  0.0286
   99TMC2    O5 1552   3.119   4.677   1.942  0.3670  0.1843  0.5163
   99TMC2    H5 1553   3.080   4.594   1.978  1.4450 -0.4070  0.3201
  100MPD2     C 1554   3.061   4.207   1.228 -0.0257  0.1319 -0.4387
  100MPD2    C1 1555   2.967   4.172   1.331  0.4158  0.3126 -0.1565
  100MPD2    C2 1556   2.881   4.070   1.308  0.6920 -0.7914 -0.1769
  100MPD2    C3 1557   2.900   3.987   1.199  0.1507 -0.2730 -0.2977
  100MPD2    C4 1558   3.010   4.003   1.113  0.2524  0.4385 -0.3110
  100MPD2    C5 1559   3.086   4.118   1.124  0.5561  0.3771  0.1599
  100MPD2     H 1560   2.802   4.044   1.377  1.5933 -0.9837  0.7858
  100MPD2    H1 1561   3.033   3.947   1.023  1.7195 -2.9905  2.2118
  100MPD2    H2 1562   3.123   4.296   1.227 -1.5972  1.2333 -2.1083
  100MPD2    H3 1563   3.166   4.140   1.055 -0.9368  0.7369 -1.4520
  100MPD2     N 1564   2.809   3.879   1.183  0.4288  0.7051  0.0237
  100MPD2    H5 1565   2.739   3.868   1.256 -0.3751 -0.9580 -0.9738
  100MPD2    N1 1566   2.956   4.255   1.447 -0.1379 -0.7734 -0.7565
  100MPD2    H7 1567   2.886   4.220   1.512 -1.0489  1.9974 -0.2620
  101TMC2    C1 1568   4.335   0.387  13.426 -0.4036 -0.2949  0.3215
  101TMC2    C2 1569   4.382   0.425  13.548  0.2857  0.2536 -1.2345
  101TMC2    C3 1570   4.478   0.521  13.554  0.6034 -0.4804  0.2222
  101TMC2    C4 1571   4.397   0.427  13.311  1.0632  0.6558  0.5056
  101TMC2    C5 1572   4.495   0.516  13.322 -0.1196  0.0347 -0.5100
  101TMC2    C6 1573   4.543   0.566  13.440 -0.3847 -0.3333  0.2796
  101TMC2     C 1574   4.208   0.326  13.418  0.5796  0.4670 -0.9892
  101TMC2     O 1575   4.184   0.240  13.499  0.8000  0.2909  0.4996
  101TMC2     H 1576   4.349   0.371  13.635 -0.5836  0.7162 -1.2803
  101TMC2    H1 1577   4.354   0.392  13.218  2.0975  1.0826 -0.1288
  101TMC2    H2 1578   4.624   0.635  13.454 -0.1534 -0.3726 -0.8353
  101TMC2    C7 1579   4.571   0.550  13.203 -0.3834  0.1763  0.1519
  101TMC2    C8 1580   4.530   0.542  13.680 -0.2187 -0.3514 -0.2987
  101TMC2    O1 1581   4.505   0.559  13.101  0.3997  0.1791 -0.3043
  101TMC2    O2 1582   4.467   0.576  13.783 -0.5001  0.0538  0.0603
  101TMC2    O5 1583   4.650   0.489  13.677 -0.1878 -0.5034 -0.4871
  101TMC2    H5 1584   4.668   0.442  13.593 -1.9655 -0.6102 -0.8152
  102MPD2     C 1585   3.948   0.369  13.152 -0.4181  0.2600  0.2144
  102MPD2    C1 1586   4.005   0.322  13.270  0.2960  0.2800  0.2910
  102MPD2    C2 1587   3.959   0.204  13.331  0.9759 -0.2955 -0.5722
  102MPD2    C3 1588   3.851   0.140  13.267  0.1928  0.0089 -0.1107
  102MPD2    C4 1589   3.786   0.189  13.163 -0.5672 -0.2307 -0.1515
  102MPD2    C5 1590   3.837   0.302  13.105 -0.2568 -0.9446 -0.2691
  102MPD2     H 1591   4.011   0.155  13.412 -0.4465  1.8402  1.6267
  102MPD2    H1 1592   3.703   0.140  13.113  0.7277 -1.9430 -0.6351
  102MPD2    H2 1593   3.983   0.459  13.104 -2.4450 -0.1941 -2.0880
  102MPD2    H3 1594   3.784   0.350  13.024  1.7514  0.8402 -0.5343
  102MPD2     N 1595   3.806   0.026  13.332  0.3082 -0.0628 -0.2039
  102MPD2    H5 1596   3.847   0.008  13.423 -3.0061  0.4457  1.4005
  102MPD2    N1 1597   4.128   0.373  13.312 -0.0801 -0.1446 -0.2701
  102MPD2    H7 1598   4.166   0.448  13.255 -1.4606 -0.6055 -1.7948
  103TMC2    C1 1599   1.516   4.657  13.181 -0.3067 -0.1001  0.3181
  103TMC2    C2 1600   1.645   4.674  13.137  0.1458  0.1612  0.1895
  103TMC2    C3 1601   1.724   0.030  13.209 -0.5823  0.5237 -0.5977
  103TMC2    C4 1602   1.467   4.718  13.294  0.2651  0.6129  0.5201
  103TMC2    C5 1603   1.542   0.078  13.353  0.9688 -0.1619  0.7776
  103TMC2    C6 1604   1.679   0.090  13.321  0.1785 -0.6504  0.2197
  103TMC2     C 1605   1.416   4.587  13.102 -0.2632  0.3937 -0.2160
  103TMC2     O 1606   1.300   4.580  13.144 -0.2253 -0.1954 -0.1170
  103TMC2     H 1607   1.690   4.635  13.047 -1.2669  0.5211 -0.6803
  103TMC2    H1 1608   1.363   4.706  13.321 -0.6078  1.2743 -2.4740
  103TMC2    H2 1609   1.735   0.167  13.374  1.6400 -1.7062  0.2094
  103TMC2    C7 1610   1.497   0.162  13.464  0.3916 -0.3694 -0.4588
  103TMC2    C8 1611   1.870   0.016  13.188  0.5163  0.4849 -0.9508
  103TMC2    O1 1612   1.559   0.268  13.482 -0.2906  0.0296 -0.1302
  103TMC2    O2 1613   1.916   4.657  13.122 -0.1719  0.2963  0.0476
  103TMC2    O5 1614   1.946   0.111  13.249 -0.1111  0.4883  0.3713
  103TMC2    H5 1615   1.894   0.193  13.265  1.3450  1.8360 -1.8195
  104MPD2     C 1616   1.457   4.476  12.750 -0.3048  0.6074 -0.5052
  104MPD2    C1 1617   1.391   4.523  12.861 -0.0519 -0.1806  0.1107
  104MPD2    C2 1618   1.253   4.555  12.840 -0.3269  0.5111  0.1592
  104MPD2    C3 1619   1.189   4.535  12.718  0.4558 -0.1601 -0.5666
  104MPD2    C4 1620   1.261   4.489  12.610  0.6300  0.3106 -0.9297
  104MPD2    C5 1621   1.393   4.460  12.626 -0.2831 -0.1394  0.0218
  104MPD2     H 1622   1.209   4.612  12.921  2.0215  0.2817  1.5772
  104MPD2    H1 1623   1.208   4.483  12.516  0.6320 -2.3586 -0.7548
  104MPD2    H2 1624   1.563   4.454  12.755 -0.4442  0.0339 -0.0366
  104MPD2    H3 1625   1.454   4.427  12.543  2.2494  1.4872  1.2615
  104MPD2     N 1626   1.055   4.583  12.704 -0.6901  0.2516 -0.2331
  104MPD2    H5 1627   1.019   4.587  12.609 -0.1502  0.5247 -0.4277
  104MPD2    N1 1628   1.465   4.552  12.975  0.1909 -0.1834  0.2888
  104MPD2    H7 1629   1.565   4.541  12.968 -0.0070 -0.7480 -1.7776
  105TMC2    C1 1630   2.402   4.200   0.027  0.4526 -0.1309 -0.7866
  105TMC2    C2 1631   2.433   4.327   0.061  0.0752  0.5231  0.2276
  105TMC2    C3 1632   2.351   4.390   0.160  0.5920 -0.2437  0.2725
  105TMC2    C4 1633   2.284   4.143   0.074  0.5625 -0.5151  0.9689
  105TMC2    C5 1634   2.208   4.215   0.164 -0.0917  0.6528  0.1331
  105TMC2    C6 1635   2.234   4.339   0.213 -0.7250 -0.4728  0.8376
  105TMC2     C 1636   2.489   4.105  17.707 -0.4985 -0.5939  0.2499
  105TMC2     O 1637   2.461   3.989  17.719 -0.1999 -0.2253  0.2494
  105TMC2     H 1638   2.527   4.368   0.028  1.0199 -0.2166  2.0118
  105TMC2    H1 1639   2.245   4.054   0.026  0.4152  0.2119 -0.2697
  105TMC2    H2 1640   2.164   4.391   0.277 -0.1562 -0.1203  1.1844
  105TMC2    C7 1641   2.090   4.148   0.225  0.4480 -0.1065  0.2395
  105TMC2    C8 1642   2.382   4.531   0.183 -0.0315  0.3176  0.7493
  105TMC2    O1 1643   2.060   4.038   0.179 -0.0008 -0.6004  0.6437
  105TMC2    O2 1644   2.487   4.581   0.141 -0.3323 -0.1311 -0.2237
  105TMC2    O5 1645   2.346   4.564   0.312  0.6801 -0.2304 -0.7397
  105TMC2    H5 1646   2.317   4.489   0.369 -2.5783  0.4714 -1.4880
  106MPD2     C 1647   2.901   3.950  17.458  0.2318 -0.2206  0.5122
  106MPD2    C1 1648   2.915   4.078  17.507 -0.7708 -0.3634 -0.1542
  106MPD2    C2 1649   2.820   4.142  17.577  0.1900  0.2308  0.1375
  106MPD2    C3 1650   2.699   4.083  17.599  0.6224 -0.1144 -0.1495
  106MPD2    C4 1651   2.674   3.964  17.539  1.1594 -0.4245  0.3943
  106MPD2    C5 1652   2.780   3.896  17.481  0.4324 -0.3341  0.5742
  106MPD2     H 1653   2.836   4.246  17.600  1.8794 -0.1972  0.9849
  106MPD2    H1 1654   2.577   3.917  17.539  0.8962  0.1070  1.2761
  106MPD2    H2 1655   2.970   3.911  17.384 -0.0210 -0.6642  0.5106
  106MPD2    H3 1656   2.755   3.807  17.424  0.0679 -0.9341  1.6841
  106MPD2     N 1657   2.608   4.158  17.669 -0.3626  0.0199 -0.2284
  106MPD2    H5 1658   2.631   4.255  17.688 -1.7816  0.1182  0.9565
  106MPD2    N1 1659   3.025   4.158  17.471 -0.6387  0.1441 -0.3395
  106MPD2    H7 1660   3.021   4.256  17.499  1.9430  0.3201 -0.4950
  107TMC2    C1 1661   3.671   3.846  11.505  0.0662  0.0721 -0.2841
  107TMC2    C2 1662   3.642   3.875  11.374  0.0475  0.1658  0.1872
  107TMC2    C3 1663   3.723   3.815  11.280  0.3883 -0.2091 -0.2211
  107TMC2    C4 1664   3.770   3.762  11.538  0.2513  0.2992  0.2943
  107TMC2    C5 1665   3.837   3.690  11.449  0.6880 -0.2810 -0.9619
  107TMC2    C6 1666   3.824   3.731  11.314 -0.4929  0.2753  0.2150
  107TMC2     C 1667   3.594   3.900  11.620  0.0225 -0.2834  0.4658
  107TMC2     O 1668   3.590   3.837  11.723  0.5133 -0.4085 -0.4674
  107TMC2     H 1669   3.548   3.919  11.341 -0.0561 -0.2582 -0.0700
  107TMC2    H1 1670   3.781   3.740  11.643  2.9936 -0.1734 -0.0788
  107TMC2    H2 1671   3.871   3.685  11.228 -2.2325  1.3044 -1.2869
  107TMC2    C7 1672   3.942   3.596  11.495  0.1432  0.0220 -0.2240
  107TMC2    C8 1673   3.691   3.840  11.141 -0.2142 -0.4613 -0.0541
  107TMC2    O1 1674   3.986   3.626  11.603 -0.7102  0.1739  0.4690
  107TMC2    O2 1675   3.686   3.755  11.054 -0.5230 -0.2807  0.3177
  107TMC2    O5 1676   3.648   3.967  11.142  0.2406 -0.2196 -0.1947
  107TMC2    H5 1677   3.662   4.006  11.231 -2.4832 -1.4913  0.8115
  108MPD2     C 1678   3.377   4.196  11.627  0.2734  0.4290  0.0239
  108MPD2    C1 1679   3.427   4.074  11.676 -0.1493  0.2260 -0.2349
  108MPD2    C2 1680   3.385   4.034  11.800  0.7536  0.4347  0.1384
  108MPD2    C3 1681   3.287   4.106  11.875 -0.5962  0.7788 -0.2066
  108MPD2    C4 1682   3.229   4.220  11.822  0.4846 -0.4016 -0.5200
  108MPD2    C5 1683   3.283   4.263  11.698 -0.4578  0.4844  0.4955
  108MPD2     H 1684   3.427   3.944  11.845 -0.0175 -0.1896 -0.3796
  108MPD2    H1 1685   3.161   4.287  11.874 -0.1854 -0.1596 -1.6945
  108MPD2    H2 1686   3.409   4.232  11.530  0.6528  0.5684  0.2001
  108MPD2    H3 1687   3.251   4.360  11.662  0.1698  0.6948  0.5154
  108MPD2     N 1688   3.241   4.077  12.005  0.4436 -0.1420 -0.5958
  108MPD2    H5 1689   3.160   4.131  12.035  1.6404  0.3527  1.6846
  108MPD2    N1 1690   3.523   4.018  11.596  0.1477 -0.0635 -0.4686
  108MPD2    H7 1691   3.548   4.063  11.509  0.4855 -0.3481 -0.5215
  109TMC2    C1 1692   3.659   0.937   0.458  0.1085  0.1969  0.4430
  109TMC2    C2 1693   3.651   0.980   0.328  0.2951  0.0334 -0.1633
  109TMC2    C3 1694   3.746   1.065   0.282 -0.8423 -0.2244  0.1476
  109TMC2    C4 1695   3.744   0.994   0.551  0.5570 -0.2058 -0.3593
  109TMC2    C5 1696   3.834   1.087   0.495 -0.5037  0.3730 -0.8488
  109TMC2    C6 1697   3.838   1.122   0.366  1.4376 -0.4190  0.5675
  109TMC2     C 1698   3.551   0.853   0.510  0.9789 -0.0673  0.0477
  109TMC2     O 1699   3.463   0.837   0.429 -0.3802  0.0245  0.1691
  109TMC2     H 1700   3.584   0.954   0.247  1.8340 -1.9683 -0.8095
  109TMC2    H1 1701   3.746   0.964   0.655  0.9642  0.5240 -0.1571
  109TMC2    H2 1702   3.906   1.195   0.323  0.7622  1.7561  3.2502
  109TMC2    C7 1703   3.896   1.162   0.595 -0.4600  0.2637  0.4636
  109TMC2    C8 1704   3.760   1.073   0.140  0.1517 -0.4801  0.9572
  109TMC2    O1 1705   3.840   1.160   0.703 -0.2354  0.1944 -0.0475
  109TMC2    O2 1706   3.677   1.050   0.054  0.2766 -0.1895 -0.1688
  109TMC2    O5 1707   3.889   1.092   0.114 -0.1084 -0.5736 -0.1401
  109TMC2    H5 1708   3.951   1.092   0.190 -0.4239  1.0257  0.1125
  110MPD2     C 1709   3.250   0.663   0.871  0.6083 -1.0512  0.3309
  110MPD2    C1 1710   3.360   0.709   0.936  0.2466 -0.1357 -0.4899
  110MPD2    C2 1711   3.451   0.777   0.865  0.1055  0.2434  0.0150
  110MPD2    C3 1712   3.445   0.776   0.725  0.4376 -0.5540  0.2032
  110MPD2    C4 1713   3.332   0.726   0.658  0.0615  0.1175 -0.0402
  110MPD2    C5 1714   3.233   0.676   0.735  0.2310 -0.6995 -0.2685
  110MPD2     H 1715   3.544   0.800   0.915 -0.3519  1.8295  0.1144
  110MPD2    H1 1716   3.318   0.714   0.552  0.0779  2.2536 -0.2839
  110MPD2    H2 1717   3.173   0.612   0.927 -1.0180  1.7284  0.6448
  110MPD2    H3 1718   3.142   0.633   0.695 -0.6818  1.0150 -0.0158
  110MPD2     N 1719   3.553   0.838   0.647 -0.5730 -0.5173  0.2041
  110MPD2    H5 1720   3.627   0.880   0.702 -1.4198  1.7932 -0.4186
  110MPD2    N1 1721   3.361   0.702   1.079 -0.2478  0.2600 -0.5593
  110MPD2    H7 1722   3.295   0.636   1.119 -1.0385 -0.7108 -3.4375
  111TMC2    C1 1723   3.865   1.198  12.146 -0.2708 -0.7258  0.5089
  111TMC2    C2 1724   3.825   1.263  12.257  0.0522  0.4355 -0.1246
  111TMC2    C3 1725   3.914   1.293  12.356  1.0359 -0.8937 -0.2510
  111TMC2    C4 1726   3.996   1.171  12.117 -0.5788 -0.9230 -0.4391
  111TMC2    C5 1727   4.086   1.212  12.215 -0.1374  0.4062 -0.6351
  111TMC2    C6 1728   4.051   1.265  12.336 -0.4950 -0.1451  0.3184
  111TMC2     C 1729   3.777   1.180  12.035  0.2268 -0.4997 -0.3215
  111TMC2     O 1730   3.828   1.174  11.923 -0.1135 -0.1010  0.4138
  111TMC2     H 1731   3.725   1.297  12.282 -1.1416 -1.0688 -2.7828
  111TMC2    H1 1732   4.015   1.115  12.026  1.6982  1.6581 -1.5619
  111TMC2    H2 1733   4.127   1.277  12.412 -0.7718  1.2079  0.3853
  111TMC2    C7 1734   4.208   1.131  12.207 -0.2255 -0.4440 -0.9015
  111TMC2    C8 1735   3.876   1.362  12.473 -0.2902 -0.3634 -0.1966
  111TMC2    O1 1736   4.283   1.112  12.303 -0.1506  0.2616 -0.0138
  111TMC2    O2 1737   3.775   1.432  12.480 -1.1237  0.3730  0.4503
  111TMC2    O5 1738   3.926   1.286  12.571  0.3216 -0.0278  0.5620
  111TMC2    H5 1739   3.975   1.205  12.546 -1.5178 -1.2989  1.1326
  112MPD2     C 1740   3.325   1.063  11.831  0.5707  0.5137  0.7522
  112MPD2    C1 1741   3.454   1.070  11.777  0.5166 -0.1432 -0.0283
  112MPD2    C2 1742   3.559   1.109  11.847 -0.0165 -0.4064 -0.2322
  112MPD2    C3 1743   3.542   1.132  11.985  0.8235 -0.1188 -0.1192
  112MPD2    C4 1744   3.417   1.133  12.040 -0.5511 -0.7806 -0.4017
  112MPD2    C5 1745   3.316   1.085  11.966  0.0047 -0.2060  0.2064
  112MPD2     H 1746   3.655   1.132  11.804  0.0504 -2.3026 -1.0922
  112MPD2    H1 1747   3.401   1.168  12.141  0.3421  0.1976 -0.6028
  112MPD2    H2 1748   3.242   1.023  11.775  0.4408  0.2904  1.1057
  112MPD2    H3 1749   3.216   1.079  12.007 -0.5922 -0.4865 -1.3229
  112MPD2     N 1750   3.650   1.170  12.074  0.1688 -0.8737 -0.2672
  112MPD2    H5 1751   3.622   1.163  12.172  2.3854 -0.7901  0.3690
  112MPD2    N1 1752   3.471   1.038  11.639 -0.1871  0.3001 -0.2898
  112MPD2    H7 1753   3.568   1.039  11.609 -0.1169  1.5357 -0.0449
  113TMC2    C1 1754   1.451   4.213   1.398 -0.4741 -0.3840  0.4751
  113TMC2    C2 1755   1.367   4.314   1.440 -0.4641  0.1018  0.3895
  113TMC2    C3 1756   1.248   4.328   1.371  0.1256  0.4818 -0.1075
  113TMC2    C4 1757   1.416   4.121   1.298  0.5089 -0.1771 -0.1866
  113TMC2    C5 1758   1.293   4.146   1.236  0.4028  0.2295  0.5533
  113TMC2    C6 1759   1.206   4.250   1.266  0.5733  0.2093  0.0161
  113TMC2     C 1760   1.585   4.230   1.439 -0.1350 -0.2116  0.2472
  113TMC2     O 1761   1.599   4.322   1.519 -0.3382  0.1647 -0.3420
  113TMC2     H 1762   1.394   4.390   1.512 -2.5754  1.5280 -0.3389
  113TMC2    H1 1763   1.482   4.041   1.265  0.4003 -1.1489  1.9824
  113TMC2    H2 1764   1.107   4.258   1.222  0.0329  1.7736  1.5216
  113TMC2    C7 1765   1.257   4.069   1.113  0.5314 -0.9001 -0.9527
  113TMC2    C8 1766   1.176   4.444   1.409 -0.6329 -0.1756  0.0634
  113TMC2    O1 1767   1.185   4.124   1.035 -0.1515  0.1153  0.1978
  113TMC2    O2 1768   1.192   4.502   1.516  0.0106  0.0561 -0.0640
  113TMC2    O5 1769   1.115   4.483   1.291  0.1041  0.3228  0.1466
  113TMC2    H5 1770   1.139   4.426   1.214 -2.0594  0.8277 -0.9083
  114MPD2     C 1771   2.087   4.232   1.311 -0.2524 -0.1502  0.2695
  114MPD2    C1 1772   2.005   4.310   1.393  0.0601  0.4661 -0.0739
  114MPD2    C2 1773   1.869   4.294   1.402  0.2126 -0.1006 -0.4856
  114MPD2    C3 1774   1.804   4.198   1.330  0.5179  0.2643  0.1352
  114MPD2    C4 1775   1.880   4.126   1.243 -0.2166 -0.9347 -0.6420
  114MPD2    C5 1776   2.019   4.137   1.240 -0.4019  1.2231  0.7970
  114MPD2     H 1777   1.807   4.364   1.457 -2.3405 -3.1972  0.6113
  114MPD2    H1 1778   1.838   4.046   1.185 -0.2644 -0.4607 -1.2629
  114MPD2    H2 1779   2.195   4.240   1.310 -0.4397  2.0553 -1.9293
  114MPD2    H3 1780   2.068   4.061   1.180 -3.6068 -1.7236  1.9994
  114MPD2     N 1781   1.666   4.167   1.350  0.6357 -0.6529  0.4267
  114MPD2    H5 1782   1.627   4.098   1.287 -2.7857  1.2085  0.5241
  114MPD2    N1 1783   2.059   4.416   1.466  0.3058  0.8616 -0.1089
  114MPD2    H7 1784   1.996   4.473   1.521  0.1967 -1.0519  1.7052
  115TMC2    C1 1785   2.761   1.522  17.727  0.4442 -0.0900 -0.7719
  115TMC2    C2 1786   2.898   1.508  17.717  0.4063  0.0392  0.2533
  115TMC2    C3 1787   2.972   1.621  17.732  0.2675  0.2238  0.1975
  115TMC2    C4 1788   2.701   1.638  17.742 -0.1172 -0.1194 -0.2108
  115TMC2    C5 1789   2.778   1.750   0.012 -0.0192  0.4907  0.0913
  115TMC2    C6 1790   2.911   1.742  17.745  0.4869  0.1872 -0.2043
  115TMC2     C 1791   2.680   1.407   0.013  0.7108  0.2982  0.0254
  115TMC2     O 1792   2.687   1.304  17.693  0.3244 -0.7216 -0.2642
  115TMC2     H 1793   2.931   1.410  17.684  3.4272  2.0306 -2.5959
  115TMC2    H1 1794   2.593   1.648  17.743  0.0058  1.1207  1.0252
  115TMC2    H2 1795   2.979   1.824   0.018  1.0903 -0.6225  1.0183
  115TMC2    C7 1796   2.716   1.868   0.071  0.3980  0.4276 -0.4982
  115TMC2    C8 1797   3.112   1.607   0.016  0.8290  0.4887 -0.6295
  115TMC2    O1 1798   2.605   1.847   0.122 -0.1504  0.2027 -0.6373
  115TMC2    O2 1799   3.185   1.706   0.027 -0.4091  0.5781 -0.3540
  115TMC2    O5 1800   3.126   1.497   0.088  0.1764  0.3184 -0.2501
  115TMC2    H5 1801   3.044   1.443   0.082 -0.6735  1.8144 -1.9318
  116MPD2     C 1802   2.274   1.222   0.265 -0.3020  0.4122 -0.3038
  116MPD2    C1 1803   2.363   1.161   0.173  0.0790 -0.5298 -1.1614
  116MPD2    C2 1804   2.476   1.230   0.128  0.2871  0.0865  0.7402
  116MPD2    C3 1805   2.494   1.362   0.167 -0.0271 -0.2261  0.5152
  116MPD2    C4 1806   2.401   1.413   0.254  0.1536  0.9861 -0.1078
  116MPD2    C5 1807   2.299   1.344   0.310  0.2636  0.5413 -0.7096
  116MPD2     H 1808   2.544   1.189   0.054  0.7248 -1.1987  1.8521
  116MPD2    H1 1809   2.423   1.515   0.283 -1.7267  1.4262 -0.2656
  116MPD2    H2 1810   2.190   1.171   0.310  0.4145 -0.3206  0.1998
  116MPD2    H3 1811   2.241   1.395   0.386 -2.1370 -2.1484 -0.7006
  116MPD2     N 1812   2.594   1.442   0.116 -0.2637  0.3622 -0.3591
  116MPD2    H5 1813   2.596   1.537   0.151 -0.4887 -0.0470  0.7635
  116MPD2    N1 1814   2.329   1.034   0.120 -0.1828  0.0796  0.2762
  116MPD2    H7 1815   2.236   0.998   0.138 -0.3158  0.4404  0.3136
  117TMC2    C1 1816   1.120   2.696  14.419 -0.2554  0.1202 -0.4836
  117TMC2    C2 1817   1.234   2.632  14.462 -0.2735  0.4778  0.6875
  117TMC2    C3 1818   1.347   2.705  14.453  0.1130  0.6185  0.2331
  117TMC2    C4 1819   1.115   2.833  14.387 -0.1489  0.3465  0.7067
  117TMC2    C5 1820   1.229   2.910  14.416  0.5878 -0.9427 -0.3546
  117TMC2    C6 1821   1.351   2.846  14.437 -0.2368 -0.0518  0.0783
  117TMC2     C 1822   1.005   2.614  14.389  0.8412  0.6591  0.0563
  117TMC2     O 1823   1.015   2.496  14.427  0.3112  0.3239  0.1716
  117TMC2     H 1824   1.240   2.533  14.505 -1.3695 -0.8252 -2.1205
  117TMC2    H1 1825   1.026   2.874  14.341 -0.6522  0.4829  1.8046
  117TMC2    H2 1826   1.443   2.902  14.448 -0.1426 -0.5165  1.6364
  117TMC2    C7 1827   1.221   3.056  14.418 -0.5467  0.3672  0.2028
  117TMC2    C8 1828   1.471   2.649  14.510  1.3654  1.0643 -0.4856
  117TMC2    O1 1829   1.325   3.118  14.424  0.1733 -0.4046 -0.2692
  117TMC2    O2 1830   1.545   2.717  14.578  0.0678  0.4449 -0.5122
  117TMC2    O5 1831   1.505   2.554  14.426  0.3780  0.2122 -0.1280
  117TMC2    H5 1832   1.437   2.529  14.360 -0.2227  1.3652  0.0641
  118MPD2     C 1833   0.911   3.261  14.455 -0.1428  0.7979  0.0578
  118MPD2    C1 1834   1.049   3.241  14.441 -0.9505  0.1586 -0.4493
  118MPD2    C2 1835   1.128   3.358  14.438 -0.4691  0.0244 -0.5357
  118MPD2    C3 1836   1.064   3.483  14.448  0.1550 -0.1023  0.2186
  118MPD2    C4 1837   0.932   3.501  14.478  0.0945 -0.1947  0.2036
  118MPD2    C5 1838   0.855   3.387  14.470  0.2115  0.5406  0.0082
  118MPD2     H 1839   1.234   3.347  14.420  0.3457  0.9359  3.8260
  118MPD2    H1 1840   0.890   3.598  14.500  0.7416  0.4406 -1.3422
  118MPD2    H2 1841   0.836   3.182  14.457  0.0834  0.6226  1.6576
  118MPD2    H3 1842   0.752   3.387  14.502 -0.5572 -1.0975 -2.5353
  118MPD2     N 1843   1.139   3.600  14.449  0.2263 -0.1185  0.3896
  118MPD2    H5 1844   1.097   3.686  14.484 -2.5411 -0.7084 -1.4461
  118MPD2    N1 1845   1.092   3.104  14.430 -0.0162  0.3614  0.0459
  118MPD2    H7 1846   1.024   3.029  14.429 -0.8587  1.1369 -2.1195
  119TMC2    C1 1847   4.187   4.032  13.799  0.1112 -0.0006 -0.5475
  119TMC2    C2 1848   4.235   3.910  13.832 -0.2955  0.1356  0.1250
  119TMC2    C3 1849   4.165   3.802  13.785 -0.3279  0.1673  0.0987
  119TMC2    C4 1850   4.057   4.050  13.756  0.4029  0.2270 -0.4372
  119TMC2    C5 1851   3.992   3.932  13.709  0.3403  0.2210 -0.5205
  119TMC2    C6 1852   4.045   3.809  13.731  0.8217  0.6891  0.0308
  119TMC2     C 1853   4.266   4.146  13.808  0.9543  0.3857  0.3672
  119TMC2     O 1854   4.209   4.251  13.835 -0.0314 -0.1981  0.1018
  119TMC2     H 1855   4.336   3.886  13.864  0.3667  0.5498 -1.6622
  119TMC2    H1 1856   4.013   4.145  13.730 -0.7555 -0.3778 -0.7058
  119TMC2    H2 1857   4.002   3.720  13.686  2.0816  0.4518 -0.7018
  119TMC2    C7 1858   3.863   3.943  13.654 -0.3684 -0.3178 -0.5076
  119TMC2    C8 1859   4.240   3.683  13.752  0.7458 -0.0493  0.5521
  119TMC2    O1 1860   3.834   4.043  13.595  0.1702  0.0375 -0.0456
  119TMC2    O2 1861   4.357   3.670  13.727  0.0903 -0.7700  0.0812
  119TMC2    O5 1862   4.178   3.605  13.844  0.1152 -0.2738 -0.4173
  119TMC2    H5 1863   4.097   3.644  13.883  2.0620  1.7964  1.5976
  120MPD2     C 1864   4.734   4.350  13.823  0.3081 -0.4311  0.7323
  120MPD2    C1 1865   4.621   4.387  13.892  0.0864 -0.0236 -0.2614
  120MPD2    C2 1866   4.502   4.327  13.852  1.2350 -0.0394 -0.3213
  120MPD2    C3 1867   4.507   4.202  13.788 -0.0674 -0.3839  0.9929
  120MPD2    C4 1868   4.625   4.164  13.724 -0.5222  0.0054 -0.2908
  120MPD2    C5 1869   4.728   4.246  13.735  0.4121  0.5931  0.1752
  120MPD2     H 1870   4.406   4.365  13.882  0.7038 -1.8100  0.2214
  120MPD2    H1 1871   4.635   4.066  13.679 -1.3311  0.3292 -1.2102
  120MPD2    H2 1872   0.086   4.411  13.831  0.2566 -0.1558 -0.8358
  120MPD2    H3 1873   0.077   4.205  13.684 -1.0649 -0.4766 -1.4208
  120MPD2     N 1874   4.398   4.117  13.778 -0.3834  0.5982 -0.1547
  120MPD2    H5 1875   4.405   4.028  13.730 -0.6174  0.7751 -0.5081
  120MPD2    N1 1876   4.631   4.501  13.981  0.1570 -0.7046  0.7644
  120MPD2    H7 1877   4.722   4.547  13.982  0.5463 -1.4722  0.2623
  121TMC2    C1 1878   1.261   0.731  14.626  0.5392 -0.1381  0.0355
  121TMC2    C2 1879   1.305   0.604  14.625  0.7861 -0.0604 -0.7825
  121TMC2    C3 1880   1.217   0.509  14.666 -0.4724 -0.0543  0.2256
  121TMC2    C4 1881   1.139   0.766  14.667 -0.7477  0.0103  0.2746
  121TMC2    C5 1882   1.051   0.673  14.712  0.1535  0.3746  0.2518
  121TMC2    C6 1883   1.090   0.536  14.712 -0.6406 -0.1613 -0.0154
  121TMC2     C 1884   1.350   0.834  14.587  0.4202  0.7876  0.4765
  121TMC2     O 1885   1.472   0.819  14.591 -0.2823  0.3196 -0.1778
  121TMC2     H 1886   1.410   0.577  14.618  0.7406 -1.1360  2.5176
  121TMC2    H1 1887   1.121   0.871  14.689  1.3864  0.3036  0.6064
  121TMC2    H2 1888   1.024   0.460  14.752  0.2465 -1.0913 -0.3146
  121TMC2    C7 1889   0.949   0.721  14.804 -0.2486  0.2929 -0.8465
  121TMC2    C8 1890   1.254   0.372  14.663  0.2271  0.0880  0.2047
  121TMC2    O1 1891   0.978   0.820  14.873 -0.2724 -0.5444 -0.3086
  121TMC2    O2 1892   1.184   0.291  14.730  0.2630  0.1256 -0.3833
  121TMC2    O5 1893   1.378   0.353  14.623  0.6755 -0.2484  0.0315
  121TMC2    H5 1894   1.399   0.411  14.547  0.4958 -3.0626 -2.1472
  122MPD2     C 1895   1.449   1.096  14.494  0.0684 -0.5758  0.2391
  122MPD2    C1 1896   1.329   1.039  14.450  0.2265 -0.5922 -0.5096
  122MPD2    C2 1897   1.263   1.088  14.338  0.2703 -0.9381 -0.0207
  122MPD2    C3 1898   1.315   1.199  14.268 -0.3550  0.0055  0.5299
  122MPD2    C4 1899   1.430   1.255  14.320  0.1383  0.2501 -0.0615
  122MPD2    C5 1900   1.499   1.205  14.429  0.4531  0.5392 -0.2530
  122MPD2     H 1901   1.174   1.038  14.301  1.0767 -2.1585 -0.3522
  122MPD2    H1 1902   1.467   1.352  14.288 -1.2898  0.5326 -0.8664
  122MPD2    H2 1903   1.492   1.068  14.590 -0.7227  1.0731  1.0830
  122MPD2    H3 1904   1.587   1.262  14.457 -0.7290  1.7175  1.0979
  122MPD2     N 1905   1.254   1.232  14.146  0.0170  0.2529 -0.1772
  122MPD2    H5 1906   1.192   1.157  14.119 -0.5590  0.7558 -0.2502
  122MPD2    N1 1907   1.277   0.923  14.510 -0.2408 -0.2694 -0.3526
  122MPD2    H7 1908   1.179   0.899  14.495 -0.3501 -1.0942  1.6689
  123TMC2    C1 1909   4.433   3.680  10.495 -0.1385 -0.1463  0.9159
  123TMC2    C2 1910   4.552   3.668  10.430  0.6709  0.0752  0.1742
  123TMC2    C3 1911   4.564   3.729  10.306  0.7713 -0.3971 -0.1599
  123TMC2    C4 1912   4.336   3.766  10.442 -0.0081 -1.1355 -0.5882
  123TMC2    C5 1913   4.357   3.830  10.321 -0.0690 -0.0699 -1.0689
  123TMC2    C6 1914   4.471   3.810  10.243 -0.9519 -0.3482  0.2402
  123TMC2     C 1915   4.397   3.579  10.601  0.5344  0.1585  0.2840
  123TMC2     O 1916   4.489   3.525  10.660 -0.0017 -0.1233  0.3760
  123TMC2     H 1917   4.613   3.584  10.463 -0.7349 -0.9743  0.0763
  123TMC2    H1 1918   4.241   3.772  10.493 -0.5493  2.2033 -1.9861
  123TMC2    H2 1919   4.490   3.861  10.149 -0.8977 -1.7411 -0.4985
  123TMC2    C7 1920   4.237   3.889  10.269  0.2225 -0.5855 -0.1696
  123TMC2    C8 1921   4.682   3.707  10.224  0.9491  0.4332 -0.0365
  123TMC2    O1 1922   4.135   3.880  10.331 -0.2694  0.5027  0.4248
  123TMC2    O2 1923   4.675   3.712  10.102  0.4606 -0.2074 -0.4946
  123TMC2    O5 1924   0.040   3.649  10.303  0.0954  0.1940  0.2249
  123TMC2    H5 1925   0.040   3.681  10.396 -2.6702 -0.0920  0.3227
  124MPD2     C 1926   4.071   3.321  10.892 -0.4139 -0.3937  0.1926
  124MPD2    C1 1927   4.005   3.374  10.782  0.3041  0.5456  0.2996
  124MPD2    C2 1928   4.068   3.456  10.691 -1.1452  0.3796 -0.2057
  124MPD2    C3 1929   4.205   3.480  10.709  0.2367 -0.2123  0.1599
  124MPD2    C4 1930   4.268   3.430  10.824  0.5606 -0.5152  0.2081
  124MPD2    C5 1931   4.197   3.362  10.918 -0.1994  0.1386 -0.1928
  124MPD2     H 1932   4.016   3.483  10.600 -0.3764  2.5361 -0.0159
  124MPD2    H1 1933   4.361   3.473  10.859  1.7444 -1.4860 -1.7402
  124MPD2    H2 1934   4.021   3.248  10.954  0.3720 -1.1662 -0.0760
  124MPD2    H3 1935   4.240   3.349  11.017 -2.3994 -1.0900  0.5965
  124MPD2     N 1936   4.263   3.557  10.603  0.1667  0.0981 -0.5302
  124MPD2    H5 1937   4.200   3.595  10.533 -0.7459 -2.3226 -0.9875
  124MPD2    N1 1938   3.867   3.352  10.776 -0.2059 -0.3958  0.1303
  124MPD2    H7 1939   3.824   3.287  10.841  3.3958 -1.1117  1.7499
  125TMC2    C1 1940   0.816   0.114   9.543  0.8283  0.2864  0.0526
  125TMC2    C2 1941   0.757   0.096   9.665 -0.7128 -0.3170  0.2369
  125TMC2    C3 1942   0.652   0.013   9.664  0.0345 -0.0000 -0.4406
  125TMC2    C4 1943   0.765   0.060   9.426  0.0420 -0.8701 -0.1746
  125TMC2    C5 1944   0.650   4.727   9.432  0.6459 -0.2065  0.6150
  125TMC2    C6 1945   0.596   4.696   9.556 -0.8969  0.1124 -0.3509
  125TMC2     C 1946   0.942   0.177   9.525 -0.1952 -0.4337 -0.2148
  125TMC2     O 1947   1.005   0.133   9.429  0.1037 -0.6174  0.3301
  125TMC2     H 1948   0.804   0.136   9.754  0.0751  0.5078 -0.5423
  125TMC2    H1 1949   0.797   0.098   9.330  0.5169  1.1398  0.7746
  125TMC2    H2 1950   0.534   4.607   9.563  1.4988 -1.4494  1.6439
  125TMC2    C7 1951   0.621   4.631   9.327  0.2291  0.1163  0.4707
  125TMC2    C8 1952   0.607   4.699   9.799 -0.7062  0.7652  0.1102
  125TMC2    O1 1953   0.526   4.558   9.353 -0.2728 -0.0098 -0.3095
  125TMC2    O2 1954   0.689   4.719   9.888  0.8580  0.0884 -0.1941
  125TMC2    O5 1955   0.492   0.020   9.799  0.0216 -0.4692  0.2351
  125TMC2    H5 1956   0.432   4.723   9.730 -1.1340 -0.9009  1.4600
  126MPD1     C 1957   1.302   0.506   9.673  0.4130  0.1177 -0.4435
  126MPD1    C1 1958   1.180   0.540   9.731  0.1659  0.1393  0.0573
  126MPD1    C2 1959   1.070   0.458   9.704 -0.2480  0.2638 -0.3085
  126MPD1    C3 1960   1.085   0.340   9.639  0.4425  0.4278  0.7673
  126MPD1    C4 1961   1.204   0.307   9.575 -0.1062 -0.3083  0.2393
  126MPD1    C5 1962   1.315   0.386   9.597 -0.0514 -0.1641  0.2427
  126MPD1     H 1963   0.969   0.483   9.734 -0.4607  0.1426 -0.9253
  126MPD1    H1 1964   1.211   0.217   9.515 -0.0322 -0.1792  0.0514
  126MPD1    H2 1965   1.394   0.564   9.671  1.7056 -1.9388 -0.5278
  126MPD1    H3 1966   1.413   0.369   9.554 -0.3132  1.8995 -1.1708
  126MPD1     N 1967   0.959   0.279   9.610  0.7390  0.2067 -0.8500
  126MPD1    H5 1968   0.878   0.301   9.667  2.8873  0.7191  2.0085
  126MPD1    N1 1969   1.178   0.665   9.798  0.2726  0.0164 -0.1382
  126MPD1    H6 1970   1.119   0.667   9.881 -1.3379  0.8231 -1.3103
  126MPD1    H7 1971   1.270   0.696   9.830 -0.1121 -0.4375  1.3968
  127TMC2    C1 1972   0.935   4.279   9.995 -0.4544 -0.6545 -0.1095
  127TMC2    C2 1973   0.988   4.327  10.115  0.9562 -0.1615  0.6342
  127TMC2    C3 1974   0.911   4.317  10.229 -0.0712  0.1092  1.2403
  127TMC2    C4 1975   0.802   4.242   9.990  0.7187 -0.3347  0.4537
  127TMC2    C5 1976   0.731   4.234  10.105 -0.0065  0.1940 -0.1198
  127TMC2    C6 1977   0.782   4.269  10.228 -0.3153  0.8380 -0.6608
  127TMC2     C 1978   1.024   4.265   9.878  0.1498 -0.3821  0.3352
  127TMC2     O 1979   1.142   4.299   9.894 -0.9650  0.5473  0.0511
  127TMC2     H 1980   1.082   4.381  10.123  0.9407 -0.0239 -0.0745
  127TMC2    H1 1981   0.752   4.218   9.896 -0.2801  2.6646  0.2431
  127TMC2    H2 1982   0.722   4.277  10.318  0.5903  0.0782  0.0021
  127TMC2    C7 1983   0.603   4.171  10.104  0.3556  0.3809  0.0163
  127TMC2    C8 1984   0.961   4.384  10.346  0.4384 -0.4446  0.2124
  127TMC2    O1 1985   0.537   4.177  10.002  0.6220  0.0654 -0.2071
  127TMC2    O2 1986   1.055   4.456  10.337 -0.1698  0.1921 -0.1710
  127TMC2    O5 1987   0.909   4.347  10.465 -0.5053 -0.1568  0.4006
  127TMC2    H5 1988   0.850   4.269  10.474  1.1043 -1.4189 -0.0158
  128MPD2     C 1989   0.971   4.065   9.568  0.3240  0.3880 -0.0412
  128MPD2    C1 1990   1.033   4.138   9.667 -0.3919 -0.2388  0.0701
  128MPD2    C2 1991   1.163   4.182   9.630 -0.1955  0.0582  0.3266
  128MPD2    C3 1992   1.230   4.133   9.520  0.1060 -0.7037 -0.1989
  128MPD2    C4 1993   1.162   4.054   9.425 -0.2119 -0.3118 -0.4332
  128MPD2    C5 1994   1.029   4.022   9.454  0.0021  0.1989  0.1668
  128MPD2     H 1995   1.214   4.252   9.695  0.3838 -0.0968  0.0420
  128MPD2    H1 1996   1.204   4.009   9.337  0.4280 -2.6808  1.0949
  128MPD2    H2 1997   0.874   4.020   9.580 -0.6036  1.6205 -2.9248
  128MPD2    H3 1998   0.987   3.958   9.378 -2.8827  0.4185  1.6060
  128MPD2     N 1999   1.374   4.170   9.512  0.7680  0.7468  0.0655
  128MPD2    H5 2000   1.412   4.231   9.584  0.0812 -0.8845  1.7968
  128MPD2    N1 2001   0.967   4.191   9.779  0.3413  0.2656 -0.0392
  128MPD2    H7 2002   0.877   4.148   9.795  0.9888 -0.9594  0.2629
  129TMC2    C1 2003   0.522   4.628   1.810  0.1247 -0.0509 -0.1752
  129TMC2    C2 2004   0.548   4.547   1.917  0.8795 -0.6525  0.3216
  129TMC2    C3 2005   0.446   4.487   1.987  0.3221  0.9989 -0.3235
  129TMC2    C4 2006   0.392   4.652   1.766 -0.0106  0.0155 -0.6247
  129TMC2    C5 2007   0.292   4.578   1.833  0.8756 -0.0154  0.8161
  129TMC2    C6 2008   0.321   4.494   1.941  0.0292 -0.2321  0.4487
  129TMC2     C 2009   0.635   4.698   1.757 -0.2255 -0.2460 -0.2877
  129TMC2     O 2010   0.746   4.652   1.786 -0.0705 -0.1663 -0.3809
  129TMC2     H 2011   0.649   4.517   1.940  1.2838  0.3100 -0.2290
  129TMC2    H1 2012   0.374   4.711   1.677 -1.0179  0.7214  0.0426
  129TMC2    H2 2013   0.238   4.455   1.999 -0.2579  1.6208  1.3009
  129TMC2    C7 2014   0.181   4.526   1.745 -0.0028  0.4933  0.3236
  129TMC2    C8 2015   0.469   4.384   2.083  0.0699  0.2738  0.3544
  129TMC2    O1 2016   0.116   4.609   1.681 -0.7126  0.2616  0.1862
  129TMC2    O2 2017   0.538   4.404   2.178 -0.3284 -0.4747  0.1446
  129TMC2    O5 2018   0.372   4.294   2.074 -0.3388  0.0173  0.0271
  129TMC2    H5 2019   0.361   4.293   1.976 -1.4130 -0.8277  0.1541
  130MPD2     C 2020   0.818   0.167   1.642 -0.1465  0.6378 -0.4596
  130MPD2    C1 2021   0.687   0.183   1.660  0.2504 -0.4018 -0.1772
  130MPD2    C2 2022   0.630   0.306   1.619 -0.2480  0.3471  0.0078
  130MPD2    C3 2023   0.713   0.406   1.566  0.1793  0.0444 -0.6584
  130MPD2    C4 2024   0.844   0.378   1.539 -0.4567 -0.2216  0.4196
  130MPD2    C5 2025   0.893   0.258   1.582  0.4738 -0.1792  0.5630
  130MPD2     H 2026   0.523   0.314   1.635 -0.6981 -2.0552 -1.7552
  130MPD2    H1 2027   0.920   0.444   1.500 -2.1986  0.7628 -1.3104
  130MPD2    H2 2028   0.866   0.076   1.677 -0.4257  1.1320  1.1688
  130MPD2    H3 2029   1.000   0.245   1.574  0.5718  0.9513  0.0393
  130MPD2     N 2030   0.649   0.528   1.529 -0.1363 -0.3171  0.4144
  130MPD2    H5 2031   0.549   0.540   1.541 -0.2571 -0.7999 -0.0697
  130MPD2    N1 2032   0.595   0.089   1.713 -0.7713 -0.1683 -0.5464
  130MPD2    H7 2033   0.497   0.115   1.715 -1.0388 -1.2420  0.6986
  131TMC2    C1 2034   3.807   4.090  10.204  0.0549  0.0288  0.8664
  131TMC2    C2 2035   3.916   4.126  10.279 -0.1758  0.1933  0.5011
  131TMC2    C3 2036   3.987   4.237  10.234  0.3661 -0.1682 -0.2733
  131TMC2    C4 2037   3.784   4.144  10.084 -0.2270  0.0713  0.5363
  131TMC2    C5 2038   3.869   4.237  10.037  0.4325  0.2038  0.3249
  131TMC2    C6 2039   3.975   4.290  10.111 -0.3226  0.5816  0.4751
  131TMC2     C 2040   3.735   3.976  10.254  0.3520 -0.3580  0.7206
  131TMC2     O 2041   3.796   3.899  10.328  0.3736  0.1624 -0.0305
  131TMC2     H 2042   3.942   4.071  10.368  0.4132  1.1839  0.9379
  131TMC2    H1 2043   3.714   4.097  10.014 -1.9125 -0.3622  2.5018
  131TMC2    H2 2044   4.053   4.354  10.073  1.1780 -1.4473  0.1730
  131TMC2    C7 2045   3.840   4.286   9.907 -0.2083  0.2831  0.2811
  131TMC2    C8 2046   4.113   4.277  10.294 -0.2049  0.1831  0.7239
  131TMC2    O1 2047   3.727   4.261   9.867 -1.0230  0.2400  0.2187
  131TMC2    O2 2048   4.213   4.315  10.233  0.2175 -0.4662 -0.1935
  131TMC2    O5 2049   4.095   4.253  10.428  0.0598  0.7054 -0.4071
  131TMC2    H5 2050   4.000   4.236  10.446  0.3923  0.3754  1.0332
  132MPD2     C 2051   3.376   3.892  10.187  0.0064  0.0902 -0.0615
  132MPD2    C1 2052   3.498   3.881  10.245  0.0278  0.4227 -0.3856
  132MPD2    C2 2053   3.526   3.774  10.326  0.1886 -0.7453  0.3442
  132MPD2    C3 2054   3.426   3.676  10.349  0.2094 -0.0489  0.0548
  132MPD2    C4 2055   3.297   3.698  10.310 -0.1642 -0.1541 -0.4151
  132MPD2    C5 2056   3.276   3.806  10.222 -0.2859 -0.0420  0.1715
  132MPD2     H 2057   3.615   3.777  10.388  1.2586 -0.4475 -1.2097
  132MPD2    H1 2058   3.220   3.622  10.307  1.0672 -1.3515 -1.9189
  132MPD2    H2 2059   3.353   3.971  10.117 -1.9209  1.7427  2.4485
  132MPD2    H3 2060   3.181   3.813  10.171 -0.7210  2.8580  1.4092
  132MPD2     N 2061   3.454   3.562  10.424  0.6189 -0.2646  0.1132
  132MPD2    H5 2062   3.554   3.545  10.431  0.4487 -1.1809  0.2907
  132MPD2    N1 2063   3.593   3.987  10.220 -0.7204  0.6473 -0.5776
  132MPD2    H7 2064   3.559   4.071  10.173  0.9817  0.0106 -2.9054
  133TMC2    C1 2065   4.017   0.939   9.483 -0.8461 -0.3993 -0.1109
  133TMC2    C2 2066   4.062   1.068   9.508  0.1670 -0.8343  0.3234
  133TMC2    C3 2067   4.188   1.102   9.466 -0.2343  0.2140  0.4346
  133TMC2    C4 2068   4.095   0.854   9.419 -0.1626 -0.4649 -0.7095
  133TMC2    C5 2069   4.222   0.886   9.390 -0.1563  0.2119 -0.8139
  133TMC2    C6 2070   4.271   1.009   9.411  0.7715 -0.9883  0.4631
  133TMC2     C 2071   3.874   0.910   9.510  0.3596  0.8994  0.0852
  133TMC2     O 2072   3.847   0.794   9.533  0.2302 -0.3786  0.2342
  133TMC2     H 2073   4.002   1.141   9.560 -0.7999 -1.0199 -0.5304
  133TMC2    H1 2074   4.070   0.748   9.418  0.0403 -0.5133 -1.0506
  133TMC2    H2 2075   4.373   1.034   9.384 -0.1510  0.0447 -2.0925
  133TMC2    C7 2076   4.308   0.779   9.342 -0.2165  0.1173 -0.1192
  133TMC2    C8 2077   4.238   1.236   9.497  0.2353  0.1325 -0.5365
  133TMC2    O1 2078   4.240   0.682   9.311  0.2604 -0.5852  0.3575
  133TMC2    O2 2079   4.161   1.328   9.511  0.4187  0.2164  0.6671
  133TMC2    O5 2080   4.358   1.223   9.565 -0.2632 -0.4599  0.1893
  133TMC2    H5 2081   4.397   1.134   9.548  1.8529  0.9218 -2.2390
  134MPD2     C 2082   3.599   1.141   9.479 -0.0919  1.0061  0.3089
  134MPD2    C1 2083   3.656   1.013   9.489  0.5946  0.2493 -0.0118
  134MPD2    C2 2084   3.573   0.901   9.496 -0.1261 -0.1718 -0.2562
  134MPD2    C3 2085   3.433   0.917   9.507 -0.0961 -0.5884 -0.5637
  134MPD2    C4 2086   3.382   1.041   9.519  0.3476 -0.3772 -0.4781
  134MPD2    C5 2087   3.459   1.157   9.493  0.4778 -0.2329 -0.0868
  134MPD2     H 2088   3.618   0.802   9.502  1.0399  0.4367  1.1390
  134MPD2    H1 2089   3.275   1.049   9.530  0.3642  0.8304 -1.1592
  134MPD2    H2 2090   3.665   1.226   9.466  1.1424 -0.3077 -2.1003
  134MPD2    H3 2091   3.409   1.252   9.475  1.4068  0.3105  0.1627
  134MPD2     N 2092   3.337   0.806   9.503  0.2184  0.2853 -0.2222
  134MPD2    H5 2093   3.238   0.825   9.495  0.3171  1.5361  1.6322
  134MPD2    N1 2094   3.799   1.020   9.487  0.4504  0.4737  0.5143
  134MPD2    H7 2095   3.847   1.108   9.470  0.6310 -0.1333 -2.1603
  135TMC2    C1 2096   0.744   0.568  10.484 -0.3270  0.0323  0.0230
  135TMC2    C2 2097   0.848   0.574  10.575  0.2153  0.1339 -0.1659
  135TMC2    C3 2098   0.831   0.669  10.668  0.6902  0.2966  0.1764
  135TMC2    C4 2099   0.629   0.640  10.494  0.5872  0.3712 -0.6690
  135TMC2    C5 2100   0.617   0.723  10.596 -0.2655 -0.2808  0.0735
  135TMC2    C6 2101   0.721   0.752  10.673 -0.5207  0.0404  0.5353
  135TMC2     C 2102   0.751   0.490  10.361  0.1452 -0.5611  0.0918
  135TMC2     O 2103   0.654   0.432  10.321  0.1342 -0.2313  0.2833
  135TMC2     H 2104   0.943   0.524  10.561  0.0313  0.6070 -3.0525
  135TMC2    H1 2105   0.548   0.632  10.421 -0.1003 -0.6345  0.2102
  135TMC2    H2 2106   0.715   0.832  10.746 -0.6425  1.0190 -0.5484
  135TMC2    C7 2107   0.492   0.799  10.601 -0.8354  0.0792  0.6470
  135TMC2    C8 2108   0.917   0.679  10.784  0.0197  0.8177 -0.6211
  135TMC2    O1 2109   0.495   0.915  10.629  0.1248 -0.3906  0.1781
  135TMC2    O2 2110   0.923   0.784  10.843  0.0226 -0.3367  0.7664
  135TMC2    O5 2111   0.943   0.552  10.822 -0.5137  0.4795  0.2840
  135TMC2    H5 2112   0.888   0.486  10.775  1.1992 -1.0548  0.4679
  136MPD2     C 2113   0.846   0.339  10.124 -0.1292  0.2015 -0.0349
  136MPD2    C1 2114   0.928   0.416  10.206 -0.1239 -1.6136 -0.1235
  136MPD2    C2 2115   1.062   0.404  10.170 -0.6415 -0.4334  0.3308
  136MPD2    C3 2116   1.115   0.344  10.060 -0.1548  0.5285  0.5583
  136MPD2    C4 2117   1.028   0.279   9.976 -0.1858  0.3282  0.2585
  136MPD2    C5 2118   0.895   0.280  10.010  0.0240  0.1088  0.0138
  136MPD2     H 2119   1.135   0.452  10.235  0.8714 -2.0325 -0.1729
  136MPD2    H1 2120   1.063   0.233   9.885  1.7719  1.3590  0.4865
  136MPD2    H2 2121   0.739   0.325  10.140 -0.4561  1.0952 -1.4105
  136MPD2    H3 2122   0.830   0.234   9.936 -0.9707  1.9806 -0.2821
  136MPD2     N 2123   1.255   0.354  10.019 -0.0938 -0.1236  0.2435
  136MPD2    H5 2124   1.268   0.316   9.926  0.7292 -0.4012  0.4706
  136MPD2    N1 2125   0.882   0.479  10.317 -0.5436 -1.0190 -0.4445
  136MPD2    H7 2126   0.952   0.538  10.361  0.6722 -0.9612 -2.4604
  137TMC2    C1 2127   0.843   4.361   9.398 -0.1127  0.3663  0.0367
  137TMC2    C2 2128   0.958   4.349   9.318 -0.1656 -0.5273 -0.2953
  137TMC2    C3 2129   0.944   4.283   9.198 -0.2838  0.0730 -0.3633
  137TMC2    C4 2130   0.720   4.304   9.371  1.0060  0.1924 -0.3118
  137TMC2    C5 2131   0.714   4.230   9.253  0.5808 -0.2568  0.2712
  137TMC2    C6 2132   0.823   4.222   9.162  0.6992 -0.0912 -0.1626
  137TMC2     C 2133   0.848   4.439   9.521 -0.2809  0.5778 -0.7776
  137TMC2     O 2134   0.787   4.399   9.619 -0.2530  0.4073 -0.2065
  137TMC2     H 2135   1.058   4.387   9.334 -0.0389 -1.0313  0.1288
  137TMC2    H1 2136   0.632   4.321   9.433  0.7040 -0.6153 -0.5156
  137TMC2    H2 2137   0.811   4.170   9.068  0.6756  1.1416 -0.8476
  137TMC2    C7 2138   0.590   4.193   9.188  0.4985  0.7224 -0.3665
  137TMC2    C8 2139   1.040   4.311   9.094  0.6604  0.0325  0.1716
  137TMC2    O1 2140   0.586   4.132   9.082  0.4386  0.3308 -0.3366
  137TMC2    O2 2141   1.099   4.413   9.071  0.3481  0.0579 -0.0621
  137TMC2    O5 2142   1.115   4.198   9.097 -0.3151  0.4444  0.1102
  137TMC2    H5 2143   1.064   4.114   9.107  0.7449 -0.0243  1.6296
  138MPD2     C 2144   1.136   4.649   9.609 -0.2680  0.3187  0.1239
  138MPD2    C1 2145   1.017   4.584   9.632 -0.5716  0.5918  0.1582
  138MPD2    C2 2146   0.957   4.591   9.759  0.2119  0.7022  0.8399
  138MPD2    C3 2147   1.027   4.633   9.868  0.0988  0.1654 -0.4820
  138MPD2    C4 2148   1.157   4.680   9.849  0.3502 -0.3263  0.2582
  138MPD2    C5 2149   1.202   4.698   9.718 -0.1489  0.2517  0.0588
  138MPD2     H 2150   0.858   4.550   9.775  0.7120 -1.3580 -1.2952
  138MPD2    H1 2151   1.217   4.730   9.924  1.0863 -1.2490  0.2797
  138MPD2    H2 2152   1.184   4.647   9.512  0.0114 -1.4939  0.3016
  138MPD2    H3 2153   1.298   0.008   9.701 -0.1741  0.1101 -0.4760
  138MPD2     N 2154   0.962   4.639   9.988  0.1024  0.6009 -0.1352
  138MPD2    H5 2155   0.862   4.626   9.978  0.5347 -2.7387 -0.0548
  138MPD2    N1 2156   0.957   4.520   9.516 -0.1893  0.4355 -0.2240
  138MPD2    H7 2157   1.006   4.526   9.428 -0.0401  2.6386  0.0055
  139TMC2    C1 2158   1.008   3.467  14.109 -0.9795 -0.1455  0.2092
  139TMC2    C2 2159   1.092   3.568  14.084  0.0525  0.4348 -0.2332
  139TMC2    C3 2160   1.039   3.695  14.082 -0.8307  0.0242  0.5735
  139TMC2    C4 2161   0.873   3.491  14.150  0.5365  0.8843 -0.4045
  139TMC2    C5 2162   0.829   3.616  14.144 -0.6925 -0.3336  0.3831
  139TMC2    C6 2163   0.909   3.722  14.102  0.3101  0.4072  0.1586
  139TMC2     C 2164   1.067   3.337  14.107  0.7060 -0.1646  0.3944
  139TMC2     O 2165   1.190   3.329  14.100 -0.1252  0.2457  0.0272
  139TMC2     H 2166   1.194   3.551  14.052 -0.0308  0.0649 -0.2982
  139TMC2    H1 2167   0.806   3.413  14.183  1.3564  1.3071  2.2817
  139TMC2    H2 2168   0.874   3.820  14.073 -1.3736 -0.2509 -0.0944
  139TMC2    C7 2169   0.688   3.652  14.141  0.8558  0.0712  0.0026
  139TMC2    C8 2170   1.123   3.803  14.119  0.1106  0.9253  0.1425
  139TMC2    O1 2171   0.658   3.771  14.159 -0.0773  0.0084 -0.0550
  139TMC2    O2 2172   1.096   3.874  14.211 -0.3804 -0.3311 -0.5393
  139TMC2    O5 2173   1.239   3.802  14.053  0.6117  0.0657 -0.5617
  139TMC2    H5 2174   1.243   3.733  13.983  1.3178  0.6943 -1.1445
  140MPD2     C 2175   0.917   2.998  14.053  0.6459 -0.4198 -1.1239
  140MPD2    C1 2176   1.009   3.098  14.085 -0.0278 -0.2806  0.5985
  140MPD2    C2 2177   1.135   3.047  14.095  0.1365 -0.7929 -0.4677
  140MPD2    C3 2178   1.168   2.913  14.065  0.3647  0.1730  0.2874
  140MPD2    C4 2179   1.070   2.820  14.032 -0.2282 -0.4257  0.1291
  140MPD2    C5 2180   0.938   2.868  14.036 -0.1294  0.3157 -0.0834
  140MPD2     H 2181   1.218   3.113  14.119 -0.8968  0.3010  0.0822
  140MPD2    H1 2182   1.090   2.713  14.026 -0.5927 -0.5307  0.7636
  140MPD2    H2 2183   0.820   3.044  14.037  1.3476  1.5799  0.3866
  140MPD2    H3 2184   0.866   2.789  14.016  0.2458 -1.3779  5.2386
  140MPD2     N 2185   1.306   2.875  14.077  0.1892 -0.2774  0.5835
  140MPD2    H5 2186   1.375   2.943  14.106 -0.3615 -0.1851  1.6695
  140MPD2    N1 2187   0.972   3.238  14.102 -1.0234 -0.2750 -0.3847
  140MPD2    H7 2188   0.874   3.264  14.095 -1.0610 -0.3471 -0.1215
  141TMC2    C1 2189   1.091   0.204  15.123  0.4450 -0.3958  0.0986
  141TMC2    C2 2190   1.145   0.170  15.241 -1.0923 -0.3919 -0.0834
  141TMC2    C3 2191   1.235   0.255  15.309  0.1551 -0.1627 -0.1963
  141TMC2    C4 2192   1.135   0.318  15.054  0.0080 -0.3724 -1.0768
  141TMC2    C5 2193   1.225   0.401  15.119  0.5032 -1.1530 -0.7235
  141TMC2    C6 2194   1.283   0.367  15.243  0.1824 -0.0579 -0.2566
  141TMC2     C 2195   1.004   0.105  15.056 -0.0515  0.2054 -0.4148
  141TMC2     O 2196   0.955   0.022  15.135 -0.2642 -0.2024 -0.1981
  141TMC2     H 2197   1.119   0.074  15.285  1.9978 -2.5376 -2.9839
  141TMC2    H1 2198   1.084   0.346  14.962  0.5556  2.9593 -0.3957
  141TMC2    H2 2199   1.365   0.431  15.274  0.4586 -0.8227  0.5614
  141TMC2    C7 2200   1.265   0.524  15.058  0.2420  0.1388  0.1125
  141TMC2    C8 2201   1.252   0.228  15.442 -0.5790 -0.7495 -0.5803
  141TMC2    O1 2202   1.181   0.589  14.999 -0.4166  0.5340  0.5144
  141TMC2    O2 2203   1.256   0.117  15.486  0.6167  0.4525  0.2504
  141TMC2    O5 2204   1.215   0.339  15.508  0.0778  0.1498  0.1458
  141TMC2    H5 2205   1.243   0.423  15.466  0.8011 -0.3708 -0.4179
  142TMC2    C1 2206   3.556   3.402  10.118 -0.2942  0.3738 -0.0513
  142TMC2    C2 2207   3.443   3.455  10.061 -0.2154 -0.6686 -0.7053
  142TMC2    C3 2208   3.459   3.574   9.993 -0.2288  0.7761 -0.6750
  142TMC2    C4 2209   3.678   3.466  10.100  0.0844  0.0969 -0.0497
  142TMC2    C5 2210   3.685   3.588  10.039 -0.0996 -0.2120 -0.2678
  142TMC2    C6 2211   3.577   3.648   9.995 -0.3771  0.3748 -0.6099
  142TMC2     C 2212   3.547   3.271  10.189 -1.1569 -0.1023  0.1517
  142TMC2     O 2213   3.439   3.215  10.194 -0.4181 -0.0175  0.0230
  142TMC2     H 2214   3.346   3.406  10.063 -0.6822  0.1728 -2.4832
  142TMC2    H1 2215   3.777   3.421  10.106 -0.0206  0.2902  2.8226
  142TMC2    H2 2216   3.569   3.751   9.962 -0.5770  0.4316 -0.3792
  142TMC2    C7 2217   3.807   3.655  10.048  0.1813 -0.4486  0.2774
  142TMC2    C8 2218   3.348   3.604   9.904 -0.4504  0.1231  0.2236
  142TMC2    O1 2219   3.891   3.613  10.125  1.1069  0.5470  0.3101
  142TMC2    O2 2220   3.238   3.547   9.916  0.1663  0.7243  0.5129
  142TMC2    O5 2221   3.399   3.658   9.792 -0.2807 -0.5081 -0.2370
  142TMC2    H5 2222   3.493   3.684   9.788 -0.3230 -0.5285 -1.3769
  143MPD2     C 2223   3.806   2.919  10.408  0.0514  0.3315 -0.3074
  143MPD2    C1 2224   3.679   2.908  10.355  0.3904  0.6106 -0.7129
  143MPD2    C2 2225   3.625   3.029  10.319  0.6857 -1.0514  0.0651
  143MPD2    C3 2226   3.689   3.150  10.347 -1.0032 -0.2823  0.4275
  143MPD2    C4 2227   3.799   3.152  10.426  0.0315 -0.6527  0.3710
  143MPD2    C5 2228   3.864   3.036  10.445  0.0502 -0.3127  0.2699
  143MPD2     H 2229   3.528   3.032  10.271  0.4065  1.3062  0.7659
  143MPD2    H1 2230   3.844   3.245  10.457 -0.1102 -0.2180 -0.7065
  143MPD2    H2 2231   3.856   2.825  10.426  1.2584  1.2622  1.1963
  143MPD2    H3 2232   3.963   3.029  10.489  0.1649 -1.7159 -0.1866
  143MPD2     N 2233   3.654   3.264  10.273 -0.2179 -0.1551 -0.2679
  143MPD2    H5 2234   3.723   3.338  10.280 -2.1533  1.6129  0.2921
  143MPD2    N1 2235   3.622   2.783  10.331 -0.2029 -0.4587 -0.0695
  143MPD2    H7 2236   3.675   2.705  10.370  0.5164  0.8468  1.5551
  144TMC2    C1 2237   2.073   2.977   0.881  0.1680 -0.4873 -0.2149
  144TMC2    C2 2238   2.084   2.844   0.871 -0.2968 -0.3315  1.0320
  144TMC2    C3 2239   2.208   2.794   0.910 -0.1983  0.1177 -0.3072
  144TMC2    C4 2240   2.171   3.060   0.935  0.7732 -0.4107 -0.1882
  144TMC2    C5 2241   2.285   3.008   0.981 -0.3148  0.3983 -0.6313
  144TMC2    C6 2242   2.310   2.872   0.959 -0.5246 -1.1389 -0.0754
  144TMC2     C 2243   1.966   3.040   0.811 -0.6183 -0.4756 -0.5409
  144TMC2     O 2244   1.936   3.153   0.856 -0.6037  0.5469 -0.3589
  144TMC2     H 2245   2.005   2.775   0.843 -0.7221  0.6115 -0.1192
  144TMC2    H1 2246   2.170   3.165   0.908 -0.0498 -0.5857 -0.8542
  144TMC2    H2 2247   2.412   2.841   0.977  0.1637  2.0853  1.4918
  144TMC2    C7 2248   2.370   3.079   1.076 -0.1710 -0.5454  0.4582
  144TMC2    C8 2249   2.227   2.646   0.880 -0.4803 -0.1317  0.7099
  144TMC2    O1 2250   2.461   3.015   1.127  0.0951  0.0268 -0.2880
  144TMC2    O2 2251   2.181   2.606   0.774 -0.4958  0.3942 -0.4180
  144TMC2    O5 2252   2.347   2.615   0.936 -0.2283 -0.1296  0.0910
  144TMC2    H5 2253   2.367   2.658   1.022  1.1393  1.2417 -0.9268
  145MPD2     C 2254   1.623   3.100   0.438  0.5591  0.7252 -0.6034
  145MPD2    C1 2255   1.666   2.960   0.438  0.2719 -0.3434 -0.0927
  145MPD2    C2 2256   1.772   2.919   0.519  0.0963  0.3060 -0.2921
  145MPD2    C3 2257   1.821   3.012   0.612  0.0704  0.2065 -0.1798
  145MPD2    C4 2258   1.792   3.145   0.603 -0.2672 -0.3596  1.0167
  145MPD2    C5 2259   1.702   3.187   0.510  0.6772  0.0241 -0.8004
  145MPD2     H 2260   1.800   2.814   0.526  4.6324  1.4163 -1.3915
  145MPD2    H1 2261   1.838   3.222   0.665 -0.1579  0.1365  0.3165
  145MPD2    H2 2262   1.550   3.127   0.363 -0.1616 -0.5889 -0.3738
  145MPD2    H3 2263   1.672   3.291   0.502  0.1084 -0.0433  0.5244
  145MPD2     N 2264   1.921   2.967   0.706 -0.0032 -0.8673 -0.3317
  145MPD2    H5 2265   1.948   2.870   0.699  1.5439 -0.5733  1.4330
  145MPD2    N1 2266   1.621   2.861   0.351 -0.0349 -0.2711  0.0245
  145MPD2    H7 2267   1.650   2.767   0.375 -0.1636 -0.4888 -0.6850
  146TMC2    C1 2268   3.440   2.104  13.371  0.5249  0.1067  0.2773
  146TMC2    C2 2269   3.408   2.234  13.348 -0.3922 -0.5371 -0.4165
  146TMC2    C3 2270   3.434   2.281  13.225 -0.2265 -0.0688 -0.0919
  146TMC2    C4 2271   3.483   2.024  13.265 -0.0093  0.2261 -0.6900
  146TMC2    C5 2272   3.490   2.075  13.141  0.2678  0.3866 -1.0102
  146TMC2    C6 2273   3.470   2.208  13.122  0.3968 -0.4230 -0.2585
  146TMC2     C 2274   3.386   2.052  13.493  0.7683 -0.0200  0.1644
  146TMC2     O 2275   3.309   2.121  13.556  0.3982 -0.6074 -0.3326
  146TMC2     H 2276   3.410   2.303  13.431 -1.5104 -2.6190  1.3646
  146TMC2    H1 2277   3.485   1.916  13.276 -0.5356  0.3432  0.5394
  146TMC2    H2 2278   3.492   2.250  13.024 -1.3358 -0.4978 -0.6754
  146TMC2    C7 2279   3.540   1.992  13.036  0.3687 -0.8429  0.0124
  146TMC2    C8 2280   3.438   2.428  13.203 -0.1592  0.2718  0.6452
  146TMC2    O1 2281   3.529   2.028  12.920  0.4490  0.0285  0.1574
  146TMC2    O2 2282   3.525   2.486  13.149  0.3164  0.0380  0.1808
  146TMC2    O5 2283   3.305   2.464  13.196  0.6765 -0.0445  0.4181
  146TMC2    H5 2284   3.245   2.407  13.248 -0.8169 -0.1929 -1.4907
  147MPD2     C 2285   3.808   1.569  12.881  0.4621  0.6301  0.7374
  147MPD2    C1 2286   3.827   1.595  13.018 -0.0623 -0.9480  0.5150
  147MPD2    C2 2287   3.761   1.709  13.073  0.1887  0.9936 -0.4652
  147MPD2    C3 2288   3.675   1.787  13.001 -0.1492 -0.2516  0.0634
  147MPD2    C4 2289   3.655   1.765  12.868  0.7524  0.5059 -0.6821
  147MPD2    C5 2290   3.727   1.659  12.810 -0.4104 -0.2759 -0.5858
  147MPD2     H 2291   3.793   1.738  13.173  2.4964  0.2173 -0.9770
  147MPD2    H1 2292   3.596   1.829  12.804 -2.6657 -0.5054  1.4580
  147MPD2    H2 2293   3.864   1.485  12.841 -2.3743 -0.6854 -0.4788
  147MPD2    H3 2294   3.709   1.651  12.704 -0.0485 -1.4802 -0.5534
  147MPD2     N 2295   3.615   1.883  13.084 -0.2818  0.6928  0.5416
  147MPD2    H5 2296   3.642   1.875  13.182  2.1876  1.8512 -0.0263
  147MPD2    N1 2297   3.911   1.507  13.094 -0.7401  0.4280  0.0397
  147MPD2    H7 2298   3.965   1.434  13.049  1.6609  1.3507  1.4038
  148TMC2    C1 2299   4.443   4.351  10.594  0.1004 -0.8091  0.4461
  148TMC2    C2 2300   4.554   4.287  10.539 -0.0123 -0.6577 -0.2004
  148TMC2    C3 2301   4.582   4.160  10.584 -0.7383  0.2911  0.4486
  148TMC2    C4 2302   4.370   4.288  10.684 -0.2624 -0.4541 -0.5789
  148TMC2    C5 2303   4.393   4.153  10.719  0.1912  0.0426 -0.3873
  148TMC2    C6 2304   4.502   4.088  10.674  0.7863  0.1873  0.7446
  148TMC2     C 2305   4.408   4.484  10.553 -0.0838 -0.2198  0.3046
  148TMC2     O 2306   4.494   4.549  10.492 -0.5396  0.4605  0.5336
  148TMC2     H 2307   4.611   4.324  10.455  0.3799  0.7386  0.6820
  148TMC2    H1 2308   4.294   4.338  10.743 -0.1589 -1.8868  0.7823
  148TMC2    H2 2309   4.526   3.985  10.695  0.3386 -0.1901 -0.6129
  148TMC2    C7 2310   4.281   4.088  10.779  0.5103  0.0426  0.0790
  148TMC2    C8 2311   4.697   4.089  10.524 -0.5378 -0.1831 -0.1868
  148TMC2    O1 2312   4.169   4.146  10.778 -0.3782  0.0402  0.5160
  148TMC2    O2 2313   0.022   4.008  10.591  0.1905 -0.2003  0.1203
  148TMC2    O5 2314   4.650   4.058  10.399 -0.1207  0.3519 -0.7991
  148TMC2    H5 2315   4.572   4.112  10.374 -1.1141 -1.2325 -1.1304
  149MPD2     C 2316   4.240   4.716  10.448  0.3678 -0.4426  0.5248
  149MPD2    C1 2317   4.188   4.599  10.509  1.3415  0.0571 -0.1658
  149MPD2    C2 2318   4.059   4.580  10.528 -0.2671 -0.1359 -0.3096
  149MPD2    C3 2319   3.968   4.675  10.487  0.7407  0.5563 -0.6474
  149MPD2    C4 2320   4.017   0.052  10.425  0.0572 -0.6524  0.3666
  149MPD2    C5 2321   4.151   0.080  10.412  1.0814 -0.5945  0.0396
  149MPD2     H 2322   4.029   4.484  10.568 -0.4324 -0.3855 -1.0481
  149MPD2    H1 2323   3.946   0.128  10.393  0.9218  0.1164  0.2559
  149MPD2    H2 2324   4.344   4.727  10.419  0.6802  1.2647  2.2755
  149MPD2    H3 2325   4.187   0.169  10.362 -1.4748 -0.0459 -0.8339
  149MPD2     N 2326   3.824   4.666  10.501 -0.7254 -0.3863  0.1750
  149MPD2    H5 2327   3.769   4.735  10.451 -0.3038 -1.7272 -2.1574
  149MPD2    N1 2328   4.267   4.494  10.551 -0.8070  0.2202  0.1453
  149MPD2    H7 2329   4.223   4.412  10.592 -1.6808  1.0678  0.9026
  150TMC2    C1 2330   0.614   4.056  12.912  0.5334  0.1422  0.6642
  150TMC2    C2 2331   0.532   4.160  12.897  0.8280 -0.2030 -0.5271
  150TMC2    C3 2332   0.593   4.278  12.870 -0.0813 -0.1870  0.1068
  150TMC2    C4 2333   0.749   4.060  12.904  0.9643  0.5289  0.1768
  150TMC2    C5 2334   0.801   4.184  12.881  0.7283 -0.0265 -0.5981
  150TMC2    C6 2335   0.727   4.297  12.871 -0.0219 -0.1441  0.3785
  150TMC2     C 2336   0.557   3.919  12.919  0.2335 -0.4578  0.2057
  150TMC2     O 2337   0.619   3.823  12.969  0.1298 -0.3574 -0.1793
  150TMC2     H 2338   0.427   4.161  12.924  1.3159  1.9542  1.2408
  150TMC2    H1 2339   0.800   3.966  12.922 -0.0253 -0.2131 -0.9552
  150TMC2    H2 2340   0.768   4.385  12.822  3.0948 -0.8318  1.7548
  150TMC2    C7 2341   0.941   4.197  12.844 -0.7884 -0.4195 -0.0804
  150TMC2    C8 2342   0.511   4.389  12.904 -0.0650  0.6034  0.1106
  150TMC2    O1 2343   0.999   4.300  12.857 -0.0903 -0.5724  0.1128
  150TMC2    O2 2344   0.557   4.496  12.951 -0.3320 -0.0751  0.0941
  150TMC2    O5 2345   0.412   4.387  12.810 -0.0640 -0.0442  0.8802
  150TMC2    H5 2346   0.410   4.302  12.762  0.2466  0.5408 -0.1538
  151MPD2     C 2347   0.207   3.579  12.816  0.0899  0.2707 -0.2745
  151MPD2    C1 2348   0.201   3.679  12.715 -0.4503  0.0837  0.4130
  151MPD2    C2 2349   0.265   3.802  12.739  0.0751  0.1736 -0.3242
  151MPD2    C3 2350   0.344   3.809  12.854 -0.5618 -0.2947 -0.6514
  151MPD2    C4 2351   0.343   3.711  12.944  0.0474 -0.0617  0.1201
  151MPD2    C5 2352   0.286   3.595  12.920 -0.1958  0.1058  0.1321
  151MPD2     H 2353   0.272   3.874  12.658 -0.2169 -0.0056 -0.5108
  151MPD2    H1 2354   0.391   3.734  13.039  0.9650 -0.7721 -0.1661
  151MPD2    H2 2355   0.170   3.480  12.791  0.5635 -0.3297  1.3798
  151MPD2    H3 2356   0.301   3.512  12.988 -0.2868 -1.4679 -1.7507
  151MPD2     N 2357   0.432   3.917  12.856  0.7389 -0.1977 -0.2684
  151MPD2    H5 2358   0.411   4.003  12.806 -0.0293  1.5053  3.0264
  151MPD2    N1 2359   0.116   3.655  12.603 -0.2425 -0.0099 -0.5671
  151MPD2    H7 2360   0.069   3.565  12.604 -0.8362  0.3326  1.4626
  152TMC2    C1 2361   0.629   3.376  13.395 -0.4604 -0.3126  0.0684
  152TMC2    C2 2362   0.730   3.292  13.405 -0.0296  0.0460  0.0104
  152TMC2    C3 2363   0.856   3.347  13.406 -0.5431 -0.1678  0.2157
  152TMC2    C4 2364   0.648   3.513  13.404 -0.5169 -0.2490 -0.0758
  152TMC2    C5 2365   0.768   3.566  13.416 -0.2652 -0.7192  0.3245
  152TMC2    C6 2366   0.873   3.484  13.415  0.1014 -0.3160  0.0959
  152TMC2     C 2367   0.497   3.332  13.360  0.3026  0.2599 -0.3209
  152TMC2     O 2368   0.467   3.216  13.378  0.0064 -0.3881  0.0250
  152TMC2     H 2369   0.705   3.188  13.390  0.5764 -0.1239  0.2133
  152TMC2    H1 2370   0.577   3.594  13.407 -1.5125 -1.1086 -0.6689
  152TMC2    H2 2371   0.974   3.520  13.426 -0.4329  0.9040  1.0725
  152TMC2    C7 2372   0.786   3.714  13.398  0.5547 -0.3285 -0.6424
  152TMC2    C8 2373   0.973   3.266  13.396  0.2751 -0.5476  0.0679
  152TMC2    O1 2374   0.700   3.790  13.442  0.4329  0.1462 -0.1142
  152TMC2    O2 2375   1.083   3.301  13.437  0.4567 -0.6017  0.2001
  152TMC2    O5 2376   0.929   3.142  13.367 -0.1387  0.2186 -0.0757
  152TMC2    H5 2377   0.863   3.133  13.295 -0.3625  0.6378  0.0798
  153MPD2     C 2378   0.198   3.316  13.281  0.1871  0.4082  0.0117
  153MPD2    C1 2379   0.278   3.431  13.286  0.4500  0.2419 -0.0689
  153MPD2    C2 2380   0.226   3.560  13.247  0.4353 -0.2641  1.0285
  153MPD2    C3 2381   0.103   3.562  13.182  0.4009  0.6179 -0.7278
  153MPD2    C4 2382   0.033   3.443  13.169  0.2373  0.6627  0.1062
  153MPD2    C5 2383   0.074   3.319  13.218 -0.2230  0.6291  0.3070
  153MPD2     H 2384   0.287   3.649  13.261  0.0262 -0.0418  1.4013
  153MPD2    H1 2385   4.684   3.436  13.104  1.3969  0.1932 -1.3993
  153MPD2    H2 2386   0.234   3.218  13.312  0.5615  0.3798 -0.5285
  153MPD2    H3 2387   0.012   3.231  13.207  3.6853 -2.0016 -0.7051
  153MPD2     N 2388   0.056   3.684  13.124  0.4800  0.2041 -0.0950
  153MPD2    H5 2389   0.111   3.768  13.142  0.3077  0.8585 -2.7405
  153MPD2    N1 2390   0.417   3.439  13.327 -0.3127  0.6623 -0.9721
  153MPD2    H7 2391   0.462   3.529  13.318  0.6223  0.1845 -1.0303
  154TMC2    C1 2392   1.035   4.133   0.641 -0.3734  0.6465  0.0098
  154TMC2    C2 2393   0.911   4.142   0.693 -0.1493  0.1284 -0.3053
  154TMC2    C3 2394   0.831   4.041   0.645  0.4659 -0.0955  0.1680
  154TMC2    C4 2395   1.082   4.027   0.565  0.0923 -0.4925 -0.0159
  154TMC2    C5 2396   0.998   3.916   0.549  0.4290  0.5488 -0.2952
  154TMC2    C6 2397   0.868   3.923   0.588 -0.0477 -0.5718  0.3367
  154TMC2     C 2398   1.134   4.238   0.682  0.0536 -0.0185 -0.6389
  154TMC2     O 2399   1.090   4.321   0.763  0.0898 -0.0630  0.9155
  154TMC2     H 2400   0.867   4.230   0.738  0.4659 -0.2476  1.0145
  154TMC2    H1 2401   1.188   4.035   0.545  0.2243 -0.1936  0.7869
  154TMC2    H2 2402   0.786   3.856   0.565 -1.4348  0.8824  1.0478
  154TMC2    C7 2403   1.047   3.796   0.476  0.3609  0.4887 -0.1814
  154TMC2    C8 2404   0.695   4.045   0.690 -0.1259 -0.1306  0.0753
  154TMC2    O1 2405   0.968   3.701   0.466 -0.4922 -0.5525 -0.6359
  154TMC2    O2 2406   0.622   4.142   0.681  0.1250 -0.1568  0.1817
  154TMC2    O5 2407   0.679   3.926   0.761 -0.1480  0.6270  0.0912
  154TMC2    H5 2408   0.753   3.861   0.765 -2.1065 -1.5296  1.6133
  155MPD2     C 2409   1.477   4.306   0.569  0.0373 -0.4356  0.5562
  155MPD2    C1 2410   1.354   4.337   0.637  0.0545 -0.7211  0.0212
  155MPD2    C2 2411   1.349   4.453   0.711 -0.8615 -0.3552  0.9131
  155MPD2    C3 2412   1.456   4.540   0.722  0.0194  0.2337  0.8762
  155MPD2    C4 2413   1.574   4.510   0.653  0.3105 -0.3149 -0.5624
  155MPD2    C5 2414   1.582   4.393   0.585 -0.2035 -0.3167  0.0146
  155MPD2     H 2415   1.263   4.482   0.771 -0.4120  0.2105  1.2778
  155MPD2    H1 2416   1.656   4.580   0.646  1.1164 -1.1028  0.9364
  155MPD2    H2 2417   1.486   4.210   0.520  2.7918 -0.2295  0.6803
  155MPD2    H3 2418   1.669   4.387   0.521  1.2863  0.3404  1.9911
  155MPD2     N 2419   1.433   4.662   0.784  0.6871  0.0626  0.2427
  155MPD2    H5 2420   1.341   4.679   0.825  0.8045 -1.2603  1.0715
  155MPD2    N1 2421   1.253   4.241   0.624  0.0428  0.1555  0.4309
  155MPD2    H7 2422   1.274   4.170   0.554 -0.0367 -0.2785  0.8524
  156TMC2    C1 2423   1.509   1.336  11.835 -0.2500 -0.3208 -0.0235
  156TMC2    C2 2424   1.584   1.262  11.746 -0.5393  0.4533 -0.4339
  156TMC2    C3 2425   1.560   1.295  11.614 -0.3180  0.2930 -0.4540
  156TMC2    C4 2426   1.418   1.432  11.802  1.2312  0.4617 -0.4396
  156TMC2    C5 2427   1.400   1.445  11.666 -0.0896 -0.4911 -0.3069
  156TMC2    C6 2428   1.463   1.378  11.568 -0.4839 -0.4883 -0.7608
  156TMC2     C 2429   1.534   1.323  11.977 -0.4934 -0.4778  1.2878
  156TMC2     O 2430   1.454   1.367  12.057 -0.2191 -0.2073 -0.1251
  156TMC2     H 2431   1.649   1.177  11.765 -2.0244 -0.2637  1.4131
  156TMC2    H1 2432   1.358   1.492  11.869  1.4237  0.9811 -0.7285
  156TMC2    H2 2433   1.442   1.415  11.469 -0.0687 -1.7261 -1.3130
  156TMC2    C7 2434   1.283   1.521  11.621 -0.4707 -0.6973 -0.6554
  156TMC2    C8 2435   1.631   1.222  11.517  0.0359  0.4391  0.0119
  156TMC2    O1 2436   1.284   1.583  11.517  0.1696  0.6240 -0.3077
  156TMC2    O2 2437   1.737   1.167  11.534  0.1869  0.2310 -0.1045
  156TMC2    O5 2438   1.540   1.189  11.425  0.1019 -0.2716 -0.1381
  156TMC2    H5 2439   1.464   1.250  11.427 -0.1284 -0.5372 -0.7066
  157MPD2     C 2440   1.823   1.174  12.165 -0.0266  0.4439  0.1682
  157MPD2    C1 2441   1.693   1.218  12.136  0.1706 -0.4382 -0.2198
  157MPD2    C2 2442   1.609   1.227  12.249 -0.1975 -0.5986 -0.3247
  157MPD2    C3 2443   1.653   1.213  12.379  0.0543 -0.0035  0.1823
  157MPD2    C4 2444   1.786   1.176  12.394  0.7835  0.6102  0.7792
  157MPD2    C5 2445   1.871   1.157  12.291 -0.8368  0.0222  0.4442
  157MPD2     H 2446   1.506   1.260  12.244  0.9130  3.1693  1.1464
  157MPD2    H1 2447   1.812   1.167  12.499  0.7366 -0.3817  0.6974
  157MPD2    H2 2448   1.890   1.163  12.081 -0.5921  1.2955 -0.3933
  157MPD2    H3 2449   1.975   1.128  12.303 -1.2854 -1.2150  1.4180
  157MPD2     N 2450   1.558   1.229  12.483 -0.3615  0.0227 -0.0211
  157MPD2    H5 2451   1.466   1.259  12.455  0.7432  0.1320 -3.5217
  157MPD2    N1 2452   1.656   1.257  12.000  0.2870 -0.1996  0.1085
  157MPD2    H7 2453   1.730   1.247  11.931 -2.3381 -0.1511 -2.7199
  158TMC2    C1 2454   0.862   4.672  13.724 -0.3996 -0.2956  0.4493
  158TMC2    C2 2455   0.920   0.059  13.705 -0.1517  0.4058 -0.0999
  158TMC2    C3 2456   0.837   0.170  13.711 -0.3511  0.0163 -0.5474
  158TMC2    C4 2457   0.728   4.652  13.750  0.1051  0.5322 -0.1638
  158TMC2    C5 2458   0.660   0.025  13.779  0.5503 -0.4888  0.3077
  158TMC2    C6 2459   0.710   0.155  13.758 -0.5863 -0.8995 -0.4679
  158TMC2     C 2460   0.953   4.566  13.743  0.1719 -0.7816 -0.7116
  158TMC2     O 2461   1.066   4.595  13.706  1.0735 -0.4603  0.7582
  158TMC2     H 2462   1.025   0.074  13.680 -0.5572  1.1371 -1.3546
  158TMC2    H1 2463   0.683   4.554  13.743 -0.7776  0.8654  0.9353
  158TMC2    H2 2464   0.655   0.247  13.777  0.0620 -0.9601  1.7021
  158TMC2    C7 2465   0.517   0.032  13.820  0.2121 -0.1607  0.5688
  158TMC2    C8 2466   0.899   0.289  13.765  0.1379 -0.4074  0.4634
  158TMC2    O1 2467   0.460   0.140  13.801 -0.3440 -0.4193 -0.1239
  158TMC2    O2 2468   0.857   0.348  13.860  0.2287 -0.0114  0.6105
  158TMC2    O5 2469   0.978   0.342  13.672 -0.2459  0.0820 -0.1220
  158TMC2    H5 2470   0.999   0.282  13.597  0.9775 -0.2033  0.4412
  159MPD2     C 2471   1.112   4.179  14.053 -0.9319 -0.0876  0.1641
  159MPD2    C1 2472   0.979   4.200  14.073  0.2544 -0.3368 -0.5626
  159MPD2    C2 2473   0.916   4.290  13.993 -0.1669  0.2428  0.5105
  159MPD2    C3 2474   0.980   4.360  13.889 -0.1483  0.1138 -0.1829
  159MPD2    C4 2475   1.114   4.335  13.871  0.3296  0.0146  0.3972
  159MPD2    C5 2476   1.178   4.246  13.954 -0.6676  0.3091  0.2188
  159MPD2     H 2477   0.813   4.298  14.027  0.2184  0.2691  1.6543
  159MPD2    H1 2478   1.161   4.383  13.787  1.2792  0.5341  1.2228
  159MPD2    H2 2479   1.165   4.111  14.118  1.4792 -0.8686 -2.6569
  159MPD2    H3 2480   1.283   4.219  13.942 -0.4313  1.4175 -0.2374
  159MPD2     N 2481   0.910   4.455  13.814 -0.3487  0.0569  0.1526
  159MPD2    H5 2482   0.810   4.461  13.833 -0.1017 -2.1449  2.0769
  159MPD2    N1 2483   0.920   4.129  14.178  0.0043  0.2649 -0.3865
  159MPD2    H7 2484   0.980   4.059  14.222 -2.0535 -1.2608  0.0016
  160TMC2    C1 2485   0.763   2.696   1.344 -0.0122 -0.4412  1.3407
  160TMC2    C2 2486   0.819   2.574   1.361 -0.1341  0.5163  0.2876
  160TMC2    C3 2487   0.950   2.565   1.344 -0.0031 -0.4154  0.1610
  160TMC2    C4 2488   0.838   2.810   1.331 -0.1304 -0.0307 -0.0074
  160TMC2    C5 2489   0.971   2.794   1.310 -0.0252 -0.4921 -0.2290
  160TMC2    C6 2490   1.030   2.672   1.317 -0.6362  0.3883 -0.3887
  160TMC2     C 2491   0.616   2.696   1.327 -0.6485  0.6398 -0.1941
  160TMC2     O 2492   0.561   2.588   1.338 -0.5776 -0.2767 -0.5757
  160TMC2     H 2493   0.757   2.485   1.371 -0.0357  0.4533  0.3488
  160TMC2    H1 2494   0.793   2.906   1.309  0.9816  0.6154  0.5247
  160TMC2    H2 2495   1.132   2.653   1.286 -0.6879  3.0186 -2.1152
  160TMC2    C7 2496   1.037   2.887   1.221  0.5905  0.5584 -0.2856
  160TMC2    C8 2497   1.018   2.438   1.371  0.3370 -0.1341  0.1897
  160TMC2    O1 2498   1.123   2.849   1.142  0.1771  0.3567 -0.5397
  160TMC2    O2 2499   1.134   2.412   1.334  0.2821 -0.3902  0.4196
  160TMC2    O5 2500   0.966   2.380   1.483  0.3893 -0.0159 -0.1469
  160TMC2    H5 2501   0.884   2.412   1.527  0.8505  0.7159  0.1877
  161MPD2     C 2502   0.343   2.746   1.218 -0.4396 -0.7868  0.0095
  161MPD2    C1 2503   0.430   2.844   1.259 -0.0713  0.3156 -0.0890
  161MPD2    C2 2504   0.389   2.974   1.257  0.1916 -0.0690  0.0480
  161MPD2    C3 2505   0.257   3.005   1.229 -0.2356 -1.2431  0.5022
  161MPD2    C4 2506   0.175   2.910   1.189  0.1623 -0.0033 -0.8749
  161MPD2    C5 2507   0.213   2.777   1.188  0.3028  0.4259  0.0289
  161MPD2     H 2508   0.468   3.044   1.283  0.9474 -0.4315 -1.2576
  161MPD2    H1 2509   0.069   2.923   1.173 -0.0830 -0.0543  0.7336
  161MPD2    H2 2510   0.373   2.642   1.219  1.4790 -0.2361  0.7551
  161MPD2    H3 2511   0.141   2.700   1.162 -1.2285  1.5416  0.9774
  161MPD2     N 2512   0.210   3.134   1.248  0.2079  0.3227 -0.3477
  161MPD2    H5 2513   0.109   3.140   1.247  0.1179 -0.6825  2.0564
  161MPD2    N1 2514   0.562   2.820   1.312 -0.3767  0.6214  0.0733
  161MPD2    H7 2515   0.618   2.897   1.348  1.0967 -1.2882  1.8504
  162TMC2    C1 2516   3.515   0.413   1.655 -0.0831  0.4066  0.3780
  162TMC2    C2 2517   3.439   0.496   1.731 -0.3947  0.1830 -0.2222
  162TMC2    C3 2518   3.477   0.537   1.856 -0.3115 -0.0782  0.0484
  162TMC2    C4 2519   3.637   0.379   1.698 -0.4341  0.8097 -0.2620
  162TMC2    C5 2520   3.682   0.431   1.822 -0.1233 -0.6473  0.1174
  162TMC2    C6 2521   3.598   0.502   1.913 -0.0645  0.6358 -0.4345
  162TMC2     C 2522   3.471   0.383   1.517  0.0228  0.1441  0.2533
  162TMC2     O 2523   3.556   0.359   1.434  0.3171  0.2513 -0.3852
  162TMC2     H 2524   3.348   0.543   1.696  0.4434  1.7308 -0.3168
  162TMC2    H1 2525   3.702   0.322   1.634  1.8268  2.5484  0.4813
  162TMC2    H2 2526   3.633   0.532   2.011  0.4932 -1.2556 -0.0597
  162TMC2    C7 2527   3.810   0.380   1.878  0.5848  0.3534 -0.1818
  162TMC2    C8 2528   3.387   0.631   1.919  0.5139 -0.2901 -1.1019
  162TMC2    O1 2529   3.855   0.424   1.983 -0.2399  0.2438  0.0990
  162TMC2    O2 2530   3.287   0.678   1.866 -0.3721  0.0121 -0.1257
  162TMC2    O5 2531   3.461   0.675   2.024 -0.4528 -0.0672 -0.0384
  162TMC2    H5 2532   3.412   0.723   2.094  0.9840 -0.4590  1.2347
  163MPD2     C 2533   3.109   0.336   1.155 -0.8972 -1.0550  0.0301
  163MPD2    C1 2534   3.245   0.331   1.145 -0.0066 -0.4970 -0.4736
  163MPD2    C2 2535   3.319   0.338   1.261 -0.4222  0.1619  0.2147
  163MPD2    C3 2536   3.262   0.375   1.377 -0.3486  0.7582  0.1803
  163MPD2    C4 2537   3.129   0.388   1.381  0.4826 -0.4477 -0.8444
  163MPD2    C5 2538   3.060   0.373   1.272 -0.1031  0.6843  0.0385
  163MPD2     H 2539   3.425   0.319   1.264 -0.7583 -1.6492  0.8751
  163MPD2    H1 2540   3.081   0.398   1.477  3.1355  1.5917  0.2586
  163MPD2    H2 2541   3.044   0.340   1.068 -0.1903  0.3555 -0.4313
  163MPD2    H3 2542   2.953   0.385   1.275 -0.3126 -1.4074  0.9099
  163MPD2     N 2543   3.332   0.394   1.501  0.2542 -0.5433 -0.0792
  163MPD2    H5 2544   3.276   0.427   1.580 -1.3095 -2.1589 -0.5012
  163MPD2    N1 2545   3.304   0.322   1.021  0.3234  0.0457 -0.6549
  163MPD2    H7 2546   3.242   0.307   0.942  2.1459 -2.4006 -1.6223
  164TMC2    C1 2547   4.231   4.375  11.178  0.3178 -0.2668  0.4485
  164TMC2    C2 2548   4.352   4.409  11.131 -0.6531 -0.2884 -0.3984
  164TMC2    C3 2549   4.362   4.541  11.096 -0.1108  0.0710  0.1206
  164TMC2    C4 2550   4.125   4.467  11.186 -0.2082  0.6854  0.3798
  164TMC2    C5 2551   4.145   4.593  11.144 -0.0659 -0.4538  0.3335
  164TMC2    C6 2552   4.267   4.632  11.095  0.1665  0.3084  0.3012
  164TMC2     C 2553   4.203   4.240  11.223  0.5743 -0.4371 -0.9293
  164TMC2     O 2554   4.092   4.225  11.272 -0.1926  0.4487 -0.1956
  164TMC2     H 2555   4.440   4.346  11.131  1.3518  2.4817 -0.1040
  164TMC2    H1 2556   4.024   4.443  11.218  0.3782 -0.7265  1.1747
  164TMC2    H2 2557   4.267   4.726  11.042 -1.5406 -0.8984 -1.8491
  164TMC2    C7 2558   4.045   4.684  11.159  0.3418 -0.4698  0.3971
  164TMC2    C8 2559   4.490   4.588  11.045 -0.0179 -0.1696 -0.1528
  164TMC2    O1 2560   3.931   4.638  11.164 -0.4482  0.1184  0.4993
  164TMC2    O2 2561   4.558   4.526  10.966 -0.0137 -0.4977  0.4669
  164TMC2    O5 2562   4.521   4.680  11.137  0.2925  0.2657 -0.2674
  164TMC2    H5 2563   4.441   4.698  11.190  0.8625 -1.0285  1.0359
  165TMC2    C1 2564   0.501   2.385   1.024  0.0449  0.7258 -0.0035
  165TMC2    C2 2565   0.434   2.372   0.908 -0.5508  0.0667  0.2469
  165TMC2    C3 2566   0.473   2.447   0.801 -0.6127  0.7501 -0.5324
  165TMC2    C4 2567   0.610   2.469   1.041  0.3048 -1.0783  0.1992
  165TMC2    C5 2568   0.646   2.550   0.927 -0.2244 -0.7176  0.2557
  165TMC2    C6 2569   0.574   2.542   0.816  0.6890  0.0212  0.3087
  165TMC2     C 2570   0.469   2.285   1.125  0.2097  0.2762 -0.4188
  165TMC2     O 2571   0.353   2.243   1.124  0.0413  0.1096 -0.0089
  165TMC2     H 2572   0.358   2.295   0.904 -1.5029  0.9168  2.3406
  165TMC2    H1 2573   0.677   2.483   1.125  0.1527  1.9923 -0.1899
  165TMC2    H2 2574   0.595   2.618   0.742 -0.9867  1.0691  0.9039
  165TMC2    C7 2575   0.778   2.603   0.924 -0.4838 -0.6062  0.5580
  165TMC2    C8 2576   0.396   2.434   0.678 -0.1186 -0.5640 -0.1689
  165TMC2    O1 2577   0.824   2.635   1.032  0.9858  0.5694 -0.1642
  165TMC2    O2 2578   0.360   2.325   0.639 -0.1429 -0.3169 -0.0033
  165TMC2    O5 2579   0.334   2.556   0.647  0.3696  0.0414 -0.1815
  165TMC2    H5 2580   0.365   2.633   0.700 -2.5202 -0.5832  2.4068
  166MPD2     C 2581   0.623   1.974   1.509 -0.3933 -0.6205  0.0535
  166MPD2    C1 2582   0.499   1.987   1.451 -0.7048  0.1307 -0.3070
  166MPD2    C2 2583   0.486   2.072   1.343 -0.9527 -0.0043 -0.0063
  166MPD2    C3 2584   0.594   2.134   1.288  0.6200  0.6989 -0.1826
  166MPD2    C4 2585   0.720   2.107   1.344  0.6702 -0.2033 -0.0035
  166MPD2    C5 2586   0.729   2.032   1.453  0.2424 -0.0282 -0.3230
  166MPD2     H 2587   0.389   2.083   1.296 -0.5169  0.2621 -0.8519
  166MPD2    H1 2588   0.814   2.151   1.314  2.5095 -1.0832  4.4066
  166MPD2    H2 2589   0.632   1.910   1.596  0.5204  0.7862  0.9823
  166MPD2    H3 2590   0.827   2.009   1.493  0.1140  1.1071  0.6441
  166MPD2     N 2591   0.583   2.231   1.181  0.5841 -1.2012  0.8334
  166MPD2    H5 2592   0.672   2.264   1.147 -0.6113  0.7920 -0.3356
  166MPD2    N1 2593   0.391   1.918   1.514 -0.6365  0.5401 -0.0558
  166MPD2    H7 2594   0.414   1.855   1.590 -0.9661 -1.7115 -1.8329
  167TMC2    C1 2595   4.127   0.067  11.758 -0.2328  1.2416  0.4431
  167TMC2    C2 2596   4.213   0.125  11.674  0.7331 -0.0730  0.3230
  167TMC2    C3 2597   4.347   0.108  11.695 -0.2411  0.2417  0.2947
  167TMC2    C4 2598   4.166   0.013  11.879  0.6416  0.8136 -0.2674
  167TMC2    C5 2599   4.300   4.737  11.896  0.2340 -0.2221 -0.2847
  167TMC2    C6 2600   4.393   0.049  11.810 -0.2784  0.8813  0.2899
  167TMC2     C 2601   3.989   0.058  11.716  0.4332 -0.5669 -0.1553
  167TMC2     O 2602   3.975   0.053  11.597  0.3762  0.3698 -0.1460
  167TMC2     H 2603   4.186   0.171  11.580 -0.6725  0.0614  0.7986
  167TMC2    H1 2604   4.092   4.709  11.947  1.5334 -0.7347 -0.2481
  167TMC2    H2 2605   4.499   0.036  11.831 -0.2142 -1.2244 -1.3703
  167TMC2    C7 2606   4.356   4.647  12.000 -0.6107 -0.2109  0.3627
  167TMC2    C8 2607   4.423   0.201  11.620 -0.6348  0.0510 -0.0774
  167TMC2    O1 2608   4.475   4.629  12.014  0.3726 -0.8895 -0.4098
  167TMC2    O2 2609   4.394   0.232  11.504  0.1878  1.2301 -0.1065
  167TMC2    O5 2610   4.552   0.208  11.660  0.2526 -0.2309  0.1612
  167TMC2    H5 2611   4.558   0.184  11.755 -1.0220 -0.9135  0.0780
  168MPD2     C 2612   3.730   0.181  11.678 -0.1648  0.3736  0.9519
  168MPD2    C1 2613   3.778   0.146  11.801 -0.7851  0.5032 -0.6554
  168MPD2    C2 2614   3.710   0.185  11.909 -0.9237  0.7110  0.1216
  168MPD2    C3 2615   3.595   0.262  11.898  0.0534  0.1310  1.0118
  168MPD2    C4 2616   3.544   0.299  11.772  0.0753 -0.1873  0.3348
  168MPD2    C5 2617   3.610   0.255  11.661  0.2388 -0.6278 -1.2791
  168MPD2     H 2618   3.734   0.147  12.008  1.4694 -1.3707 -1.2622
  168MPD2    H1 2619   3.445   0.343  11.765  1.7471  3.6110  0.6989
  168MPD2    H2 2620   3.781   0.155  11.586 -1.6738  1.2312 -0.1289
  168MPD2    H3 2621   3.573   0.289  11.565 -1.3974  1.2885  0.0290
  168MPD2     N 2622   3.523   0.280  12.020 -0.4131 -0.3624 -0.4998
  168MPD2    H5 2623   3.560   0.247  12.109  0.5807  0.8009 -0.4769
  168MPD2    N1 2624   3.903   0.077  11.821  0.2068  0.5573 -0.4877
  168MPD2    H7 2625   3.939   0.080  11.916  2.8381 -0.5501 -1.4460
  169MPD1     C 2626   0.041   4.408   9.770 -0.6049  1.0517  0.4297
  169MPD1    C1 2627   0.133   4.424   9.870  0.1621 -0.5823 -0.0879
  169MPD1    C2 2628   0.228   4.322   9.892  0.0236  0.0833 -0.4515
  169MPD1    C3 2629   0.216   4.201   9.826  0.0575  0.2583 -1.2687
  169MPD1    C4 2630   0.102   4.176   9.748  0.5502 -0.0303 -0.1168
  169MPD1    C5 2631   0.021   4.283   9.717 -0.7768 -0.2223 -0.2035
  169MPD1     H 2632   0.312   4.344   9.957 -3.8791  0.5578  4.3779
  169MPD1    H1 2633   0.080   4.082   9.699 -0.7110  0.2792 -0.1451
  169MPD1    H2 2634   4.717   4.488   9.732 -0.9824  0.0869 -0.9764
  169MPD1    H3 2635   4.681   4.269   9.642 -0.6827  1.5602 -0.6319
  169MPD1     N 2636   0.309   4.099   9.861  0.0827  0.1892  0.2795
  169MPD1    H5 2637   0.394   4.133   9.904  1.7490 -0.2394 -2.6413
  169MPD1    N1 2638   0.165   4.546   9.926 -0.3408  0.9966  0.1820
  169MPD1    H6 2639   0.225   4.536  10.008 -1.4934 -0.7577  0.8306
  169MPD1    H7 2640   0.084   4.602   9.952 -0.4722  0.3402  1.2117
  170MPD1     C 2641   0.118   1.649  13.358  0.6265 -0.4579  0.0899
  170MPD1    C1 2642   0.051   1.608  13.470  0.1251 -0.8012  0.2917
  170MPD1    C2 2643   4.707   1.694  13.536  0.2951  0.2914 -0.0768
  170MPD1    C3 2644   4.672   1.815  13.481  0.5665 -0.5001 -0.3421
  170MPD1    C4 2645   0.008   1.860  13.374 -0.0242  0.6665 -0.4350
  170MPD1    C5 2646   0.101   1.778  13.315 -0.0552  0.0263  0.2064
  170MPD1     H 2647   4.655   1.669  13.628 -0.9925  0.3431 -0.7942
  170MPD1    H1 2648   4.729   1.960  13.335 -1.5610  0.4902 -0.2517
  170MPD1    H2 2649   0.171   1.577  13.297 -0.1787 -0.0733 -1.0569
  170MPD1    H3 2650   0.149   1.820  13.228  0.7921 -1.4920 -0.0437
  170MPD1     N 2651   4.570   1.879  13.537 -0.5856 -0.1899 -0.1855
  170MPD1    H5 2652   4.517   1.832  13.610 -0.9242  1.4999  0.6594
  170MPD1    N1 2653   0.091   1.489  13.535 -0.2680  0.4065  0.0760
  170MPD1    H6 2654   0.110   1.410  13.475 -4.1097  1.3425 -2.3877
  170MPD1    H7 2655   0.017   1.452  13.594 -1.1791  0.9606 -0.7096
  171MPD1     C 2656   2.554   3.410  15.386  0.2275  0.4037  0.3738
  171MPD1    C1 2657   2.489   3.291  15.407  0.0387 -0.4349  0.1684
  171MPD1    C2 2658   2.527   3.217  15.517 -0.0304  0.4933 -0.2248
  171MPD1    C3 2659   2.628   3.258  15.604 -0.0760 -0.1585 -0.0818
  171MPD1    C4 2660   2.689   3.377  15.574  0.3729 -0.5634 -0.8613
  171MPD1    C5 2661   2.654   3.451  15.469  0.5045 -0.0904  0.6086
  171MPD1     H 2662   2.473   3.128  15.546  0.5923 -0.1321 -0.9761
  171MPD1    H1 2663   2.762   3.420  15.641 -1.1423 -0.2443  0.5894
  171MPD1    H2 2664   2.518   3.469  15.302 -1.2075 -1.9120 -0.6249
  171MPD1    H3 2665   2.687   3.554  15.458  0.0631 -0.1848 -1.5490
  171MPD1     N 2666   2.680   3.181  15.709 -0.0360  0.0387 -0.0261
  171MPD1    H5 2667   2.759   3.226  15.754  1.9551 -0.5169 -2.9997
  171MPD1    N1 2668   2.385   3.255  15.320 -0.0611  0.5056 -0.5019
  171MPD1    H6 2669   2.422   3.299  15.236  0.4048 -1.6930 -1.4579
  171MPD1    H7 2670   2.383   3.157  15.294 -1.8111  0.7658 -1.3382
  172MPD1     C 2671   2.186   2.519   0.043 -0.7228  0.5849 -1.1571
  172MPD1    C1 2672   2.059   2.569   0.005 -0.0906  0.1266  0.0616
  172MPD1    C2 2673   2.029   2.699   0.046 -0.0112  0.0926  0.5128
  172MPD1    C3 2674   2.108   2.762   0.140 -0.4037  0.7179 -0.1015
  172MPD1    C4 2675   2.224   2.706   0.180 -0.7113 -0.6553  0.3014
  172MPD1    C5 2676   2.267   2.586   0.129 -0.2453  0.0790 -0.5536
  172MPD1     H 2677   1.928   2.731   0.021 -0.1010 -1.2006 -0.7866
  172MPD1    H1 2678   2.286   2.752   0.256  1.7353 -1.5142 -1.2100
  172MPD1    H2 2679   2.226   2.424   0.010  2.0906  0.8036  1.5703
  172MPD1    H3 2680   2.360   2.539   0.159  0.3597  2.1176  0.7801
  172MPD1     N 2681   2.060   2.882   0.198 -0.5787 -0.0500  0.0980
  172MPD1    H5 2682   2.115   2.919   0.275 -0.9378  0.0013  0.3326
  172MPD1    N1 2683   1.981   2.489  17.664 -0.0857 -0.6839  0.1292
  172MPD1    H6 2684   1.889   2.533  17.654  1.7886  3.1549 -0.3356
  172MPD1    H7 2685   1.979   2.398  17.710  2.1866 -0.1585  1.2212
  173MPD1     C 2686   3.333   2.986  14.132 -0.5985 -0.4276 -0.8548
  173MPD1    C1 2687   3.222   2.953  14.211 -0.1915  0.7785  0.5427
  173MPD1    C2 2688   3.230   2.854  14.300  0.4101  0.3367  0.1053
  173MPD1    C3 2689   3.335   2.759  14.290 -0.8995 -0.1990  0.1436
  173MPD1    C4 2690   3.430   2.779  14.201 -0.8043 -0.7036  0.3582
  173MPD1    C5 2691   3.430   2.895  14.116  0.4270 -0.4548  0.3494
  173MPD1     H 2692   3.143   2.837  14.362 -0.3098  2.0530 -0.4324
  173MPD1    H1 2693   3.502   2.701  14.180 -1.9475 -1.8658  0.7110
  173MPD1    H2 2694   3.326   3.076  14.071 -1.4108  1.6551  2.3146
  173MPD1    H3 2695   3.505   2.909  14.039  0.7847 -0.1549  0.7588
  173MPD1     N 2696   3.318   2.646  14.372 -0.2914 -0.3075  0.6375
  173MPD1    H5 2697   3.227   2.636  14.414  0.3554 -1.8345  1.6922
  173MPD1    N1 2698   3.122   3.048  14.220  0.0553 -0.4948  0.0820
  173MPD1    H6 2699   3.045   3.032  14.285 -0.4274 -0.4483 -0.4793
  173MPD1    H7 2700   3.087   3.090  14.135  0.4657  1.3819  0.8399
  174MPD1     C 2701   4.060   2.149  14.787  0.0093  0.2702  0.5059
  174MPD1    C1 2702   3.962   2.129  14.881 -0.5691 -0.2639 -0.0673
  174MPD1    C2 2703   3.828   2.169  14.844  0.0944 -0.0697  0.6682
  174MPD1    C3 2704   3.808   2.229  14.723 -0.2259  0.1262 -0.0558
  174MPD1    C4 2705   3.908   2.241  14.633  0.1466  0.2941 -0.1949
  174MPD1    C5 2706   4.033   2.198  14.663 -0.3201 -0.2442 -0.2895
  174MPD1     H 2707   3.747   2.142  14.911 -2.0702 -0.3279 -2.0611
  174MPD1    H1 2708   3.876   2.273  14.535 -2.5753 -0.6554  0.3876
  174MPD1    H2 2709   4.163   2.114  14.789 -0.3481 -0.9278 -2.6319
  174MPD1    H3 2710   4.112   2.195  14.589  1.4030  1.4015  1.4864
  174MPD1     N 2711   3.686   2.261  14.670  0.1298  0.1753 -0.2737
  174MPD1    H5 2712   3.685   2.287  14.572 -1.9794  0.1657 -0.2699
  174MPD1    N1 2713   3.992   2.095  15.015  0.7678 -0.4712 -0.3799
  174MPD1    H6 2714   4.088   2.066  15.031  0.4185 -0.9377  0.9352
  174MPD1    H7 2715   3.925   2.034  15.062  2.3953 -1.2683  0.9013
  175MPD1     C 2716   2.062   3.533  15.138  0.4452 -0.1876 -0.4831
  175MPD1    C1 2717   1.996   3.645  15.191  0.1841 -0.6917 -0.3869
  175MPD1    C2 2718   1.885   3.623  15.265 -0.7983  0.0321  0.2114
  175MPD1    C3 2719   1.832   3.501  15.287  0.4975 -0.0265  0.0710
  175MPD1    C4 2720   1.891   3.395  15.226 -0.4057 -0.0705 -0.0038
  175MPD1    C5 2721   2.013   3.409  15.162 -0.2860 -0.1898 -0.1477
  175MPD1     H 2722   1.831   3.711  15.297  0.8340  1.2097 -0.2404
  175MPD1    H1 2723   1.852   3.294  15.228  1.4276 -0.7459  1.3803
  175MPD1    H2 2724   2.146   3.539  15.069  2.0222  1.9536  1.6406
  175MPD1    H3 2725   2.072   3.327  15.124  0.6592 -0.1323  1.1804
  175MPD1     N 2726   1.718   3.472  15.367  0.1005 -0.1295 -0.4965
  175MPD1    H5 2727   1.696   3.376  15.390 -2.1038  0.4998  0.0467
  175MPD1    N1 2728   2.038   3.773  15.152 -0.1846  0.1273  0.2560
  175MPD1    H6 2729   2.035   3.834  15.233 -0.6138  1.8255 -1.0373
  175MPD1    H7 2730   2.134   3.761  15.122 -0.2711  0.0084  0.0237
  176MPD1     C 2731   3.622   0.493  17.557  0.4504  0.0026  0.0862
  176MPD1    C1 2732   3.636   0.570  17.677  0.3613  0.0587  0.6108
  176MPD1    C2 2733   3.680   0.702  17.662 -0.8494  0.4380  0.2682
  176MPD1    C3 2734   3.680   0.758  17.535 -0.2377  0.0894 -0.2557
  176MPD1    C4 2735   3.659   0.688  17.421  0.5739  0.3650  0.9500
  176MPD1    C5 2736   3.631   0.554  17.432 -0.2029 -0.8973  0.1440
  176MPD1     H 2737   3.708   0.758   0.003  0.9383 -0.9108  0.5521
  176MPD1    H1 2738   3.657   0.726  17.319  1.4085 -2.3270 -0.0804
  176MPD1    H2 2739   3.595   0.388  17.554 -1.2832  0.4083  1.9128
  176MPD1    H3 2740   3.620   0.500  17.339  1.1399  1.5805 -1.4683
  176MPD1     N 2741   3.695   0.895  17.529 -0.3839 -0.1876  0.4231
  176MPD1    H5 2742   3.705   0.940  17.620  2.2156  0.3971 -0.1536
  176MPD1    N1 2743   3.623   0.518   0.059 -0.5176 -0.1839 -0.4371
  176MPD1    H6 2744   3.578   0.597   0.105 -0.5429 -0.0734 -0.6501
  176MPD1    H7 2745   3.549   0.448   0.051 -0.2446 -0.6595  1.2630
  177MPD1     C 2746   1.864   4.267  10.161 -0.0161  0.0434 -0.1808
  177MPD1    C1 2747   1.740   4.233  10.121  0.1401  0.2196 -0.4556
  177MPD1    C2 2748   1.712   4.231   9.990 -0.2910  0.2684 -0.2583
  177MPD1    C3 2749   1.805   4.281   9.896 -0.4397  0.3873  0.7288
  177MPD1    C4 2750   1.928   4.322   9.933 -0.5516  0.4469 -0.6433
  177MPD1    C5 2751   1.958   4.317  10.071  0.1129 -0.0350 -0.0442
  177MPD1     H 2752   1.619   4.185   9.956  1.0297 -1.4239 -1.5680
  177MPD1    H1 2753   2.015   4.349   9.874 -1.5911  1.6649 -1.6180
  177MPD1    H2 2754   1.904   4.246  10.259 -2.6433 -0.4456  0.8010
  177MPD1    H3 2755   2.060   4.342  10.100  0.5232  1.3262 -2.6972
  177MPD1     N 2756   1.768   4.266   9.762  0.8127  0.3707  0.3013
  177MPD1    H5 2757   1.669   4.246   9.747  1.3728 -1.5187 -0.8823
  177MPD1    N1 2758   1.648   4.174  10.215  0.3574 -0.0297 -0.0983
  177MPD1    H6 2759   1.554   4.205  10.190  0.0593 -0.4327  0.5316
  177MPD1    H7 2760   1.666   4.201  10.311 -1.8448  0.1352  0.2701
  178MPD1     C 2761   4.401   2.573  17.713 -0.1144 -0.5695 -0.7691
  178MPD1    C1 2762   4.330   2.531  17.604  0.0467  0.0951 -0.8731
  178MPD1    C2 2763   4.325   2.396  17.560 -0.6700  0.5633  0.3434
  178MPD1    C3 2764   4.374   2.295  17.644  0.8001  0.6749  0.8804
  178MPD1    C4 2765   4.431   2.339   0.018 -0.3933 -0.3922  0.1721
  178MPD1    C5 2766   4.437   2.473   0.053  0.2262 -0.7996  0.0416
  178MPD1     H 2767   4.296   2.366  17.460  2.4921 -1.3712  0.0359
  178MPD1    H1 2768   4.457   2.267   0.094 -2.5460  1.0166  2.2245
  178MPD1    H2 2769   4.412   2.676  17.742  0.3565 -1.2134  1.3691
  178MPD1    H3 2770   4.478   2.492   0.151  0.4187 -0.0572 -0.1894
  178MPD1     N 2771   4.360   2.158  17.625 -0.0250  0.5249  0.0552
  178MPD1    H5 2772   4.417   2.092  17.676 -1.1476 -0.4488  0.0481
  178MPD1    N1 2773   4.258   2.628  17.533  0.5870 -0.3356 -0.8874
  178MPD1    H6 2774   4.255   2.608  17.433  1.3705 -0.0722 -0.9642
  178MPD1    H7 2775   4.305   2.718  17.525  1.5017 -0.7846 -0.4965
  179MPD1     C 2776   3.821   4.564  15.473  0.1329 -0.1616  0.3513
  179MPD1    C1 2777   3.801   4.477  15.370  0.3633  0.8041  0.8326
  179MPD1    C2 2778   3.763   4.350  15.407 -0.2215 -0.3698 -0.0510
  179MPD1    C3 2779   3.743   4.313  15.541  0.2264  0.9703 -0.3845
  179MPD1    C4 2780   3.777   4.401  15.638 -0.3977  0.2735 -0.6209
  179MPD1    C5 2781   3.817   4.530  15.601 -0.0123  0.3630  0.3834
  179MPD1     H 2782   3.738   4.276  15.331 -2.5970  1.1716 -0.7598
  179MPD1    H1 2783   3.771   4.372  15.742 -0.2202  1.5063 -0.2603
  179MPD1    H2 2784   3.866   4.659  15.447 -0.5904  0.6876  2.1871
  179MPD1    H3 2785   3.857   4.600  15.673  2.3315 -1.9500  1.2991
  179MPD1     N 2786   3.712   4.186  15.586  0.2154  1.1117  0.0907
  179MPD1    H5 2787   3.713   4.163  15.685 -0.1133  2.2078  0.3386
  179MPD1    N1 2788   3.802   4.527  15.238  0.0272  0.1618 -0.3802
  179MPD1    H6 2789   3.805   4.460  15.160  1.3386  1.3430 -1.3390
  179MPD1    H7 2790   3.854   4.612  15.220  0.0405  0.2594  0.1340
  180MPD1     C 2791   3.388   1.039  15.472 -0.0460  0.7501  0.0073
  180MPD1    C1 2792   3.471   1.117  15.402 -0.1260 -0.4219  0.3231
  180MPD1    C2 2793   3.462   1.114  15.260 -0.2010 -0.0247 -0.3548
  180MPD1    C3 2794   3.352   1.047  15.196 -0.1217  0.0784 -0.3820
  180MPD1    C4 2795   3.264   0.976  15.276 -0.2765  0.6564  0.4599
  180MPD1    C5 2796   3.289   0.969  15.409  0.6685 -0.3685  0.5665
  180MPD1     H 2797   3.538   1.171  15.207  0.3650 -0.2091  0.2660
  180MPD1    H1 2798   3.184   0.913  15.239  0.9895 -0.7717  0.1236
  180MPD1    H2 2799   3.398   1.033  15.580  0.7172 -2.8392 -0.2523
  180MPD1    H3 2800   3.232   0.902  15.473  1.0091 -0.0313  1.2198
  180MPD1     N 2801   3.343   1.051  15.054 -0.0086  0.5081 -0.1297
  180MPD1    H5 2802   3.421   1.101  15.013  1.6618 -2.6194 -0.7554
  180MPD1    N1 2803   3.582   1.178  15.467  0.1057 -0.0540 -0.2952
  180MPD1    H6 2804   3.624   1.257  15.419  0.6267 -0.9885 -1.3813
  180MPD1    H7 2805   3.562   1.207  15.563  0.3916  0.9103 -0.5259
  181MPD1     C 2806   0.416   2.185  11.245  0.3679  0.3821 -0.2699
  181MPD1    C1 2807   0.461   2.088  11.158  0.5085 -0.2378  1.0343
  181MPD1    C2 2808   0.564   2.120  11.072 -0.3577 -1.0613  0.3447
  181MPD1    C3 2809   0.626   2.245  11.078  0.0391 -1.0126  0.0263
  181MPD1    C4 2810   0.592   2.336  11.179 -0.7535  0.9721 -0.0470
  181MPD1    C5 2811   0.488   2.300  11.259  1.3192  0.2165 -0.1613
  181MPD1     H 2812   0.598   2.043  11.003 -0.0827 -0.0885 -0.6055
  181MPD1    H1 2813   0.640   2.432  11.195 -2.2525  2.2962 -3.5152
  181MPD1    H2 2814   0.331   2.173  11.310  1.5712  0.4551  1.2999
  181MPD1    H3 2815   0.451   2.368  11.335  2.6948 -2.1170  2.6263
  181MPD1     N 2816   0.732   2.285  11.007 -0.6748 -0.0434 -0.1644
  181MPD1    H5 2817   0.787   2.363  11.041 -0.7018  1.0772 -2.7118
  181MPD1    N1 2818   0.387   1.970  11.135  0.2579 -0.3292  0.4080
  181MPD1    H6 2819   0.347   1.932  11.221 -0.8938  1.8661  0.8451
  181MPD1    H7 2820   0.457   1.900  11.110  0.3024 -0.4363  0.8247
  182MPD1     C 2821   1.594   2.071   1.575 -0.3150  0.8952  0.0665
  182MPD1    C1 2822   1.610   1.945   1.526 -0.2394 -0.3718 -0.4249
  182MPD1    C2 2823   1.569   1.922   1.398 -0.3887 -0.0149  0.0682
  182MPD1    C3 2824   1.487   2.013   1.330 -0.3381  0.2132 -0.0728
  182MPD1    C4 2825   1.457   2.133   1.388 -0.8383 -0.9856  0.4698
  182MPD1    C5 2826   1.518   2.159   1.507  0.2161  0.5122 -0.9716
  182MPD1     H 2827   1.605   1.829   1.355 -3.0007 -0.4860 -1.0548
  182MPD1    H1 2828   1.400   2.210   1.336 -2.2184 -1.9593  0.5212
  182MPD1    H2 2829   1.630   2.089   1.676  4.0013 -0.2674 -1.2770
  182MPD1    H3 2830   1.503   2.261   1.541 -2.2609 -0.2843  0.3049
  182MPD1     N 2831   1.415   1.988   1.213  0.5292 -0.3210  0.2190
  182MPD1    H5 2832   1.347   2.058   1.185  0.1152 -1.0868 -0.6932
  182MPD1    N1 2833   1.709   1.860   1.589 -0.1712 -0.8653 -0.1953
  182MPD1    H6 2834   1.710   1.873   1.690  1.1754  1.3665 -0.4999
  182MPD1    H7 2835   1.691   1.762   1.567 -1.7506  0.0429 -2.9466
  183MPD1     C 2836   2.217   1.020   9.677 -0.2608  0.4089 -0.3174
  183MPD1    C1 2837   2.103   1.039   9.753 -0.3872  0.1648  0.3962
  183MPD1    C2 2838   2.044   1.164   9.762  0.3131 -0.0496  0.9956
  183MPD1    C3 2839   2.101   1.268   9.700 -0.1072 -0.4294  0.1680
  183MPD1    C4 2840   2.203   1.241   9.609 -0.2391 -0.1214  0.2505
  183MPD1    C5 2841   2.264   1.119   9.599 -0.0232  0.0030  0.2731
  183MPD1     H 2842   1.953   1.178   9.820  1.4662  0.4880  2.6719
  183MPD1    H1 2843   2.243   1.325   9.555 -1.6922  1.3950  1.5189
  183MPD1    H2 2844   2.251   0.919   9.656 -0.4719  0.3438 -0.3538
  183MPD1    H3 2845   2.338   1.096   9.524 -0.0809 -0.3175  0.3139
  183MPD1     N 2846   2.031   1.392   9.718 -0.2072 -0.1415 -0.8175
  183MPD1    H5 2847   1.944   1.395   9.770  1.4433 -0.3519  1.9170
  183MPD1    N1 2848   2.030   0.919   9.783 -0.3749  0.3314  0.0870
  183MPD1    H6 2849   2.084   0.836   9.805  1.2457  1.3869  0.0919
  183MPD1    H7 2850   1.968   0.923   9.864 -1.8642 -2.6795 -0.8975
  184MPD1     C 2851   1.202   4.155  10.424  0.6775  0.2224 -0.3064
  184MPD1    C1 2852   1.274   4.266  10.462 -0.2768  0.4662 -0.2579
  184MPD1    C2 2853   1.354   4.333  10.375  0.5573 -0.0927 -0.8444
  184MPD1    C3 2854   1.355   4.293  10.242 -0.3353  0.2591  0.3780
  184MPD1    C4 2855   1.283   4.180  10.200 -0.0698 -0.5256 -0.5171
  184MPD1    C5 2856   1.212   4.111  10.291  0.5800  0.0262 -0.5705
  184MPD1     H 2857   1.411   4.418  10.409 -0.8692 -0.3369  2.1200
  184MPD1    H1 2858   1.295   4.141  10.100 -2.0084 -1.5421 -0.3364
  184MPD1    H2 2859   1.148   4.092  10.493  1.6855  0.8922  1.0908
  184MPD1    H3 2860   1.165   4.018  10.262 -0.4055 -0.8342  3.7063
  184MPD1     N 2861   1.412   4.377  10.141  0.3361 -0.0121 -0.0753
  184MPD1    H5 2862   1.402   4.346  10.045 -0.1921  0.8118 -0.2831
  184MPD1    N1 2863   1.287   4.290  10.600 -0.1960  0.0420 -0.0543
  184MPD1    H6 2864   1.300   4.388  10.624  0.0814  0.1418 -0.5964
  184MPD1    H7 2865   1.204   4.254  10.645  0.4422 -0.8254  0.4178
  185MPD1     C 2866   1.332   4.622   9.196  0.5507 -0.5017 -0.4228
  185MPD1    C1 2867   1.365   4.505   9.252 -0.0912 -0.1283  0.3434
  185MPD1    C2 2868   1.436   4.508   9.372 -0.2568  0.7181 -0.3349
  185MPD1    C3 2869   1.450   4.625   9.443 -0.0678 -0.1734 -0.2779
  185MPD1    C4 2870   1.408   0.007   9.384  0.2472  0.2824 -0.6149
  185MPD1    C5 2871   1.343   0.003   9.266 -0.2020 -0.1242  0.1210
  185MPD1     H 2872   1.462   4.415   9.420  0.6792  1.1379 -0.0384
  185MPD1    H1 2873   1.420   0.103   9.432 -1.6365  0.0833  0.2477
  185MPD1    H2 2874   1.291   4.630   9.096 -2.6873  0.0032  0.9406
  185MPD1    H3 2875   1.320   0.097   9.217  0.2682  0.9688  2.0030
  185MPD1     N 2876   1.516   4.621   9.570  0.0869  0.4581 -0.3665
  185MPD1    H5 2877   1.546   4.707   9.615  0.4431  0.2736 -0.2548
  185MPD1    N1 2878   1.352   4.388   9.177  0.0846 -0.4768  0.5907
  185MPD1    H6 2879   1.350   4.307   9.238 -0.2448 -0.3947  0.6907
  185MPD1    H7 2880   1.275   4.395   9.112  1.2748  0.5013 -0.7147
  186MPD1     C 2881   3.818   0.428  15.916  0.2714  0.4607 -0.1309
  186MPD1    C1 2882   3.767   0.433  16.043  0.9490  0.2420  0.3396
  186MPD1    C2 2883   3.860   0.430  16.145  0.7550 -0.1832 -0.2871
  186MPD1    C3 2884   3.994   0.430  16.129  0.4284  0.7628  0.5318
  186MPD1    C4 2885   4.043   0.434  15.998 -0.3736 -0.2735 -0.1423
  186MPD1    C5 2886   3.954   0.429  15.892  0.3120 -0.3681  0.2949
  186MPD1     H 2887   3.811   0.407  16.239 -3.3185 -0.5914 -2.4970
  186MPD1    H1 2888   4.148   0.444  15.970 -0.1971  1.8939  1.2807
  186MPD1    H2 2889   3.746   0.430  15.835 -1.6387  2.8350  1.6470
  186MPD1    H3 2890   3.993   0.424  15.791  2.2225 -0.4613  1.0377
  186MPD1     N 2891   4.083   0.431  16.236 -0.3741  0.1671 -0.8524
  186MPD1    H5 2892   4.179   0.422  16.203 -0.1806 -0.5902 -0.0873
  186MPD1    N1 2893   3.632   0.402  16.076  0.0420 -0.4241  0.8357
  186MPD1    H6 2894   3.596   0.469  16.144  1.0751  1.1190 -0.1234
  186MPD1    H7 2895   3.576   0.426  15.994 -1.4834 -0.6214  1.8130
  187MPD1     C 2896   4.286   1.721   0.009 -0.3273 -0.5330 -0.2106
  187MPD1    C1 2897   4.196   1.636  17.702 -0.2553 -0.5329 -0.4369
  187MPD1    C2 2898   4.072   1.688  17.679 -0.9188  0.0767 -0.5980
  187MPD1    C3 2899   4.025   1.806  17.737  0.8505  0.2500  0.0072
  187MPD1    C4 2900   4.117   1.887   0.052  0.1929  0.2387  0.5993
  187MPD1    C5 2901   4.241   1.836   0.072 -0.3828 -0.6489  0.4541
  187MPD1     H 2902   4.009   1.613  17.632  0.6627 -1.4725 -0.2380
  187MPD1    H1 2903   4.087   1.980   0.098 -1.8120 -0.0189 -0.1528
  187MPD1    H2 2904   4.394   1.708   0.014 -0.2763  0.9140  2.2972
  187MPD1    H3 2905   4.312   1.893   0.131 -0.9966  1.0944 -0.4989
  187MPD1     N 2906   3.892   1.854  17.725 -0.5750 -0.4164  0.5598
  187MPD1    H5 2907   3.873   1.946   0.016 -0.3353  0.5408 -1.5451
  187MPD1    N1 2908   4.239   1.528  17.623 -0.1203  0.2865 -0.5756
  187MPD1    H6 2909   4.314   1.478  17.670 -0.8173  0.5304  0.7823
  187MPD1    H7 2910   4.160   1.464  17.622  0.0854  0.0152  1.0515
  188MPD1     C 2911   4.007   1.770  10.131 -0.2497  0.6072 -0.2179
  188MPD1    C1 2912   4.082   1.678  10.202 -0.0652 -0.2369  0.6145
  188MPD1    C2 2913   4.023   1.569  10.262  0.4539 -0.2972 -0.4838
  188MPD1    C3 2914   3.885   1.548  10.242 -0.4943 -0.1311 -0.3924
  188MPD1    C4 2915   3.813   1.640  10.173  0.4443  0.0630  0.6232
  188MPD1    C5 2916   3.879   1.750  10.110 -0.3163 -0.3628  0.5487
  188MPD1     H 2917   4.079   1.498  10.321  0.4371 -0.2831 -0.4511
  188MPD1    H1 2918   3.725   1.606  10.120  1.0045 -0.1501 -0.1725
  188MPD1    H2 2919   4.056   1.857  10.089 -2.9343  2.1332 -0.2001
  188MPD1    H3 2920   3.829   1.813  10.038 -1.4645  1.3921  2.8490
  188MPD1     N 2921   3.808   1.437  10.291 -0.2966  0.2081 -1.0336
  188MPD1    H5 2922   3.707   1.441  10.284 -0.3363 -1.0474 -1.1133
  188MPD1    N1 2923   4.217   1.703  10.228 -0.5866  0.3682  0.1628
  188MPD1    H6 2924   4.276   1.733  10.152 -0.9203 -0.5245 -0.4497
  188MPD1    H7 2925   4.271   1.619  10.251  0.1670  0.7825 -0.0944
  189MPD1     C 2926   0.645   2.719   0.455 -0.0791 -0.2278  0.4305
  189MPD1    C1 2927   0.551   2.658   0.374  0.2205  0.2391 -0.2173
  189MPD1    C2 2928   0.421   2.713   0.389  0.1000 -0.1690  0.1012
  189MPD1    C3 2929   0.383   2.826   0.455 -0.5215  0.0425 -0.2130
  189MPD1    C4 2930   0.484   2.891   0.524  0.2075  0.4931  0.6003
  189MPD1    C5 2931   0.615   2.835   0.524  0.3948  0.6107 -0.2481
  189MPD1     H 2932   0.336   2.664   0.343 -0.2957  1.2833 -0.7039
  189MPD1    H1 2933   0.469   2.978   0.588  2.3647  1.7280 -0.6034
  189MPD1    H2 2934   0.750   2.692   0.451 -0.1809 -0.6374  0.4949
  189MPD1    H3 2935   0.697   2.887   0.571 -0.5330  0.2178  1.7906
  189MPD1     N 2936   0.257   2.875   0.439 -0.2929 -0.2307  0.7893
  189MPD1    H5 2937   0.193   2.833   0.372  1.1754 -1.0470 -0.0722
  189MPD1    N1 2938   0.587   2.533   0.314 -0.1646  0.2471 -0.4689
  189MPD1    H6 2939   0.521   2.501   0.244 -2.1234  1.1932  0.9257
  189MPD1    H7 2940   0.683   2.519   0.286 -1.1828 -1.5558 -3.0465
  190MPD1     C 2941   3.994   0.857  15.006 -0.6051 -0.2978 -0.7598
  190MPD1    C1 2942   3.985   0.729  15.056  0.7684 -0.3321  1.1715
  190MPD1    C2 2943   4.043   0.711  15.175 -0.7322 -0.3312 -0.7814
  190MPD1    C3 2944   4.112   0.808  15.248  0.0427  0.2264 -0.3947
  190MPD1    C4 2945   4.115   0.936  15.193  0.2422  0.4069  0.0758
  190MPD1    C5 2946   4.060   0.958  15.072  0.2785  0.4259 -0.7163
  190MPD1     H 2947   4.039   0.611  15.218  0.2498 -0.6467 -1.4028
  190MPD1    H1 2948   4.172   1.016  15.240 -0.2331  0.7026  0.1455
  190MPD1    H2 2949   3.937   0.866  14.914  1.2841  0.2331 -1.8845
  190MPD1    H3 2950   4.060   1.059  15.030 -0.1974  1.2939  1.3829
  190MPD1     N 2951   4.153   0.786  15.378 -0.1521  0.1246 -0.3327
  190MPD1    H5 2952   4.149   0.689  15.408  0.7889  0.1467 -0.1420
  190MPD1    N1 2953   3.947   0.620  14.979  0.3464  0.0809  0.3302
  190MPD1    H6 2954   3.900   0.657  14.897  0.2742 -1.9937 -0.5549
  190MPD1    H7 2955   3.895   0.553  15.035  0.4441 -2.0280 -2.1372
  191MPD1     C 2956   3.474   3.394  11.245 -0.4159  0.5571  0.1511
  191MPD1    C1 2957   3.539   3.274  11.276  0.4146 -0.6545  0.1586
  191MPD1    C2 2958   3.607   3.256  11.395 -0.3119  0.0235 -0.0470
  191MPD1    C3 2959   3.608   3.351  11.491  0.3186 -0.1912  0.8320
  191MPD1    C4 2960   3.540   3.474  11.468 -0.1933 -0.2139  0.1663
  191MPD1    C5 2961   3.480   3.494  11.344 -0.2491  0.4517 -0.1278
  191MPD1     H 2962   3.665   3.164  11.400 -0.4442 -0.0057  0.9611
  191MPD1    H1 2963   3.525   3.541  11.552  1.5085  0.3721  0.0152
  191MPD1    H2 2964   3.410   3.404  11.158 -0.0498  0.4818 -0.1271
  191MPD1    H3 2965   3.412   3.578  11.335  0.2144  0.9125  0.6670
  191MPD1     N 2966   3.686   3.330  11.610 -0.3990 -0.2173 -0.4502
  191MPD1    H5 2967   3.731   3.240  11.625 -1.3594 -0.5780  0.2004
  191MPD1    N1 2968   3.551   3.186  11.168 -0.2006  0.0392 -0.3823
  191MPD1    H6 2969   3.476   3.179  11.099 -0.7347 -1.0286  0.2990
  191MPD1    H7 2970   3.569   3.090  11.195  2.0830 -0.2651 -2.9864
  192MPD1     C 2971   4.326   2.700  11.892  0.3110 -0.4450 -0.5049
  192MPD1    C1 2972   4.349   2.818  11.830 -1.1068 -0.7881 -0.3421
  192MPD1    C2 2973   4.251   2.910  11.821 -0.1764  0.1406 -0.0304
  192MPD1    C3 2974   4.153   2.901  11.922  0.9031 -0.2747  0.2172
  192MPD1    C4 2975   4.133   2.786  11.989 -0.4056  0.1071  0.1294
  192MPD1    C5 2976   4.216   2.679  11.968  0.3866  0.5461  1.2560
  192MPD1     H 2977   4.259   3.000  11.761  0.8587 -0.1584 -0.3347
  192MPD1    H1 2978   4.053   2.774  12.061 -0.2760 -0.5410  0.1652
  192MPD1    H2 2979   4.393   2.615  11.883  2.0142  0.9090 -0.7485
  192MPD1    H3 2980   4.193   2.590  12.025 -0.4088  0.7158  1.2063
  192MPD1     N 2981   4.058   3.013  11.947 -0.1041  0.2287 -0.4852
  192MPD1    H5 2982   3.982   3.003  12.013  0.6653  1.9704  0.6565
  192MPD1    N1 2983   4.452   2.822  11.732  0.1169  1.3453  0.1990
  192MPD1    H6 2984   4.531   2.760  11.746  0.0942  1.3157  0.1971
  192MPD1    H7 2985   4.488   2.916  11.717  0.5990  1.0452 -0.5165
  193MPD1     C 2986   2.639   3.025  16.333  0.3281 -0.6698 -0.1866
  193MPD1    C1 2987   2.626   3.154  16.307  0.2845 -0.0243  0.0412
  193MPD1    C2 2988   2.696   3.236  16.391  0.8799  0.2036 -0.0911
  193MPD1    C3 2989   2.795   3.189  16.481  0.5255  0.1716  0.6712
  193MPD1    C4 2990   2.795   3.057  16.505 -0.3874 -0.3853 -0.3670
  193MPD1    C5 2991   2.718   2.972  16.429 -0.0167 -0.0225 -0.3286
  193MPD1     H 2992   2.692   3.342  16.371  0.0710  0.0344 -0.8171
  193MPD1    H1 2993   2.855   3.008  16.581 -0.2285  1.5390  0.7495
  193MPD1    H2 2994   2.576   2.955  16.279  0.5286 -0.2821 -0.9198
  193MPD1    H3 2995   2.733   2.866  16.449  0.3436 -0.3654 -2.4004
  193MPD1     N 2996   2.891   3.271  16.548 -0.1332 -0.2243  0.0569
  193MPD1    H5 2997   2.962   3.218  16.598  0.7152  1.4163  0.5645
  193MPD1    N1 2998   2.528   3.203  16.220  0.1230 -0.0630  0.1362
  193MPD1    H6 2999   2.543   3.298  16.187  1.5748 -0.1494  0.5911
  193MPD1    H7 3000   2.523   3.149  16.134 -2.2673 -1.5524  1.1971
  194MPD1     C 3001   1.207   0.516  17.116 -0.8267  0.0325 -0.1036
  194MPD1    C1 3002   1.113   0.514  17.221  0.0021  0.2676  0.6362
  194MPD1    C2 3003   1.027   0.413  17.223  0.2748 -0.1819  0.7400
  194MPD1    C3 3004   1.026   0.318  17.125 -0.9712  0.6586 -0.6390
  194MPD1    C4 3005   1.105   0.328  17.016 -0.4283 -0.5212 -0.4843
  194MPD1    C5 3006   1.206   0.423  17.015  0.3444 -0.0692 -0.0555
  194MPD1     H 3007   0.953   0.405  17.301 -0.1167  1.5001  0.5360
  194MPD1    H1 3008   1.097   0.252  16.939  2.3358 -1.6439  0.3284
  194MPD1    H2 3009   1.285   0.591  17.109 -0.6200 -0.4851 -3.2680
  194MPD1    H3 3010   1.280   0.421  16.936  0.1138 -0.3440 -0.2650
  194MPD1     N 3011   0.940   0.205  17.124 -0.4845 -0.2487  0.7861
  194MPD1    H5 3012   0.950   0.146  17.042 -0.4045 -1.3498  1.5876
  194MPD1    N1 3013   1.128   0.605  17.324 -0.4556 -0.8914 -0.1986
  194MPD1    H6 3014   1.036   0.619  17.364 -0.6858  0.7993 -1.3247
  194MPD1    H7 3015   1.153   0.698  17.292  2.3694 -1.1925  1.1037
  195MPD1     C 3016   3.481   2.551   0.799  0.0886 -0.4711  0.3258
  195MPD1    C1 3017   3.403   2.508   0.692  0.0085  1.1421  0.2231
  195MPD1    C2 3018   3.409   2.377   0.648  0.9112 -0.0256 -0.5115
  195MPD1    C3 3019   3.482   2.282   0.712 -0.0143 -0.3575  0.0982
  195MPD1    C4 3020   3.569   2.328   0.813 -0.1789 -0.4915 -0.0249
  195MPD1    C5 3021   3.564   2.464   0.855  0.2219  0.0965  0.3506
  195MPD1     H 3022   3.347   2.350   0.564  3.7348  0.0767 -2.6350
  195MPD1    H1 3023   3.634   2.267   0.874 -1.3786 -0.6721  1.0847
  195MPD1    H2 3024   3.477   2.653   0.837  3.1872  0.3747 -1.5807
  195MPD1    H3 3025   3.625   2.498   0.937  1.9596 -0.2554 -0.7941
  195MPD1     N 3026   3.489   2.145   0.675  0.2912 -0.3878  1.1694
  195MPD1    H5 3027   3.561   2.091   0.722 -0.5474 -2.8664 -0.4169
  195MPD1    N1 3028   3.338   2.611   0.610  0.2506 -0.4123 -0.3806
  195MPD1    H6 3029   3.253   2.562   0.581 -1.1123 -0.0086  2.8908
  195MPD1    H7 3030   3.313   2.691   0.668 -0.9157  0.3220 -1.8820
  196MPD1     C 3031   3.066   2.197   1.708 -0.4925 -0.3520  0.0692
  196MPD1    C1 3032   3.015   2.077   1.752  0.3736 -0.7168  0.2899
  196MPD1    C2 3033   2.890   2.036   1.712 -0.2731  0.3826  0.5123
  196MPD1    C3 3034   2.815   2.134   1.655 -0.2334  0.1351  0.3183
  196MPD1    C4 3035   2.859   2.263   1.628 -0.0397 -0.4965  0.4120
  196MPD1    C5 3036   2.986   2.294   1.652  0.0255  0.1472 -0.3228
  196MPD1     H 3037   2.852   1.935   1.725  1.2689 -0.1202  1.0933
  196MPD1    H1 3038   2.805   2.340   1.575 -0.8000 -1.2838  0.0446
  196MPD1    H2 3039   3.167   2.222   1.738  0.1757 -2.8684 -0.0314
  196MPD1    H3 3040   3.018   2.393   1.623  0.8051  0.3349  1.2094
  196MPD1     N 3041   2.685   2.117   1.603  1.1151 -0.0549  0.0534
  196MPD1    H5 3042   2.645   2.204   1.567  1.7229  0.6120  0.9819
  196MPD1    N1 3043   3.100   1.981   1.816 -0.5060  0.2133 -0.1404
  196MPD1    H6 3044   3.055   1.909   1.872 -0.3407  0.7757  0.7312
  196MPD1    H7 3045   3.171   2.023   1.876 -1.2681 -1.0994  1.7036
  197MPD1     C 3046   1.503   2.826  17.417 -0.0683  0.0865  0.4397
  197MPD1    C1 3047   1.590   2.920  17.467  0.2778 -0.0648  0.3238
  197MPD1    C2 3048   1.609   3.041  17.404 -0.5677  0.9794  0.0458
  197MPD1    C3 3049   1.548   3.062  17.284  0.0828 -0.1342 -0.6668
  197MPD1    C4 3050   1.471   2.963  17.226  0.0218  0.0155  0.4115
  197MPD1    C5 3051   1.440   2.851  17.297 -0.4238  0.1184  0.1627
  197MPD1     H 3052   1.675   3.115  17.448 -0.8230 -0.1175  2.2596
  197MPD1    H1 3053   1.405   2.988  17.144 -0.7602  0.7545  1.2666
  197MPD1    H2 3054   1.492   2.733  17.471  2.4633 -0.3903  0.1686
  197MPD1    H3 3055   1.367   2.775  17.273 -2.1817  1.9330 -0.2841
  197MPD1     N 3056   1.558   3.184  17.215 -0.5297 -0.4269  0.3163
  197MPD1    H5 3057   1.517   3.197  17.123  0.4129  1.8452  0.2255
  197MPD1    N1 3058   1.635   2.898  17.605 -0.0352 -0.4393  0.1126
  197MPD1    H6 3059   1.725   2.931  17.639 -0.3198  0.5645 -0.1019
  197MPD1    H7 3060   1.653   2.799  17.618  0.5868  0.2243  4.4280
  198MPD1     C 3061   3.537   2.969  16.305 -0.2991 -0.1431  0.3944
  198MPD1    C1 3062   3.545   2.886  16.194  0.3063  0.5589 -0.0069
  198MPD1    C2 3063   3.586   2.755  16.224  0.1261  0.5737  0.0336
  198MPD1    C3 3064   3.633   2.719  16.347  0.1169  0.4197  0.2610
  198MPD1    C4 3065   3.627   2.811  16.448  0.5113 -0.6138 -0.2824
  198MPD1    C5 3066   3.578   2.938  16.428 -0.7285  0.0022  0.1952
  198MPD1     H 3067   3.577   2.672  16.155  0.3221  0.1083  0.5604
  198MPD1    H1 3068   3.658   2.796  16.551 -0.5563  0.5708  0.2106
  198MPD1    H2 3069   3.471   3.054  16.298 -1.1615 -0.7992  0.6064
  198MPD1    H3 3070   3.557   3.002  16.513 -0.8602 -1.1305  1.0073
  198MPD1     N 3071   3.686   2.587  16.359  0.2956 -0.4452 -0.1149
  198MPD1    H5 3072   3.688   2.538  16.270 -2.9631 -1.3056  0.2963
  198MPD1    N1 3073   3.484   2.923  16.072  0.8593 -0.5447 -0.2334
  198MPD1    H6 3074   3.525   2.887  15.986 -1.9434  0.4142 -1.9418
  198MPD1    H7 3075   3.487   3.023  16.055  3.6005 -0.5213  0.3774
  199MPD1     C 3076   1.727   3.655  10.808  0.1700 -0.9976  0.3020
  199MPD1    C1 3077   1.618   3.670  10.887 -0.3053 -0.6462 -0.1158
  199MPD1    C2 3078   1.506   3.615  10.835 -0.3672  0.1287  0.4873
  199MPD1    C3 3079   1.505   3.545  10.714  0.0621  0.3244  0.2389
  199MPD1    C4 3080   1.620   3.525  10.644 -0.2972 -0.5356  1.0059
  199MPD1    C5 3081   1.734   3.584  10.691 -0.0157 -0.0143  0.1650
  199MPD1     H 3082   1.419   3.617  10.900 -0.6858 -0.8567  0.0935
  199MPD1    H1 3083   1.619   3.473  10.549  1.4969 -0.8098  1.1362
  199MPD1    H2 3084   1.824   3.694  10.835 -0.8294  1.2796  0.5810
  199MPD1    H3 3085   1.828   3.571  10.637 -0.7826  0.5227 -1.3041
  199MPD1     N 3086   1.387   3.483  10.666 -0.0954  0.1706  0.2413
  199MPD1    H5 3087   1.391   3.443  10.573 -0.3770 -0.6255  0.5669
  199MPD1    N1 3088   1.635   3.714  11.018  0.3255  0.5465  0.0828
  199MPD1    H6 3089   1.548   3.747  11.060  0.4597 -2.5653  2.8587
  199MPD1    H7 3090   1.703   3.789  11.016  0.1184  0.6755 -1.9571
  200MPD1     C 3091   4.619   2.899  15.663  0.0318  0.1395 -0.0854
  200MPD1    C1 3092   4.724   2.954  15.731 -0.2926  0.2472 -0.2430
  200MPD1    C2 3093   0.049   3.068  15.675  0.5504 -0.3896  0.4550
  200MPD1    C3 3094   0.016   3.117  15.551 -0.0587 -1.0043  0.0745
  200MPD1    C4 3095   4.645   3.061  15.489  0.1632  0.5354 -0.5355
  200MPD1    C5 3096   4.580   2.955  15.545  0.3688  0.1367 -0.2762
  200MPD1     H 3097   0.129   3.116  15.730  0.5487 -0.0924  0.2005
  200MPD1    H1 3098   4.601   3.103  15.400  0.3929  1.6986 -0.0994
  200MPD1    H2 3099   4.566   2.810  15.694  0.0797  0.6563  1.4623
  200MPD1    H3 3100   4.491   2.911  15.501  0.4524  0.2667 -0.5798
  200MPD1     N 3101   0.089   3.224  15.496  0.2182  0.7832  0.5670
  200MPD1    H5 3102   0.167   3.262  15.550  1.2919 -2.9849  1.6529
  200MPD1    N1 3103   0.013   2.924  15.861  0.1356 -0.7377 -0.7655
  200MPD1    H6 3104   0.101   2.953  15.904  0.4126 -4.2242  1.0639
  200MPD1    H7 3105   0.015   2.823  15.873 -1.4059 -0.5051  1.6150
  201MPD1     C 3106   3.139   1.969  13.068 -0.1626 -0.1284 -0.4274
  201MPD1    C1 3107   3.087   2.065  13.146  0.2235 -0.1734  0.1293
  201MPD1    C2 3108   3.015   2.035  13.262 -0.1697  0.1801 -0.0619
  201MPD1    C3 3109   3.047   1.915  13.322 -0.0105 -0.0040 -0.4505
  201MPD1    C4 3110   3.127   1.824  13.256  0.8957 -0.0384 -0.4549
  201MPD1    C5 3111   3.182   1.856  13.130  0.6735  0.2746 -0.2473
  201MPD1     H 3112   2.951   2.112  13.304  0.1764  1.2015 -1.4389
  201MPD1    H1 3113   3.154   1.729  13.301 -1.7734 -0.3705  0.4325
  201MPD1    H2 3114   3.179   1.998  12.972  1.2390 -1.9061 -0.3653
  201MPD1    H3 3115   3.243   1.776  13.091  0.4327  0.7147 -1.5088
  201MPD1     N 3116   2.981   1.883  13.447  0.1555 -0.4354 -0.0162
  201MPD1    H5 3117   2.916   1.952  13.480  0.5732 -0.7856  1.5587
  201MPD1    N1 3118   3.080   2.197  13.101 -0.4617 -0.0943  0.3981
  201MPD1    H6 3119   3.147   2.214  13.026 -0.8988  0.2390  0.0807
  201MPD1    H7 3120   3.086   2.254  13.185 -0.2147  0.4978 -0.0188
  202MPD1     C 3121   2.626   2.360  11.184  0.9772  0.1857 -0.0250
  202MPD1    C1 3122   2.725   2.266  11.163 -0.2185 -0.1133  0.8608
  202MPD1    C2 3123   2.732   2.221  11.029 -0.3128  0.6638 -0.2841
  202MPD1    C3 3124   2.635   2.258  10.934 -0.0389 -0.1869  0.0191
  202MPD1    C4 3125   2.542   2.352  10.971  0.4211  0.1348 -0.3898
  202MPD1    C5 3126   2.535   2.404  11.093 -0.9060  0.0613 -0.1189
  202MPD1     H 3127   2.824   2.169  11.006 -1.0576 -0.5148 -0.5651
  202MPD1    H1 3128   2.470   2.392  10.901  0.5673 -1.4159 -1.4240
  202MPD1    H2 3129   2.626   2.404  11.283 -0.5872  0.6826 -0.2409
  202MPD1    H3 3130   2.464   2.480  11.124 -0.3500  1.3488 -2.0002
  202MPD1     N 3131   2.643   2.205  10.803  0.0213  0.4680 -0.4927
  202MPD1    H5 3132   2.593   2.265  10.738 -1.9734 -0.1346  0.4777
  202MPD1    N1 3133   2.844   2.274  11.242  0.5268 -0.0491 -0.0539
  202MPD1    H6 3134   2.822   2.285  11.341  1.2035  0.0466  0.0847
  202MPD1    H7 3135   2.899   2.189  11.238 -2.5196 -2.0504  0.3004
  203MPD1     C 3136   1.086   2.430  12.636  0.6424  0.6788  0.1900
  203MPD1    C1 3137   1.132   2.333  12.559  0.3464 -0.4929 -0.0749
  203MPD1    C2 3138   1.197   2.231  12.614  0.5941 -0.1336 -0.0860
  203MPD1    C3 3139   1.214   2.222  12.750 -0.4194  0.5333 -0.2048
  203MPD1    C4 3140   1.158   2.318  12.833 -0.6494 -0.3843 -0.3130
  203MPD1    C5 3141   1.101   2.429  12.773  0.6596 -0.3575 -0.5747
  203MPD1     H 3142   1.239   2.153  12.553 -1.7715 -1.0352 -0.5569
  203MPD1    H1 3143   1.164   2.324  12.941 -0.0704  1.5123 -0.4555
  203MPD1    H2 3144   1.040   2.519  12.594  1.0320  2.1457  2.8406
  203MPD1    H3 3145   1.061   2.512  12.830  0.8832 -1.1987  0.8023
  203MPD1     N 3146   1.297   2.117  12.797  0.0745 -0.0581  0.5412
  203MPD1    H5 3147   1.325   2.060  12.718 -1.4298 -2.0706  1.4780
  203MPD1    N1 3148   1.120   2.345  12.419 -0.6400 -0.4224  0.2329
  203MPD1    H6 3149   1.035   2.395  12.391 -0.3551  0.1738  0.4387
  203MPD1    H7 3150   1.115   2.257  12.369  1.7005  0.8194 -2.1839
  204MPD1     C 3151   0.089   4.030  17.649  0.2056  0.2683  0.7380
  204MPD1    C1 3152   0.125   3.979  17.526  0.2156  0.1478  0.6598
  204MPD1    C2 3153   0.228   3.894  17.511  0.3448 -0.4777  0.6668
  204MPD1    C3 3154   0.298   3.847  17.617  0.0237  0.0629 -0.1521
  204MPD1    C4 3155   0.261   3.894  17.741  0.7393 -0.9006  0.4638
  204MPD1    C5 3156   0.163   3.985   0.013 -0.1228  0.1097 -0.6615
  204MPD1     H 3157   0.248   3.853  17.413 -3.7731  0.9331 -0.7873
  204MPD1    H1 3158   0.311   3.867   0.086  2.3203 -0.0487 -0.1398
  204MPD1    H2 3159   0.020   4.112  17.661 -2.6036 -1.7730 -1.4092
  204MPD1    H3 3160   0.129   4.021   0.110  1.3784  1.3261 -0.5855
  204MPD1     N 3161   0.402   3.755  17.588  0.7072  0.2722 -0.3046
  204MPD1    H5 3162   0.433   3.741  17.493  0.3557 -1.6053 -0.1388
  204MPD1    N1 3163   0.067   4.033  17.413  0.3480 -0.0946  0.2612
  204MPD1    H6 3164   0.055   3.963  17.339  1.0064 -2.5272  2.4716
  204MPD1    H7 3165   4.715   4.079  17.428  0.6635  0.9693 -1.0638
  205MPD1     C 3166   1.364   2.377  17.189  0.0365 -0.1009  0.6279
  205MPD1    C1 3167   1.246   2.331  17.131  0.7572  0.5119  0.1891
  205MPD1    C2 3168   1.129   2.346  17.201  0.0513 -0.0426 -0.1917
  205MPD1    C3 3169   1.126   2.411  17.319  0.1682 -0.6909  0.1317
  205MPD1    C4 3170   1.237   2.485  17.355  0.1957  0.2496 -0.3250
  205MPD1    C5 3171   1.360   2.465  17.295  0.1706  0.2440 -0.4453
  205MPD1     H 3172   1.040   2.301  17.157  1.2046  0.8786 -3.5016
  205MPD1    H1 3173   1.232   2.547  17.443 -0.1675 -1.4191  0.8111
  205MPD1    H2 3174   1.460   2.345  17.149 -1.0812 -3.6359  0.7656
  205MPD1    H3 3175   1.447   2.509  17.344 -0.7393  1.0606  0.4429
  205MPD1     N 3176   1.019   2.412  17.412 -1.1391 -0.1065 -0.1215
  205MPD1    H5 3177   1.027   2.461  17.500  1.2885 -0.4576 -0.1468
  205MPD1    N1 3178   1.262   2.243  17.015 -0.7435 -0.2672 -0.8201
  205MPD1    H6 3179   1.348   2.268  16.968  0.2739 -0.4128  0.9377
  205MPD1    H7 3180   1.179   2.261  16.959  0.3147  1.9117 -1.6518
  206MPD1     C 3181   1.093   4.342  17.266  0.2016 -0.1902 -0.4105
  206MPD1    C1 3182   1.112   4.476  17.264  0.1360 -0.4614 -0.9655
  206MPD1    C2 3183   1.140   4.533  17.140 -0.1207 -0.3034 -0.9967
  206MPD1    C3 3184   1.108   4.462  17.020 -0.2445 -0.1906 -0.1725
  206MPD1    C4 3185   1.061   4.335  17.030 -0.1706  0.4457 -0.0201
  206MPD1    C5 3186   1.063   4.274  17.149 -0.3403  0.3883  0.0003
  206MPD1     H 3187   1.177   4.634  17.138  1.3372 -0.8473 -1.5319
  206MPD1    H1 3188   1.032   4.282  16.940 -3.1340  0.2952  1.0193
  206MPD1    H2 3189   1.088   4.290  17.361  0.8234 -1.4010 -1.0393
  206MPD1    H3 3190   1.053   4.166  17.148 -0.8543  0.4359  0.8700
  206MPD1     N 3191   1.102   4.520  16.893  0.4973 -0.3907  0.3341
  206MPD1    H5 3192   1.066   4.462  16.819  1.0828 -0.6249  0.2328
  206MPD1    N1 3193   1.137   4.537  17.381  0.2817 -0.2159  0.0051
  206MPD1    H6 3194   1.082   4.502  17.459  0.5273  1.1764  0.8033
  206MPD1    H7 3195   1.144   4.638  17.391  0.0172  0.0440 -2.6399
  207MPD1     C 3196   3.096   2.037   9.701  0.0078  0.3387  0.7577
  207MPD1    C1 3197   3.043   2.148   9.756  0.1804  0.2358  0.3526
  207MPD1    C2 3198   3.108   2.214   9.855 -0.1368  0.3986 -0.7653
  207MPD1    C3 3199   3.236   2.184   9.897  0.7936 -0.2794 -0.3710
  207MPD1    C4 3200   3.290   2.071   9.851 -0.3781 -0.7365  0.0186
  207MPD1    C5 3201   3.222   2.002   9.750  0.1756 -0.4332  0.2954
  207MPD1     H 3202   3.063   2.298   9.906  1.8213  1.0033 -0.0572
  207MPD1    H1 3203   3.390   2.043   9.882 -0.1224 -0.4024 -0.4838
  207MPD1    H2 3204   3.043   1.971   9.633 -0.8522  1.7488  0.0447
  207MPD1    H3 3205   3.264   1.912   9.707 -0.1755 -0.1350 -0.6752
  207MPD1     N 3206   3.306   2.258   9.987  0.2410  0.4196 -0.7349
  207MPD1    H5 3207   3.393   2.215  10.015 -0.8767 -1.8658 -0.7503
  207MPD1    N1 3208   2.906   2.182   9.727  0.4427  0.0789 -1.0771
  207MPD1    H6 3209   2.881   2.164   9.630 -1.9289 -1.1749 -0.2482
  207MPD1    H7 3210   2.868   2.275   9.741 -2.8347 -1.5914  1.0434
  208MPD1     C 3211   0.605   0.831  17.408 -1.3691 -0.4495 -0.2783
  208MPD1    C1 3212   0.484   0.875  17.461  0.1423  0.1390  0.1631
  208MPD1    C2 3213   0.485   0.946  17.581 -0.4875  0.2560  0.0086
  208MPD1    C3 3214   0.599   0.971  17.648 -0.4107 -0.1755  0.1006
  208MPD1    C4 3215   0.716   0.921  17.599  0.8226  0.0281 -0.5643
  208MPD1    C5 3216   0.718   0.862  17.474 -0.7092  0.4406 -0.3280
  208MPD1     H 3217   0.394   0.989  17.620  0.4498  1.6790  0.5814
  208MPD1    H1 3218   0.805   0.954  17.652  0.1203  0.9290  0.0496
  208MPD1    H2 3219   0.619   0.786  17.310  0.2119 -2.0203  0.6586
  208MPD1    H3 3220   0.810   0.836  17.422 -2.1483 -0.5847 -2.3814
  208MPD1     N 3221   0.605   1.071  17.746 -0.8734 -0.6516  0.2980
  208MPD1    H5 3222   0.525   1.133  17.736 -1.0046 -0.3559  2.9767
  208MPD1    N1 3223   0.363   0.875  17.376 -0.1862 -0.2041 -0.1904
  208MPD1    H6 3224   0.271   0.896  17.416 -0.5724 -1.4492 -0.4366
  208MPD1    H7 3225   0.359   0.816  17.294 -0.9008  0.8511 -0.9196
  209MPD1     C 3226   4.169   1.306  11.081 -0.3015  0.3418 -0.4846
  209MPD1    C1 3227   4.161   1.354  10.950 -0.1424 -0.1658  0.5003
  209MPD1    C2 3228   4.165   1.486  10.924  0.3001  0.1607 -0.2814
  209MPD1    C3 3229   4.162   1.575  11.028 -0.3136 -0.0209  0.1439
  209MPD1    C4 3230   4.175   1.532  11.157  0.5824 -0.4619 -0.1335
  209MPD1    C5 3231   4.173   1.394  11.183  0.7293  0.0223 -0.0784
  209MPD1     H 3232   4.181   1.531  10.827 -0.6350 -0.4569 -0.7249
  209MPD1    H1 3233   4.184   1.600  11.240  5.0788  1.0642 -1.8877
  209MPD1    H2 3234   4.171   1.199  11.101  0.2892 -0.1939 -3.4050
  209MPD1    H3 3235   4.179   1.363  11.286 -0.1423 -1.9133 -0.6097
  209MPD1     N 3236   4.158   1.716  10.996 -0.4553  0.6115 -0.4143
  209MPD1    H5 3237   4.132   1.735  10.900  0.7298  1.7485 -0.4979
  209MPD1    N1 3238   4.192   1.263  10.851  0.3004  0.1151 -0.2186
  209MPD1    H6 3239   4.144   1.173  10.857  4.1250 -1.7470  2.3936
  209MPD1    H7 3240   4.160   1.303  10.763 -0.2094  2.3189  0.9841
  210MPD1     C 3241   4.390   2.477  11.594 -0.1807  0.4173  0.0341
  210MPD1    C1 3242   4.340   2.542  11.477  0.1126 -0.5863 -0.2021
  210MPD1    C2 3243   4.287   2.462  11.371 -0.7210 -0.6188 -0.8434
  210MPD1    C3 3244   4.291   2.326  11.379 -0.2598  1.0473 -0.0895
  210MPD1    C4 3245   4.343   2.271  11.491 -0.2513  0.1881 -0.1728
  210MPD1    C5 3246   4.384   2.339  11.600  0.0079  0.1574  0.0760
  210MPD1     H 3247   4.249   2.515  11.284 -4.1522 -0.5925  0.6857
  210MPD1    H1 3248   4.348   2.165  11.512  1.7746  0.3264  0.0539
  210MPD1    H2 3249   4.424   2.542  11.673 -1.5308 -0.2841  1.1939
  210MPD1    H3 3250   4.426   2.287  11.685 -1.4199 -2.4078 -0.7940
  210MPD1     N 3251   4.242   2.238  11.279 -0.0462 -0.4357 -0.2013
  210MPD1    H5 3252   4.239   2.137  11.288 -1.6596 -0.2806  0.9367
  210MPD1    N1 3253   4.342   2.677  11.473  0.3790  0.4256  0.1556
  210MPD1    H6 3254   4.253   2.710  11.435  0.1071  0.4565  0.8081
  210MPD1    H7 3255   4.337   2.721  11.565 -0.6147 -0.6321  0.6256
  211MPD1     C 3256   1.226   1.983  16.345 -0.1807  0.4363  0.2350
  211MPD1    C1 3257   1.255   2.115  16.348 -0.5460  0.0681 -0.4570
  211MPD1    C2 3258   1.155   2.205  16.371 -0.1323  1.5545  0.0500
  211MPD1    C3 3259   1.029   2.156  16.392  0.3545  0.1397 -0.0531
  211MPD1    C4 3260   0.997   2.023  16.383 -0.4212 -0.4249 -1.0640
  211MPD1    C5 3261   1.102   1.937  16.366 -0.3823 -0.8414  0.3355
  211MPD1     H 3262   1.167   2.312  16.363 -2.6739  2.0259  2.5944
  211MPD1    H1 3263   0.900   1.975  16.386  0.0932 -1.4872 -1.6336
  211MPD1    H2 3264   1.295   1.902  16.322  0.0907  1.3228 -1.9844
  211MPD1    H3 3265   1.078   1.832  16.360 -1.3833 -0.4934 -1.9539
  211MPD1     N 3266   0.932   2.257  16.428 -0.0851  0.4595  0.2017
  211MPD1    H5 3267   0.966   2.353  16.432  2.6761 -0.5531  0.5806
  211MPD1    N1 3268   1.381   2.165  16.320  0.6194  0.1978  0.3833
  211MPD1    H6 3269   1.400   2.233  16.393 -0.5390  1.5940 -0.6199
  211MPD1    H7 3270   1.457   2.098  16.318 -0.1385 -0.7100  2.0518
  212MPD1     C 3271   0.819   0.711  16.994 -0.1045 -0.1011  0.4686
  212MPD1    C1 3272   0.719   0.803  17.017  0.8440 -0.2738  0.1614
  212MPD1    C2 3273   0.585   0.758  17.047  0.3523  0.1159 -0.2185
  212MPD1    C3 3274   0.571   0.617  17.061  0.3335  1.0466  0.0860
  212MPD1    C4 3275   0.675   0.535  17.042 -0.1301  1.0625  0.0560
  212MPD1    C5 3276   0.798   0.580  17.001 -0.0750  0.2199 -0.5331
  212MPD1     H 3277   0.502   0.828  17.054  0.9589  0.9798 -1.6839
  212MPD1    H1 3278   0.647   0.430  17.043  0.4206  0.9235  0.8500
  212MPD1    H2 3279   0.916   0.738  16.955  0.8621 -0.8239  2.3388
  212MPD1    H3 3280   0.865   0.499  16.978  0.0155 -0.1279  0.9589
  212MPD1     N 3281   0.450   0.555  17.074  0.4016 -0.3353  0.1764
  212MPD1    H5 3282   0.453   0.453  17.073 -1.2552 -0.3810  0.7734
  212MPD1    N1 3283   0.737   0.934  16.980  0.2660 -0.4766  0.2734
  212MPD1    H6 3284   0.829   0.975  16.996 -0.5959  1.4268  0.2909
  212MPD1    H7 3285   0.663   0.990  17.021 -1.8293 -1.6685 -1.8388
  213MPD1     C 3286   3.137   0.593  15.671 -0.1513 -0.0427  0.5254
  213MPD1    C1 3287   3.098   0.699  15.752  0.0312 -0.0041  0.2443
  213MPD1    C2 3288   3.049   0.804  15.680 -0.5069 -0.0451 -0.4552
  213MPD1    C3 3289   3.003   0.794  15.549  0.5384 -0.6589  0.5853
  213MPD1    C4 3290   3.015   0.681  15.481  0.1900  0.0136 -0.0925
  213MPD1    C5 3291   3.097   0.588  15.543 -0.1183 -0.3118  0.4811
  213MPD1     H 3292   3.015   0.891  15.736  1.7876  1.7283 -1.8421
  213MPD1    H1 3293   2.998   0.680  15.373  0.2997 -1.6262 -0.1021
  213MPD1    H2 3294   3.193   0.504  15.699 -1.9528  0.4012  5.4086
  213MPD1    H3 3295   3.130   0.496  15.497 -0.3426 -0.2923  0.2824
  213MPD1     N 3296   2.934   0.906  15.497  0.0187 -0.0986  0.3156
  213MPD1    H5 3297   2.926   0.993  15.549  0.3830  0.5934 -0.7728
  213MPD1    N1 3298   3.176   0.730  15.867  0.0506 -0.7983  0.5415
  213MPD1    H6 3299   3.198   0.643  15.915 -0.0704 -0.4859  1.1579
  213MPD1    H7 3300   3.125   0.786  15.935  0.8968  0.5690  0.0466
  214MPD1     C 3301   2.000   0.965  15.433  0.4796  0.0345 -0.4763
  214MPD1    C1 3302   2.036   1.057  15.337 -0.6698 -0.1131 -0.4752
  214MPD1    C2 3303   2.170   1.103  15.337  0.2898 -0.7005 -0.1335
  214MPD1    C3 3304   2.264   1.044  15.419  0.1675 -0.2279  0.1469
  214MPD1    C4 3305   2.224   0.958  15.514 -0.0884  0.6819 -0.1369
  214MPD1    C5 3306   2.092   0.927  15.526  0.6534 -0.3557  0.1018
  214MPD1     H 3307   2.201   1.177  15.265  0.6435 -1.1242 -0.4225
  214MPD1    H1 3308   2.292   0.908  15.582  1.2930  0.5496 -1.6287
  214MPD1    H2 3309   1.898   0.935  15.455 -0.8417  4.5805 -0.3627
  214MPD1    H3 3310   2.050   0.865  15.604 -1.1890 -0.9500 -1.3578
  214MPD1     N 3311   2.397   1.069  15.404  0.2693  0.0546  0.0532
  214MPD1    H5 3312   2.459   1.008  15.457  1.0943  0.2673 -0.6582
  214MPD1    N1 3313   1.930   1.110  15.261  0.9890 -0.7705  0.0740
  214MPD1    H6 3314   1.972   1.134  15.172 -1.1196  2.4926 -0.0330
  214MPD1    H7 3315   1.853   1.045  15.252  0.1271  0.3890 -0.8292
  215MPD1     C 3316   3.724   1.598  11.223  0.4391  0.2915  0.0536
  215MPD1    C1 3317   3.842   1.609  11.284 -0.1395  0.9308  0.2997
  215MPD1    C2 3318   3.887   1.735  11.309  0.6498 -0.0248  0.3697
  215MPD1    C3 3319   3.824   1.850  11.275  0.2820 -0.0473  0.2447
  215MPD1    C4 3320   3.701   1.837  11.218  0.1834  0.0733 -0.5906
  215MPD1    C5 3321   3.658   1.712  11.190 -0.2110  0.7105  0.7902
  215MPD1     H 3322   3.982   1.741  11.361  1.3763 -0.7892 -0.8792
  215MPD1    H1 3323   3.637   1.921  11.191  2.4152  1.8719 -0.2177
  215MPD1    H2 3324   3.680   1.502  11.202  0.0291  0.2679  1.0230
  215MPD1    H3 3325   3.563   1.695  11.140  0.8101  2.3561 -1.7176
  215MPD1     N 3326   3.881   1.975  11.300  0.6293  0.4262  0.2204
  215MPD1    H5 3327   3.968   1.985  11.351  1.6661  0.5501 -1.5458
  215MPD1    N1 3328   3.908   1.498  11.336  0.5580  0.3835  0.6506
  215MPD1    H6 3329   3.918   1.417  11.275  0.5544  0.3821  0.6520
  215MPD1    H7 3330   3.994   1.521  11.386  0.6238  0.3225  0.5651
  216MPD1     C 3331   0.485   0.506  17.414  0.2320  0.1534  0.1143
  216MPD1    C1 3332   0.521   0.374  17.404  0.1191 -0.6946 -0.1705
  216MPD1    C2 3333   0.429   0.274  17.440  0.4578 -0.2443  0.2760
  216MPD1    C3 3334   0.310   0.305  17.494  0.3529  0.0723  0.4483
  216MPD1    C4 3335   0.269   0.439  17.505  1.0046 -0.6775  0.2806
  216MPD1    C5 3336   0.358   0.529  17.467  0.3289 -0.5043  0.2703
  216MPD1     H 3337   0.456   0.171  17.421 -1.5272 -0.7140  0.0338
  216MPD1    H1 3338   0.179   0.471  17.555 -0.5531 -2.7253 -1.2387
  216MPD1    H2 3339   0.547   0.592  17.392 -1.3613  1.3739  0.3255
  216MPD1    H3 3340   0.329   0.633  17.468 -1.2688 -0.9512  2.1080
  216MPD1     N 3341   0.220   0.202  17.537 -0.0885  0.3420  0.7014
  216MPD1    H5 3342   0.266   0.111  17.531  0.0883  0.4094  1.0180
  216MPD1    N1 3343   0.639   0.346  17.342  0.2977 -0.5913  0.5236
  216MPD1    H6 3344   0.688   0.273  17.393 -0.0226 -0.8319  0.4844
  216MPD1    H7 3345   0.691   0.433  17.346  2.1641 -1.7129  0.7176
  217MPD1     C 3346   1.948   0.070   9.359 -0.2373  0.0969  0.1485
  217MPD1    C1 3347   1.813   0.045   9.379 -0.1944 -0.8698 -0.6177
  217MPD1    C2 3348   1.751   0.118   9.478 -0.4129  0.3563  0.3348
  217MPD1    C3 3349   1.824   0.199   9.565 -0.3104  0.6772 -0.5202
  217MPD1    C4 3350   1.961   0.208   9.548 -0.3090  0.8219  0.0749
  217MPD1    C5 3351   2.020   0.149   9.435 -0.1806 -0.2253 -0.0046
  217MPD1     H 3352   1.642   0.115   9.477 -0.3502 -1.8375 -1.1299
  217MPD1    H1 3353   2.022   0.274   9.609 -0.9237 -2.5408  4.2348
  217MPD1    H2 3354   2.010   0.035   9.277  1.9314  3.0314  0.5075
  217MPD1    H3 3355   2.123   0.164   9.404 -0.5515 -0.9317 -1.5619
  217MPD1     N 3356   1.769   0.265   9.677  0.1437 -0.0504 -0.7663
  217MPD1    H5 3357   1.834   0.330   9.722  0.1510 -0.3284 -0.3802
  217MPD1    N1 3358   1.739   4.710   9.284 -0.0596 -0.1702 -0.0025
  217MPD1    H6 3359   1.791   4.638   9.235  1.2602 -0.1777  1.4073
  217MPD1    H7 3360   1.657   4.670   9.328 -0.1555  0.6027  0.5365
  218MPD1     C 3361   4.372   3.377  13.274 -0.1613  0.5301  0.7247
  218MPD1    C1 3362   4.318   3.372  13.148  0.2832 -0.4162  0.3201
  218MPD1    C2 3363   4.200   3.294  13.146 -0.0411  0.2362 -0.2561
  218MPD1    C3 3364   4.156   3.217  13.255  0.3113  0.5050  0.0696
  218MPD1    C4 3365   4.226   3.218  13.373 -0.7509 -0.0614  0.3406
  218MPD1    C5 3366   4.327   3.305  13.380 -0.3270 -0.5019  0.2055
  218MPD1     H 3367   4.130   3.287  13.064  0.2030  1.8463 -0.6053
  218MPD1    H1 3368   4.201   3.168  13.465  1.0498  1.5391  1.6822
  218MPD1    H2 3369   4.460   3.439  13.289  1.5443 -1.4821 -0.9635
  218MPD1    H3 3370   4.393   3.312  13.466  0.4539 -1.5600 -0.2966
  218MPD1     N 3371   4.033   3.141  13.236 -0.1109  0.4454 -0.1731
  218MPD1    H5 3372   3.969   3.166  13.161  0.8839  1.1236 -0.7810
  218MPD1    N1 3373   4.348   3.473  13.054  0.8810  0.5315  0.3304
  218MPD1    H6 3374   4.320   3.448  12.960 -1.3563  0.9142  0.9013
  218MPD1    H7 3375   4.445   3.502  13.044  0.6360 -0.1563 -4.1435
  219MPD1     C 3376   3.270   2.927  12.675  0.1535 -0.0015 -0.2536
  219MPD1    C1 3377   3.382   3.004  12.688  0.4786  0.2582  0.3192
  219MPD1    C2 3378   3.454   3.011  12.808 -0.0727  0.9124  0.8546
  219MPD1    C3 3379   3.409   2.953  12.919  0.4014  0.4535  0.0394
  219MPD1    C4 3380   3.292   2.885  12.910  0.3314 -0.2297 -0.7685
  219MPD1    C5 3381   3.232   2.868  12.792 -0.4661 -0.3614 -0.1618
  219MPD1     H 3382   3.543   3.072  12.809  0.1328  0.6279 -0.5067
  219MPD1    H1 3383   3.238   2.830  12.986 -0.2354  0.1076 -0.9247
  219MPD1    H2 3384   3.210   2.920  12.584 -0.8732  0.7512  0.3724
  219MPD1    H3 3385   3.146   2.802  12.781 -0.2845 -0.7317  0.6343
  219MPD1     N 3386   3.470   2.963  13.047 -0.8497 -0.2146 -0.2068
  219MPD1    H5 3387   3.423   2.906  13.116 -0.3014 -0.6066 -0.1558
  219MPD1    N1 3388   3.441   3.069  12.574  0.1073  0.1537 -0.5831
  219MPD1    H6 3389   3.380   3.108  12.503 -0.8697 -0.0968  0.1125
  219MPD1    H7 3390   3.505   3.142  12.605 -0.9503  1.1496 -0.7518
  220MPD1     C 3391   3.187   2.132  10.330 -0.7473 -0.0387 -0.4151
  220MPD1    C1 3392   3.083   2.215  10.296  1.1898  0.3031  0.2219
  220MPD1    C2 3393   3.017   2.287  10.394 -0.2888 -0.3253 -1.1938
  220MPD1    C3 3394   3.054   2.279  10.528 -0.0619  0.3766 -0.7509
  220MPD1    C4 3395   3.155   2.190  10.556  0.4407  0.4339 -0.3645
  220MPD1    C5 3396   3.219   2.116  10.461  0.2271 -0.1124  0.2283
  220MPD1     H 3397   2.948   2.363  10.360  3.4631  3.7932  0.3557
  220MPD1    H1 3398   3.197   2.171  10.654 -1.2643  0.3835  0.3513
  220MPD1    H2 3399   3.245   2.073  10.260 -3.3314 -0.9106 -1.8248
  220MPD1    H3 3400   3.299   2.047  10.483  1.1245  1.2896  1.3097
  220MPD1     N 3401   2.984   2.349  10.629 -0.0365 -0.1629  0.3056
  220MPD1    H5 3402   2.912   2.414  10.599  0.6366  0.2453 -0.4269
  220MPD1    N1 3403   3.025   2.207  10.168  0.3119  0.3515 -0.0152
  220MPD1    H6 3404   2.986   2.297  10.140 -0.6881  0.5912  2.1341
  220MPD1    H7 3405   3.093   2.176  10.099  3.0395 -0.3462  3.0023
  221MPD1     C 3406   1.479   1.360   0.085  0.6175  0.4070  0.7023
  221MPD1    C1 3407   1.369   1.436   0.048 -0.3977 -0.3135  0.4017
  221MPD1    C2 3408   1.324   1.421  17.663 -0.0022  0.3768 -0.8631
  221MPD1    C3 3409   1.372   1.324  17.577  0.0752  0.6894 -0.9087
  221MPD1    C4 3410   1.480   1.251  17.619  0.2938 -0.0052 -0.4379
  221MPD1    C5 3411   1.530   1.264  17.745  0.3284 -0.1567 -0.4322
  221MPD1     H 3412   1.244   1.486  17.629 -0.1519  0.5079 -0.2622
  221MPD1    H1 3413   1.536   1.186  17.553  0.2478  0.4084 -0.8845
  221MPD1    H2 3414   1.528   1.366   0.181 -1.1526 -0.1394  1.6420
  221MPD1    H3 3415   1.597   1.191   0.041  0.4035  0.3387  0.2770
  221MPD1     N 3416   1.328   1.293  17.447  0.1058  0.3902  0.2959
  221MPD1    H5 3417   1.377   1.224  17.392  0.3442 -0.5282  1.6524
  221MPD1    N1 3418   1.329   1.541   0.124 -0.4186 -0.2419 -0.4201
  221MPD1    H6 3419   1.230   1.562   0.113 -0.7887 -0.5864  2.4738
  221MPD1    H7 3420   1.345   1.540   0.224 -0.0334 -0.0130 -0.4772
  222MPD1     C 3421   4.602   0.994  17.025 -0.0116  0.1832  0.5361
  222MPD1    C1 3422   4.717   0.942  17.086  0.0249 -0.1276 -1.1091
  222MPD1    C2 3423   0.019   0.983  17.209 -0.4354 -0.2099  0.6605
  222MPD1    C3 3424   4.674   1.076  17.272 -0.0798 -0.3179 -1.5014
  222MPD1    C4 3425   4.562   1.129  17.212  0.0226  0.4322  0.7847
  222MPD1    C5 3426   4.523   1.088  17.088 -0.0401 -0.0256  0.2314
  222MPD1     H 3427   0.106   0.938  17.256 -2.1741 -3.1903  1.0634
  222MPD1    H1 3428   4.496   1.199  17.263  0.8507  1.8932 -0.1288
  222MPD1    H2 3429   4.569   0.966  16.926  0.0889  0.0789  0.5325
  222MPD1    H3 3430   4.438   1.131  17.036  1.1631  0.1114 -1.6040
  222MPD1     N 3431   4.697   1.127  17.404 -0.4072 -0.1036  0.4942
  222MPD1    H5 3432   4.626   1.195  17.430  2.0976  1.8845  2.0284
  222MPD1    N1 3433   0.047   0.834  17.025 -0.0655  0.5961 -0.2026
  222MPD1    H6 3434   0.050   0.843  16.924 -1.5084 -1.0445 -0.3897
  222MPD1    H7 3435   0.145   0.824  17.051 -0.8405 -1.2897  2.0536
  223MPD1     C 3436   4.412   1.657   0.416  0.4379  0.6843  0.3978
  223MPD1    C1 3437   4.539   1.616   0.448 -0.5309 -0.2825 -0.4578
  223MPD1    C2 3438   4.584   1.515   0.362 -0.5507  0.1904 -0.1863
  223MPD1    C3 3439   4.502   1.454   0.271 -0.0497 -0.4863 -0.1378
  223MPD1    C4 3440   4.375   1.498   0.249  0.0964  0.2205 -0.4492
  223MPD1    C5 3441   4.328   1.597   0.324 -0.4326 -0.4575  0.7133
  223MPD1     H 3442   4.689   1.490   0.373 -1.2303 -2.8479 -0.6294
  223MPD1    H1 3443   4.315   1.452   0.172  2.0126 -2.1848 -0.5085
  223MPD1    H2 3444   4.364   1.744   0.460 -2.2145 -0.7153  0.2738
  223MPD1    H3 3445   4.229   1.630   0.293  0.9697  1.7727 -1.3576
  223MPD1     N 3446   4.563   1.362   0.184 -0.0076  0.1911  0.5412
  223MPD1    H5 3447   4.661   1.340   0.197 -0.0982 -1.7164 -1.9533
  223MPD1    N1 3448   4.625   1.688   0.533  0.4843 -0.4734  0.1192
  223MPD1    H6 3449   4.714   1.645   0.555  0.1013 -2.1251 -1.5630
  223MPD1    H7 3450   4.576   1.711   0.620 -1.5315 -1.1675 -0.8308
  224MPD1     C 3451   0.851   1.157  10.206  0.5957 -0.5807  0.4777
  224MPD1    C1 3452   0.978   1.114  10.159  0.4891  0.0377  0.4909
  224MPD1    C2 3453   1.081   1.210  10.161 -0.0571  0.0647  0.3175
  224MPD1    C3 3454   1.060   1.333  10.212 -0.8043 -0.2363 -0.1778
  224MPD1    C4 3455   0.941   1.368  10.261  0.2323  0.0502 -0.1397
  224MPD1    C5 3456   0.837   1.285  10.255  0.1839 -0.9804  0.5151
  224MPD1     H 3457   1.174   1.181  10.113  1.0877  2.0411  1.3491
  224MPD1    H1 3458   0.930   1.464  10.311 -2.0470 -0.0623 -0.4128
  224MPD1    H2 3459   0.762   1.097  10.191  2.0868 -2.5846 -0.3816
  224MPD1    H3 3460   0.735   1.316  10.278  1.2245  1.1857  2.1624
  224MPD1     N 3461   1.165   1.426  10.227 -0.5965  0.1250  0.5235
  224MPD1    H5 3462   1.134   1.517  10.260 -0.4233  0.6837 -0.8085
  224MPD1    N1 3463   0.990   0.995  10.085  0.3797  0.0204  0.0205
  224MPD1    H6 3464   1.079   0.947  10.091  0.6385  0.8704  2.9950
  224MPD1    H7 3465   0.914   0.930  10.102 -0.0280  0.5751  0.3159
  225MPD1     C 3466   3.161   3.592  12.598  0.7597  0.4708 -0.0195
  225MPD1    C1 3467   3.163   3.468  12.535 -0.1273 -0.0788  0.5732
  225MPD1    C2 3468   3.043   3.397  12.528 -0.5970  0.3392  0.8275
  225MPD1    C3 3469   2.926   3.446  12.575  0.0678  0.7486 -0.0323
  225MPD1    C4 3470   2.928   3.573  12.632  0.0719 -0.1141  0.2991
  225MPD1    C5 3471   3.047   3.643  12.651 -0.3028  0.7033 -0.5778
  225MPD1     H 3472   3.034   3.294  12.493 -0.5170  0.8361 -0.6379
  225MPD1    H1 3473   2.835   3.611  12.672  0.3755  1.6684 -0.6914
  225MPD1    H2 3474   3.249   3.655  12.611  0.7812  0.8965 -2.2269
  225MPD1    H3 3475   3.054   3.744  12.689 -0.1570  0.1227  0.8993
  225MPD1     N 3476   2.807   3.384  12.566 -0.0180  0.2657  0.3935
  225MPD1    H5 3477   2.730   3.430  12.613  0.9636  1.2345  1.0516
  225MPD1    N1 3478   3.288   3.413  12.502  0.5045 -0.2769  0.2308
  225MPD1    H6 3479   3.353   3.477  12.459  0.7079 -0.7579 -0.1806
  225MPD1    H7 3480   3.274   3.331  12.442  1.3731  2.4478 -3.6823
  226MPD1     C 3481   1.319   2.529   9.993 -0.1351 -0.3485  0.3397
  226MPD1    C1 3482   1.374   2.403  10.019 -0.4046  0.4391 -0.7075
  226MPD1    C2 3483   1.292   2.297  10.034  0.9251  0.8547  0.7187
  226MPD1    C3 3484   1.151   2.311  10.034 -0.2482  0.4419  0.3806
  226MPD1    C4 3485   1.099   2.434  10.011  0.1351 -0.0741 -0.9297
  226MPD1    C5 3486   1.182   2.545  10.005 -0.1535 -0.4006 -0.6299
  226MPD1     H 3487   1.334   2.197  10.042  1.9445  1.3229  1.1661
  226MPD1    H1 3488   0.994   2.454  10.024  0.1577 -0.2404 -0.4966
  226MPD1    H2 3489   1.382   2.614   9.969  0.7028 -1.1735 -0.3743
  226MPD1    H3 3490   1.137   2.643   9.995 -0.2651 -0.2759  1.1200
  226MPD1     N 3491   1.074   2.194  10.036 -0.5527  0.0303  0.3916
  226MPD1    H5 3492   1.128   2.108  10.042  0.1979  0.5992  1.8859
  226MPD1    N1 3493   1.511   2.396   9.997  0.5361  0.7183 -0.4264
  226MPD1    H6 3494   1.554   2.310  10.033 -0.2387  0.7227  0.5124
  226MPD1    H7 3495   1.550   2.481  10.037 -0.4691  1.5102 -1.1369
  227MPD1     C 3496   0.127   2.139   9.865  0.7932  0.5097 -0.0355
  227MPD1    C1 3497   0.202   2.212   9.956 -0.3603  0.1936 -0.9048
  227MPD1    C2 3498   0.332   2.163   9.981 -0.1208 -0.5006  0.0024
  227MPD1    C3 3499   0.376   2.044   9.920 -0.8082 -0.3192  0.1409
  227MPD1    C4 3500   0.288   1.975   9.839 -0.0582 -0.8493  1.4277
  227MPD1    C5 3501   0.158   2.017   9.817  0.6342 -0.0577 -0.4364
  227MPD1     H 3502   0.403   2.211  10.047 -0.4907 -1.0633  0.8137
  227MPD1    H1 3503   0.307   1.875   9.803 -1.7078 -1.0364  1.0573
  227MPD1    H2 3504   0.032   2.185   9.840 -0.6545 -3.6167 -2.0478
  227MPD1    H3 3505   0.087   1.956   9.763 -0.9090  0.8731  0.5339
  227MPD1     N 3506   0.506   1.998   9.951 -0.7687  0.1677  0.8422
  227MPD1    H5 3507   0.554   2.051  10.023 -1.1667  1.3894  0.1989
  227MPD1    N1 3508   0.183   2.344   9.988 -0.5809  0.3169  0.0263
  227MPD1    H6 3509   0.213   2.363  10.083 -0.2313 -2.5989  0.5073
  227MPD1    H7 3510   0.082   2.360   9.986 -0.0776  3.4753 -0.2003
  228MPD1     C 3511   0.054   1.607  13.014 -0.0698 -0.2744 -0.4624
  228MPD1    C1 3512   4.680   1.687  13.011  0.1402 -0.0299  0.1549
  228MPD1    C2 3513   4.556   1.632  13.035 -0.3653  0.2331  0.0199
  228MPD1    C3 3514   4.541   1.510  13.092 -0.3955 -0.4011 -0.3963
  228MPD1    C4 3515   4.654   1.435  13.095  0.1455 -0.5677  0.0524
  228MPD1    C5 3516   0.037   1.477  13.049  0.2773  0.3156  0.4596
  228MPD1     H 3517   4.464   1.684  13.013  0.3505  1.6953  0.5051
  228MPD1    H1 3518   4.645   1.336  13.137 -0.5855 -0.5828 -0.1365
  228MPD1    H2 3519   0.150   1.640  12.977 -0.0972  1.1594  0.7972
  228MPD1    H3 3520   0.124   1.412  13.047 -0.4235 -0.6661  3.1231
  228MPD1     N 3521   4.411   1.478  13.138 -0.8352  0.0813 -0.1342
  228MPD1    H5 3522   4.336   1.545  13.132 -2.1968 -1.4557 -0.4441
  228MPD1    N1 3523   4.678   1.822  12.967 -0.0928  0.1134  0.3741
  228MPD1    H6 3524   4.625   1.894  13.017 -1.1185 -0.6152  0.3113
  228MPD1    H7 3525   0.038   1.847  12.952  0.0697 -0.7577  0.0296
  229MPD1     C 3526   4.006   0.254  14.890  1.0589  0.0388 -0.7501
  229MPD1    C1 3527   4.106   0.257  14.983  0.3961  0.1743 -0.3312
  229MPD1    C2 3528   4.140   0.144  15.052  0.0763  0.0853  0.5146
  229MPD1    C3 3529   4.081   0.022  15.022  0.6528 -0.4880 -0.0229
  229MPD1    C4 3530   3.986   0.016  14.924  0.8546 -0.1728  0.1389
  229MPD1    C5 3531   3.951   0.133  14.857  0.1211 -0.2890 -0.8342
  229MPD1     H 3532   4.220   0.162  15.123  1.1519  0.9321 -0.8878
  229MPD1    H1 3533   3.947   4.657  14.893  0.5511  1.3849 -4.3107
  229MPD1    H2 3534   3.972   0.341  14.836 -2.0960 -1.0712 -0.5419
  229MPD1    H3 3535   3.877   0.132  14.778 -1.2676 -2.9666  0.5263
  229MPD1     N 3536   4.110   4.642  15.093 -0.5999  0.7848 -0.6309
  229MPD1    H5 3537   4.057   4.558  15.077  1.1306 -0.2894 -0.6944
  229MPD1    N1 3538   4.153   0.379  15.025  0.4013 -0.1152 -0.0422
  229MPD1    H6 3539   4.240   0.367  15.075  0.3326  1.1157  0.3762
  229MPD1    H7 3540   4.173   0.431  14.940  0.5038 -0.9005 -0.4863
  230MPD1     C 3541   4.051   4.343  16.108 -0.4010  0.2487  0.1999
  230MPD1    C1 3542   4.000   4.238  16.037 -0.7237  0.6420 -0.7887
  230MPD1    C2 3543   4.019   4.250  15.905 -0.1853  0.1479  0.4725
  230MPD1    C3 3544   4.087   4.349  15.843  0.4370  0.5600  0.2139
  230MPD1    C4 3545   4.118   4.459  15.919 -0.6287  0.3879  0.2573
  230MPD1    C5 3546   4.104   4.451  16.050  0.2145 -0.3877 -0.4322
  230MPD1     H 3547   3.988   4.170  15.839  0.9765 -0.1411  0.2847
  230MPD1    H1 3548   4.174   4.543  15.879 -0.8887  0.3414 -0.2022
  230MPD1    H2 3549   4.063   4.347  16.215  0.4494  3.1388  0.0070
  230MPD1    H3 3550   4.135   4.538  16.107  0.0231 -0.6311  0.0496
  230MPD1     N 3551   4.110   4.345  15.707  0.0486  0.0349 -0.4480
  230MPD1    H5 3552   4.079   4.261  15.660 -1.2657 -0.1678  0.7805
  230MPD1    N1 3553   3.969   4.115  16.096  0.1643 -0.0562 -0.2005
  230MPD1    H6 3554   3.910   4.062  16.031  1.5308 -1.5373 -0.2425
  230MPD1    H7 3555   3.913   4.136  16.178  2.2964  2.3988  0.6297
  231MPD1     C 3556   2.177   1.396  15.764  0.5082 -0.1712 -0.2019
  231MPD1    C1 3557   2.173   1.342  15.643  0.0961 -0.3956  0.0940
  231MPD1    C2 3558   2.239   1.408  15.538  0.0307 -0.3497 -0.0709
  231MPD1    C3 3559   2.330   1.511  15.555  0.0017  0.5554  0.2156
  231MPD1    C4 3560   2.334   1.555  15.684 -0.3105 -0.2476  0.1055
  231MPD1    C5 3561   2.265   1.499  15.792 -0.1100 -0.2573  0.7287
  231MPD1     H 3562   2.228   1.369  15.437 -0.2683 -0.9102  0.1771
  231MPD1    H1 3563   2.390   1.644  15.710  0.0669 -0.1292 -1.1135
  231MPD1    H2 3564   2.122   1.355  15.848  0.6379  1.0927  0.5124
  231MPD1    H3 3565   2.275   1.546  15.889 -1.5361  1.6285 -0.0305
  231MPD1     N 3566   2.403   1.559  15.444  0.5301  0.1632 -0.1268
  231MPD1    H5 3567   2.392   1.504  15.359 -0.6328 -1.1174  0.8540
  231MPD1    N1 3568   2.073   1.253  15.621  0.0474  0.0442  0.2599
  231MPD1    H6 3569   2.046   1.197  15.701 -1.1026 -1.3129 -1.0711
  231MPD1    H7 3570   2.093   1.194  15.539  1.3245 -0.1740  0.7218
  232MPD1     C 3571   4.556   4.623   0.741  0.2329  0.6698 -0.3403
  232MPD1    C1 3572   4.435   4.653   0.810  0.3725  0.3094 -0.1542
  232MPD1    C2 3573   4.320   4.588   0.766  0.1455  0.8010  0.2127
  232MPD1    C3 3574   4.328   4.482   0.671  0.1513 -0.0932  0.4155
  232MPD1    C4 3575   4.457   4.443   0.625  0.2754 -0.0759  0.2717
  232MPD1    C5 3576   4.563   4.521   0.649 -0.3370 -0.0169  0.2908
  232MPD1     H 3577   4.226   4.609   0.814 -0.6308  0.4733 -1.1548
  232MPD1    H1 3578   4.477   4.368   0.550 -1.8335  0.6752 -1.0373
  232MPD1    H2 3579   4.646   4.683   0.753 -1.0211  2.9617 -2.4597
  232MPD1    H3 3580   4.659   4.497   0.606  0.4896 -1.5193  2.9730
  232MPD1     N 3581   4.210   4.430   0.619 -0.3354  0.6507 -1.4570
  232MPD1    H5 3582   4.123   4.473   0.647  0.6951  0.8862  1.4616
  232MPD1    N1 3583   4.441   0.017   0.900  0.8507 -0.1484 -0.0742
  232MPD1    H6 3584   4.360   0.034   0.959  1.2553 -1.2904  0.8164
  232MPD1    H7 3585   4.529   0.029   0.951 -0.0363 -1.0684  1.6876
  233MPD1     C 3586   4.491   1.868   1.275  0.0091  0.1771 -0.1100
  233MPD1    C1 3587   4.504   1.733   1.298  0.4833  0.3164 -0.6008
  233MPD1    C2 3588   4.626   1.671   1.270  0.6643  0.3316  0.4202
  233MPD1    C3 3589   4.733   1.758   1.235  0.0787 -0.1323  0.3321
  233MPD1    C4 3590   4.716   1.895   1.222  0.2228  0.0190  0.0105
  233MPD1    C5 3591   4.596   1.950   1.246 -0.5337 -0.1013  0.1014
  233MPD1     H 3592   4.627   1.565   1.294 -0.0783 -0.1357 -1.6660
  233MPD1    H1 3593   0.057   1.962   1.187 -0.5017  1.3169  0.8592
  233MPD1    H2 3594   4.389   1.899   1.289 -0.2099 -0.6270  0.0642
  233MPD1    H3 3595   4.586   2.055   1.225 -0.0827  0.1218  0.9908
  233MPD1     N 3596   0.129   1.718   1.211 -0.3281  0.6521 -0.8377
  233MPD1    H5 3597   0.180   1.801   1.181  0.5421  1.0993  1.8466
  233MPD1    N1 3598   4.390   1.651   1.327  0.1302 -0.4033  0.4378
  233MPD1    H6 3599   4.406   1.572   1.389  0.7230 -1.8303 -1.5549
  233MPD1    H7 3600   4.312   1.697   1.373 -0.0178  1.4593 -1.6959
  234MPD1     C 3601   2.712   0.743   9.421  0.3324  0.5189  0.0832
  234MPD1    C1 3602   2.713   0.672   9.541 -0.3185 -0.1966  0.0288
  234MPD1    C2 3603   2.686   0.738   9.657  0.3907  0.2695 -0.1876
  234MPD1    C3 3604   2.678   0.875   9.659  0.3110 -0.2965 -0.2135
  234MPD1    C4 3605   2.702   0.947   9.542 -0.3216  0.5081 -0.0467
  234MPD1    C5 3606   2.706   0.880   9.424  0.2456  0.1606  0.1325
  234MPD1     H 3607   2.666   0.687   9.751  1.0538 -1.8994 -1.2395
  234MPD1    H1 3608   2.697   1.055   9.541  0.6451  0.5603  0.8862
  234MPD1    H2 3609   2.731   0.699   9.324  2.1389  1.0402  0.2045
  234MPD1    H3 3610   2.724   0.934   9.332 -0.7851 -1.3222 -0.9493
  234MPD1     N 3611   2.631   0.933   9.779  0.3329 -0.2082 -0.6649
  234MPD1    H5 3612   2.615   0.866   9.854 -0.7768 -0.0112 -0.7204
  234MPD1    N1 3613   2.707   0.536   9.528  0.9873 -0.3541 -0.5332
  234MPD1    H6 3614   2.751   0.494   9.610  0.6198  0.1915 -0.0559
  234MPD1    H7 3615   2.768   0.512   9.451  3.0238  0.4927  0.7979
  235MPD1     C 3616   3.276   2.578  10.614 -0.4263  0.3903  0.1841
  235MPD1    C1 3617   3.225   2.666  10.524  1.1353 -0.5320 -0.7207
  235MPD1    C2 3618   3.259   2.802  10.533  0.5680  0.1619 -0.0337
  235MPD1    C3 3619   3.358   2.843  10.616  0.1595 -0.1507  0.1001
  235MPD1    C4 3620   3.423   2.744  10.694 -0.2275  0.3417 -0.3691
  235MPD1    C5 3621   3.388   2.610  10.688  0.4253 -0.0029 -0.8544
  235MPD1     H 3622   3.205   2.865  10.465  0.9774 -1.3875 -1.7857
  235MPD1    H1 3623   3.502   2.772  10.763  0.0576 -2.5335  0.4766
  235MPD1    H2 3624   3.231   2.479  10.618  1.6029 -0.4753  1.3298
  235MPD1    H3 3625   3.433   2.535  10.752 -1.9667  1.6926  2.8043
  235MPD1     N 3626   3.389   2.979  10.599  0.0360 -0.4916  0.0314
  235MPD1    H5 3627   3.320   3.029  10.545 -0.3170  0.8778  1.7337
  235MPD1    N1 3628   3.106   2.628  10.457 -0.2016 -0.1473 -0.4449
  235MPD1    H6 3629   3.085   2.685  10.376 -2.5416 -1.4639 -0.7694
  235MPD1    H7 3630   3.094   2.529  10.436  3.1817 -1.3384  3.1509
  236MPD1     C 3631   2.962   0.387  10.379  0.1263 -0.4234 -0.1284
  236MPD1    C1 3632   3.097   0.400  10.349  0.1886  0.0316  0.0413
  236MPD1    C2 3633   3.174   0.298  10.403 -1.0892 -0.5963  0.2247
  236MPD1    C3 3634   3.127   0.177  10.448 -0.7282 -0.3973  0.0750
  236MPD1    C4 3635   2.991   0.165  10.461 -0.0565  0.2363  0.2463
  236MPD1    C5 3636   2.912   0.270  10.424 -0.3167 -0.2684  0.0244
  236MPD1     H 3637   3.281   0.299  10.388 -1.2119 -1.9118 -0.7182
  236MPD1    H1 3638   2.947   0.077  10.508 -0.4807  0.3873  0.1342
  236MPD1    H2 3639   2.888   0.463  10.360  0.2543  0.4798  2.9853
  236MPD1    H3 3640   2.805   0.266  10.444 -0.7003  1.7118 -1.5533
  236MPD1     N 3641   3.214   0.073  10.494  0.4246  0.5450  0.3645
  236MPD1    H5 3642   3.171   4.726  10.530  1.4107 -0.5235 -0.9820
  236MPD1    N1 3643   3.154   0.525  10.305 -0.1051  0.6763 -0.3309
  236MPD1    H6 3644   3.103   0.574  10.232 -0.1407  0.8786 -0.1691
  236MPD1    H7 3645   3.238   0.492  10.257 -0.5608  2.7236 -2.5124
  237MPD1     C 3646   2.923   2.823  15.063  0.7480  0.0341 -0.5732
  237MPD1    C1 3647   2.837   2.923  15.038 -0.3950 -0.4777  0.2151
  237MPD1    C2 3648   2.727   2.933  15.115 -0.3079  0.0929 -0.3119
  237MPD1    C3 3649   2.697   2.839  15.213 -0.4384 -0.2084 -0.1999
  237MPD1    C4 3650   2.785   2.735  15.222 -0.7781 -0.6041  0.3029
  237MPD1    C5 3651   2.895   2.728  15.156 -0.4308 -0.4239  0.2436
  237MPD1     H 3652   2.661   3.017  15.098 -1.4015 -0.6215  0.3560
  237MPD1    H1 3653   2.762   2.662  15.299 -1.5312 -2.3383 -1.5500
  237MPD1    H2 3654   3.000   2.807  14.989 -0.0580  1.3756 -1.7048
  237MPD1    H3 3655   2.948   2.635  15.173  0.9854  0.5561  1.1623
  237MPD1     N 3656   2.574   2.845  15.283 -0.1803 -0.2805  0.4814
  237MPD1    H5 3657   2.570   2.771  15.353 -0.8882  0.9202  1.7201
  237MPD1    N1 3658   2.866   3.025  14.943 -0.0679  0.4956  0.4135
  237MPD1    H6 3659   2.938   3.002  14.875  2.0614  1.3455  2.3772
  237MPD1    H7 3660   2.792   3.075  14.894  0.6318  0.6509 -0.4854
  238MPD1     C 3661   0.087   0.999  15.469 -0.8982  0.1411 -0.0418
  238MPD1    C1 3662   0.085   1.088  15.358  0.1055 -0.0987 -0.4701
  238MPD1    C2 3663   4.707   1.131  15.300 -0.1712  0.3483 -0.1181
  238MPD1    C3 3664   4.587   1.098  15.353  0.4947 -0.3423 -1.7785
  238MPD1    C4 3665   4.585   1.013  15.463  0.3139 -0.2898  0.0155
  238MPD1    C5 3666   4.703   0.965  15.516 -0.5000  0.1806  0.2167
  238MPD1     H 3667   4.709   1.200  15.216  1.4515  1.3907  0.7853
  238MPD1    H1 3668   4.492   0.990  15.512 -0.8227  0.7378 -1.6752
  238MPD1    H2 3669   0.174   0.961  15.522 -1.5431  0.9105  1.5689
  238MPD1    H3 3670   4.701   0.894  15.598  0.1013 -0.5082 -0.3721
  238MPD1     N 3671   4.456   1.138  15.305 -0.4919  0.9772 -0.1498
  238MPD1    H5 3672   4.381   1.100  15.362  0.1368  0.3457  0.2428
  238MPD1    N1 3673   0.201   1.107  15.280 -0.4415  0.2621  0.2323
  238MPD1    H6 3674   0.197   1.196  15.230 -0.4378  0.2844  0.2721
  238MPD1    H7 3675   0.280   1.110  15.344  0.7583  2.8150 -1.3429
  239MPD1     C 3676   4.470   2.563  15.370  0.3399 -0.0362  0.1947
  239MPD1    C1 3677   4.361   2.646  15.367  0.2080 -0.1864 -0.4401
  239MPD1    C2 3678   4.288   2.651  15.250  0.0917  0.1677  1.0480
  239MPD1    C3 3679   4.318   2.587  15.133  0.3679 -0.0463 -0.0457
  239MPD1    C4 3680   4.426   2.507  15.132  0.5557 -0.1687  0.1901
  239MPD1    C5 3681   4.504   2.501  15.246  0.8936 -0.7434 -0.7156
  239MPD1     H 3682   4.201   2.716  15.249  0.1476  0.2360  0.5483
  239MPD1    H1 3683   4.460   2.450  15.047  0.7395 -1.4634  1.1368
  239MPD1    H2 3684   4.530   2.552  15.459 -0.1638 -0.6045  0.4667
  239MPD1    H3 3685   4.595   2.443  15.232  2.3095  2.2027 -3.6088
  239MPD1     N 3686   4.231   2.587  15.019  0.4694  0.0185 -0.5888
  239MPD1    H5 3687   4.250   2.521  14.944 -2.4442 -1.4165 -0.0801
  239MPD1    N1 3688   4.320   2.709  15.484 -0.2406  0.1151  0.0607
  239MPD1    H6 3689   4.390   2.714  15.558  0.3798  0.3506 -0.5334
  239MPD1    H7 3690   4.283   2.802  15.461  1.1940  0.4178 -1.0283
  240MPD1     C 3691   3.818   2.257  14.167 -0.6817  0.2754 -0.1229
  240MPD1    C1 3692   3.697   2.244  14.236  0.5514  0.0794 -0.2568
  240MPD1    C2 3693   3.695   2.159  14.346 -0.1417  0.7796 -0.2700
  240MPD1    C3 3694   3.801   2.074  14.368  0.2171  0.4836 -0.4819
  240MPD1    C4 3695   3.913   2.082  14.293 -0.3696 -0.4995 -0.9065
  240MPD1    C5 3696   3.914   2.176  14.192 -0.4442 -0.1058 -0.0593
  240MPD1     H 3697   3.597   2.152  14.392  0.7963 -0.0594  1.5924
  240MPD1    H1 3698   3.988   2.004  14.292  0.0912 -0.0594 -0.3749
  240MPD1    H2 3699   3.832   2.327  14.085  0.6332 -0.2598 -0.3585
  240MPD1    H3 3700   3.995   2.179  14.119 -0.9066 -2.8950 -0.6812
  240MPD1     N 3701   3.786   1.963  14.464 -0.0654 -0.2254  0.3527
  240MPD1    H5 3702   3.698   1.947  14.512 -0.2138 -1.2219 -0.2311
  240MPD1    N1 3703   3.584   2.318  14.203 -0.1845  0.0956 -0.0456
  240MPD1    H6 3704   3.590   2.359  14.110 -1.2177  0.8523  0.2164
  240MPD1    H7 3705   3.568   2.397  14.266 -1.2280 -0.2632  0.1390
  241MPD1     C 3706   4.443   1.833  15.193  0.4364 -0.9207 -0.4379
  241MPD1    C1 3707   4.338   1.756  15.242 -0.0178  0.0769 -0.2773
  241MPD1    C2 3708   4.229   1.750  15.160  0.2241  0.4077  0.2735
  241MPD1    C3 3709   4.230   1.800  15.031  0.5335  0.3694  0.1206
  241MPD1    C4 3710   4.330   1.883  14.986  0.1082  0.5453  0.4832
  241MPD1    C5 3711   4.436   1.904  15.076  0.4109 -0.5108  0.1405
  241MPD1     H 3712   4.144   1.686  15.183 -0.3525  1.4749  1.1115
  241MPD1    H1 3713   4.320   1.934  14.891  1.5209  0.9265  0.5322
  241MPD1    H2 3714   4.536   1.841  15.249  0.7798  1.0716 -1.2938
  241MPD1    H3 3715   4.518   1.970  15.048  0.1147 -0.2415 -0.0932
  241MPD1     N 3716   4.123   1.781  14.939  0.1107 -0.4538 -0.9533
  241MPD1    H5 3717   4.138   1.837  14.855 -2.4492  1.6632  0.0009
  241MPD1    N1 3718   4.334   1.703  15.369  0.4529  0.6541  0.1412
  241MPD1    H6 3719   4.258   1.636  15.379  1.0955  0.0359  0.9063
  241MPD1    H7 3720   4.414   1.654  15.409  2.1600  2.2565 -1.3460
  242MPD1     C 3721   3.285   4.150  15.701  0.0719 -0.0291 -0.5657
  242MPD1    C1 3722   3.333   4.189  15.820  0.0993 -0.8683  0.1182
  242MPD1    C2 3723   3.393   4.315  15.826  0.1959  0.9212 -0.3785
  242MPD1    C3 3724   3.405   4.395  15.711 -0.2913 -0.7160 -0.7776
  242MPD1    C4 3725   3.361   4.339  15.590  0.5386  0.5775 -0.2306
  242MPD1    C5 3726   3.302   4.218  15.584 -0.1071 -0.4008  1.1595
  242MPD1     H 3727   3.431   4.351  15.921  1.3933  1.4966 -1.0860
  242MPD1    H1 3728   3.371   4.400  15.501 -1.2299  2.0298  0.5554
  242MPD1    H2 3729   3.235   4.053  15.697 -1.3019  0.5348  2.6191
  242MPD1    H3 3730   3.270   4.176  15.489 -0.8007 -0.2342  1.3147
  242MPD1     N 3731   3.469   4.519  15.713  0.2066  0.3395  0.0117
  242MPD1    H5 3732   3.494   4.567  15.627  1.3475 -1.1290 -0.4777
  242MPD1    N1 3733   3.305   4.127  15.942 -0.0113 -0.5519 -0.0156
  242MPD1    H6 3734   3.287   4.028  15.928  2.5009 -0.7789 -1.5488
  242MPD1    H7 3735   3.381   4.137  16.009 -0.1490  0.0362  0.0606
  243MPD1     C 3736   4.303   4.065   0.148  0.0370  1.1164  0.1085
  243MPD1    C1 3737   4.417   4.038   0.225 -0.0407  0.2465  0.3636
  243MPD1    C2 3738   4.515   3.967   0.155  0.2535 -0.8536 -0.4864
  243MPD1    C3 3739   4.484   3.898   0.033 -0.1934  0.0968  0.3296
  243MPD1    C4 3740   4.370   3.910  17.715  0.8578 -0.1456  0.0207
  243MPD1    C5 3741   4.279   3.998   0.028  0.1815  0.1504  0.3731
  243MPD1     H 3742   4.614   3.963   0.198 -0.7428 -1.9133  1.7583
  243MPD1    H1 3743   4.340   3.855  17.627 -0.5224  0.7305 -0.0672
  243MPD1    H2 3744   4.220   4.123   0.189 -1.0524 -0.7751  0.5912
  243MPD1    H3 3745   4.191   4.023  17.719  0.0602  0.5153  0.7217
  243MPD1     N 3746   4.585   3.805  17.742 -0.2791 -0.2422 -0.5614
  243MPD1    H5 3747   4.668   3.804   0.054 -2.0893  3.2294  2.0285
  243MPD1    N1 3748   4.460   4.121   0.336 -0.4706 -0.4839 -0.0339
  243MPD1    H6 3749   4.520   4.074   0.403 -0.1782  0.2596  0.2299
  243MPD1    H7 3750   4.378   4.155   0.385  0.8618 -0.2378  2.0081
  244MPD1     C 3751   0.376   3.357   0.540 -0.1548  0.0419  1.0109
  244MPD1    C1 3752   0.284   3.451   0.544  0.3952 -0.4016 -0.5262
  244MPD1    C2 3753   0.218   3.485   0.429  0.3016 -0.3299 -0.5513
  244MPD1    C3 3754   0.241   3.429   0.304  0.2683 -0.8834  0.0921
  244MPD1    C4 3755   0.336   3.323   0.300  0.3152 -0.1609 -0.0128
  244MPD1    C5 3756   0.403   3.292   0.424  0.6755  0.9760 -0.0907
  244MPD1     H 3757   0.138   3.557   0.441 -0.0217 -0.9732  1.1262
  244MPD1    H1 3758   0.383   3.275   0.215 -2.0573 -1.6654 -0.4638
  244MPD1    H2 3759   0.446   3.340   0.622 -0.2840 -1.3149  0.8521
  244MPD1    H3 3760   0.471   3.209   0.408  1.2360  1.6020 -1.0036
  244MPD1     N 3761   0.170   3.475   0.199  0.1153  0.2794  0.3421
  244MPD1    H5 3762   0.109   3.555   0.212 -0.3001 -0.0134  0.1639
  244MPD1    N1 3763   0.271   3.520   0.669 -0.0608 -0.2512  0.4822
  244MPD1    H6 3764   0.172   3.528   0.693  0.1000 -0.4997  1.2327
  244MPD1    H7 3765   0.316   3.464   0.741 -0.1939  0.4223  1.0849
  245MPD1     C 3766   2.740   4.154  13.248  0.4113 -0.6049  0.4230
  245MPD1    C1 3767   2.798   4.125  13.370  0.4624  0.1181 -0.2802
  245MPD1    C2 3768   2.814   4.231  13.451  0.3459  0.3078  0.1045
  245MPD1    C3 3769   2.804   4.363  13.412 -0.8419 -0.4204  0.2423
  245MPD1    C4 3770   2.757   4.387  13.289 -0.2746 -0.5152 -0.3084
  245MPD1    C5 3771   2.722   4.287  13.207  0.2558  0.2954  0.3159
  245MPD1     H 3772   2.844   4.214  13.553  2.3986  1.7143 -0.2612
  245MPD1    H1 3773   2.741   4.486  13.250 -0.9537 -0.6928 -0.4830
  245MPD1    H2 3774   2.711   4.080  13.175  1.6830  0.4909 -1.1744
  245MPD1    H3 3775   2.682   4.311  13.110 -1.7146 -0.4051  0.9574
  245MPD1     N 3776   2.828   4.470  13.504  1.2300  0.2810  0.3880
  245MPD1    H5 3777   2.852   4.445  13.599 -1.0978  0.1624  0.9479
  245MPD1    N1 3778   2.806   3.990  13.411 -0.0716  0.3181  0.2165
  245MPD1    H6 3779   2.809   3.925  13.333 -2.1484  0.4623  0.0162
  245MPD1    H7 3780   2.864   3.974  13.493  2.2941  2.0128 -1.1209
  246MPD1     C 3781   0.011   0.514   9.370 -0.7972  1.1409  0.6362
  246MPD1    C1 3782   0.036   0.649   9.397 -0.0042 -0.7515  0.0873
  246MPD1    C2 3783   4.670   0.739   9.417 -0.9960  0.3670  0.0111
  246MPD1    C3 3784   4.542   0.709   9.378  0.1659  0.4954  0.2563
  246MPD1    C4 3785   4.519   0.582   9.344  0.3570  0.3728  0.9131
  246MPD1    C5 3786   4.613   0.486   9.351  0.2084  0.0830  0.1552
  246MPD1     H 3787   4.686   0.838   9.458 -0.2795  0.7563 -1.1862
  246MPD1    H1 3788   4.419   0.544   9.324  1.2665 -2.3862  1.6323
  246MPD1    H2 3789   0.090   0.440   9.367  0.1315  2.1770 -0.7022
  246MPD1    H3 3790   4.600   0.382   9.323 -1.9861  0.3536  0.1537
  246MPD1     N 3791   4.437   0.800   9.377  0.7231 -0.4382  0.0732
  246MPD1    H5 3792   4.467   0.891   9.409 -1.4212 -0.0077  0.8409
  246MPD1    N1 3793   0.165   0.701   9.418  0.5606  0.6794  0.2053
  246MPD1    H6 3794   0.172   0.802   9.412  0.2771  0.7838  1.5645
  246MPD1    H7 3795   0.243   0.643   9.389 -0.7701 -0.0785 -1.8345
  247MPD1     C 3796   1.364   0.529  15.983  0.5424  1.1302 -0.3533
  247MPD1    C1 3797   1.315   0.437  15.890 -0.1779 -0.1061  0.3922
  247MPD1    C2 3798   1.357   0.310  15.899 -0.1173 -0.1625  0.0823
  247MPD1    C3 3799   1.426   0.267  16.013 -0.8266 -0.4046  0.6754
  247MPD1    C4 3800   1.461   0.351  16.111  0.2330 -1.0202 -0.1867
  247MPD1    C5 3801   1.425   0.482  16.099 -0.4871  0.0827 -0.0250
  247MPD1     H 3802   1.327   0.238  15.823 -0.1187  0.0467 -0.1172
  247MPD1    H1 3803   1.524   0.308  16.189  1.5298 -0.7473 -1.0843
  247MPD1    H2 3804   1.346   0.635  15.970  0.8989  1.1111 -0.9700
  247MPD1    H3 3805   1.465   0.552  16.171 -1.1552  0.4564 -0.0281
  247MPD1     N 3806   1.467   0.131  16.031 -0.3777 -0.4724  0.7601
  247MPD1    H5 3807   1.505   0.113  16.123  2.2422  0.8674 -0.0473
  247MPD1    N1 3808   1.252   0.485  15.777  0.3415  0.8060  0.4927
  247MPD1    H6 3809   1.196   0.566  15.801 -1.0088 -0.2592  0.9094
  247MPD1    H7 3810   1.194   0.423  15.719 -0.5816  1.6560  0.5157
  248MPD1     C 3811   1.400   3.553   0.206 -0.0982  0.4069 -0.4520
  248MPD1    C1 3812   1.420   3.689   0.197  0.1150  0.5491  0.7600
  248MPD1    C2 3813   1.339   3.774   0.268  0.4730  0.4224  0.1586
  248MPD1    C3 3814   1.229   3.728   0.333 -0.1931 -0.5161 -0.3125
  248MPD1    C4 3815   1.211   3.589   0.350 -0.7122  0.0803 -1.4107
  248MPD1    C5 3816   1.301   3.502   0.289  0.2438 -0.0170  0.3147
  248MPD1     H 3817   1.367   3.879   0.269 -0.9765  0.8239 -2.0054
  248MPD1    H1 3818   1.132   3.534   0.400 -1.8928  2.3105 -0.8209
  248MPD1    H2 3819   1.462   3.486   0.147 -0.9373 -1.1666  0.4394
  248MPD1    H3 3820   1.287   3.395   0.300  0.6885 -0.1228 -0.1238
  248MPD1     N 3821   1.156   3.827   0.398  0.5159 -0.2328  0.2149
  248MPD1    H5 3822   1.201   3.917   0.413 -3.2105  1.7403 -0.3128
  248MPD1    N1 3823   1.535   3.736   0.131  0.3000  0.2635  0.5852
  248MPD1    H6 3824   1.518   3.818   0.074 -0.0525 -0.1019  0.1638
  248MPD1    H7 3825   1.577   3.666   0.069 -2.8389 -2.0451  1.0715
  249MPD1     C 3826   0.003   1.960  10.381 -0.1389  0.1487 -0.4303
  249MPD1    C1 3827   4.722   2.033  10.499  0.4497 -0.1562 -0.3197
  249MPD1    C2 3828   0.045   2.157  10.503 -0.1174 -0.5676 -0.7565
  249MPD1    C3 3829   0.117   2.209  10.399 -0.0001 -0.3996 -0.3171
  249MPD1    C4 3830   0.131   2.133  10.285 -0.4036 -0.3299 -0.3301
  249MPD1    C5 3831   0.077   2.007  10.278 -0.0579  0.0238 -0.5215
  249MPD1     H 3832   0.039   2.216  10.593 -0.8404 -1.3173 -0.3093
  249MPD1    H1 3833   0.195   2.165  10.203 -0.6555  1.7716  0.3117
  249MPD1    H2 3834   4.717   1.855  10.371 -2.1675  0.5702 -0.0813
  249MPD1    H3 3835   0.099   1.944  10.193 -0.4902  0.7315 -1.1603
  249MPD1     N 3836   0.168   2.339  10.420  0.2560 -0.4427 -0.6681
  249MPD1    H5 3837   0.134   2.383  10.505  0.5584 -0.7339 -0.3980
  249MPD1    N1 3838   4.639   1.982  10.593 -0.3603 -0.1735 -0.2072
  249MPD1    H6 3839   4.566   1.928  10.549 -1.0764  1.5852 -1.1716
  249MPD1    H7 3840   4.587   2.060  10.631 -1.6654 -0.9723 -0.3737
  250MPD2     C 3841   0.514   2.748  13.089  0.3573 -0.3487 -0.6112
  250MPD2    C1 3842   0.629   2.689  13.143 -0.1740  0.7181 -0.8313
  250MPD2    C2 3843   0.677   2.584  13.071 -0.0794 -0.1707 -0.3659
  250MPD2    C3 3844   0.628   2.547  12.947 -0.2816  0.1374 -0.8694
  250MPD2    C4 3845   0.522   2.614  12.893 -0.5523 -0.0482  0.5950
  250MPD2    C5 3846   0.459   2.714  12.963  0.1506 -0.2051 -0.2279
  250MPD2     H 3847   0.751   2.524  13.123 -0.9524 -2.6212 -1.9529
  250MPD2    H1 3848   0.484   2.590  12.794  1.0277  3.7481 -0.9455
  250MPD2    H2 3849   0.462   2.817  13.155 -0.7195 -2.8793  1.1722
  250MPD2    H3 3850   0.376   2.769  12.920  1.0465  1.5294  0.2578
  250MPD2     N 3851   0.673   2.430  12.874 -0.4616  0.9125  0.2694
  250MPD2    H5 3852   0.620   2.395  12.795 -1.2498  1.8508  0.3664
  250MPD2    N1 3853   0.682   2.734  13.265  0.2920 -0.1589 -0.2070
  250MPD2    H7 3854   0.622   2.798  13.316 -0.5836 -1.3581  0.2718
  251TMC3    C1 3855   0.851   2.791  13.427  0.5840  0.4171  0.0691
  251TMC3    C2 3856   0.760   2.866  13.496 -0.3552 -0.0389  0.2382
  251TMC3    C3 3857   0.815   2.926  13.613  0.6736  0.2952 -0.0045
  251TMC3    C4 3858   0.970   2.757  13.476 -1.2548 -0.0031 -0.0261
  251TMC3    C5 3859   1.022   2.825  13.584  0.0921 -0.2806 -0.0598
  251TMC3    C6 3860   0.945   2.910  13.657 -0.6228  1.0452  1.0303
  251TMC3     C 3861   0.817   2.727  13.302  0.9745 -0.2169  0.6224
  251TMC3     O 3862   0.910   2.682  13.241 -0.8344  0.3291 -0.0883
  251TMC3     H 3863   0.661   2.892  13.460 -0.1329  0.3764 -0.0727
  251TMC3    H1 3864   1.024   2.680  13.421  1.6376  2.3937 -0.5623
  251TMC3    H2 3865   0.973   2.947  13.755  2.8994  0.6110  0.1921
  251TMC3    C7 3866   1.167   2.817  13.606 -0.5796 -0.7727 -0.3035
  251TMC3    C8 3867   0.743   3.034  13.671  0.8601  0.0382  0.1422
  251TMC3    O1 3868   1.199   2.889  13.700  0.0214 -0.3177 -0.2265
  251TMC3    O2 3869   0.622   3.043  13.639  0.4251 -0.1798 -0.5992
  252TMC3    C1 3870   0.396   3.886   9.895 -0.4584  0.2713  0.6953
  252TMC3    C2 3871   0.527   3.918   9.868  0.2472 -0.1857  0.0392
  252TMC3    C3 3872   0.615   3.823   9.905  0.6741  0.2211 -0.0179
  252TMC3    C4 3873   0.348   3.772   9.953  0.2384  0.4619 -0.5630
  252TMC3    C5 3874   0.451   3.688   9.992  0.3861 -0.5442 -0.7065
  252TMC3    C6 3875   0.587   3.703   9.967  0.5544  0.7738  0.7573
  252TMC3     C 3876   0.294   3.965   9.827 -0.3093 -0.3330  0.6989
  252TMC3     O 3877   0.193   3.902   9.793 -0.0789 -0.3710 -0.7973
  252TMC3     H 3878   0.561   4.006   9.814  0.0459 -0.6126 -0.7995
  252TMC3    H1 3879   0.246   3.737   9.967  0.1371 -0.0880 -2.6622
  252TMC3    H2 3880   0.671   3.643   9.998 -1.6280 -1.7553  1.7901
  252TMC3    C7 3881   0.424   3.567  10.069  0.4205 -0.7381  0.3768
  252TMC3    C8 3882   0.757   3.851   9.897  0.1311 -0.2780  0.4844
  252TMC3    O1 3883   0.325   3.506  10.039 -0.4315  0.0829 -0.7327
  252TMC3    O2 3884   0.771   3.911   9.788 -0.2125 -0.2914 -0.7330
  253MPD2     C 3885   2.007   3.012  15.343  0.3974  0.5175  0.2458
  253MPD2    C1 3886   1.875   2.997  15.347 -0.2968  0.3986  0.1476
  253MPD2    C2 3887   1.813   2.967  15.467 -0.2165 -0.5489  0.0819
  253MPD2    C3 3888   1.891   2.967  15.587  0.3177  0.5309  0.0471
  253MPD2    C4 3889   2.017   3.005  15.579 -0.0385  0.1456 -0.2294
  253MPD2    C5 3890   2.075   3.033  15.458 -0.8933 -0.6451  0.2978
  253MPD2     H 3891   1.710   2.935  15.468 -0.6779  0.9413 -0.4014
  253MPD2    H1 3892   2.077   3.001  15.670 -1.4252  1.0160  0.7313
  253MPD2    H2 3893   2.053   3.037  15.249 -2.6998 -0.7440 -1.6038
  253MPD2    H3 3894   2.180   3.063  15.460 -1.1510  0.1855  1.2685
  253MPD2     N 3895   1.836   2.930  15.715 -0.2269 -0.5062  0.2578
  253MPD2    H5 3896   1.895   2.949  15.795  1.0052 -2.0184 -0.2989
  253MPD2    N1 3897   1.794   2.999  15.232  0.3680  0.0638  0.2676
  253MPD2    H7 3898   1.697   2.983  15.258 -0.0661 -1.3615 -2.2179
  254TMC3    C1 3899   1.673   2.874  15.873  0.4507 -0.0020 -0.1169
  254TMC3    C2 3900   1.543   2.882  15.911 -0.2425  0.2133  0.4376
  254TMC3    C3 3901   1.514   2.866  16.044 -0.3195  0.8653  0.6213
  254TMC3    C4 3902   1.773   2.833  15.960  0.2218 -0.2534 -0.5971
  254TMC3    C5 3903   1.734   2.803  16.088 -0.3487  0.1351  0.2969
  254TMC3    C6 3904   1.610   2.820  16.129  0.1007  0.2209  0.4431
  254TMC3     C 3905   1.705   2.917  15.738 -0.2935  0.3271  0.3295
  254TMC3     O 3906   1.609   2.939  15.666  0.0059 -0.0766 -0.2659
  254TMC3     H 3907   1.469   2.912  15.837  0.3713  1.3503  0.2948
  254TMC3    H1 3908   1.873   2.812  15.925 -0.4242 -0.3979 -2.3649
  254TMC3    H2 3909   1.578   2.796  16.230 -2.4410 -3.7212 -1.2769
  254TMC3    C7 3910   1.831   2.765  16.187  0.0846 -0.4497  0.3005
  254TMC3    C8 3911   1.395   2.930  16.096 -0.2240  0.9103  0.4796
  254TMC3    O1 3912   1.790   2.693  16.281 -0.1956  0.0633 -0.3759
  254TMC3    O2 3913   1.395   2.941  16.216 -0.3578  0.5596  0.4073
  255MPD2     C 3914   0.091   4.557  10.270  0.8792 -0.5992  0.1415
  255MPD2    C1 3915   0.116   4.676  10.328  0.0898  0.3688 -0.7028
  255MPD2    C2 3916   0.245   4.714  10.346 -0.1342  0.5242 -0.3725
  255MPD2    C3 3917   0.351   4.632  10.312 -0.1701 -0.1214  0.5497
  255MPD2    C4 3918   0.318   4.497  10.285  0.4113  0.1085  0.2963
  255MPD2    C5 3919   0.188   4.462  10.256 -0.5808 -0.2489 -0.2773
  255MPD2     H 3920   0.267   0.079  10.375 -1.1288  0.9295 -1.0558
  255MPD2    H1 3921   0.399   4.425  10.291 -0.9335 -1.5858 -2.0615
  255MPD2    H2 3922   4.729   4.522  10.246  0.2388  2.9442 -2.2594
  255MPD2    H3 3923   0.163   4.357  10.241 -2.4873  0.1494  0.0873
  255MPD2     N 3924   0.480   4.683  10.330 -0.1417  0.2460 -0.1092
  255MPD2    H5 3925   0.482   0.042  10.361 -1.2416  0.2271  0.0371
  255MPD2    N1 3926   0.008   0.027  10.345  0.4296  0.2983  0.1735
  255MPD2    H7 3927   4.656   4.731  10.310  0.8153  0.0141 -0.5410
  256TMC3    C1 3928   4.626   0.221  10.369  0.3072  0.3175  0.0345
  256TMC3    C2 3929   4.608   0.338  10.445  0.0470  0.7067 -0.1397
  256TMC3    C3 3930   4.529   0.433  10.383  0.3898  0.6285  0.8535
  256TMC3    C4 3931   4.596   0.218  10.235 -0.1153  1.4641 -0.1181
  256TMC3    C5 3932   4.523   0.323  10.186 -0.0716  0.4842 -0.1410
  256TMC3    C6 3933   4.465   0.415  10.265 -0.4841 -0.5219  0.2579
  256TMC3     C 3934   0.002   0.143  10.415  0.2726 -0.1778  0.3062
  256TMC3     O 3935   0.079   0.198  10.495  0.1124 -0.3315  0.0688
  256TMC3     H 3936   4.642   0.335  10.547 -2.4257 -1.5644  0.6128
  256TMC3    H1 3937   4.642   0.149  10.166 -1.8595 -0.2835  0.4728
  256TMC3    H2 3938   4.399   0.492  10.228 -2.4320 -1.8547  0.9452
  256TMC3    C7 3939   4.472   0.300  10.049 -0.6708 -0.2525 -0.2840
  256TMC3    C8 3940   4.566   0.571  10.413  0.4356  0.9587  0.4737
  256TMC3    O1 3941   4.472   0.180  10.022  0.1009  1.1835 -0.4818
  256TMC3    O2 3942   4.493   0.662  10.380 -0.5515  0.1619 -0.4053
  257MPD2     C 3943   3.840   2.545  13.265  0.7488 -0.2115 -0.5213
  257MPD2    C1 3944   3.968   2.533  13.211 -0.1243  0.1172  0.4532
  257MPD2    C2 3945   4.058   2.435  13.249  0.1940 -0.3743 -1.0348
  257MPD2    C3 3946   4.018   2.348  13.343 -0.6318  0.2360 -0.2531
  257MPD2    C4 3947   3.882   2.351  13.386 -0.4222  0.3902  0.5142
  257MPD2    C5 3948   3.795   2.453  13.352  0.0297 -0.2515  0.0815
  257MPD2     H 3949   4.158   2.452  13.212  0.7125 -0.0700  0.5023
  257MPD2    H1 3950   3.843   2.273  13.451  1.0881 -1.1690 -0.4432
  257MPD2    H2 3951   3.775   2.618  13.219  2.2449  1.9224  0.7709
  257MPD2    H3 3952   3.694   2.453  13.393  0.2483 -1.2762  0.5974
  257MPD2     N 3953   4.114   2.262  13.404  0.3519 -0.1704  0.7837
  257MPD2    H5 3954   4.208   2.253  13.366  0.1114 -2.1416  0.6890
  257MPD2    N1 3955   4.017   2.635  13.130  0.1587  0.6067  0.4497
  257MPD2    H7 3956   4.118   2.630  13.121  0.1154  0.4123  0.0621
  258TMC3    C1 3957   4.183   2.106  13.570 -0.4565 -0.0359  0.5154
  258TMC3    C2 3958   4.293   2.082  13.489 -0.1237 -0.6465 -0.0792
  258TMC3    C3 3959   4.392   2.012  13.552  0.0967 -0.3424 -0.6237
  258TMC3    C4 3960   4.170   2.075  13.706 -0.0905  0.2014 -0.4170
  258TMC3    C5 3961   4.278   2.011  13.762 -0.2829 -0.4572  0.1121
  258TMC3    C6 3962   4.387   1.985  13.688 -0.4935  0.3115 -0.7536
  258TMC3     C 3963   4.087   2.198  13.522  0.0694 -0.3802 -0.0144
  258TMC3     O 3964   4.000   2.220  13.599  0.2973  0.3612 -0.2492
  258TMC3     H 3965   4.313   2.108  13.385  2.2676 -1.3600  0.2044
  258TMC3    H1 3966   4.082   2.099  13.766 -0.9457 -1.0839 -1.1696
  258TMC3    H2 3967   4.476   1.954  13.742 -0.3447  1.2974 -0.4387
  258TMC3    C7 3968   4.277   1.975  13.899 -0.2076 -0.6695  1.0188
  258TMC3    C8 3969   4.519   1.992  13.485  0.7670  0.2367 -0.1983
  258TMC3    O1 3970   4.163   1.955  13.943 -0.1564  0.1762  0.6400
  258TMC3    O2 3971   4.537   2.055  13.384 -0.5544 -0.1388  0.0679
  259MPD2     C 3972   2.806   0.184   0.670 -0.0927  0.3089  0.7182
  259MPD2    C1 3973   2.893   0.082   0.654 -0.3641  0.8411  0.2921
  259MPD2    C2 3974   2.941   0.060   0.524 -0.6067  0.5261 -0.2085
  259MPD2    C3 3975   2.905   0.145   0.416 -0.2441 -0.2342  0.8030
  259MPD2    C4 3976   2.824   0.251   0.442 -0.8692 -0.1450 -0.5661
  259MPD2    C5 3977   2.780   0.272   0.569 -0.1761  0.1199  0.0752
  259MPD2     H 3978   3.018   4.722   0.514 -0.2646  0.8411  0.0470
  259MPD2    H1 3979   2.797   0.320   0.363 -3.3899  0.9566  1.2398
  259MPD2    H2 3980   2.763   0.204   0.767 -3.8334 -0.6039 -0.7715
  259MPD2    H3 3981   2.711   0.354   0.586 -1.5811 -0.9438 -0.5335
  259MPD2     N 3982   2.973   0.117   0.288 -0.0429 -0.0559 -0.3549
  259MPD2    H5 3983   3.031   0.034   0.280 -1.0961 -0.6837 -1.6685
  259MPD2    N1 3984   2.937   0.016   0.775  0.3255 -0.0382  0.1817
  259MPD2    H7 3985   2.894   0.051   0.860  0.1780  2.6782 -1.0134
  260TMC3    C1 3986   3.066   0.152   0.083 -0.0794  0.2848 -1.1554
  260TMC3    C2 3987   3.191   0.199   0.101  0.8504 -0.0164  0.0803
  260TMC3    C3 3988   3.296   0.123   0.053  0.2023 -0.5633 -0.5895
  260TMC3    C4 3989   3.043   0.021   0.038 -0.1780  0.1295  0.4762
  260TMC3    C5 3990   3.155   4.678   0.018  0.3500  0.0025  0.1957
  260TMC3    C6 3991   3.279   4.731   0.009 -0.0958  0.5751 -0.4410
  260TMC3     C 3992   2.973   0.200   0.182 -0.3480  0.3267  0.2136
  260TMC3     O 3993   2.947   0.320   0.179 -0.7757 -0.1278 -0.6412
  260TMC3     H 3994   3.196   0.302   0.131 -0.2259  0.4196 -1.2304
  260TMC3    H1 3995   2.941   4.726   0.024  0.5509 -1.5795 -0.8513
  260TMC3    H2 3996   3.363   4.671  17.722 -0.7956  0.4739 -1.9092
  260TMC3    C7 3997   3.141   4.542   0.027  0.2645  0.3088  0.4504
  260TMC3    C8 3998   3.423   0.182   0.072  0.1685  0.0104  0.6168
  260TMC3    O1 3999   3.242   4.482  17.741 -0.0511  0.1557  0.3947
  260TMC3    O2 4000   3.443   0.301   0.072  1.2452  0.2197 -0.4913
  261MPD2     C 4001   0.555   2.110  12.242  0.4339 -0.1247 -1.2863
  261MPD2    C1 4002   0.595   2.229  12.298  0.2938 -0.1692 -0.7226
  261MPD2    C2 4003   0.563   2.350  12.232 -0.2262 -0.7181  0.5893
  261MPD2    C3 4004   0.497   2.351  12.109 -0.5290 -0.3927  0.0567
  261MPD2    C4 4005   0.458   2.234  12.053  1.0350  0.1791 -0.8154
  261MPD2    C5 4006   0.490   2.115  12.115 -0.3935  0.3281 -0.3416
  261MPD2     H 4007   0.589   2.448  12.272  0.7445 -1.0543  0.7694
  261MPD2    H1 4008   0.408   2.216  11.958 -0.4294  1.8087 -0.3425
  261MPD2    H2 4009   0.570   2.013  12.287  1.0552  0.8969  0.6915
  261MPD2    H3 4010   0.468   2.023  12.062 -0.8121  1.6705 -2.5066
  261MPD2     N 4011   0.476   2.475  12.049  0.2130 -0.4994  0.1441
  261MPD2    H5 4012   0.524   2.559  12.079  0.4373 -0.7336  0.4370
  261MPD2    N1 4013   0.685   2.224  12.402 -0.5243  0.4200  0.0144
  261MPD2    H7 4014   0.692   2.319  12.438  0.0491  0.3234  0.1495
  262TMC3    C1 4015   0.414   2.626  11.889 -0.3713 -0.0251  0.3229
  262TMC3    C2 4016   0.310   2.708  11.903 -0.5215  0.5257  0.0545
  262TMC3    C3 4017   0.333   2.841  11.877 -0.8952  0.0157 -0.0272
  262TMC3    C4 4018   0.544   2.659  11.870  0.7800  0.1337  0.6636
  262TMC3    C5 4019   0.564   2.792  11.861 -0.0772  0.2996  0.2569
  262TMC3    C6 4020   0.464   2.884  11.873 -0.4896  0.5420 -0.2995
  262TMC3     C 4021   0.399   2.488  11.937 -0.3271 -0.1296  0.2776
  262TMC3     O 4022   0.311   2.418  11.891  0.5026 -0.0263  0.4159
  262TMC3     H 4023   0.215   2.659  11.917 -0.9681  0.6721 -2.3847
  262TMC3    H1 4024   0.618   2.580  11.868  0.3541 -0.1563 -4.0437
  262TMC3    H2 4025   0.489   2.990  11.868  0.2099  0.4765  2.0146
  262TMC3    C7 4026   0.689   2.836  11.802  0.4349 -0.3709  1.0413
  262TMC3    C8 4027   0.227   2.942  11.907  0.2066  0.0379  0.7095
  262TMC3    O1 4028   0.785   2.770  11.820 -0.2598  0.4082  0.1975
  262TMC3    O2 4029   0.255   3.061  11.884 -0.6010  0.0234  0.8157
  263MPD2     C 4030   1.282   1.910  11.945 -0.4647  0.1147  0.2952
  263MPD2    C1 4031   1.417   1.938  11.907 -0.0263 -0.1895  1.5341
  263MPD2    C2 4032   1.446   2.051  11.838 -0.4389 -0.5888 -0.1201
  263MPD2    C3 4033   1.355   2.151  11.834 -0.4232  0.0458  0.0240
  263MPD2    C4 4034   1.229   2.135  11.884 -0.3033 -1.0104 -0.1330
  263MPD2    C5 4035   1.186   2.014  11.930  1.1048  0.2321 -0.2348
  263MPD2     H 4036   1.539   2.073  11.787 -0.5120  1.7472  0.7370
  263MPD2    H1 4037   1.149   2.209  11.881  0.1874 -0.3330  3.0176
  263MPD2    H2 4038   1.258   1.813  11.987  0.9790  0.8664  2.8306
  263MPD2    H3 4039   1.082   2.009  11.958  1.1683  0.7518  0.0936
  263MPD2     N 4040   1.402   2.270  11.771 -0.2213  0.4610  0.3739
  263MPD2    H5 4041   1.497   2.275  11.734  0.7069  0.3898  2.7377
  263MPD2    N1 4042   1.511   1.838  11.926 -0.0577 -0.4802 -0.1199
  263MPD2    H7 4043   1.481   1.754  11.975  1.4177 -0.5567  0.6546
  264TMC3    C1 4044   1.412   2.486  11.699 -0.6488 -0.2198  0.4592
  264TMC3    C2 4045   1.389   2.611  11.747 -1.1809  0.2052  0.1936
  264TMC3    C3 4046   1.463   2.713  11.693 -0.2872 -0.2027  0.0246
  264TMC3    C4 4047   1.489   2.460  11.589  0.8136 -0.8960  0.3388
  264TMC3    C5 4048   1.559   2.566  11.538 -0.0897 -0.2366 -0.3500
  264TMC3    C6 4049   1.554   2.692  11.588  0.1053  0.0418  0.1376
  264TMC3     C 4050   1.328   2.383  11.753 -0.4200 -0.8073  0.4604
  264TMC3     O 4051   1.219   2.417  11.795  0.3381 -0.3978  0.1534
  264TMC3     H 4052   1.347   2.622  11.847 -1.5402 -2.4310  0.3388
  264TMC3    H1 4053   1.478   2.365  11.538  1.1114 -0.3328 -0.7644
  264TMC3    H2 4054   1.612   2.772  11.543 -1.4772  1.4692  0.6516
  264TMC3    C7 4055   1.639   2.548  11.420  0.1524  0.6379  0.6439
  264TMC3    C8 4056   1.488   2.832  11.767  0.2787  0.7319  0.4337
  264TMC3    O1 4057   1.682   2.647  11.365 -0.0025  0.1217  0.1468
  264TMC3    O2 4058   1.592   2.890  11.739 -0.2321 -0.4747 -0.4128
  265MPD2     C 4059   2.813   2.371  15.943  0.4320  0.3534  0.1105
  265MPD2    C1 4060   2.829   2.460  15.834 -0.7823  0.1771 -0.1349
  265MPD2    C2 4061   2.858   2.408  15.708 -0.7390  0.1367 -0.1431
  265MPD2    C3 4062   2.887   2.276  15.688  0.6208 -0.5578 -0.4963
  265MPD2    C4 4063   2.879   2.191  15.797 -0.0932 -0.1038 -0.3118
  265MPD2    C5 4064   2.851   2.243  15.919  0.0904 -0.0027  0.7462
  265MPD2     H 4065   2.859   2.485  15.632 -1.0502  0.4884  0.2155
  265MPD2    H1 4066   2.896   2.086  15.779 -0.5179  0.0654 -1.7121
  265MPD2    H2 4067   2.763   2.393  16.037  1.2186  1.5413  0.2504
  265MPD2    H3 4068   2.837   2.175  16.003  3.3800 -0.7718  0.6792
  265MPD2     N 4069   2.936   2.223  15.566  0.0738  0.4994  0.2565
  265MPD2    H5 4070   2.979   2.131  15.570  2.2041  1.4846 -0.0722
  265MPD2    N1 4071   2.802   2.595  15.850 -0.4229  0.1658 -0.5315
  265MPD2    H7 4072   2.802   2.642  15.760 -1.2839 -0.8184 -1.0467
  266TMC3    C1 4073   2.779   2.803  15.969 -0.3899  0.7819  0.2675
  266TMC3    C2 4074   2.829   2.884  16.072 -0.3147 -0.2649 -0.3410
  266TMC3    C3 4075   2.831   3.023  16.053 -0.4594 -0.0220  0.2391
  266TMC3    C4 4076   2.713   2.862  15.865 -0.1375 -0.0764  0.9112
  266TMC3    C5 4077   2.717   2.999  15.860 -0.2026  0.0091 -0.1604
  266TMC3    C6 4078   2.779   3.087  15.946 -1.2090  0.1790 -0.6001
  266TMC3     C 4079   2.792   2.660  15.975  0.8147  0.7792 -0.1222
  266TMC3     O 4080   2.815   2.610  16.081  0.0049 -0.1081  0.1675
  266TMC3     H 4081   2.888   2.826  16.143  1.3442  2.8071  0.7644
  266TMC3    H1 4082   2.655   2.806  15.793  1.2250 -0.2412 -0.0703
  266TMC3    H2 4083   2.765   3.194  15.949 -0.2714  0.2837 -0.1993
  266TMC3    C7 4084   2.643   3.052  15.744 -0.2020 -0.1227 -0.4323
  266TMC3    C8 4085   2.922   3.090  16.153  0.3052  0.7854  0.7428
  266TMC3    O1 4086   2.560   2.977  15.693  0.2681 -0.2295 -0.7352
  266TMC3    O2 4087   2.985   3.014  16.226  0.2423  0.1056  0.2616
  267MPD2     C 4088   0.069   0.144   0.561 -0.9865 -0.2434 -0.0289
  267MPD2    C1 4089   0.122   0.043   0.487 -0.7743 -0.5710  0.0746
  267MPD2    C2 4090   0.053   4.733   0.372  0.0051 -0.4614 -0.5567
  267MPD2    C3 4091   4.671   0.064   0.345  1.0525  0.2665  1.2407
  267MPD2    C4 4092   4.626   0.168   0.415 -0.3024 -0.3558 -0.5692
  267MPD2    C5 4093   4.691   0.201   0.525  0.4615  0.3147  0.1684
  267MPD2     H 4094   0.087   4.665   0.294 -0.4103 -0.8177 -0.4281
  267MPD2    H1 4095   4.531   0.216   0.395 -0.2105  0.0184 -0.0866
  267MPD2    H2 4096   0.128   0.190   0.639  0.0803  1.4973 -1.8796
  267MPD2    H3 4097   4.645   0.277   0.588  0.9689 -0.2298  1.2017
  267MPD2     N 4098   4.601   0.031   0.226  0.6131 -0.4707  0.8097
  267MPD2    H5 4099   4.544   0.101   0.180  0.1845 -1.7495 -0.6178
  267MPD2    N1 4100   0.253   4.727   0.524  0.0382  0.0377  0.0467
  267MPD2    H7 4101   0.295   0.037   0.604 -1.3614  0.2539  0.6395
  268TMC3    C1 4102   0.462   4.604   0.498 -0.1278  0.1160  0.0057
  268TMC3    C2 4103   0.563   4.573   0.414  0.5183  0.0867 -0.5075
  268TMC3    C3 4104   0.661   4.492   0.458 -0.5577 -0.0533 -0.0141
  268TMC3    C4 4105   0.452   4.546   0.625  0.3261  0.5579  0.1328
  268TMC3    C5 4106   0.548   4.465   0.668  0.0787  0.1326  0.2042
  268TMC3    C6 4107   0.658   4.439   0.585 -0.5635 -0.6429 -0.0027
  268TMC3     C 4108   0.334   4.650   0.443  0.3267 -0.5902 -0.3047
  268TMC3     O 4109   0.311   4.605   0.326 -0.4083 -0.2441 -0.0632
  268TMC3     H 4110   0.564   4.619   0.316 -2.0515 -1.1845 -1.1253
  268TMC3    H1 4111   0.372   4.564   0.695  0.7142  1.2515  0.4039
  268TMC3    H2 4112   0.724   4.358   0.614 -0.4016 -1.2031 -1.9682
  268TMC3    C7 4113   0.580   4.478   0.807  0.2826 -0.0298  0.2305
  268TMC3    C8 4114   0.738   4.421   0.361  0.2317 -0.1019 -0.5093
  268TMC3    O1 4115   0.517   4.560   0.865  0.1244 -0.3609 -0.6338
  268TMC3    O2 4116   0.808   4.334   0.403 -0.4874 -0.0160 -0.2845
  269MPD2     C 4117   1.015   3.220  15.606 -0.3326 -0.6537  0.0694
  269MPD2    C1 4118   0.909   3.237  15.684  0.4670  0.0549 -0.1432
  269MPD2    C2 4119   0.861   3.368  15.705  0.3464  0.2430  0.7381
  269MPD2    C3 4120   0.916   3.472  15.626 -0.4574 -0.1466  0.5051
  269MPD2    C4 4121   1.028   3.450  15.550  0.2272 -0.3939  0.8447
  269MPD2    C5 4122   1.076   3.321  15.543  0.6535  0.3203 -1.0796
  269MPD2     H 4123   0.784   3.390  15.778  0.0917  1.7602  0.0053
  269MPD2    H1 4124   1.081   3.534  15.508  1.8785 -1.5688  0.6032
  269MPD2    H2 4125   1.051   3.120  15.588  0.4539 -0.6947  1.8971
  269MPD2    H3 4126   1.162   3.293  15.483  0.7648  0.2848 -0.9025
  269MPD2     N 4127   0.867   3.606  15.650 -0.0597  0.0173  0.1534
  269MPD2    H5 4128   0.791   3.619  15.715 -1.2415 -0.2358 -1.1797
  269MPD2    N1 4129   0.865   3.120  15.750  0.1667  0.4995 -0.1271
  269MPD2    H7 4130   0.917   3.035  15.729  0.4701  1.0272 -1.5190
  270TMC3    C1 4131   0.761   2.985  15.906 -0.1813  0.7861  0.5589
  270TMC3    C2 4132   0.641   2.930  15.938  0.1087 -0.9773 -0.0919
  270TMC3    C3 4133   0.639   2.795  15.974 -0.1631  0.8285 -0.2972
  270TMC3    C4 4134   0.883   2.931  15.948 -1.1383 -0.2740 -0.7336
  270TMC3    C5 4135   0.881   2.805  16.008  0.1620  0.4472  0.1357
  270TMC3    C6 4136   0.760   2.740  16.011  0.4894  0.2180  0.0831
  270TMC3     C 4137   0.765   3.115  15.845 -0.5238 -0.8085 -0.3947
  270TMC3     O 4138   0.665   3.192  15.857  0.0176  0.5053  0.6146
  270TMC3     H 4139   0.552   2.983  15.906 -0.0811 -2.1047 -1.4311
  270TMC3    H1 4140   0.975   2.978  15.914 -1.3734  0.4704 -0.3370
  270TMC3    H2 4141   0.762   2.636  16.042 -3.2248  0.5793  1.5310
  270TMC3    C7 4142   0.980   2.717  15.949  0.6682 -1.0004 -0.3946
  270TMC3    C8 4143   0.578   2.706  15.894 -0.2488 -0.3484 -0.7162
  270TMC3    O1 4144   1.094   2.759  15.953 -0.2706 -0.1870  0.0284
  270TMC3    O2 4145   0.653   2.610  15.860  0.3733  0.0074 -0.3906
  271MPD2     C 4146   4.629   2.612  14.080 -0.0849  0.0934 -0.4493
  271MPD2    C1 4147   4.622   2.693  14.187  0.1529  0.8370  0.0140
  271MPD2    C2 4148   4.529   2.797  14.190  0.7466  0.5529  0.1499
  271MPD2    C3 4149   4.424   2.810  14.092 -0.2240  0.9047  0.6444
  271MPD2    C4 4150   4.424   2.713  13.996 -0.4644 -0.3930 -0.4411
  271MPD2    C5 4151   4.529   2.623  13.994  0.5449  0.5710  0.1372
  271MPD2     H 4152   4.535   2.863  14.276 -1.2943 -2.0770  2.3086
  271MPD2    H1 4153   4.355   2.707  13.913 -1.0722 -2.6046  0.2041
  271MPD2    H2 4154   4.693   2.526  14.071  0.7752  0.4935  1.8792
  271MPD2    H3 4155   4.516   2.549  13.916 -1.9542 -1.3699  2.4176
  271MPD2     N 4156   4.337   2.916  14.083 -0.1461 -0.0261 -0.3475
  271MPD2    H5 4157   4.285   2.914  13.996  1.0294 -0.0312 -1.0467
  271MPD2    N1 4158   4.716   2.687  14.293 -0.7197 -0.2812 -0.4983
  271MPD2    H7 4159   4.698   2.748  14.372  0.7139 -2.5093  1.5719
  272TMC3    C1 4160   0.148   2.588  14.419 -0.1212 -0.9289  0.3110
  272TMC3    C2 4161   0.271   2.531  14.427 -0.3137  0.0534  0.0871
  272TMC3    C3 4162   0.308   2.473  14.546 -0.4184 -0.3501 -0.4054
  272TMC3    C4 4163   0.061   2.588  14.528 -0.3190 -0.4216  0.0135
  272TMC3    C5 4164   0.114   2.544  14.647 -0.3004 -0.2430  0.6892
  272TMC3    C6 4165   0.239   2.493  14.662 -0.3552  0.0094  0.1433
  272TMC3     C 4166   0.087   2.599  14.290  0.2387  0.0132 -0.6737
  272TMC3     O 4167   0.124   2.515  14.211 -0.4197  0.2201 -0.2862
  272TMC3     H 4168   0.323   2.514  14.334 -0.3304  1.1820 -0.1186
  272TMC3    H1 4169   4.694   2.609  14.508  0.0064  0.9669 -0.2495
  272TMC3    H2 4170   0.286   2.458  14.754  1.3152 -0.9136 -1.0618
  272TMC3    C7 4171   0.030   2.560  14.761 -0.3064  0.3033  0.0619
  272TMC3    C8 4172   0.447   2.430  14.549 -0.0685 -0.1530  0.3800
  272TMC3    O1 4173   4.649   2.568  14.744 -0.2296  0.2388  0.2995
  272TMC3    O2 4174   0.504   2.455  14.450 -0.2771  0.0484 -0.3647
  273MPD2     C 4175   1.689   0.609  11.993 -0.5555  0.2783 -0.1835
  273MPD2    C1 4176   1.776   0.721  11.995 -0.4452  0.4541  0.3218
  273MPD2    C2 4177   1.830   0.774  11.877  0.2637  0.5853 -0.0308
  273MPD2    C3 4178   1.785   0.726  11.755 -0.1148  0.3441 -0.0070
  273MPD2    C4 4179   1.687   0.626  11.751  0.3140  0.1285  0.5022
  273MPD2    C5 4180   1.643   0.570  11.869  0.1566 -0.0047  0.3708
  273MPD2     H 4181   1.903   0.854  11.884  0.5446  0.4327 -1.2625
  273MPD2    H1 4182   1.647   0.588  11.658  1.2197 -0.0747  0.1990
  273MPD2    H2 4183   1.640   0.554  12.073  0.1729  1.1675  0.8708
  273MPD2    H3 4184   1.556   0.505  11.865 -0.7217  1.3661 -2.3912
  273MPD2     N 4185   1.835   0.789  11.637  0.2055  0.0900  0.4410
  273MPD2    H5 4186   1.901   0.865  11.650 -0.7551  0.8793  0.6989
  273MPD2    N1 4187   1.819   0.775  12.116  0.1893 -0.9754  0.1843
  273MPD2    H7 4188   1.760   0.760  12.197 -0.3356 -0.0408 -0.0228
  274TMC3    C1 4189   1.804   0.869  11.416 -0.2088  0.1937 -0.0324
  274TMC3    C2 4190   1.707   0.891  11.321  0.7142 -0.0244  1.2431
  274TMC3    C3 4191   1.747   0.956  11.210 -0.2664 -0.1271 -0.0908
  274TMC3    C4 4192   1.930   0.929  11.407  0.0758 -0.3890 -0.8579
  274TMC3    C5 4193   1.959   1.004  11.300  0.4404  0.6690  0.6214
  274TMC3    C6 4194   1.874   1.008  11.190 -0.4805  0.3590 -0.0382
  274TMC3     C 4195   1.764   0.784  11.521 -0.4385  0.0861 -0.3165
  274TMC3     O 4196   1.671   0.710  11.490  0.2126  0.8289  0.5303
  274TMC3     H 4197   1.606   0.859  11.346  0.9528 -0.4685  1.6297
  274TMC3    H1 4198   1.999   0.919  11.489  0.0054 -2.9428 -1.0957
  274TMC3    H2 4199   1.891   1.078  11.110 -3.5733  2.1907  0.8855
  274TMC3    C7 4200   2.041   1.121  11.309 -0.0629 -0.3851  0.6258
  274TMC3    C8 4201   1.652   0.982  11.109  0.7041  0.8930 -0.2719
  274TMC3    O1 4202   2.097   1.160  11.204  0.2178 -0.1646  0.1590
  274TMC3    O2 4203   1.661   1.090  11.053  0.1275 -0.1149 -0.1925
  275MPD2     C 4204   1.644   3.599  14.633 -0.3783 -0.2489  0.3648
  275MPD2    C1 4205   1.562   3.684  14.694 -0.8386 -0.6331 -0.2195
  275MPD2    C2 4206   1.433   3.639  14.721  0.9808  0.2375  0.0970
  275MPD2    C3 4207   1.387   3.509  14.703  0.5897 -0.0157  0.3445
  275MPD2    C4 4208   1.477   3.430  14.632  0.0749  0.5028  0.8417
  275MPD2    C5 4209   1.603   3.478  14.604 -0.1732 -0.1170 -0.9327
  275MPD2     H 4210   1.366   3.714  14.761 -0.7602 -0.0703 -2.2091
  275MPD2    H1 4211   1.464   3.323  14.623  2.5204  0.2905 -0.1738
  275MPD2    H2 4212   1.749   3.621  14.619 -0.2742 -1.4526 -0.6910
  275MPD2    H3 4213   1.676   3.407  14.567  2.3738  2.0571 -0.1173
  275MPD2     N 4214   1.272   3.452  14.758  0.0826 -0.0638  0.3578
  275MPD2    H5 4215   1.254   3.354  14.737 -1.4916  0.1556  0.6732
  275MPD2    N1 4216   1.585   3.824  14.711  0.4541 -0.2024 -0.2219
  275MPD2    H7 4217   1.501   3.875  14.737  1.0852  0.5534  0.3530
  276TMC3    C1 4218   1.707   4.011  14.773  0.4765 -0.1573  0.5961
  276TMC3    C2 4219   1.587   4.043  14.840 -0.6148 -0.1352  0.3991
  276TMC3    C3 4220   1.590   4.106  14.961  0.7146 -0.3390 -0.7149
  276TMC3    C4 4221   1.830   4.055  14.818 -0.2855  0.1318 -0.2958
  276TMC3    C5 4222   1.826   4.116  14.945 -0.3344 -0.4098 -0.6047
  276TMC3    C6 4223   1.711   4.144  15.013 -0.4842  0.2118 -0.0109
  276TMC3     C 4224   1.709   3.886  14.702 -0.4660  0.2007  0.0864
  276TMC3     O 4225   1.822   3.845  14.670  0.2764 -0.2167 -0.5616
  276TMC3     H 4226   1.490   4.017  14.799  0.1630  0.2271 -1.7017
  276TMC3    H1 4227   1.919   4.013  14.772 -1.7428 -1.3810 -1.7453
  276TMC3    H2 4228   1.724   4.174  15.116  2.8443 -0.7497 -0.1604
  276TMC3    C7 4229   1.956   4.142  15.011 -0.7410 -0.3054 -0.1431
  276TMC3    C8 4230   1.503   4.042  15.059 -0.7008 -0.2200  0.3248
  276TMC3    O1 4231   1.960   4.132  15.132  0.0122 -0.4515 -0.2833
  276TMC3    O2 4232   1.429   4.111  15.123 -0.0185 -0.0200  0.5063
  277MPD2     C 4233   3.461   3.205  13.380  0.4153  0.4093  0.1538
  277MPD2    C1 4234   3.328   3.177  13.366  0.2303  0.1695 -0.6753
  277MPD2    C2 4235   3.266   3.094  13.458  0.4007  0.4296  0.7168
  277MPD2    C3 4236   3.337   3.039  13.559  0.3088  0.7232 -0.0171
  277MPD2    C4 4237   3.470   3.070  13.570 -0.1643  0.3419  0.2174
  277MPD2    C5 4238   3.528   3.160  13.486 -1.0135  0.1232 -0.5054
  277MPD2     H 4239   3.162   3.069  13.440 -0.1814  1.7346  2.2700
  277MPD2    H1 4240   3.530   3.032  13.652 -0.5080 -1.4706 -0.3797
  277MPD2    H2 4241   3.524   3.269  13.319  0.7440 -1.1170 -1.0856
  277MPD2    H3 4242   3.635   3.181  13.489 -0.8305 -1.3103  2.8104
  277MPD2     N 4243   3.272   2.949  13.644  0.5445  0.2323 -0.1994
  277MPD2    H5 4244   3.172   2.962  13.632  0.8349  0.7851 -1.9860
  277MPD2    N1 4245   3.262   3.246  13.257  0.7675  0.3112 -0.3203
  277MPD2    H7 4246   3.328   3.285  13.190  0.2084  0.5873 -0.7130
  278TMC3    C1 4247   3.224   2.863  13.855  0.2500  0.7106 -0.0461
  278TMC3    C2 4248   3.232   2.741  13.926  0.0765 -0.1932  0.6651
  278TMC3    C3 4249   3.128   2.698  13.994 -0.1203 -0.2864 -0.1411
  278TMC3    C4 4250   3.112   2.932  13.855 -0.5002 -0.1082  0.2863
  278TMC3    C5 4251   3.009   2.885  13.936  0.1332  0.4393 -0.2008
  278TMC3    C6 4252   3.006   2.762  13.991 -0.4177 -0.2490  0.4833
  278TMC3     C 4253   3.327   2.890  13.758 -0.1359  0.7357  0.4011
  278TMC3     O 4254   3.440   2.850  13.783 -0.1382  0.0999  0.0531
  278TMC3     H 4255   3.316   2.673  13.915  1.8247  1.7946  1.5664
  278TMC3    H1 4256   3.107   3.036  13.823  0.0989 -0.5515 -1.2566
  278TMC3    H2 4257   2.917   2.706  14.017 -1.1705  0.1349 -1.2464
  278TMC3    C7 4258   2.881   2.942  13.932 -0.3497  0.4179  0.0709
  278TMC3    C8 4259   3.127   2.555  14.031 -1.0876 -0.5577  0.0077
  278TMC3    O1 4260   2.866   3.025  13.840 -0.1151  0.5715 -0.1952
  278TMC3    O2 4261   3.212   2.480  13.986  0.6420 -0.1950  0.1860
  279MPD2     C 4262   2.408   3.032   0.498  0.1580  0.8652  0.5549
  279MPD2    C1 4263   2.312   3.108   0.433  0.6706 -0.1015 -0.3321
  279MPD2    C2 4264   2.330   3.126   0.298 -0.1445  0.2084  0.5185
  279MPD2    C3 4265   2.418   3.046   0.228  0.2249 -0.0715  0.2369
  279MPD2    C4 4266   2.483   2.942   0.289 -0.0170 -0.4239 -0.0436
  279MPD2    C5 4267   2.484   2.939   0.430 -0.0708  0.0423  0.4068
  279MPD2     H 4268   2.257   3.197   0.259 -0.8746 -0.8611 -0.0772
  279MPD2    H1 4269   2.525   2.866   0.225 -1.3406  0.5898 -2.0935
  279MPD2    H2 4270   2.396   3.017   0.605 -1.1044 -1.1806  0.1313
  279MPD2    H3 4271   2.551   2.868   0.476  1.0136  0.9392  0.2234
  279MPD2     N 4272   2.432   3.072   0.090 -0.5041  0.1395 -0.1702
  279MPD2    H5 4273   2.482   3.007   0.029 -1.3343  0.4329 -1.1710
  279MPD2    N1 4274   2.222   3.179   0.518  0.2499  0.0029  0.1353
  279MPD2    H7 4275   2.253   3.173   0.614  0.0573 -0.9285  0.1408
  280TMC3    C1 4276   2.029   3.240   0.377  0.1352  1.0704  0.3058
  280TMC3    C2 4277   2.013   3.112   0.329 -0.1062  0.0550 -0.7781
  280TMC3    C3 4278   1.952   3.091   0.211  0.0165  0.0510 -0.2696
  280TMC3    C4 4279   1.974   3.352   0.317  0.2280 -0.2651 -0.0146
  280TMC3    C5 4280   1.903   3.329   0.203  0.0524  0.2271  0.3101
  280TMC3    C6 4281   1.888   3.199   0.149  0.2844  1.0063  0.0510
  280TMC3     C 4282   2.111   3.259   0.488  0.4658  0.4514  0.1318
  280TMC3     O 4283   2.074   3.349   0.561  0.2673  0.2147  0.2309
  280TMC3     H 4284   2.046   3.033   0.394  1.5750  2.1021  0.8334
  280TMC3    H1 4285   1.975   3.450   0.362 -2.2770 -1.1144  1.9367
  280TMC3    H2 4286   1.843   3.190   0.050  0.7085 -1.9853  0.1152
  280TMC3    C7 4287   1.864   3.450   0.125 -0.3741  0.1470  0.2753
  280TMC3    C8 4288   1.972   2.969   0.135  0.1374 -0.6774  0.7615
  280TMC3    O1 4289   1.920   3.557   0.153 -0.2076 -0.1880 -0.0502
  280TMC3    O2 4290   1.931   2.966   0.021  0.2351 -0.0711  0.0316
  281TMC3    C1 4291   1.500   2.760  14.006 -0.4244 -0.0372  0.3143
  281TMC3    C2 4292   1.538   2.863  13.925 -0.1370  0.0912  0.1737
  281TMC3    C3 4293   1.637   2.837  13.832  0.2204 -0.6005 -0.1146
  281TMC3    C4 4294   1.555   2.637  13.980 -0.3537 -0.3261 -1.0246
  281TMC3    C5 4295   1.643   2.614  13.880  0.7775 -0.1848 -0.0215
  281TMC3    C6 4296   1.704   2.717  13.818 -0.3130 -0.7329 -0.0539
  281TMC3     C 4297   1.357   2.756  14.033  0.3658 -0.0310  0.2123
  281TMC3     O 4298   1.305   2.652  14.002  0.2009 -0.8593 -0.2863
  281TMC3     H 4299   1.505   2.965  13.942 -0.5703  0.0694 -0.5076
  281TMC3    H1 4300   1.525   2.549  14.037  4.2282 -1.0456  0.2799
  281TMC3    H2 4301   1.765   2.698  13.731 -0.5842  0.6586 -0.5524
  281TMC3    C7 4302   1.588   2.522  13.788  0.3423  0.6972  0.1475
  281TMC3    C8 4303   1.685   2.951  13.749  0.1187 -1.0094 -0.2512
  281TMC3    O1 4304   1.670   2.478  13.707 -0.5697  0.1527  0.2524
  281TMC3    O2 4305   1.745   3.037  13.811 -0.0522 -0.5219  0.8169
  282MPD2     C 4306   3.207   4.343  15.136  0.1063 -0.0949 -0.2011
  282MPD2    C1 4307   3.096   4.415  15.151 -0.7762  0.5039 -0.3711
  282MPD2    C2 4308   3.046   4.485  15.037 -0.1839 -0.3018 -0.2413
  282MPD2    C3 4309   3.097   4.468  14.905  0.6459  0.0243 -0.4289
  282MPD2    C4 4310   3.209   4.397  14.900 -0.0900  0.6784  0.6444
  282MPD2    C5 4311   3.265   4.334  15.008 -0.0851 -0.3372 -0.7401
  282MPD2     H 4312   2.956   4.543  15.051  0.7257  0.8612  0.7745
  282MPD2    H1 4313   3.272   4.388  14.812 -1.2347  0.9079 -0.2096
  282MPD2    H2 4314   3.239   4.283  15.220  1.2127  0.2079 -0.4038
  282MPD2    H3 4315   3.360   4.282  15.006 -0.0961 -0.4590  1.5562
  282MPD2     N 4316   3.026   4.519  14.795  0.3312  0.3312  0.5010
  282MPD2    H5 4317   2.941   4.571  14.813  0.2331  0.3391  0.0366
  282MPD2    N1 4318   3.025   4.414  15.272  0.0787  0.0723 -0.1332
  282MPD2    H7 4319   2.949   4.479  15.289  0.0854 -0.0747  0.4720
  283TMC3    C1 4320   2.949   4.334  15.476  0.0200 -0.6856  0.4095
  283TMC3    C2 4321   2.996   4.438  15.549 -0.2976 -0.2018  0.7741
  283TMC3    C3 4322   2.998   4.424  15.683  0.5004 -0.2453 -0.3710
  283TMC3    C4 4323   2.892   4.223  15.529  0.6162 -0.0420 -0.3698
  283TMC3    C5 4324   2.878   4.219  15.663  0.2682  0.0596  0.0109
  283TMC3    C6 4325   2.937   4.313  15.738 -0.1356  0.2083  0.8225
  283TMC3     C 4326   3.023   4.309  15.358  0.6186  0.1919 -0.2046
  283TMC3     O 4327   3.064   4.197  15.337  0.0143 -0.6201  0.0926
  283TMC3     H 4328   3.058   4.511  15.498 -0.4534 -0.3524  0.3685
  283TMC3    H1 4329   2.848   4.153  15.459  0.9038 -1.1007  0.5042
  283TMC3    H2 4330   2.929   4.310  15.847 -0.5058 -0.2257  0.7829
  283TMC3    C7 4331   2.764   4.145  15.726 -0.2643 -0.0995 -0.3138
  283TMC3    C8 4332   3.050   4.518  15.782  0.5430  0.3157  0.4180
  283TMC3    O1 4333   2.714   4.205  15.820 -0.0231  0.1570 -0.2479
  283TMC3    O2 4334   3.031   4.500  15.903 -0.5650 -0.3245 -0.2405
  284MPD2     C 4335   1.051   3.550  12.479  0.2642 -0.3220 -0.2946
  284MPD2    C1 4336   1.162   3.613  12.422 -0.2191  0.0010  0.2993
  284MPD2    C2 4337   1.270   3.534  12.400  0.2837  0.6424 -0.3158
  284MPD2    C3 4338   1.272   3.402  12.432 -0.4843  0.0035  0.3972
  284MPD2    C4 4339   1.164   3.341  12.486 -0.2106 -0.2846  0.6676
  284MPD2    C5 4340   1.050   3.417  12.513  0.1736  0.5987 -0.3712
  284MPD2     H 4341   1.358   3.580  12.356  1.6750 -0.0532  1.7417
  284MPD2    H1 4342   1.163   3.240  12.524 -2.6677  0.2357  1.9729
  284MPD2    H2 4343   0.956   3.602  12.491  0.1720 -0.9351  1.6178
  284MPD2    H3 4344   0.962   3.371  12.557  0.6260 -0.5749 -0.6979
  284MPD2     N 4345   1.383   3.316  12.425  0.1790 -0.4684  0.6027
  284MPD2    H5 4346   1.382   3.225  12.470  0.3981  0.4184  2.4147
  284MPD2    N1 4347   1.181   3.748  12.387  0.6723 -0.6459  0.7066
  284MPD2    H7 4348   1.273   3.781  12.358  0.0915 -0.3579 -0.8024
  285TMC3    C1 4349   1.150   3.974  12.393  0.3291  0.2887  0.0297
  285TMC3    C2 4350   1.286   3.977  12.408 -0.2001  0.0048 -0.5627
  285TMC3    C3 4351   1.354   4.064  12.329  0.6441 -0.6066  0.1266
  285TMC3    C4 4352   1.080   4.061  12.316  0.0355  0.1708 -0.8868
  285TMC3    C5 4353   1.162   4.139  12.229  0.0019  0.4682 -0.1144
  285TMC3    C6 4354   1.295   4.158  12.242  0.3644 -0.7645  0.1964
  285TMC3     C 4355   1.088   3.841  12.398  0.4543 -0.5076  0.0602
  285TMC3     O 4356   0.964   3.828  12.411 -0.1772  0.4727 -0.1127
  285TMC3     H 4357   1.335   3.915  12.482 -2.1333 -2.3180 -1.2188
  285TMC3    H1 4358   0.973   4.062  12.297 -0.1758  3.0355  0.4398
  285TMC3    H2 4359   1.353   4.226  12.181 -1.7346 -0.8938 -1.9538
  285TMC3    C7 4360   1.089   4.173  12.104  0.4342  0.1989 -0.3286
  285TMC3    C8 4361   1.475   4.009  12.271  0.9118  0.1909  0.1488
  285TMC3    O1 4362   0.972   4.198  12.129 -0.3236  0.0935  0.7236
  285TMC3    O2 4363   1.481   3.886  12.274 -0.1298 -0.0619  0.3118
  286MPD2     C 4364   1.620   2.876   1.511 -0.2947  0.7086 -0.4232
  286MPD2    C1 4365   1.566   2.807   1.400  0.1655  0.8169  0.3658
  286MPD2    C2 4366   1.594   2.671   1.383 -0.1312 -0.4503 -0.0949
  286MPD2    C3 4367   1.669   2.599   1.472 -0.0689 -0.0297  0.6276
  286MPD2    C4 4368   1.708   2.664   1.592 -0.4920  0.2603  0.3237
  286MPD2    C5 4369   1.686   2.798   1.607  0.5398  0.6467  0.6152
  286MPD2     H 4370   1.556   2.628   1.291  0.0222 -0.8758  0.0422
  286MPD2    H1 4371   1.773   2.611   1.661 -0.8149 -0.1889  0.2817
  286MPD2    H2 4372   1.613   2.981   1.540 -1.0562  0.3180  0.8296
  286MPD2    H3 4373   1.721   2.845   1.698  0.6143  2.2106 -0.2348
  286MPD2     N 4374   1.704   2.465   1.462 -0.0305  0.0965  0.2918
  286MPD2    H5 4375   1.752   2.417   1.537  1.1525 -0.5748 -0.8901
  286MPD2    N1 4376   1.485   2.882   1.310  0.0319  0.3134 -0.6675
  286MPD2    H7 4377   1.448   2.831   1.231 -0.0101 -0.5341 -0.1004
  287TMC3    C1 4378   1.778   2.269   1.358  0.5027 -0.4102 -0.4313
  287TMC3    C2 4379   1.762   2.179   1.261  0.2760  0.0214 -0.1375
  287TMC3    C3 4380   1.828   2.061   1.258 -0.4394  0.1344 -0.2015
  287TMC3    C4 4381   1.872   2.251   1.456 -0.0066  0.2679  0.5506
  287TMC3    C5 4382   1.923   2.122   1.454 -0.2291 -0.3507 -0.5347
  287TMC3    C6 4383   1.912   2.032   1.354 -0.5884 -0.0834  0.0605
  287TMC3     C 4384   1.706   2.396   1.348  0.3667  0.6122 -0.0944
  287TMC3     O 4385   1.651   2.418   1.241  0.3400  0.3006  0.1771
  287TMC3     H 4386   1.678   2.190   1.192  1.0002 -1.0837 -1.2015
  287TMC3    H1 4387   1.889   2.322   1.537 -0.4593 -1.4496  2.1617
  287TMC3    H2 4388   1.960   1.935   1.352 -0.8886 -0.2371  0.2190
  287TMC3    C7 4389   2.019   2.084   1.554 -0.2600  0.2316  0.5230
  287TMC3    C8 4390   1.809   1.964   1.151 -0.6957 -0.1113 -0.7082
  287TMC3    O1 4391   2.088   2.174   1.594 -0.2637  0.3144 -0.1819
  287TMC3    O2 4392   1.856   1.855   1.162  0.2942 -0.0561  0.2830
  288TMC3    C1 4393   3.462   2.300  14.651  0.1466  0.5441  0.9052
  288TMC3    C2 4394   3.335   2.286  14.707  0.1378  0.0622 -0.2859
  288TMC3    C3 4395   3.229   2.343  14.637 -0.1401  0.9165 -0.1947
  288TMC3    C4 4396   3.490   2.370  14.534 -0.2336 -0.9662  0.0503
  288TMC3    C5 4397   3.376   2.428  14.475 -0.4677  0.0243 -0.3840
  288TMC3    C6 4398   3.247   2.426  14.526 -0.5774  0.0591  0.1451
  288TMC3     C 4399   3.571   2.258  14.736 -0.7715 -0.1520 -0.0674
  288TMC3     O 4400   3.552   2.234  14.856  0.1014  0.2384  0.0516
  288TMC3     H 4401   3.333   2.225  14.796 -0.0529 -0.0456 -0.3628
  288TMC3    H1 4402   3.589   2.372  14.490  0.5667 -2.1829  1.8209
  288TMC3    H2 4403   3.168   2.474  14.468 -0.3578 -0.0007 -0.2024
  288TMC3    C7 4404   3.415   2.551  14.397 -0.4756 -0.5131  0.1394
  288TMC3    C8 4405   3.093   2.354  14.702 -0.2379  0.3180  0.1342
  288TMC3    O1 4406   3.538   2.559  14.375  0.1354  0.3259  0.4223
  288TMC3    O2 4407   3.007   2.441  14.672  0.1597  0.5025 -0.0715
  289MPD2     C 4408   3.364   1.535  15.070  0.5964  0.0056  0.5528
  289MPD2    C1 4409   3.379   1.598  14.944  0.2071  0.7067 -0.1712
  289MPD2    C2 4410   3.268   1.606  14.855 -0.2640  0.7463 -0.8857
  289MPD2    C3 4411   3.139   1.560  14.897  0.5647  0.4734  0.3573
  289MPD2    C4 4412   3.132   1.496  15.019  0.0433 -0.2742 -0.1438
  289MPD2    C5 4413   3.242   1.483  15.099  0.9325 -0.6514 -0.6786
  289MPD2     H 4414   3.286   1.636  14.752  1.0026  0.5732 -0.7126
  289MPD2    H1 4415   3.043   1.443  15.053  0.9274 -0.3057  2.1709
  289MPD2    H2 4416   3.448   1.511  15.134 -0.6316 -2.6155  1.1891
  289MPD2    H3 4417   3.235   1.431  15.194 -1.3882  0.7715 -0.0624
  289MPD2     N 4418   3.024   1.573  14.815 -0.2396  0.6534 -0.1689
  289MPD2    H5 4419   2.935   1.538  14.847  0.5596 -0.5149  0.7498
  289MPD2    N1 4420   3.508   1.645  14.905 -0.0964  0.1039 -0.1741
  289MPD2    H7 4421   3.581   1.628  14.974  0.2349 -1.2961 -0.8885
  290TMC3    C1 4422   2.903   1.613  14.615 -1.1928 -0.0768  0.5203
  290TMC3    C2 4423   2.863   1.697  14.523  0.5220  0.1506  0.7392
  290TMC3    C3 4424   2.760   1.665  14.442  0.0455 -0.9118 -0.9930
  290TMC3    C4 4425   2.835   1.494  14.636  0.0251  0.5314  0.4000
  290TMC3    C5 4426   2.742   1.454  14.550 -0.1678 -0.4297 -0.3356
  290TMC3    C6 4427   2.692   1.538  14.454 -0.5399 -0.3997  0.8379
  290TMC3     C 4428   3.017   1.646  14.700 -0.2374 -0.4817  0.4401
  290TMC3     O 4429   3.080   1.749  14.679  0.0663  0.1689  0.0595
  290TMC3     H 4430   2.930   1.782  14.512  2.4175 -1.3933  0.4633
  290TMC3    H1 4431   2.869   1.419  14.706  1.4120 -0.4743 -1.3338
  290TMC3    H2 4432   2.610   1.509  14.390 -0.7254  1.8090  0.0730
  290TMC3    C7 4433   2.664   1.330  14.571 -0.3656  0.3967 -0.0711
  290TMC3    C8 4434   2.690   1.765  14.376  0.4250 -0.1228  0.3639
  290TMC3    O1 4435   2.555   1.322  14.513 -0.5796  0.3642 -0.2708
  290TMC3    O2 4436   2.602   1.735  14.300  0.9331 -0.5693 -0.1105
  291MPD2     C 4437   2.743   1.561   0.413 -0.1325  0.4104  0.7500
  291MPD2    C1 4438   2.850   1.476   0.433 -0.3468  0.2139 -0.4603
  291MPD2    C2 4439   2.980   1.523   0.437  0.3089 -0.1214  0.1421
  291MPD2    C3 4440   2.995   1.658   0.427 -0.5835 -0.1390 -0.1681
  291MPD2    C4 4441   2.889   1.742   0.411 -1.1954 -0.2238 -0.0546
  291MPD2    C5 4442   2.760   1.692   0.399 -0.4583 -0.4867  0.1093
  291MPD2     H 4443   3.064   1.454   0.433  1.0491  0.5915  3.0759
  291MPD2    H1 4444   2.906   1.847   0.390  1.6778 -0.6135  0.3549
  291MPD2    H2 4445   2.639   1.534   0.396 -0.0308  0.9412 -0.6606
  291MPD2    H3 4446   2.676   1.758   0.383 -0.4494  0.3525  3.5366
  291MPD2     N 4447   3.123   1.716   0.422  0.0714  0.5870  0.2528
  291MPD2    H5 4448   3.130   1.818   0.423  1.4793  0.4896  0.0199
  291MPD2    N1 4449   2.837   1.335   0.443  0.2737  0.0295 -0.1602
  291MPD2    H7 4450   2.921   1.282   0.464  0.8994 -0.0334 -2.8149
  292TMC3    C1 4451   2.732   1.131   0.511  0.0485 -0.7583  1.3500
  292TMC3    C2 4452   2.813   1.096   0.614 -1.1247  0.0584  1.3654
  292TMC3    C3 4453   2.806   0.971   0.666 -0.4730 -0.7409  0.2369
  292TMC3    C4 4454   2.624   1.046   0.482 -0.2593 -0.1917  0.7613
  292TMC3    C5 4455   2.622   0.920   0.532  0.2746 -0.3325  0.3930
  292TMC3    C6 4456   2.711   0.877   0.627  0.1618  0.3045 -0.2589
  292TMC3     C 4457   2.721   1.265   0.454 -0.6658 -0.0972 -0.3745
  292TMC3     O 4458   2.609   1.306   0.458 -0.5762 -0.0635 -0.6452
  292TMC3     H 4459   2.891   1.159   0.654  1.3674 -0.7284 -2.3433
  292TMC3    H1 4460   2.565   1.068   0.394  1.7675  0.5826 -0.4129
  292TMC3    H2 4461   2.700   0.774   0.661  0.7321 -0.1324 -1.3793
  292TMC3    C7 4462   2.550   0.821   0.460  0.2717  0.1290  0.3747
  292TMC3    C8 4463   2.857   0.949   0.797  0.3193 -0.4538 -0.9222
  292TMC3    O1 4464   2.608   0.712   0.463  0.0933  0.3663 -0.2270
  292TMC3    O2 4465   2.967   1.001   0.827  0.7005  0.2129 -0.1075
  293MPD2     C 4466   4.578   2.373  13.057 -0.1117  0.3701  0.4279
  293MPD2    C1 4467   4.478   2.461  13.041 -0.0966  0.3459  0.2716
  293MPD2    C2 4468   4.409   2.499  13.153 -0.1519 -0.4704  0.3003
  293MPD2    C3 4469   4.441   2.445  13.281  0.4926 -0.3085  0.2122
  293MPD2    C4 4470   4.529   2.337  13.291  0.6086 -0.3558  0.1591
  293MPD2    C5 4471   4.601   2.307  13.177 -0.3817  0.1200  0.1089
  293MPD2     H 4472   4.331   2.574  13.148  0.2763  0.0305  1.1445
  293MPD2    H1 4473   4.563   2.288  13.381  1.2741 -0.2626 -0.0407
  293MPD2    H2 4474   4.646   2.348  12.976 -0.3214 -2.9301  1.2490
  293MPD2    H3 4475   4.687   2.242  13.186  0.9957  1.8110 -0.8354
  293MPD2     N 4476   4.365   2.491  13.397 -0.2420  0.6209  0.2213
  293MPD2    H5 4477   4.377   2.445  13.487  2.6241 -2.0166 -1.4774
  293MPD2    N1 4478   4.470   2.529  12.917  0.1136  0.0199 -0.4034
  293MPD2    H7 4479   4.538   2.506  12.845 -0.6633  0.4812 -1.2630
  294TMC3    C1 4480   4.354   2.638  12.749 -0.1438  0.5669 -0.2885
  294TMC3    C2 4481   4.238   2.685  12.699 -0.0164  0.3853 -0.3370
  294TMC3    C3 4482   4.239   2.734  12.567  0.4074  0.1301 -0.3085
  294TMC3    C4 4483   4.470   2.635  12.677  0.4968  0.0940  0.2040
  294TMC3    C5 4484   4.469   2.685  12.553  0.6075 -0.4190 -0.6003
  294TMC3    C6 4485   4.358   2.742  12.499  0.0726 -0.3326  0.1199
  294TMC3     C 4486   4.352   2.578  12.880 -0.0617  0.1037  0.1744
  294TMC3     O 4487   4.246   2.587  12.942  0.5320 -0.2034  0.3151
  294TMC3     H 4488   4.140   2.682  12.745 -0.4172  0.0877 -1.1959
  294TMC3    H1 4489   4.568   2.607  12.714  0.5699 -3.3716 -2.5510
  294TMC3    H2 4490   4.358   2.780  12.398 -0.1205 -1.5163 -0.3128
  294TMC3    C7 4491   4.583   2.662  12.459 -0.0179  0.5485  0.9221
  294TMC3    C8 4492   4.147   2.669  12.475  0.2880 -0.2592 -0.0779
  294TMC3    O1 4493   4.594   2.744  12.370 -0.8109  0.0347 -0.0652
  294TMC3    O2 4494   4.152   2.704  12.359  0.2091  0.0100  0.5325
  295MPD2     C 4495   0.982   1.342   1.032  0.5781  0.3730  0.2943
  295MPD2    C1 4496   0.850   1.343   1.016  0.1765 -0.2970  0.3790
  295MPD2    C2 4497   0.772   1.243   1.071  0.0059 -1.0290 -0.5198
  295MPD2    C3 4498   0.834   1.146   1.145 -0.6502  0.2979 -0.0079
  295MPD2    C4 4499   0.975   1.140   1.150  0.6269 -0.4048 -0.1060
  295MPD2    C5 4500   1.051   1.241   1.090  0.6464  0.5670  0.1984
  295MPD2     H 4501   0.664   1.248   1.056  0.1937 -2.5067 -2.3591
  295MPD2    H1 4502   1.031   1.059   1.195 -0.3364 -2.8479 -3.2850
  295MPD2    H2 4503   1.046   1.420   0.990  1.1008 -0.2665 -0.1112
  295MPD2    H3 4504   1.159   1.236   1.087  0.6022 -0.7620  0.8609
  295MPD2     N 4505   0.768   1.038   1.208 -0.0360 -0.4684 -0.0760
  295MPD2    H5 4506   0.823   0.978   1.269  0.2399  0.9970  1.1295
  295MPD2    N1 4507   0.785   1.438   0.931  0.0640 -0.1658  0.1261
  295MPD2    H7 4508   0.685   1.421   0.927 -0.3545  2.0177  1.1874
  296TMC3    C1 4509   0.599   0.927   1.327  0.1147  0.2765  0.2453
  296TMC3    C2 4510   0.481   0.949   1.396 -0.0479  0.0744  0.7217
  296TMC3    C3 4511   0.449   0.863   1.502  0.2525  0.3923  0.5614
  296TMC3    C4 4512   0.683   0.824   1.362  0.6843  0.5700 -0.2810
  296TMC3    C5 4513   0.646   0.754   1.471  0.0081  0.2265  0.0953
  296TMC3    C6 4514   0.538   0.775   1.549 -0.2014  0.2761  0.6804
  296TMC3     C 4515   0.634   1.022   1.217  0.5308 -0.1416 -0.1159
  296TMC3     O 4516   0.541   1.089   1.168 -0.0687 -0.1069  0.7090
  296TMC3     H 4517   0.420   1.028   1.354  1.4684  1.5149  1.2318
  296TMC3    H1 4518   0.756   0.790   1.290  1.6961 -0.5826  1.3112
  296TMC3    H2 4519   0.527   0.707   1.633 -3.3297  0.8394  0.7588
  296TMC3    C7 4520   0.720   0.633   1.481 -0.0979 -0.1395 -0.1502
  296TMC3    C8 4521   0.329   0.885   1.583  0.2858  0.3588  0.2078
  296TMC3    O1 4522   0.841   0.651   1.476 -0.1410 -0.4300  0.1314
  296TMC3    O2 4523   0.289   0.800   1.660 -0.3348  0.1374  0.1999
  297MPD2     C 4524   1.750   3.183  16.074 -0.0922  0.1693  0.6995
  297MPD2    C1 4525   1.794   3.284  15.985 -0.2516  0.4689  0.6866
  297MPD2    C2 4526   1.912   3.353  16.020  0.0582  0.3334 -1.0426
  297MPD2    C3 4527   1.983   3.326  16.137 -0.8872 -0.1781  0.4411
  297MPD2    C4 4528   1.935   3.225  16.216 -0.1773 -0.6195  0.0821
  297MPD2    C5 4529   1.819   3.159  16.188 -0.6021  0.5613 -0.2653
  297MPD2     H 4530   1.938   3.430  15.948  2.6869  0.3102 -0.1113
  297MPD2    H1 4531   1.983   3.197  16.309 -0.1441 -0.5386  0.0898
  297MPD2    H2 4532   1.666   3.121  16.045 -0.3193  1.1516 -0.8119
  297MPD2    H3 4533   1.780   3.083  16.255  0.5683  1.2963  1.2475
  297MPD2     N 4534   2.102   3.398  16.166 -0.1483 -0.1058 -0.7573
  297MPD2    H5 4535   2.129   3.472  16.103  1.2519  0.3573  0.3855
  297MPD2    N1 4536   1.731   3.311  15.861  0.1266 -0.6166  0.2799
  297MPD2    H7 4537   1.771   3.385  15.804  2.2311 -1.2806  0.9024
  298TMC3    C1 4538   1.548   3.362  15.720 -1.4038 -0.3436  0.4238
  298TMC3    C2 4539   1.625   3.402  15.609 -0.5563  0.2072 -1.0085
  298TMC3    C3 4540   1.562   3.498  15.533 -1.2715  0.5797 -0.2157
  298TMC3    C4 4541   1.426   3.417  15.746 -0.1735 -0.3546 -0.0509
  298TMC3    C5 4542   1.387   3.526  15.678  0.6577  0.1555 -0.1398
  298TMC3    C6 4543   1.450   3.569  15.561  0.0704  0.1919 -0.0289
  298TMC3     C 4544   1.604   3.272  15.820 -0.4462 -0.4094  0.4670
  298TMC3     O 4545   1.522   3.205  15.885 -0.2546 -0.3129  0.2283
  298TMC3     H 4546   1.705   3.341  15.568  0.3188  0.3696  0.4363
  298TMC3    H1 4547   1.373   3.388  15.836  1.2885  2.6943  1.8247
  298TMC3    H2 4548   1.418   3.653  15.500 -0.6377 -2.3237 -3.1046
  298TMC3    C7 4549   1.286   3.610  15.742 -0.7616  0.5165 -0.8727
  298TMC3    C8 4550   1.651   3.568  15.440 -0.1432  0.2531 -0.7255
  298TMC3    O1 4551   1.221   3.554  15.829 -0.0864  0.0288  0.3321
  298TMC3    O2 4552   1.658   3.690  15.448  0.6235 -0.2708  0.2354
  299MPD2     C 4553   2.908   2.768  11.189 -0.7345  0.1494  0.2149
  299MPD2    C1 4554   2.908   2.908  11.163 -0.1340 -0.0377 -0.2445
  299MPD2    C2 4555   2.790   2.955  11.098 -0.3192 -0.7099 -0.0688
  299MPD2    C3 4556   2.682   2.872  11.073  0.6220  0.0678  0.3681
  299MPD2    C4 4557   2.687   2.740  11.112 -0.0299  0.2170  0.3516
  299MPD2    C5 4558   2.804   2.689  11.165  0.3665 -0.6028 -0.4382
  299MPD2     H 4559   2.768   3.061  11.096 -0.8465 -0.7876  1.3998
  299MPD2    H1 4560   2.605   2.670  11.107  1.0608 -0.9828 -0.6714
  299MPD2    H2 4561   2.996   2.730  11.241 -0.9367  0.0355  0.4800
  299MPD2    H3 4562   2.791   2.582  11.176  1.2567 -0.6376  0.2223
  299MPD2     N 4563   2.555   2.907  11.032  0.4049 -0.6524 -0.0956
  299MPD2    H5 4564   2.480   2.838  11.027 -0.0865 -0.2288  1.4010
  299MPD2    N1 4565   3.010   2.984  11.225  0.0847 -0.8882  0.4027
  299MPD2    H7 4566   3.077   2.929  11.277  1.7533  0.2387 -0.5287
  300TMC3    C1 4567   2.381   3.056  10.965 -0.5013  0.2441 -0.1457
  300TMC3    C2 4568   2.345   3.090  10.841  0.0275 -0.4441 -0.0672
  300TMC3    C3 4569   2.209   3.113  10.823  0.1671 -0.0179 -0.0556
  300TMC3    C4 4570   2.290   3.055  11.070  0.0644  0.2497  0.2972
  300TMC3    C5 4571   2.164   3.096  11.053  0.4824  0.0244  0.4535
  300TMC3    C6 4572   2.120   3.106  10.921 -1.3259  0.9119  0.1476
  300TMC3     C 4573   2.520   3.036  10.991 -0.4189 -0.0932 -0.5858
  300TMC3     O 4574   2.590   3.140  10.982 -0.5282  0.1436  0.0773
  300TMC3     H 4575   2.420   3.102  10.763  1.5126  1.6392  1.6739
  300TMC3    H1 4576   2.324   3.022  11.168  0.0626 -0.4499  0.0575
  300TMC3    H2 4577   2.015   3.117  10.897 -1.1412 -0.5645 -1.3199
  300TMC3    C7 4578   2.069   3.056  11.148 -0.1733  0.0981 -0.4097
  300TMC3    C8 4579   2.161   3.194  10.713 -0.0170 -0.6357  0.5572
  300TMC3    O1 4580   1.979   2.987  11.107 -0.4425 -0.3830  0.1889
  300TMC3    O2 4581   2.052   3.178  10.664 -0.5493 -0.1448 -0.8927
  301MPD2     C 4582   0.565   4.037   1.574  0.1548  0.1287  0.8310
  301MPD2    C1 4583   0.462   4.059   1.489  0.1527 -0.3202  0.2719
  301MPD2    C2 4584   0.376   3.956   1.457 -0.5338 -0.1655 -0.1504
  301MPD2    C3 4585   0.416   3.826   1.493  0.2532  0.6306 -0.6709
  301MPD2    C4 4586   0.531   3.798   1.567  0.0935  0.2819 -0.2709
  301MPD2    C5 4587   0.601   3.905   1.604  0.6661 -0.4557 -0.5231
  301MPD2     H 4588   0.299   3.976   1.384 -0.6717  0.9025  0.2958
  301MPD2    H1 4589   0.562   3.695   1.586 -0.0326  0.7452  2.4514
  301MPD2    H2 4590   0.629   4.112   1.618  1.3485 -0.7873  0.6727
  301MPD2    H3 4591   0.693   3.890   1.659 -1.2312  1.8921  3.3311
  301MPD2     N 4592   0.342   3.707   1.465  0.6393 -0.3886 -0.1774
  301MPD2    H5 4593   0.389   3.618   1.482 -0.0943 -0.5378  1.0907
  301MPD2    N1 4594   0.431   4.182   1.427 -0.4902 -0.0974 -0.5212
  301MPD2    H7 4595   0.350   4.189   1.366  0.9824 -0.9362 -2.5690
  302TMC3    C1 4596   0.172   3.586   1.340  0.7512 -0.0626  0.1240
  302TMC3    C2 4597   0.223   3.464   1.381 -0.2961 -0.2039  0.4945
  302TMC3    C3 4598   0.186   3.358   1.302 -0.9042 -0.1248  0.0770
  302TMC3    C4 4599   0.096   3.602   1.228 -0.3448 -0.1687  0.1439
  302TMC3    C5 4600   0.079   3.498   1.144  0.8584 -0.0353  0.5732
  302TMC3    C6 4601   0.129   3.373   1.183  0.0840  0.0514 -0.1216
  302TMC3     C 4602   0.216   3.708   1.408 -0.0289 -0.5401  0.0779
  302TMC3     O 4603   0.139   3.802   1.386 -0.0325  0.2746  0.2134
  302TMC3     H 4604   0.278   3.451   1.473  0.3728  0.3624  0.1745
  302TMC3    H1 4605   0.061   3.699   1.194  0.1023 -0.6725 -1.7138
  302TMC3    H2 4606   0.127   3.297   1.106 -2.3006 -0.8478  0.8351
  302TMC3    C7 4607   4.728   3.511   1.029 -0.1023  0.4410 -0.2948
  302TMC3    C8 4608   0.276   3.239   1.307  0.5473  0.1811  0.2039
  302TMC3    O1 4609   4.718   3.407   0.966 -0.0594  0.4107  0.0961
  302TMC3    O2 4610   0.385   3.245   1.354 -0.0247  0.3935 -0.7458
  303MPD2     C 4611   0.470   2.721  11.104  0.6587  0.2774 -0.2276
  303MPD2    C1 4612   0.400   2.614  11.059  0.6518 -1.2717 -0.0434
  303MPD2    C2 4613   0.442   2.553  10.947 -0.0890  0.5281 -0.4997
  303MPD2    C3 4614   0.551   2.596  10.880  0.5248  0.0271 -0.4195
  303MPD2    C4 4615   0.618   2.707  10.920  0.0256  0.2309  0.8253
  303MPD2    C5 4616   0.571   2.772  11.033 -0.7502  0.8033 -0.3253
  303MPD2     H 4617   0.382   2.469  10.914  1.2447  0.1267 -1.8745
  303MPD2    H1 4618   0.699   2.760  10.871 -0.7089  1.2249  0.6947
  303MPD2    H2 4619   0.443   2.775  11.194 -0.6071 -2.7129  1.1857
  303MPD2    H3 4620   0.617   2.862  11.073  2.4387 -0.6405 -0.7546
  303MPD2     N 4621   0.599   2.527  10.764 -0.5978  0.0201 -0.2926
  303MPD2    H5 4622   0.687   2.554  10.721 -0.1240 -1.6623 -0.3935
  303MPD2    N1 4623   0.286   2.583  11.139  0.2770 -0.5083  0.0049
  303MPD2    H7 4624   0.282   2.627  11.230 -0.0800 -2.7956  1.1081
  304TMC3    C1 4625   0.082   2.484  11.202  0.2137  1.3392 -0.0248
  304TMC3    C2 4626   4.707   2.439  11.144  0.5884 -0.1706  0.4018
  304TMC3    C3 4627   4.622   2.369  11.219 -0.4600  0.2318  0.0883
  304TMC3    C4 4628   0.120   2.456  11.331  0.3254  0.6871  0.0828
  304TMC3    C5 4629   0.036   2.364  11.396 -0.0128  0.6421  0.3988
  304TMC3    C6 4630   4.648   2.338  11.344  0.2451  0.3034  0.0112
  304TMC3     C 4631   0.189   2.494  11.106 -0.4484  0.4467 -0.4153
  304TMC3     O 4632   0.173   2.421  11.004  0.0768 -0.6437 -0.0948
  304TMC3     H 4633   4.685   2.463  11.041 -1.3215 -1.4843  0.5003
  304TMC3    H1 4634   0.219   2.477  11.369  0.7866  1.4181 -1.5102
  304TMC3    H2 4635   4.586   2.273  11.405  0.7128 -0.3609 -0.2205
  304TMC3    C7 4636   0.104   2.240  11.429 -0.3734  0.2438 -0.7025
  304TMC3    C8 4637   4.544   2.268  11.156 -0.2162 -0.1428  0.6955
  304TMC3    O1 4638   0.206   2.257  11.495  0.0560 -0.4771  0.0944
  304TMC3    O2 4639   4.548   2.160  11.211  0.7171  0.4375  0.3405
  305MPD2     C 4640   3.345   0.148  14.111  0.4363  0.2426 -0.5142
  305MPD2    C1 4641   3.453   0.067  14.132  0.8716 -0.3742  0.0169
  305MPD2    C2 4642   3.517   0.007  14.022 -0.3263 -0.5006 -0.4068
  305MPD2    C3 4643   3.461   0.012  13.899  0.5702  0.7919 -0.3344
  305MPD2    C4 4644   3.349   0.087  13.879 -0.3561 -0.3688  0.2157
  305MPD2    C5 4645   3.294   0.154  13.983 -0.2955  0.0774 -0.0042
  305MPD2     H 4646   3.613   4.700  14.049 -0.1337  0.0389 -0.2047
  305MPD2    H1 4647   3.306   0.098  13.780  0.3068  2.6280  0.2592
  305MPD2    H2 4648   3.282   0.191  14.188  1.7313  0.1756  0.5892
  305MPD2    H3 4649   3.199   0.202  13.964  0.1685  1.1082  0.2720
  305MPD2     N 4650   3.524   4.678  13.788 -0.2596 -0.7997 -0.6695
  305MPD2    H5 4651   3.620   4.645  13.795 -0.3741 -1.1384 -0.7474
  305MPD2    N1 4652   3.509   0.041  14.255 -0.3775  0.1401  0.3536
  305MPD2    H7 4653   3.598   4.731  14.263 -0.2897  0.3285  0.4921
  306TMC3    C1 4654   3.545   0.063  14.490 -0.8887 -0.6141 -0.2569
  306TMC3    C2 4655   3.570   4.667  14.510 -0.0999  0.5180 -0.3509
  306TMC3    C3 4656   3.583   4.620  14.638  0.2518  0.1204  0.7020
  306TMC3    C4 4657   3.542   0.151  14.596 -0.2839 -0.5919 -0.1591
  306TMC3    C5 4658   3.584   0.102  14.719 -0.0822 -0.1858 -0.2621
  306TMC3    C6 4659   3.602   4.702  14.747  0.6431  0.1212 -0.1060
  306TMC3     C 4660   3.480   0.109  14.373 -0.8060 -0.2202  0.2102
  306TMC3     O 4661   3.421   0.213  14.381 -0.0516  0.8565  0.4193
  306TMC3     H 4662   3.575   4.604  14.422 -0.5135  0.6092 -0.4388
  306TMC3    H1 4663   3.536   0.257  14.577  1.6647 -0.6519 -1.0757
  306TMC3    H2 4664   3.641   4.659  14.838 -0.8409  1.8102  1.3259
  306TMC3    C7 4665   3.604   0.190  14.829  0.4413  0.4988 -0.1703
  306TMC3    C8 4666   3.562   4.479  14.653  0.6810 -0.5460  0.1148
  306TMC3    O1 4667   3.632   0.308  14.792  0.3466 -0.1761 -0.1934
  306TMC3    O2 4668   3.542   4.416  14.552  0.0182 -0.2001  0.0901
  307MPD2     C 4669   0.971   3.194   0.359 -0.0099  0.0812 -0.2177
  307MPD2    C1 4670   0.872   3.285   0.391 -0.2701 -0.1788  0.3660
  307MPD2    C2 4671   0.807   3.266   0.505  0.9012  0.2928  0.0162
  307MPD2    C3 4672   0.824   3.159   0.589 -0.1614 -0.7920  0.0965
  307MPD2    C4 4673   0.910   3.059   0.545  0.7169  0.2549 -0.0005
  307MPD2    C5 4674   0.992   3.082   0.434 -0.2786 -0.4759  0.8659
  307MPD2     H 4675   0.732   3.339   0.534 -1.1848 -0.7645 -2.7614
  307MPD2    H1 4676   0.935   2.974   0.608  0.6346  2.0119  2.3815
  307MPD2    H2 4677   1.024   3.198   0.264  1.1767 -2.9237  0.2850
  307MPD2    H3 4678   1.066   3.009   0.404 -0.2396 -0.2006  0.3022
  307MPD2     N 4679   0.757   3.160   0.707  0.4301 -0.1404  0.1685
  307MPD2    H5 4680   0.718   3.251   0.729  1.1071  0.4133 -0.9310
  307MPD2    N1 4681   0.847   3.399   0.313  0.3448 -0.2284  0.3603
  307MPD2    H7 4682   0.781   3.461   0.359  1.1225  2.4599 -2.1489
  308TMC3    C1 4683   0.416   2.973   0.889  0.1221  0.3788  0.1320
  308TMC3    C2 4684   0.368   3.095   0.930  0.3382 -0.7842 -1.0343
  308TMC3    C3 4685   0.459   3.199   0.951 -0.1880 -0.5240  0.1214
  308TMC3    C4 4686   0.551   2.948   0.867 -0.5144 -0.5675  0.3688
  308TMC3    C5 4687   0.638   3.058   0.893  0.4612 -0.6581 -0.3969
  308TMC3    C6 4688   0.597   3.180   0.934 -0.6448 -0.0403  0.1524
  308TMC3     C 4689   0.328   2.867   0.843  0.1567  0.4353  0.0579
  308TMC3     O 4690   0.382   2.759   0.809 -0.1363  0.4471 -0.5937
  308TMC3     H 4691   0.260   3.101   0.942  0.8513  2.7464  1.7498
  308TMC3    H1 4692   0.592   2.856   0.827 -2.3826 -0.6183 -1.4871
  308TMC3    H2 4693   0.673   3.257   0.934 -1.1722  0.4766  0.1409
  308TMC3    C7 4694   0.752   3.054   0.800  0.5565  0.7479 -0.0657
  308TMC3    C8 4695   0.403   3.331   0.976 -0.1478 -0.3091  0.3299
  308TMC3    O1 4696   0.800   2.944   0.781  0.2137  0.7180 -0.1532
  308TMC3    O2 4697   0.293   3.361   0.924 -0.3171 -0.0773 -0.3597
  309MPD2     C 4698   0.005   3.202  17.312  0.7233 -0.2724  0.5331
  309MPD2    C1 4699   4.687   3.302  17.240 -0.1603  0.3307  0.1775
  309MPD2    C2 4700   4.584   3.380  17.290 -0.0495 -1.1225 -0.0424
  309MPD2    C3 4701   4.536   3.346  17.420  0.0811 -0.8868  0.0809
  309MPD2    C4 4702   4.595   3.248  17.492  0.9550  0.4407  0.1050
  309MPD2    C5 4703   4.698   3.178  17.434  0.4812  0.3496 -0.3998
  309MPD2     H 4704   4.549   3.459  17.224 -0.6744 -0.4941  1.0498
  309MPD2    H1 4705   4.555   3.213  17.586  1.3468 -0.5155 -0.0896
  309MPD2    H2 4706   0.096   3.152  17.280 -0.2700 -0.0769 -2.6100
  309MPD2    H3 4707   0.003   3.095  17.489 -3.1065 -0.6740  0.8106
  309MPD2     N 4708   4.418   3.406  17.480 -0.0989  0.2323 -0.3499
  309MPD2    H5 4709   4.400   3.369  17.573  1.3583 -2.9366 -1.3275
  309MPD2    N1 4710   4.735   3.344  17.113 -0.2843 -0.7484 -1.1959
  309MPD2    H7 4711   4.680   3.413  17.063  1.8936  1.4081 -0.5928
  310TMC3    C1 4712   0.138   3.347  16.919  0.2335 -0.0332 -0.2018
  310TMC3    C2 4713   0.036   3.360  16.830  0.4387  0.3490  0.5643
  310TMC3    C3 4714   0.070   3.357  16.700  0.2699 -0.0412 -0.2650
  310TMC3    C4 4715   0.266   3.328  16.868 -0.0757  0.8862 -0.0419
  310TMC3    C5 4716   0.288   3.308  16.736 -0.2882 -0.5440 -0.1530
  310TMC3    C6 4717   0.188   3.326  16.645 -0.0320 -0.7476 -0.2938
  310TMC3     C 4718   0.117   3.309  17.059  0.2033 -1.0093  0.4525
  310TMC3     O 4719   0.211   3.239  17.100 -0.3636 -0.2128 -0.4147
  310TMC3     H 4720   4.669   3.375  16.855 -0.3940 -0.5480 -2.3593
  310TMC3    H1 4721   0.348   3.309  16.937 -1.1113  1.6739  1.4092
  310TMC3    H2 4722   0.197   3.312  16.538  0.4777 -1.2866 -0.1814
  310TMC3    C7 4723   0.390   3.215  16.698 -0.6118 -0.1909 -0.2726
  310TMC3    C8 4724   4.708   3.407  16.604  0.2382  0.8110 -0.5292
  310TMC3    O1 4725   0.434   3.145  16.790  0.1756  0.2187  0.3469
  310TMC3    O2 4726   4.588   3.400  16.624 -0.0138  0.3184 -0.2684
  311MPD2     C 4727   2.255   4.031  12.871 -0.0697 -0.1532  0.1662
  311MPD2    C1 4728   2.223   4.150  12.932 -0.2251  0.9857  0.3934
  311MPD2    C2 4729   2.097   4.165  12.987  0.2245  0.1920  1.0277
  311MPD2    C3 4730   2.003   4.069  12.981  0.0029  0.2278 -0.3610
  311MPD2    C4 4731   2.027   3.962  12.900 -0.1149 -0.3466  0.3851
  311MPD2    C5 4732   2.153   3.939  12.851 -0.2284  0.4222  0.8689
  311MPD2     H 4733   2.068   4.252  13.044 -1.6279  0.5383 -0.4404
  311MPD2    H1 4734   1.957   3.883  12.876 -0.4964  0.3448 -0.7570
  311MPD2    H2 4735   2.349   4.027  12.818  0.0725 -1.5005  0.5035
  311MPD2    H3 4736   2.179   3.850  12.796  1.5727  0.7587  1.1574
  311MPD2     N 4737   1.881   4.093  13.049 -0.4635  0.2954 -0.2851
  311MPD2    H5 4738   1.869   4.181  13.098  3.4461  0.2696  0.6840
  311MPD2    N1 4739   2.308   4.261  12.953  0.3979  0.3574  0.6457
  311MPD2    H7 4740   2.268   4.337  13.007 -1.8165  2.0479 -3.3756
  312TMC3    C1 4741   1.658   4.048  13.125 -0.0038 -0.0772 -0.0746
  312TMC3    C2 4742   1.542   4.001  13.072 -0.0134  0.1383 -0.9231
  312TMC3    C3 4743   1.426   4.069  13.100  0.2873 -0.1275  0.0142
  312TMC3    C4 4744   1.662   4.163  13.192 -0.2642 -0.2357  0.7203
  312TMC3    C5 4745   1.549   4.238  13.220 -0.4283 -0.0816  0.4232
  312TMC3    C6 4746   1.429   4.192  13.169 -0.0543  0.3715 -0.2907
  312TMC3     C 4747   1.775   4.005  13.049  0.0930  0.1111  0.0915
  312TMC3     O 4748   1.760   3.899  12.987  0.1282  0.7425  0.4501
  312TMC3     H 4749   1.536   3.904  13.025  1.5527 -0.4711  0.1382
  312TMC3    H1 4750   1.747   4.195  13.252 -0.3180 -0.5845  0.9826
  312TMC3    H2 4751   1.336   4.240  13.196  0.4156  0.4938  1.1380
  312TMC3    C7 4752   1.549   4.340  13.327 -0.0084  0.0919 -0.4521
  312TMC3    C8 4753   1.309   3.995  13.115  0.1648 -0.0702 -0.7242
  312TMC3    O1 4754   1.441   4.368  13.371 -0.1663 -0.9175 -0.0344
  312TMC3    O2 4755   1.324   3.875  13.141 -0.5400  0.2438  0.5644
  313MPD2     C 4756   1.450   3.456  11.711  0.1405 -0.3356 -0.0422
  313MPD2    C1 4757   1.512   3.526  11.610  0.5094  0.2016  0.4843
  313MPD2    C2 4758   1.562   3.456  11.505 -0.5676  0.3313  0.0977
  313MPD2    C3 4759   1.545   3.321  11.485  0.3692 -0.0327 -0.0720
  313MPD2    C4 4760   1.484   3.253  11.583 -0.6085 -0.1762  0.0735
  313MPD2    C5 4761   1.432   3.317  11.695 -0.4892 -1.1166  0.9337
  313MPD2     H 4762   1.623   3.513  11.437 -1.7282  0.3012 -0.9661
  313MPD2    H1 4763   1.491   3.145  11.579  0.1676 -0.1215  0.0172
  313MPD2    H2 4764   1.426   3.505  11.805 -1.3052  1.8023 -1.5331
  313MPD2    H3 4765   1.384   3.263  11.776  0.7974 -1.9942  1.1164
  313MPD2     N 4766   1.606   3.256  11.367  0.1281  0.1158 -0.0581
  313MPD2    H5 4767   1.646   3.323  11.302 -0.5622  0.1752 -0.4180
  313MPD2    N1 4768   1.526   3.669  11.618  0.2384  0.6585 -0.1772
  313MPD2    H7 4769   1.586   3.717  11.552  0.6956 -2.4357 -1.9798
  314TMC3    C1 4770   1.467   3.887  11.676  0.6877 -0.0829 -0.1368
  314TMC3    C2 4771   1.594   3.913  11.635  0.2590 -0.1952  0.1961
  314TMC3    C3 4772   1.611   3.997  11.529 -0.4080  0.4506  0.1547
  314TMC3    C4 4773   1.354   3.939  11.616  0.5164  0.5575  0.7533
  314TMC3    C5 4774   1.381   4.028  11.508  0.9502  0.2098 -0.3163
  314TMC3    C6 4775   1.504   4.061  11.469 -0.3931  0.2895 -0.1023
  314TMC3     C 4776   1.442   3.749  11.693  0.6942  0.0618 -0.6493
  314TMC3     O 4777   1.332   3.722  11.740  0.6878 -0.3161  0.1915
  314TMC3     H 4778   1.672   3.848  11.673  0.2222 -1.4743 -1.9132
  314TMC3    H1 4779   1.255   3.914  11.650 -0.6999  0.6314 -2.7415
  314TMC3    H2 4780   1.516   4.145  11.402 -0.8487  1.2243  0.9847
  314TMC3    C7 4781   1.278   4.055  11.420  0.0717 -0.5487  0.3893
  314TMC3    C8 4782   1.743   4.059  11.508  0.0075 -0.2465  0.1079
  314TMC3    O1 4783   1.170   4.072  11.471 -0.2006 -0.5011  0.1304
  314TMC3    O2 4784   1.743   4.159  11.438  0.1981  0.2099  0.2235
  315MPD2     C 4785   1.048   2.794  17.501 -0.9322 -0.3172 -0.5198
  315MPD2    C1 4786   1.157   2.855  17.549  0.0405 -0.0776 -0.8916
  315MPD2    C2 4787   1.205   2.973  17.497  0.7483  0.2979  0.2205
  315MPD2    C3 4788   1.136   3.030  17.392  0.6391 -0.2952  0.3118
  315MPD2    C4 4789   1.031   2.963  17.333  0.1377  0.4149 -0.0967
  315MPD2    C5 4790   0.992   2.845  17.383 -0.2745  0.4737 -0.2631
  315MPD2     H 4791   1.296   3.018  17.537 -0.3921  1.1878  1.8229
  315MPD2    H1 4792   0.969   3.008  17.256  0.0417  1.6033  0.6820
  315MPD2    H2 4793   1.002   2.711  17.552  0.8204 -1.0797 -0.1800
  315MPD2    H3 4794   0.913   2.788  17.336 -0.4464  0.1326  0.4371
  315MPD2     N 4795   1.173   3.160  17.347  0.5263  0.4948 -0.1690
  315MPD2    H5 4796   1.248   3.204  17.399  0.7885  0.0994 -0.2183
  315MPD2    N1 4797   1.233   2.801  17.652 -0.1815 -0.0698  0.2320
  315MPD2    H7 4798   1.310   2.859  17.685  0.3814  0.2533 -1.6280
  316TMC3    C1 4799   1.190   3.363  17.199  0.2479 -0.6367 -0.2918
  316TMC3    C2 4800   1.238   3.448  17.291 -0.1430 -0.8951  0.7287
  316TMC3    C3 4801   1.285   3.572  17.256 -0.1894 -0.7638 -0.1504
  316TMC3    C4 4802   1.206   3.396  17.066  0.2053  0.3525 -0.6034
  316TMC3    C5 4803   1.253   3.523  17.032  0.5387 -0.3636 -0.1600
  316TMC3    C6 4804   1.301   3.605  17.119 -0.0062 -0.0101  0.2036
  316TMC3     C 4805   1.135   3.226  17.230 -0.2747  0.1136  0.3204
  316TMC3     O 4806   1.051   3.193  17.149 -0.0671 -0.0438  0.3919
  316TMC3     H 4807   1.229   3.414  17.393 -0.3770  1.0427  1.3490
  316TMC3    H1 4808   1.159   3.332  16.993  2.0967 -1.1649 -0.4786
  316TMC3    H2 4809   1.350   3.701  17.103  1.3662 -0.3166  2.4812
  316TMC3    C7 4810   1.217   3.568  16.903 -0.1387 -0.2431 -0.4812
  316TMC3    C8 4811   1.383   3.635  17.345 -0.1970  0.3820  0.8371
  316TMC3    O1 4812   1.201   3.690  16.888  0.4766 -0.3695 -0.4831
  316TMC3    O2 4813   1.430   3.738  17.300  0.2452  0.4553  0.0375
  317MPD2     C 4814   3.330   1.913  13.758  0.2953 -0.0167  0.0452
  317MPD2    C1 4815   3.412   1.866  13.655 -0.0872 -0.0114 -0.1209
  317MPD2    C2 4816   3.483   1.746  13.675  0.2727 -0.4299  0.2606
  317MPD2    C3 4817   3.469   1.673  13.790 -0.3877  0.1414  0.5677
  317MPD2    C4 4818   3.383   1.719  13.890  0.3563  0.1456  0.4003
  317MPD2    C5 4819   3.322   1.840  13.872  0.2429  0.0938 -0.1546
  317MPD2     H 4820   3.537   1.697  13.596  0.7863 -0.4853  0.6485
  317MPD2    H1 4821   3.365   1.664  13.981 -0.8766  0.1882  0.1827
  317MPD2    H2 4822   3.294   2.015  13.753 -0.2362 -0.1695  0.6785
  317MPD2    H3 4823   3.261   1.884  13.950 -1.6558  0.7055 -1.9801
  317MPD2     N 4824   3.536   1.548  13.797 -0.4968 -0.1634 -0.3200
  317MPD2    H5 4825   3.603   1.537  13.722 -1.4002 -0.7733 -1.0245
  317MPD2    N1 4826   3.436   1.929  13.533 -0.5806 -0.1158  0.4375
  317MPD2    H7 4827   3.499   1.891  13.463  1.3236  0.1726  2.0089
  318TMC3    C1 4828   3.620   1.357  13.898 -0.5574  0.1342 -0.4883
  318TMC3    C2 4829   3.578   1.256  13.816  0.2103 -1.0837 -0.2490
  318TMC3    C3 4830   3.641   1.131  13.826  0.1572 -0.4371  0.2591
  318TMC3    C4 4831   3.725   1.338  13.985  0.7509 -0.0621 -0.8816
  318TMC3    C5 4832   3.796   1.221  13.989 -0.3850 -0.6679 -0.5758
  318TMC3    C6 4833   3.753   1.117  13.908 -0.1522 -0.1941  0.3871
  318TMC3     C 4834   3.534   1.470  13.911  0.4509 -0.7355 -0.4996
  318TMC3     O 4835   3.477   1.473  14.021 -0.5703 -0.2554  0.3869
  318TMC3     H 4836   3.496   1.278  13.750  0.7225 -0.6929 -0.7583
  318TMC3    H1 4837   3.759   1.420  14.048 -0.5619  1.8002 -2.6046
  318TMC3    H2 4838   3.796   1.018  13.918  1.7618  0.5922  0.0320
  318TMC3    C7 4839   3.927   1.216  14.056  1.2455  0.0468  0.0076
  318TMC3    C8 4840   3.619   1.031  13.723 -0.0395 -0.2296  0.1168
  318TMC3    O1 4841   3.979   1.326  14.057 -0.1511 -0.3643 -0.0361
  318TMC3    O2 4842   3.713   0.953  13.700  0.3809 -0.5846 -0.2116
  319MPD2     C 4843   3.656   2.858  17.086  0.5526 -0.2157 -0.2920
  319MPD2    C1 4844   3.712   2.740  17.048 -0.4506 -0.1793 -1.0073
  319MPD2    C2 4845   3.653   2.673  16.943 -0.2670 -0.3590 -0.0910
  319MPD2    C3 4846   3.527   2.703  16.905  0.2496 -0.0049 -0.5270
  319MPD2    C4 4847   3.465   2.814  16.954 -0.4598  0.6377 -0.4718
  319MPD2    C5 4848   3.534   2.899  17.036 -0.0656 -0.0600  0.0958
  319MPD2     H 4849   3.712   2.594  16.899  0.4525 -0.1408  0.4844
  319MPD2    H1 4850   3.369   2.855  16.926 -0.4951  0.9055  0.0383
  319MPD2    H2 4851   3.704   2.932  17.149 -0.9453  0.9387 -0.5118
  319MPD2    H3 4852   3.500   2.999  17.056 -0.2049 -0.0939  0.0260
  319MPD2     N 4853   3.456   2.632  16.803  0.1561 -0.2535 -0.6745
  319MPD2    H5 4854   3.377   2.679  16.761  1.3185  1.3173 -1.1100
  319MPD2    N1 4855   3.839   2.690  17.087 -0.1535  0.2356 -0.8756
  319MPD2    H7 4856   3.874   2.620  17.021 -0.3815 -0.8412  0.1514
  320TMC3    C1 4857   3.407   2.453  16.662 -0.2144  0.1483 -0.1577
  320TMC3    C2 4858   3.356   2.540  16.564 -0.0865 -0.1988 -0.5180
  320TMC3    C3 4859   3.284   2.480  16.468 -1.1460  0.1940 -0.5402
  320TMC3    C4 4860   3.393   2.315  16.660 -0.8512 -0.5108 -0.0008
  320TMC3    C5 4861   3.306   2.266  16.571 -0.3880 -0.6449 -0.5012
  320TMC3    C6 4862   3.246   2.350  16.482 -0.3136 -0.3697  0.6597
  320TMC3     C 4863   3.500   2.511  16.761 -0.2937  0.4032  1.1016
  320TMC3     O 4864   3.566   2.428  16.823  0.1382 -0.1984  0.1551
  320TMC3     H 4865   3.388   2.643  16.560  0.3147 -0.2373  2.0107
  320TMC3    H1 4866   3.448   2.257  16.733 -1.3579 -1.1527 -0.1233
  320TMC3    H2 4867   3.179   2.309  16.406  1.0806 -0.1452 -0.6861
  320TMC3    C7 4868   3.301   2.120  16.544  0.1323  0.3191 -0.8516
  320TMC3    C8 4869   3.255   2.559  16.348  1.0035 -0.2946 -0.0900
  320TMC3    O1 4870   3.274   2.094  16.429 -0.6424  0.1828  0.1630
  320TMC3    O2 4871   3.244   2.679  16.370  0.2311  1.0508 -0.4309
  321TMC3    C1 4872   4.066   2.705  17.158 -0.2279  0.5652  0.1832
  321TMC3    C2 4873   4.082   2.579  17.096 -0.1307  1.3824  0.4901
  321TMC3    C3 4874   4.210   2.554  17.049  0.1428  0.5111 -0.3385
  321TMC3    C4 4875   4.166   2.792  17.176 -0.0957 -0.5410 -0.4059
  321TMC3    C5 4876   4.289   2.764  17.125 -0.6880  0.8367 -0.2623
  321TMC3    C6 4877   4.304   2.648  17.053 -0.8223  0.4743 -0.3154
  321TMC3     C 4878   3.928   2.759  17.170 -0.1634  0.3147  0.2419
  321TMC3     O 4879   3.917   2.873  17.216 -0.0739  0.2556  0.2976
  321TMC3     H 4880   4.005   2.503  17.100  0.6841  0.4038 -2.2120
  321TMC3    H1 4881   4.141   2.892  17.211  0.1429 -0.8137  0.5429
  321TMC3    H2 4882   4.397   2.620  17.005 -0.5293 -0.3679  0.7515
  321TMC3    C7 4883   4.393   2.759  17.228 -0.3579  0.2277  0.1745
  321TMC3    C8 4884   4.251   2.420  17.078 -0.1179  0.1470 -0.2215
  321TMC3    O1 4885   4.469   2.668  17.214  0.2240 -0.1275 -0.0032
  321TMC3    O2 4886   4.171   2.331  17.090  0.2112  0.1692  0.3150
  322MPD2     C 4887   3.120   4.332  13.618  0.6014  0.1009 -0.3098
  322MPD2    C1 4888   3.108   4.246  13.722 -0.4106 -0.3545  0.1776
  322MPD2    C2 4889   3.110   4.114  13.695  0.0266  0.4327  0.3052
  322MPD2    C3 4890   3.120   4.071  13.566  0.1173  0.2443 -0.6719
  322MPD2    C4 4891   3.132   4.161  13.464  0.5590 -0.0575  0.6348
  322MPD2    C5 4892   3.137   4.295  13.488 -0.0629  0.0883  0.0859
  322MPD2     H 4893   3.102   4.038  13.772  1.2962  2.8896  2.8662
  322MPD2    H1 4894   3.124   4.130  13.361  1.4028 -1.0900  0.8827
  322MPD2    H2 4895   3.131   4.438  13.635 -0.5245  0.1028  0.4312
  322MPD2    H3 4896   3.141   4.368  13.408  2.4319  0.7110  0.7627
  322MPD2     N 4897   3.130   3.931  13.534  0.6656  0.1171 -0.2675
  322MPD2    H5 4898   3.098   3.864  13.603  0.0211 -0.1089 -0.7819
  322MPD2    N1 4899   3.107   4.294  13.862 -0.6864 -0.0936  0.2195
  322MPD2    H7 4900   3.118   4.394  13.869 -3.4682  0.1191  1.4596
  323TMC3    C1 4901   3.183   4.271  14.079  0.1813 -0.1686  1.1302
  323TMC3    C2 4902   3.294   4.341  14.048  0.3992  0.2125  0.2685
  323TMC3    C3 4903   3.382   4.360  14.148  0.0947  0.4834  0.3846
  323TMC3    C4 4904   3.167   4.201  14.197  0.0226 -0.2456  0.4768
  323TMC3    C5 4905   3.264   4.216  14.296  0.7247 -0.0292 -0.3920
  323TMC3    C6 4906   3.377   4.291  14.270  0.6141  0.2945  0.1814
  323TMC3     C 4907   3.114   4.212  13.970 -0.9468  0.2932 -1.1738
  323TMC3     O 4908   3.087   4.092  13.986  0.3416  0.4160  0.1441
  323TMC3     H 4909   3.307   4.396  13.956  0.2437 -0.0132  0.1120
  323TMC3    H1 4910   3.079   4.141  14.215  0.5527 -0.3689  2.5710
  323TMC3    H2 4911   3.462   4.296  14.337  0.1008 -1.2618  0.9634
  323TMC3    C7 4912   3.285   4.097  14.373 -0.7692  0.2680 -0.5571
  323TMC3    C8 4913   3.513   4.418  14.112 -0.1265 -0.1578  0.5400
  323TMC3    O1 4914   3.258   3.989  14.316 -0.2799 -0.5940 -0.6012
  323TMC3    O2 4915   3.586   4.472  14.196  0.1352 -0.3271  0.1314
  324MPD2     C 4916   4.664   4.587  14.929 -0.4740 -0.0332 -0.1747
  324MPD2    C1 4917   4.694   4.699  14.856 -0.1835 -0.0359  0.2777
  324MPD2    C2 4918   4.598   0.030  14.794 -0.4093 -0.3262  0.0693
  324MPD2    C3 4919   4.464   4.723  14.789 -0.1601 -0.0801  0.3505
  324MPD2    C4 4920   4.437   4.596  14.842  1.2399 -0.0565  0.3067
  324MPD2    C5 4921   4.535   4.538  14.918  0.4888 -0.3172  0.3093
  324MPD2     H 4922   4.622   0.129  14.757  0.9368 -0.0502  1.6401
  324MPD2    H1 4923   4.337   4.555  14.829  0.9360  1.2407 -1.3810
  324MPD2    H2 4924   0.005   4.530  14.977 -0.5611 -0.6433 -0.7507
  324MPD2    H3 4925   4.517   4.444  14.969 -0.2326 -1.1089 -1.4093
  324MPD2     N 4926   4.363   0.055  14.717  0.1080 -0.3253  0.0300
  324MPD2    H5 4927   4.278   0.002  14.699  0.6137 -0.5817 -1.5852
  324MPD2    N1 4928   0.085   0.028  14.860  0.7164 -0.0223  0.2009
  324MPD2    H7 4929   0.086   0.115  14.809  2.2084 -0.5291 -0.6168
  325TMC3    C1 4930   4.268   0.233  14.593  1.0734 -0.3488 -0.4855
  325TMC3    C2 4931   4.203   0.159  14.495  0.0077 -0.7511 -0.3132
  325TMC3    C3 4932   4.115   0.227  14.413  0.5694 -0.1407 -0.6363
  325TMC3    C4 4933   4.230   0.361  14.614  0.0300  0.3647 -0.3778
  325TMC3    C5 4934   4.118   0.417  14.557 -0.5672 -0.0089  0.2724
  325TMC3    C6 4935   4.057   0.355  14.449 -0.0324 -0.7402  0.3447
  325TMC3     C 4936   4.381   0.186  14.667  0.5454  0.4933 -0.1171
  325TMC3     O 4937   4.465   0.274  14.684 -0.3464 -0.1510  0.4123
  325TMC3     H 4938   4.263   0.074  14.462  1.4765  0.7876 -1.6143
  325TMC3    H1 4939   4.269   0.420  14.697  1.2794  0.1906 -0.8388
  325TMC3    H2 4940   3.973   0.396  14.394  0.8983 -1.0008 -1.2567
  325TMC3    C7 4941   4.121   0.561  14.558 -0.7588  0.3778  0.3749
  325TMC3    C8 4942   4.106   0.175  14.280  0.1656  0.4551 -0.3441
  325TMC3    O1 4943   4.232   0.608  14.578 -0.0945 -0.4203 -0.7287
  325TMC3    O2 4944   4.183   0.088  14.242  0.5906  0.3534 -0.2380
  326MPD2     C 4945   1.234   1.727  11.091 -0.1325 -0.3136  0.7107
  326MPD2    C1 4946   1.284   1.641  10.995 -0.2829 -0.3102  0.5046
  326MPD2    C2 4947   1.418   1.647  10.957  0.4273 -0.1375 -0.2648
  326MPD2    C3 4948   1.503   1.744  11.012 -0.4526  0.0069 -0.1445
  326MPD2    C4 4949   1.449   1.831  11.101 -0.6580  0.8489 -0.2889
  326MPD2    C5 4950   1.318   1.825  11.135 -0.1818  0.6853  0.1387
  326MPD2     H 4951   1.453   1.573  10.886 -0.0241  1.6521 -2.3525
  326MPD2    H1 4952   1.505   1.918  11.134 -0.2607 -0.2228  1.8874
  326MPD2    H2 4953   1.134   1.727  11.133 -1.4022  1.6196 -2.3434
  326MPD2    H3 4954   1.273   1.901  11.199 -0.8342 -0.0634  0.5651
  326MPD2     N 4955   1.639   1.760  10.982  0.1778  0.4214 -0.2856
  326MPD2    H5 4956   1.685   1.840  11.024 -1.5476  0.9770  0.5437
  326MPD2    N1 4957   1.200   1.541  10.932 -0.9290  0.0664 -0.4763
  326MPD2    H7 4958   1.242   1.463  10.882  1.7775 -0.5251  2.7235
  327TMC3    C1 4959   1.016   1.428  10.854 -0.2727 -0.0283  0.0746
  327TMC3    C2 4960   0.906   1.452  10.778  1.2258  0.6781 -0.0925
  327TMC3    C3 4961   0.883   1.373  10.668 -0.1295  0.5927  0.3326
  327TMC3    C4 4962   1.098   1.321  10.836 -0.1813  0.1058 -0.0256
  327TMC3    C5 4963   1.071   1.242  10.730 -0.2471 -0.1545 -0.0590
  327TMC3    C6 4964   0.959   1.265  10.650  1.3768  0.3207  0.4845
  327TMC3     C 4965   1.068   1.540  10.928  0.2731 -0.2137  0.3313
  327TMC3     O 4966   0.987   1.628  10.969 -0.8311  0.9243  0.4174
  327TMC3     H 4967   0.846   1.540  10.799 -2.8598 -2.1902  0.2420
  327TMC3    H1 4968   1.163   1.283  10.915 -2.2386  0.1318  1.6684
  327TMC3    H2 4969   0.943   1.199  10.565  0.8693 -0.6571  1.3396
  327TMC3    C7 4970   1.123   1.107  10.717  0.0188 -0.3993 -0.4613
  327TMC3    C8 4971   0.749   1.357  10.619  0.6292 -0.0825  0.2803
  327TMC3    O1 4972   1.050   1.023  10.669 -0.1321 -0.6329  0.0393
  327TMC3    O2 4973   0.714   1.236  10.617 -0.4132  0.0950 -1.0951
  328MPD2     C 4974   3.662   1.792  17.286 -0.0813 -0.1605 -0.3404
  328MPD2    C1 4975   3.598   1.676  17.262  0.1604 -0.2673  0.5105
  328MPD2    C2 4976   3.476   1.675  17.193  0.0119  0.6297  0.9307
  328MPD2    C3 4977   3.428   1.791  17.144  0.1432  0.7477 -0.4659
  328MPD2    C4 4978   3.494   1.911  17.170 -0.1408  0.3915  1.5487
  328MPD2    C5 4979   3.613   1.914  17.234  0.0235  0.0030 -0.3539
  328MPD2     H 4980   3.424   1.581  17.182  0.5155  0.6188 -1.2757
  328MPD2    H1 4981   3.463   2.005  17.126 -0.1741  0.1318  1.0176
  328MPD2    H2 4982   3.752   1.794  17.347  0.4498  0.4882 -1.1423
  328MPD2    H3 4983   3.672   2.005  17.240 -0.2370  0.0586  1.2440
  328MPD2     N 4984   3.304   1.793  17.071  0.3802 -0.1857 -0.1765
  328MPD2    H5 4985   3.276   1.888  17.048 -1.6404 -0.8442 -0.4333
  328MPD2    N1 4986   3.636   1.557  17.327 -0.2637 -0.2501  0.0386
  328MPD2    H7 4987   3.719   1.562  17.386 -1.9658 -0.2043  2.3827
  329TMC3    C1 4988   3.645   1.338  17.388 -0.4988  0.0444  0.1310
  329TMC3    C2 4989   3.726   1.373  17.491 -1.2986 -0.7100  0.0525
  329TMC3    C3 4990   3.799   1.277  17.561  0.7486  0.0995 -0.1495
  329TMC3    C4 4991   3.614   1.205  17.365  0.5637 -0.2117  0.5833
  329TMC3    C5 4992   3.693   1.112  17.439  0.3185 -0.5251 -0.2004
  329TMC3    C6 4993   3.789   1.142  17.527  0.0517 -0.2511  0.0962
  329TMC3     C 4994   3.583   1.430  17.306 -0.0999  0.0828  0.3713
  329TMC3     O 4995   3.511   1.383  17.216 -0.2728 -0.3587  0.3916
  329TMC3     H 4996   3.746   1.478  17.510  0.4272 -0.9449 -0.5102
  329TMC3    H1 4997   3.534   1.172  17.300 -0.7677  0.1940  2.0056
  329TMC3    H2 4998   3.848   1.077  17.590 -0.7868 -0.1409  0.9805
  329TMC3    C7 4999   3.660   0.974  17.417 -0.1795  0.1395 -0.6731
  329TMC3    C8 5000   3.881   1.331  17.668 -0.5636  0.0758 -0.1695
  329TMC3    O1 5001   3.615   0.936  17.309  0.2108  0.3700 -0.2051
  329TMC3    O2 5002   3.994   1.289  17.681  0.1237 -0.2642  0.0149
  330TMC3    C1 5003   1.758   4.296   9.291  0.4345 -0.8896 -0.7349
  330TMC3    C2 5004   1.643   4.228   9.293  0.1666  1.1103 -0.1240
  330TMC3    C3 5005   1.591   4.192   9.410 -0.1496 -0.0546  0.6269
  330TMC3    C4 5006   1.825   4.324   9.412 -0.4838  0.1390  0.1921
  330TMC3    C5 5007   1.769   4.282   9.527  0.6772  0.1978  0.6569
  330TMC3    C6 5008   1.647   4.212   9.529  0.0598 -1.3306  0.4456
  330TMC3     C 5009   1.796   4.384   9.173 -0.2385 -0.7053 -0.2014
  330TMC3     O 5010   1.895   4.452   9.190 -0.3148  0.2203 -0.1998
  330TMC3     H 5011   1.597   4.210   9.196 -0.3154 -1.5983  0.6208
  330TMC3    H1 5012   1.910   4.391   9.417  0.1756 -0.7170  0.3260
  330TMC3    H2 5013   1.598   4.160   9.611 -1.8467  0.1236  0.2437
  330TMC3    C7 5014   1.850   4.291   9.651  0.1240 -1.3504  0.0179
  330TMC3    C8 5015   1.450   4.152   9.398 -0.8190 -0.1592  0.4007
  330TMC3    O1 5016   1.964   4.337   9.641  0.5822 -0.2885 -0.3031
  330TMC3    O2 5017   1.414   4.116   9.287  0.0350  0.0283  0.3986
  331MPD2     C 5018   0.229   4.651  12.961  0.3093  0.1110 -0.3743
  331MPD2    C1 5019   0.120   4.634  12.879  0.4655  0.5421 -0.2451
  331MPD2    C2 5020   0.063   4.511  12.884  0.0659  0.4214  0.1539
  331MPD2    C3 5021   0.094   4.408  12.971  0.0538 -0.4588  0.3633
  331MPD2    C4 5022   0.191   4.436  13.063 -0.5563 -0.1604 -0.1561
  331MPD2    C5 5023   0.255   4.557  13.058 -0.3485 -0.1004  0.3481
  331MPD2     H 5024   4.730   4.493  12.804  1.4049  0.9553 -1.1475
  331MPD2    H1 5025   0.226   4.363  13.135 -0.2641 -0.3165 -0.4595
  331MPD2    H2 5026   0.281   0.008  12.969  1.7669 -0.6351 -1.1641
  331MPD2    H3 5027   0.339   4.567  13.127 -1.0097 -0.7507  1.2476
  331MPD2     N 5028   0.034   4.288  12.953 -0.4349  0.7047  0.1681
  331MPD2    H5 5029   4.697   4.289  12.885 -0.8112  0.7470  0.5794
  331MPD2    N1 5030   0.077   0.002  12.788 -0.1368 -0.4553  0.0248
  331MPD2    H7 5031   0.145   0.077  12.784  0.8850 -1.1685  3.9053
  332TMC3    C1 5032   4.724   4.052  12.974 -1.3735 -0.6066 -0.3082
  332TMC3    C2 5033   4.680   4.057  12.848 -0.5066  0.7288 -0.2273
  332TMC3    C3 5034   4.619   3.946  12.800 -0.7565 -0.1200 -0.1405
  332TMC3    C4 5035   4.726   3.941  13.054 -0.5091 -0.6050  0.3930
  332TMC3    C5 5036   4.671   3.831  12.992  0.1727  0.2183 -0.5131
  332TMC3    C6 5037   4.615   3.830  12.866  1.5784 -0.1617 -0.6934
  332TMC3     C 5038   0.053   4.172  13.022  0.5696 -0.2302 -1.2231
  332TMC3     O 5039   0.124   4.154  13.121 -0.5166  0.3432 -0.2826
  332TMC3     H 5040   4.680   4.145  12.783  0.1976  1.7583  1.1671
  332TMC3    H1 5041   0.029   3.938  13.155  1.4095  0.8723 -0.3504
  332TMC3    H2 5042   4.606   3.737  12.812  2.3199 -0.4115 -0.3843
  332TMC3    C7 5043   4.681   3.696  13.045  0.9187  0.0321  0.0006
  332TMC3    C8 5044   4.590   3.943  12.655  0.0196  0.7619  0.0997
  332TMC3    O1 5045   4.581   3.628  13.025 -0.0803 -0.4215 -0.0012
  332TMC3    O2 5046   4.634   4.035  12.589  1.0603  0.2837  0.2733
  333MPD2     C 5047   4.605   4.420  11.337  0.4073  0.2878 -0.0382
  333MPD2    C1 5048   4.688   4.346  11.254  0.5694 -0.2059  0.1049
  333MPD2    C2 5049   4.705   4.206  11.284  0.4291 -0.8520 -0.8492
  333MPD2    C3 5050   4.628   4.152  11.383  0.0114 -0.6271  0.5185
  333MPD2    C4 5051   4.539   4.224  11.457 -0.5860 -0.2130  0.0156
  333MPD2    C5 5052   4.524   4.359  11.431  0.2221  0.0367  0.6205
  333MPD2     H 5053   0.031   4.143  11.222 -0.0172 -1.3041 -0.8467
  333MPD2    H1 5054   4.466   4.177  11.522 -0.0484  0.1001  0.8436
  333MPD2    H2 5055   4.579   4.524  11.324  1.0021  0.7501  2.4898
  333MPD2    H3 5056   4.446   4.411  11.485 -0.8868  0.1890 -1.1315
  333MPD2     N 5057   4.641   4.012  11.407 -0.3467 -0.4547 -0.3531
  333MPD2    H5 5058   4.711   3.967  11.350 -0.2964  0.4459 -1.0086
  333MPD2    N1 5059   0.029   4.418  11.166 -0.3954  0.4313 -0.7427
  333MPD2    H7 5060   0.009   4.517  11.154 -1.8674  0.0971 -1.1219
  334TMC3    C1 5061   0.213   4.477  11.024 -0.2927 -0.2437  0.5865
  334TMC3    C2 5062   0.349   4.471  11.005  0.1110 -0.1166  0.1815
  334TMC3    C3 5063   0.414   4.585  10.956  0.6745 -0.0635  0.1382
  334TMC3    C4 5064   0.149   4.586  10.973  0.6330  0.4993 -1.0130
  334TMC3    C5 5065   0.211   4.686  10.905 -0.4912  0.5112  0.4092
  334TMC3    C6 5066   0.348   4.691  10.898  0.1389 -0.8717 -0.3653
  334TMC3     C 5067   0.139   4.370  11.098 -0.9368  0.2260 -0.1535
  334TMC3     O 5068   0.194   4.262  11.116  0.4022 -0.4399 -0.2224
  334TMC3     H 5069   0.400   4.385  11.049 -1.3038 -0.6612  0.7530
  334TMC3    H1 5070   0.041   4.581  10.968  0.5288  1.7734  0.0617
  334TMC3    H2 5071   0.396   0.042  10.857 -1.8401  0.1392 -0.5052
  334TMC3    C7 5072   0.142   0.066  10.896  0.0066 -0.1639  0.7129
  334TMC3    C8 5073   0.557   4.573  10.937  0.3484  0.7651 -0.5420
  334TMC3    O1 5074   0.191   0.167  10.947  0.0513 -0.6975 -0.5610
  334TMC3    O2 5075   0.609   4.681  10.902  0.0084  0.1752 -0.4696
  335TMC3    C1 5076   4.272   1.959  17.527 -0.5658 -0.1025  0.7321
  335TMC3    C2 5077   4.155   1.912  17.456  0.2656 -0.7754 -0.2795
  335TMC3    C3 5078   4.177   1.798  17.380  0.1775 -0.4613 -0.3226
  335TMC3    C4 5079   4.395   1.905  17.512 -0.1928 -0.3488  0.0901
  335TMC3    C5 5080   4.400   1.789  17.440  0.2887 -0.8790 -0.2529
  335TMC3    C6 5081   4.295   1.738  17.374  0.6685 -0.2721 -0.3244
  335TMC3     C 5082   4.263   2.107  17.546  0.5564  0.3313 -0.1210
  335TMC3     O 5083   4.167   2.162  17.493 -0.6450 -0.0367 -0.3020
  335TMC3     H 5084   4.060   1.965  17.461 -0.5269 -2.0764 -1.4520
  335TMC3    H1 5085   4.481   1.957  17.553 -0.0405 -1.8110  1.6191
  335TMC3    H2 5086   4.306   1.661  17.298 -0.0112 -1.8958  1.2309
  335TMC3    C7 5087   4.520   1.709  17.444 -0.4589 -0.8152 -0.2800
  335TMC3    C8 5088   4.069   1.710  17.330 -0.5624 -0.3881 -0.0569
  335TMC3    O1 5089   4.543   1.636  17.347  0.4792  0.1343 -0.2690
  335TMC3    O2 5090   3.997   1.749  17.243  0.3673 -0.6164 -0.1765
  336MPD2     C 5091   3.991   3.773  16.096 -0.0820  0.6293  0.2102
  336MPD2    C1 5092   3.895   3.682  16.049  0.5727  0.4555  0.2560
  336MPD2    C2 5093   3.896   3.556  16.107  0.3819  0.0936 -0.4026
  336MPD2    C3 5094   3.976   3.531  16.214 -0.3558  0.0384  0.0758
  336MPD2    C4 5095   4.069   3.627  16.258 -0.5135 -0.5411  0.2164
  336MPD2    C5 5096   4.073   3.750  16.200  0.5160 -0.1163 -0.3690
  336MPD2     H 5097   3.825   3.478  16.082 -0.9337  1.0882  0.1858
  336MPD2    H1 5098   4.147   3.604  16.331  0.6636  1.9808 -0.2624
  336MPD2    H2 5099   4.004   3.872  16.055 -0.1238  0.4373 -0.2772
  336MPD2    H3 5100   4.144   3.828  16.227  0.6248  0.0013 -1.0033
  336MPD2     N 5101   3.975   3.400  16.277  0.1219 -0.1454  0.6505
  336MPD2    H5 5102   4.026   3.379  16.362  0.1675 -0.2350  0.6005
  336MPD2    N1 5103   3.801   3.704  15.948 -0.0934  0.5502 -0.4148
  336MPD2    H7 5104   3.746   3.625  15.915  1.5552 -0.3286 -1.0257
  337TMC3    C1 5105   3.701   3.834  15.771 -0.1978  0.7007  1.0019
  337TMC3    C2 5106   3.588   3.757  15.757 -0.1539 -0.0136  0.2387
  337TMC3    C3 5107   3.500   3.786  15.655  0.2439  0.2171  0.0222
  337TMC3    C4 5108   3.728   3.939  15.686 -0.2723  0.3785  0.2634
  337TMC3    C5 5109   3.639   3.963  15.589  0.2282 -0.3957  0.4383
  337TMC3    C6 5110   3.526   3.890  15.568  0.6554  0.1341  0.5439
  337TMC3     C 5111   3.781   3.828  15.892 -0.1876  0.4476 -0.4118
  337TMC3     O 5112   3.830   3.932  15.935 -0.4020 -0.7969  0.5168
  337TMC3     H 5113   3.561   3.688  15.836  0.1113  0.0965  0.4219
  337TMC3    H1 5114   3.815   4.001  15.704  1.7505 -2.5229  0.5647
  337TMC3    H2 5115   3.489   3.890  15.466 -1.0130 -1.7866  1.1554
  337TMC3    C7 5116   3.664   4.078  15.510 -0.0478  0.2981  0.1009
  337TMC3    C8 5117   3.364   3.723  15.648 -0.0752 -0.2525 -0.2042
  337TMC3    O1 5118   3.637   4.075  15.391 -1.0278  0.7299  1.1318
  337TMC3    O2 5119   3.338   3.625  15.727  0.7179  0.4065  0.1565
  338MPD2     C 5120   3.640   2.859   0.980 -0.4264  0.1330  0.1591
  338MPD2    C1 5121   3.692   2.979   0.924  0.1717 -0.2475 -0.0681
  338MPD2    C2 5122   3.638   3.105   0.948 -0.6618  0.0827 -0.2663
  338MPD2    C3 5123   3.527   3.118   1.025 -0.6555 -0.4170  0.5580
  338MPD2    C4 5124   3.465   3.004   1.072  0.9718 -0.3090 -0.4345
  338MPD2    C5 5125   3.522   2.878   1.051  0.7212 -0.0714  0.4435
  338MPD2     H 5126   3.668   3.200   0.908 -1.7547  0.6215  0.1944
  338MPD2    H1 5127   3.386   3.016   1.146 -0.2076 -1.3420 -1.5257
  338MPD2    H2 5128   3.679   2.759   0.963 -1.2043 -0.0808 -0.3601
  338MPD2    H3 5129   3.485   2.787   1.096  0.6473 -2.4933 -4.4286
  338MPD2     N 5130   3.480   3.250   1.048 -0.2420  0.3960 -0.2566
  338MPD2    H5 5131   3.541   3.322   1.010 -2.0524  0.9270 -2.2110
  338MPD2    N1 5132   3.812   2.983   0.848  0.0579 -0.8245  0.2533
  338MPD2    H7 5133   3.840   3.069   0.800 -0.2511  0.4689  2.3990
  339TMC3    C1 5134   3.334   3.428   1.104  0.1561 -0.0334  0.2342
  339TMC3    C2 5135   3.262   3.482   1.204  0.4536  0.2557 -0.0591
  339TMC3    C3 5136   3.234   3.621   1.199  0.1277 -0.6356  0.4298
  339TMC3    C4 5137   3.378   3.501   1.002 -0.2153 -0.3659 -0.0992
  339TMC3    C5 5138   3.353   3.636   0.998 -0.8648 -0.2170  0.4117
  339TMC3    C6 5139   3.282   3.701   1.098  0.1324  0.0287 -0.3398
  339TMC3     C 5140   3.364   3.283   1.116 -0.2897  0.3592 -0.2896
  339TMC3     O 5141   3.280   3.215   1.175 -0.0233  0.1842 -0.3154
  339TMC3     H 5142   3.206   3.421   1.275 -0.2284  0.8233 -0.1052
  339TMC3    H1 5143   3.430   3.457   0.918  1.7020 -0.7698  1.2854
  339TMC3    H2 5144   3.256   3.807   1.095  0.7801  0.1676 -0.9382
  339TMC3    C7 5145   3.413   3.714   0.894  0.2993  0.3054 -0.6760
  339TMC3    C8 5146   3.144   3.693   1.294 -0.2463 -0.4971  0.7075
  339TMC3    O1 5147   3.440   3.832   0.909 -0.5419  0.7347 -0.0695
  339TMC3    O2 5148   3.179   3.801   1.340  0.1339  0.1200 -0.5773
  340MPD2     C 5149   4.360   0.413   9.573  0.7071 -0.1871  0.1101
  340MPD2    C1 5150   4.428   0.306   9.628  0.2448  0.7820 -0.8393
  340MPD2    C2 5151   4.456   0.300   9.759  0.9377 -0.2668  0.2476
  340MPD2    C3 5152   4.413   0.406   9.838 -0.0673 -0.2021 -0.0388
  340MPD2    C4 5153   4.345   0.511   9.780  0.0822 -0.3294 -0.6273
  340MPD2    C5 5154   4.327   0.522   9.646 -1.2389  0.3340  0.2070
  340MPD2     H 5155   4.516   0.223   9.805  5.1664  2.6838 -0.2829
  340MPD2    H1 5156   4.320   0.597   9.840  0.1115 -0.4025 -0.5108
  340MPD2    H2 5157   4.327   0.409   9.470  0.2552 -0.5500  0.2695
  340MPD2    H3 5158   4.282   0.610   9.600 -0.4826  1.2028  1.1249
  340MPD2     N 5159   4.441   0.410   9.974  0.2639  0.1097  1.2596
  340MPD2    H5 5160   4.426   0.497  10.024  0.3164  0.3681  0.8347
  340MPD2    N1 5161   4.455   0.204   9.536 -0.7979 -0.4856 -1.0022
  340MPD2    H7 5162   4.411   0.205   9.444 -2.0205  0.8765 -0.4111
  341TMC3    C1 5163   4.561   0.009   9.467 -0.0215  0.4180  0.6100
  341TMC3    C2 5164   4.443   4.687   9.459 -0.3937  0.6418 -0.0736
  341TMC3    C3 5165   4.426   4.549   9.446 -0.2014  0.0339 -0.4412
  341TMC3    C4 5166   4.669   4.670   9.454 -0.1268  0.4693  0.3698
  341TMC3    C5 5167   4.659   4.532   9.444 -0.4279 -0.3434  0.8999
  341TMC3    C6 5168   4.538   4.471   9.439 -0.9895 -0.0886 -0.1911
  341TMC3     C 5169   4.571   0.134   9.541 -0.2512 -0.1244  0.0638
  341TMC3     O 5170   4.675   0.161   9.602 -0.1306  0.3979 -0.2815
  341TMC3     H 5171   4.352   0.006   9.479 -0.0759  1.4555 -0.9428
  341TMC3    H1 5172   0.029   4.708   9.484 -0.9792  1.1247  2.3316
  341TMC3    H2 5173   4.526   4.365   9.424 -0.3405  0.1221 -2.1736
  341TMC3    C7 5174   0.038   4.467   9.395 -0.2951  0.4150  0.1705
  341TMC3    C8 5175   4.317   4.500   9.522  0.2171 -0.1555  0.2529
  341TMC3    O1 5176   0.138   4.538   9.391 -0.2614  0.1219 -0.0365
  341TMC3    O2 5177   4.347   4.418   9.610  0.0658  0.6602 -0.8373
  342MPD2     C 5178   1.918   4.314  17.600 -0.2904  0.5829  0.7071
  342MPD2    C1 5179   2.056   4.308  17.582 -0.7143 -0.3103  0.0673
  342MPD2    C2 5180   2.123   4.413  17.621  0.1916  0.3124 -0.4087
  342MPD2    C3 5181   2.084   4.530  17.675 -0.1877 -0.3401 -1.0704
  342MPD2    C4 5182   1.949   4.530  17.697 -0.7266 -0.0742  0.1586
  342MPD2    C5 5183   1.861   4.427  17.659  0.2078  0.3242 -0.0365
  342MPD2     H 5184   2.227   4.398  17.596  0.1758  0.5219 -0.6014
  342MPD2    H1 5185   1.899   4.612  17.747  0.7352  0.0799  1.3687
  342MPD2    H2 5186   1.850   4.235  17.571 -0.3085  1.0505 -0.5322
  342MPD2    H3 5187   1.756   4.420  17.685 -0.2603  0.8387 -1.7794
  342MPD2     N 5188   2.165   4.643  17.687  0.1833 -0.3778  0.5995
  342MPD2    H5 5189   2.126   4.718  17.744  0.4151 -0.3158  0.6747
  342MPD2    N1 5190   2.124   4.203  17.525 -0.0806 -0.1941 -0.0787
  342MPD2    H7 5191   2.215   4.227  17.488 -0.6715  1.3527 -0.5097
  343TMC3    C1 5192   2.171   3.993  17.440 -0.0808 -0.0970 -0.7542
  343TMC3    C2 5193   2.288   4.040  17.393  0.2221  0.0019  0.4109
  343TMC3    C3 5194   2.361   3.958  17.313 -0.6546 -0.1873  0.1775
  343TMC3    C4 5195   2.115   3.871  17.395 -0.4277 -0.9462 -0.0253
  343TMC3    C5 5196   2.197   3.796  17.319  0.1079 -0.1734 -0.2983
  343TMC3    C6 5197   2.315   3.840  17.273  1.2333 -0.1345  0.5436
  343TMC3     C 5198   2.079   4.076  17.516  0.5223 -0.6340 -0.4160
  343TMC3     O 5199   1.976   4.035  17.570  0.6111  0.3802  0.4500
  343TMC3     H 5200   2.319   4.136  17.433  0.6171  0.0724 -0.0660
  343TMC3    H1 5201   2.013   3.836  17.411 -0.6759  0.9211  2.4287
  343TMC3    H2 5202   2.362   3.773  17.201  0.5114 -0.7848  0.6697
  343TMC3    C7 5203   2.166   3.658  17.301  0.0657  0.2608  0.0466
  343TMC3    C8 5204   2.490   4.012  17.276  0.4682  0.7759 -0.6308
  343TMC3    O1 5205   2.195   3.597  17.197  0.2780  0.0281 -0.1451
  343TMC3    O2 5206   2.530   4.115  17.326 -0.0718  0.0868  0.4636
  344MPD2     C 5207   3.209   3.825  11.323 -0.0615  0.1717 -0.1862
  344MPD2    C1 5208   3.195   3.719  11.232 -0.3429 -0.0741 -0.0173
  344MPD2    C2 5209   3.235   3.729  11.100  0.2854  0.5966  0.2528
  344MPD2    C3 5210   3.307   3.844  11.066 -0.6994 -0.0536  0.4661
  344MPD2    C4 5211   3.326   3.944  11.161  0.2340  0.3676 -0.5320
  344MPD2    C5 5212   3.279   3.933  11.285  0.3590  0.4666 -0.1395
  344MPD2     H 5213   3.214   3.650  11.029  1.0320  1.1203 -0.5410
  344MPD2    H1 5214   3.381   4.035  11.139 -1.5211  1.3379 -0.9388
  344MPD2    H2 5215   3.176   3.822  11.427 -1.7231 -1.4443 -0.7572
  344MPD2    H3 5216   3.283   4.016  11.354  0.6739 -1.1246  1.7512
  344MPD2     N 5217   3.353   3.868  10.933  0.6078 -0.3571 -0.6438
  344MPD2    H5 5218   3.416   3.947  10.925 -1.0287  1.1966  1.7884
  344MPD2    N1 5219   3.139   3.592  11.265 -0.6864  0.5184  0.2433
  344MPD2    H7 5220   3.115   3.536  11.184  0.0912 -0.6820  0.8441
  345TMC3    C1 5221   3.405   3.836  10.707  0.4451  0.0984  0.3151
  345TMC3    C2 5222   3.542   3.826  10.727  0.1110 -0.4725  0.0491
  345TMC3    C3 5223   3.637   3.904  10.663 -0.4400 -0.0034  0.3534
  345TMC3    C4 5224   3.360   3.932  10.625 -0.2255 -0.6601 -0.3017
  345TMC3    C5 5225   3.455   4.006  10.558  0.0582 -0.2289 -0.0368
  345TMC3    C6 5226   3.594   3.992  10.569  0.4920  0.2883  0.2591
  345TMC3     C 5227   3.320   3.803  10.819 -0.7308 -0.1043  0.9666
  345TMC3     O 5228   3.229   3.726  10.802 -0.8315  0.1886  0.0202
  345TMC3     H 5229   3.582   3.770  10.810  0.3396 -2.0592 -1.1239
  345TMC3    H1 5230   3.261   3.972  10.642  0.4092 -0.2848  2.6008
  345TMC3    H2 5231   3.665   4.050  10.511  0.3865  1.6768  1.5064
  345TMC3    C7 5232   3.415   4.131  10.491  0.3450  0.1044 -0.1299
  345TMC3    C8 5233   3.773   3.912  10.700 -0.1712 -0.1296 -0.7473
  345TMC3    O1 5234   3.500   4.211  10.473 -0.0437 -0.4225 -0.3334
  345TMC3    O2 5235   3.843   3.981  10.631 -0.7965 -0.1580  0.1702
  346MPD2     C 5236   3.135   0.491  14.174 -0.3525 -0.2151 -0.0588
  346MPD2    C1 5237   3.265   0.531  14.188 -0.0470  0.5344  0.6463
  346MPD2    C2 5238   3.295   0.636  14.268  0.2074  0.6110 -0.1737
  346MPD2    C3 5239   3.195   0.691  14.353  0.6808 -0.4309 -1.2465
  346MPD2    C4 5240   3.070   0.640  14.346  0.2710 -0.0160 -0.9051
  346MPD2    C5 5241   3.040   0.547  14.246 -0.0009 -0.4721 -0.2226
  346MPD2     H 5242   3.385   0.696  14.258  0.5238 -0.2749 -2.5752
  346MPD2    H1 5243   2.990   0.675  14.410  1.3271  0.5691  0.0758
  346MPD2    H2 5244   3.101   0.412  14.108  0.2035  0.0917 -0.7103
  346MPD2    H3 5245   2.939   0.508  14.245  0.7832 -2.5090 -0.7172
  346MPD2     N 5246   3.229   0.799  14.438  0.2767  0.2327  0.1616
  346MPD2    H5 5247   3.327   0.825  14.436 -0.2440  2.0301 -2.5426
  346MPD2    N1 5248   3.356   0.481  14.098 -0.6125 -0.3188  0.0886
  346MPD2    H7 5249   3.329   0.411  14.029 -0.4403  1.1511 -1.4602
  347TMC3    C1 5250   3.229   0.940  14.618 -0.4059 -0.4941  0.1469
  347TMC3    C2 5251   3.353   0.965  14.572 -0.5634  1.0027  0.0621
  347TMC3    C3 5252   3.453   0.989  14.663  0.4099  0.2499  0.1498
  347TMC3    C4 5253   3.199   0.952  14.743 -0.0709 -0.0546  0.5978
  347TMC3    C5 5254   3.295   0.988  14.833 -0.1294 -0.0929  0.5805
  347TMC3    C6 5255   3.422   1.003  14.798 -0.3800  0.1144 -0.3442
  347TMC3     C 5256   3.149   0.845  14.547 -0.6516  0.3266  0.5866
  347TMC3     O 5257   3.032   0.826  14.577  0.3798  0.6382 -0.2161
  347TMC3     H 5258   3.389   0.958  14.470 -1.4139 -0.6696 -0.1214
  347TMC3    H1 5259   3.097   0.923  14.768 -0.4835  2.0776  1.4123
  347TMC3    H2 5260   3.505   1.012  14.866 -0.6715  0.2756 -0.0077
  347TMC3    C7 5261   3.264   0.981  14.974  0.5185 -0.4626 -0.5290
  347TMC3    C8 5262   3.583   0.937  14.616  0.5332  0.1680  1.0513
  347TMC3    O1 5263   3.159   0.930  15.003  0.4277  0.2152 -0.1354
  347TMC3    O2 5264   3.570   0.851  14.534 -0.6801 -0.0666  0.2150
  348MPD2     C 5265   2.624   0.389  12.217  0.1180 -0.5865  0.9133
  348MPD2    C1 5266   2.572   0.315  12.116  0.0230 -0.0904  0.4182
  348MPD2    C2 5267   2.558   0.379  11.993  0.6118  0.9475 -0.8324
  348MPD2    C3 5268   2.615   0.497  11.968 -0.0796 -0.2358  0.3182
  348MPD2    C4 5269   2.663   0.569  12.074  0.2061 -0.3230  0.3333
  348MPD2    C5 5270   2.674   0.517  12.202  0.0690 -0.2701 -0.2812
  348MPD2     H 5271   2.518   0.334  11.903  1.2082  2.3791 -1.7992
  348MPD2    H1 5272   2.687   0.675  12.069  3.0761 -1.1257 -3.1426
  348MPD2    H2 5273   2.625   0.351  12.319 -1.3427  0.2116  1.2186
  348MPD2    H3 5274   2.715   0.574  12.284 -1.0056  0.8710 -0.5438
  348MPD2     N 5275   2.581   0.558  11.840  0.0981  0.7422  0.2934
  348MPD2    H5 5276   2.541   0.492  11.774 -1.2529  0.3337  1.5024
  348MPD2    N1 5277   2.506   0.194  12.135  0.3257  0.3472 -0.5185
  348MPD2    H7 5278   2.466   0.161  12.048  0.4900 -0.9701 -0.0879
  349TMC3    C1 5279   2.427   4.737  12.246 -0.1526  0.1225 -0.2781
  349TMC3    C2 5280   2.456   4.629  12.325  0.6565 -0.0179 -0.3457
  349TMC3    C3 5281   2.379   4.518  12.313  0.1934  0.9983 -0.1047
  349TMC3    C4 5282   2.324   0.003  12.150  0.3310 -0.2216  0.2203
  349TMC3    C5 5283   2.248   4.628  12.145  0.1420 -0.2386  0.7154
  349TMC3    C6 5284   2.279   4.518  12.219 -0.1174  0.7023  0.2493
  349TMC3     C 5285   2.499   0.122  12.255 -0.0930 -0.2254 -0.1829
  349TMC3     O 5286   2.568   0.138  12.356  0.8080 -0.2293  0.3228
  349TMC3     H 5287   2.533   4.636  12.401 -0.2006  2.9458  0.2495
  349TMC3    H1 5288   2.286   0.099  12.118  1.3361  0.1651  0.1982
  349TMC3    H2 5289   2.201   4.443  12.218  0.1719  0.4177 -1.7890
  349TMC3    C7 5290   2.145   4.631  12.048 -0.2357  0.0634  0.4005
  349TMC3    C8 5291   2.403   4.402  12.389 -0.4710  0.2084 -0.8751
  349TMC3    O1 5292   2.042   4.559  12.054 -0.1479  0.4729  0.1742
  349TMC3    O2 5293   2.469   4.421  12.491  0.2157 -0.6953  0.1388
  350MPD2     C 5294   1.025   2.918  10.788  0.9560  0.0808  0.4233
  350MPD2    C1 5295   1.131   2.827  10.773  0.9478 -0.2293  0.3304
  350MPD2    C2 5296   1.262   2.873  10.802  0.9885  0.4278  0.4797
  350MPD2    C3 5297   1.283   3.010  10.829 -0.9928  0.1422 -0.3219
  350MPD2    C4 5298   1.177   3.096  10.831 -0.4733 -0.8727 -0.3329
  350MPD2    C5 5299   1.048   3.049  10.811  0.1526  0.1909  0.0143
  350MPD2     H 5300   1.343   2.801  10.812 -0.3610 -0.9159  1.7494
  350MPD2    H1 5301   1.178   3.199  10.864  1.8672 -0.8793 -0.4078
  350MPD2    H2 5302   0.918   2.898  10.788  1.1470 -0.9580  2.3411
  350MPD2    H3 5303   0.967   3.120  10.822  0.7546  0.6181  1.6293
  350MPD2     N 5304   1.412   3.049  10.865 -0.5057 -0.3364 -0.8858
  350MPD2    H5 5305   1.481   2.974  10.857 -1.0030 -0.8698 -0.2325
  350MPD2    N1 5306   1.107   2.690  10.747  0.1856  0.0381  0.5420
  350MPD2    H7 5307   1.187   2.627  10.746  0.5985  0.5886 -2.2251
  351TMC3    C1 5308   0.997   2.483  10.761  0.3287  0.9273 -0.3153
  351TMC3    C2 5309   1.069   2.414  10.667 -1.2905 -0.0835 -0.1167
  351TMC3    C3 5310   1.065   2.278  10.670 -0.7033 -0.4758  0.0802
  351TMC3    C4 5311   0.927   2.416  10.860 -0.1288  0.1476 -0.3511
  351TMC3    C5 5312   0.914   2.280  10.852  0.4027 -0.1413 -0.2270
  351TMC3    C6 5313   0.976   2.215  10.748  0.1276  0.2175  0.7888
  351TMC3     C 5314   0.983   2.629  10.748 -0.6494 -1.0887 -0.9017
  351TMC3     O 5315   0.867   2.664  10.721 -0.2477 -0.2334 -0.1480
  351TMC3     H 5316   1.114   2.477  10.591  0.2822  0.7386  1.4872
  351TMC3    H1 5317   0.865   2.475  10.926 -0.7664 -1.0192  0.0862
  351TMC3    H2 5318   0.949   2.110  10.739 -1.4885  0.6201  0.8072
  351TMC3    C7 5319   0.788   2.217  10.899  0.7798  0.2281 -0.2741
  351TMC3    C8 5320   1.139   2.204  10.563  0.3161 -0.3042  0.4692
  351TMC3    O1 5321   0.744   2.120  10.839  0.8195  0.3501 -0.2201
  351TMC3    O2 5322   1.109   2.088  10.544  0.4692  0.1889  0.0618
  352MPD2     C 5323   0.334   0.549   1.279 -0.4681 -0.1330 -0.0918
  352MPD2    C1 5324   0.218   0.503   1.336  0.0067 -0.1194 -0.0097
  352MPD2    C2 5325   0.210   0.371   1.379 -0.1831 -0.2903 -0.0475
  352MPD2    C3 5326   0.321   0.278   1.359 -1.0053  0.9260 -0.2000
  352MPD2    C4 5327   0.440   0.327   1.312 -0.3303  0.3184 -0.7040
  352MPD2    C5 5328   0.443   0.462   1.266 -0.0626  0.6770  0.0005
  352MPD2     H 5329   0.122   0.330   1.426  0.4750  1.3077  2.6058
  352MPD2    H1 5330   0.530   0.267   1.300 -0.5176 -0.0884 -0.0637
  352MPD2    H2 5331   0.338   0.647   1.234 -1.6537  1.2023  2.7411
  352MPD2    H3 5332   0.525   0.494   1.203 -1.0157  0.3261 -1.4354
  352MPD2     N 5333   0.311   0.146   1.398 -0.4721 -0.4457  0.2228
  352MPD2    H5 5334   0.219   0.126   1.436 -0.9887 -0.9870 -1.3179
  352MPD2    N1 5335   0.106   0.597   1.369  0.3925  0.5353 -0.2811
  352MPD2    H7 5336   0.119   0.690   1.329 -0.7845  1.1506  0.8062
  353TMC3    C1 5337   0.359   4.636   1.403 -0.2828  0.0359 -0.3274
  353TMC3    C2 5338   0.449   4.534   1.419 -0.2521  0.4882  0.1620
  353TMC3    C3 5339   0.405   4.410   1.417 -0.1524  0.4514 -0.5526
  353TMC3    C4 5340   0.224   4.619   1.381 -0.0773 -0.1057 -0.5230
  353TMC3    C5 5341   0.186   4.488   1.376 -0.0498 -0.2568 -0.3473
  353TMC3    C6 5342   0.270   4.380   1.394 -0.2962  0.1375  0.1031
  353TMC3     C 5343   0.408   0.043   1.394  1.1328  0.2942  0.0644
  353TMC3     O 5344   0.529   0.054   1.372 -0.1561 -0.1040 -0.1978
  353TMC3     H 5345   0.552   4.554   1.449  0.3916  1.0158 -2.4323
  353TMC3    H1 5346   0.154   4.698   1.357 -2.3137 -1.7292  0.7178
  353TMC3    H2 5347   0.223   4.283   1.407  0.4017 -0.3163 -0.7601
  353TMC3    C7 5348   0.053   4.454   1.330 -1.0526 -0.0701  0.2998
  353TMC3    C8 5349   0.488   4.302   1.458  1.7070 -0.0541  0.7321
  353TMC3    O1 5350   0.049   4.371   1.242 -0.7017  0.0292 -0.3838
  353TMC3    O2 5351   0.582   4.331   1.529  0.6279  0.3688  0.0289
  354TMC3    C1 5352   1.215   1.379  13.952 -0.9101 -0.6105 -0.2568
  354TMC3    C2 5353   1.235   1.506  13.896 -0.5328 -0.2254  0.1162
  354TMC3    C3 5354   1.197   1.523  13.765 -0.7132 -0.2662 -0.8647
  354TMC3    C4 5355   1.142   1.279  13.891  0.0887 -0.2271  0.3494
  354TMC3    C5 5356   1.109   1.304  13.758 -0.3323 -0.1248 -0.5132
  354TMC3    C6 5357   1.121   1.428  13.704 -0.7938 -0.2291 -0.4904
  354TMC3     C 5358   1.278   1.350  14.080  0.1311  0.0204 -0.0799
  354TMC3     O 5359   1.342   1.448  14.125  0.0199  0.2458 -0.1577
  354TMC3     H 5360   1.279   1.587  13.953 -0.3978 -0.4256  0.2961
  354TMC3    H1 5361   1.152   1.176  13.922  0.3124 -0.4894 -0.6149
  354TMC3    H2 5362   1.090   1.447  13.602 -0.9977  0.4940 -0.2896
  354TMC3    C7 5363   1.153   1.193  13.672  0.4709 -0.1284  0.5048
  354TMC3    C8 5364   1.287   1.594  13.678 -0.3836  0.0436 -0.7996
  354TMC3    O1 5365   1.120   1.078  13.700  1.3292 -0.1059 -0.1295
  354TMC3    O2 5366   1.292   1.537  13.570 -0.0124 -0.2520  0.2656
  355MPD2     C 5367   1.614   2.357  12.003 -0.8930 -0.1763  0.0102
  355MPD2    C1 5368   1.717   2.314  11.917  0.2938  0.0628 -0.5828
  355MPD2    C2 5369   1.794   2.197  11.949  0.3688 -0.5149  0.4728
  355MPD2    C3 5370   1.773   2.129  12.070  0.7745  0.0489  0.5395
  355MPD2    C4 5371   1.664   2.169  12.140  0.1254  0.1972  0.0324
  355MPD2    C5 5372   1.587   2.279  12.106 -0.2201 -0.6944 -0.3583
  355MPD2     H 5373   1.873   2.170  11.880  0.0812 -2.0768  0.7590
  355MPD2    H1 5374   1.649   2.120  12.235  2.3211 -0.8909 -0.1860
  355MPD2    H2 5375   1.547   2.443  12.001 -0.1989  0.3773  0.8113
  355MPD2    H3 5376   1.525   2.315  12.187  2.6122  0.1881  1.4377
  355MPD2     N 5377   1.851   2.018  12.119 -0.1389 -0.0370  0.3021
  355MPD2    H5 5378   1.804   1.954  12.182 -0.9100  0.9962  0.7896
  355MPD2    N1 5379   1.750   2.413  11.822  0.9040  0.4146 -0.7579
  355MPD2    H7 5380   1.732   2.508  11.851  0.2474  0.3213 -0.8639
  356TMC3    C1 5381   2.059   2.112  12.082  0.3099 -0.3437  0.1418
  356TMC3    C2 5382   2.157   2.123  11.989  0.8504 -0.1487  0.4376
  356TMC3    C3 5383   2.238   2.239  11.987 -0.6440 -0.1133 -0.1745
  356TMC3    C4 5384   2.069   2.185  12.202  0.1457 -0.0589 -0.1545
  356TMC3    C5 5385   2.157   2.284  12.202  0.6138  0.1742  0.7387
  356TMC3    C6 5386   2.232   2.326  12.095  0.8622 -0.3604 -0.3762
  356TMC3     C 5387   1.984   1.995  12.083 -0.1584  0.5754 -0.8900
  356TMC3     O 5388   2.047   1.895  12.099  0.3394 -0.3049  0.0651
  356TMC3     H 5389   2.158   2.051  11.908  1.5603 -0.2850  0.5625
  356TMC3    H1 5390   1.988   2.173  12.273 -0.0627 -0.1530 -0.4090
  356TMC3    H2 5391   2.316   2.394  12.102  1.2015 -0.4654 -3.5269
  356TMC3    C7 5392   2.158   2.360  12.326  0.9902  0.7101 -0.1106
  356TMC3    C8 5393   2.281   2.288  11.852 -0.0310  0.5855 -0.0864
  356TMC3    O1 5394   2.119   2.304  12.429  0.4529 -0.4229  0.2104
  356TMC3    O2 5395   2.253   2.217  11.758 -0.4347  0.1463 -0.2420
  357MPD2     C 5396   0.738   2.099   0.734  0.1993  0.7022 -0.1441
  357MPD2    C1 5397   0.825   2.047   0.830 -0.2594 -0.0633  0.2434
  357MPD2    C2 5398   0.769   1.990   0.942 -0.1689  0.2752 -0.6492
  357MPD2    C3 5399   0.628   1.965   0.944  0.3444 -0.9002 -0.4798
  357MPD2    C4 5400   0.545   2.017   0.845 -0.1461 -0.4808  0.3795
  357MPD2    C5 5401   0.598   2.082   0.746  0.6770  0.1790 -0.2689
  357MPD2     H 5402   0.823   1.929   1.014  0.2094 -2.5549 -3.3071
  357MPD2    H1 5403   0.440   1.992   0.840  0.1957 -2.4329  2.5253
  357MPD2    H2 5404   0.782   2.145   0.647  1.3097 -1.2347 -0.6170
  357MPD2    H3 5405   0.539   2.125   0.665 -1.4646 -1.0180  0.6666
  357MPD2     N 5406   0.565   1.886   1.036 -0.3797 -0.1646 -0.1286
  357MPD2    H5 5407   0.464   1.896   1.041 -0.0879  2.0034  1.0744
  357MPD2    N1 5408   0.959   2.044   0.816 -0.4516  0.7583 -0.7154
  357MPD2    H7 5409   0.994   2.056   0.722 -0.9654 -0.3056 -1.0430
  358TMC3    C1 5410   1.177   1.986   0.887  0.0704 -0.0545 -0.1995
  358TMC3    C2 5411   1.180   1.886   0.799 -0.7094 -0.0555  0.3551
  358TMC3    C3 5412   1.264   1.780   0.821  0.7050 -0.6329  0.0143
  358TMC3    C4 5413   1.265   1.995   0.989 -0.9061  0.1662  0.0963
  358TMC3    C5 5414   1.353   1.894   1.007 -0.3325 -0.2376  0.1983
  358TMC3    C6 5415   1.344   1.779   0.931 -0.0933  0.0101 -0.1611
  358TMC3     C 5416   1.041   2.033   0.919  0.1493  0.3073  0.3826
  358TMC3     O 5417   1.033   2.058   1.037  0.0638  0.4296  0.3022
  358TMC3     H 5418   1.107   1.881   0.719  0.4822 -2.2214 -0.6137
  358TMC3    H1 5419   1.262   2.082   1.054 -1.1945  0.7661 -0.7162
  358TMC3    H2 5420   1.425   1.707   0.939 -0.5278 -0.3691  0.8312
  358TMC3    C7 5421   1.425   1.876   1.134 -0.4288  0.0599  0.7299
  358TMC3    C8 5422   1.251   1.669   0.730 -0.1047  0.4275 -0.7215
  358TMC3    O1 5423   1.481   1.769   1.145  0.3018  0.2448 -0.0991
  358TMC3    O2 5424   1.223   1.696   0.614 -0.1753  0.5544 -0.4209
  359MPD2     C 5425   1.573   0.912  12.796 -0.6236  0.8063  0.0034
  359MPD2    C1 5426   1.569   0.890  12.658 -0.9902 -0.4136  0.4491
  359MPD2    C2 5427   1.448   0.874  12.597 -1.1340  0.5028  0.1417
  359MPD2    C3 5428   1.335   0.872  12.672 -0.1666 -0.4007 -0.1697
  359MPD2    C4 5429   1.340   0.892  12.805 -0.4874 -0.3970 -0.4786
  359MPD2    C5 5430   1.457   0.915  12.865  0.3734  0.1922  0.3228
  359MPD2     H 5431   1.446   0.860  12.489 -1.5913  1.7220  0.0009
  359MPD2    H1 5432   1.253   0.887  12.870 -1.4045  2.0957 -1.5154
  359MPD2    H2 5433   1.667   0.933  12.847 -1.7928  1.0673  2.0734
  359MPD2    H3 5434   1.457   0.933  12.971  0.1428 -1.0299  0.5269
  359MPD2     N 5435   1.203   0.858  12.615  0.6264  0.4607  0.2828
  359MPD2    H5 5436   1.127   0.855  12.682  0.9507 -0.3282  0.6116
  359MPD2    N1 5437   1.684   0.887  12.575  0.3271 -0.2794 -0.1587
  359MPD2    H7 5438   1.671   0.866  12.477 -0.8320 -0.9801  0.1452
  360TMC3    C1 5439   1.911   0.877  12.502  1.1663  0.6459  0.5528
  360TMC3    C2 5440   2.043   0.892  12.539  0.6101 -0.4611  0.1579
  360TMC3    C3 5441   2.134   0.863  12.443 -0.0236  0.2590  0.2176
  360TMC3    C4 5442   1.879   0.848  12.373  0.3641  0.0184  0.2884
  360TMC3    C5 5443   1.979   0.827  12.282  0.6212 -0.7252  0.4153
  360TMC3    C6 5444   2.109   0.833  12.312 -0.3499 -0.1508 -0.2489
  360TMC3     C 5445   1.816   0.900  12.615  0.2086 -0.1911 -0.6266
  360TMC3     O 5446   1.862   0.935  12.727 -0.2619 -0.2964  0.5807
  360TMC3     H 5447   2.068   0.883  12.644  0.0600 -1.1376  0.2299
  360TMC3    H1 5448   1.777   0.845  12.336  0.3961  0.9151  0.1216
  360TMC3    H2 5449   2.191   0.813  12.243 -1.6278 -3.0837 -0.9141
  360TMC3    C7 5450   1.953   0.805  12.141 -0.0048 -0.2434  1.1845
  360TMC3    C8 5451   2.272   0.869  12.488  0.5639  0.5402 -0.0536
  360TMC3    O1 5452   2.047   0.816  12.060  0.1390  0.2968  0.0738
  360TMC3    O2 5453   2.286   0.808  12.593 -1.2156 -0.3914  0.5192
  361MPD2     C 5454   3.655   0.261  17.090  0.9943 -0.3557 -0.1785
  361MPD2    C1 5455   3.537   0.204  17.129 -0.5209  0.5884 -0.0722
  361MPD2    C2 5456   3.540   0.143  17.249 -0.0397 -0.2964  0.2224
  361MPD2    C3 5457   3.654   0.144  17.327 -0.0289  0.4241 -0.5559
  361MPD2    C4 5458   3.773   0.204  17.292 -1.0045 -0.2095 -0.5470
  361MPD2    C5 5459   3.769   0.263  17.169  0.3925 -0.7376 -0.7325
  361MPD2     H 5460   3.448   0.100  17.288 -1.3101  0.9574 -1.4355
  361MPD2    H1 5461   3.869   0.207  17.344 -2.3322  1.8300  1.7654
  361MPD2    H2 5462   3.652   0.305  16.991 -0.7507  0.6023  0.2928
  361MPD2    H3 5463   3.861   0.297  17.123  0.8076 -0.0408  0.6272
  361MPD2     N 5464   3.661   0.067  17.450 -0.2532 -0.8606 -0.0502
  361MPD2    H5 5465   3.750   0.058  17.500  0.8828  1.2204 -1.6875
  361MPD2    N1 5466   3.422   0.212  17.048  0.2336 -0.6673 -0.6573
  361MPD2    H7 5467   3.420   0.290  16.984  1.8355  0.4444  0.6697
  362TMC3    C1 5468   3.185   0.230  17.028  0.4733  0.5354  0.8888
  362TMC3    C2 5469   3.071   0.203  17.105 -0.5586  0.5322 -0.2534
  362TMC3    C3 5470   2.957   0.259  17.067 -0.0959 -0.4781 -0.0033
  362TMC3    C4 5471   3.190   0.312  16.919  0.1299  0.1855  0.2347
  362TMC3    C5 5472   3.071   0.390  16.910 -0.9503 -0.4156  0.6269
  362TMC3    C6 5473   2.955   0.357  16.972 -0.7341  0.4569  0.5303
  362TMC3     C 5474   3.301   0.160  17.077  0.5391 -0.0790 -0.3655
  362TMC3     O 5475   3.277   0.064  17.150  0.3663 -0.3737 -0.6149
  362TMC3     H 5476   3.069   0.112  17.164  0.6154  0.9526  0.4366
  362TMC3    H1 5477   3.273   0.305  16.850  2.1553  0.7228  2.6405
  362TMC3    H2 5478   2.863   0.412  16.953 -0.8566 -0.7953 -2.3725
  362TMC3    C7 5479   3.053   0.467  16.789 -0.1039  0.3084  0.4900
  362TMC3    C8 5480   2.834   0.211  17.114  0.1978 -0.0822  0.2428
  362TMC3    O1 5481   2.940   0.485  16.746 -0.2963 -0.2759 -0.7900
  362TMC3    O2 5482   2.835   0.092  17.112 -0.0360  0.4350  0.9747
  363TMC3    C1 5483   2.007   1.630   9.708  0.0007  0.2960 -0.4412
  363TMC3    C2 5484   2.074   1.742   9.755 -0.6328  0.6203  0.0468
  363TMC3    C3 5485   1.995   1.841   9.797  0.8998 -0.3014  0.4002
  363TMC3    C4 5486   1.869   1.611   9.711  0.0044 -0.3088  0.2133
  363TMC3    C5 5487   1.801   1.718   9.764 -0.0160 -0.7156  0.1133
  363TMC3    C6 5488   1.855   1.835   9.808 -0.0833 -0.5941  0.1382
  363TMC3     C 5489   2.088   1.516   9.681  0.1466 -0.0926  0.3404
  363TMC3     O 5490   2.205   1.537   9.664 -0.5061 -0.0510  0.1345
  363TMC3     H 5491   2.181   1.745   9.742 -0.6735  2.9175  0.3324
  363TMC3    H1 5492   1.815   1.524   9.673  0.1084  0.5701 -1.9392
  363TMC3    H2 5493   1.805   1.923   9.846  0.5910  0.2086 -0.8154
  363TMC3    C7 5494   1.652   1.719   9.768  0.5036 -0.1186  0.2326
  363TMC3    C8 5495   2.044   1.973   9.832 -0.7286  0.1752  0.3802
  363TMC3    O1 5496   1.606   1.828   9.799  0.3908 -0.1433  0.1040
  363TMC3    O2 5497   1.972   2.067   9.845 -0.1655  0.2992  0.1778
  364MPD2     C 5498   0.822   1.870  10.570 -0.8026 -0.0086  0.2861
  364MPD2    C1 5499   0.904   1.762  10.548  0.0300  0.3631 -1.3229
  364MPD2    C2 5500   0.856   1.630  10.542 -0.1203 -0.4473  0.8121
  364MPD2    C3 5501   0.723   1.601  10.574 -0.3865 -0.1335 -0.5666
  364MPD2    C4 5502   0.634   1.704  10.578  0.7925 -0.6090  0.0746
  364MPD2    C5 5503   0.689   1.835  10.580  0.5919  0.7656  0.0293
  364MPD2     H 5504   0.918   1.548  10.508 -1.8036 -1.6957  0.7625
  364MPD2    H1 5505   0.527   1.699  10.595  1.1105 -0.3395  2.1093
  364MPD2    H2 5506   0.846   1.973  10.593  1.5456 -0.8617  1.6719
  364MPD2    H3 5507   0.617   1.914  10.597 -0.9810 -0.1788 -2.2789
  364MPD2     N 5508   0.674   1.471  10.595  0.4038 -0.5091 -1.0111
  364MPD2    H5 5509   0.573   1.464  10.590  0.3708 -1.0968  0.4348
  364MPD2    N1 5510   1.033   1.794  10.544 -0.0265 -0.0601  0.1660
  364MPD2    H7 5511   1.057   1.888  10.574  2.1214 -0.5424 -0.0925
  365TMC3    C1 5512   1.267   1.761  10.575  0.5014  0.1852  0.4748
  365TMC3    C2 5513   1.371   1.697  10.526  1.0956  0.0965  0.2691
  365TMC3    C3 5514   1.497   1.747  10.556  0.6764 -0.2004  0.5326
  365TMC3    C4 5515   1.283   1.878  10.648 -0.0182  1.3339  0.1837
  365TMC3    C5 5516   1.406   1.930  10.678 -0.2119 -0.0284  0.1371
  365TMC3    C6 5517   1.516   1.864  10.622 -0.6768  0.7754 -0.2388
  365TMC3     C 5518   1.140   1.706  10.531  0.4888 -0.3727  0.6624
  365TMC3     O 5519   1.146   1.596  10.479 -0.2787 -0.0761  0.0013
  365TMC3     H 5520   1.357   1.615  10.456  3.5755 -0.3042  0.2484
  365TMC3    H1 5521   1.190   1.920  10.683  0.1543 -0.1368  2.4056
  365TMC3    H2 5522   1.619   1.893  10.644 -0.5211 -0.0188  0.0537
  365TMC3    C7 5523   1.418   2.046  10.760 -0.3476 -0.2624 -0.0248
  365TMC3    C8 5524   1.609   1.667  10.509 -0.5503 -0.3552  0.3833
  365TMC3    O1 5525   1.527   2.106  10.753  0.3693 -0.2454  0.0007
  365TMC3    O2 5526   1.706   1.737  10.484  0.0078 -0.4186  0.1560
  366MPD2     C 5527   2.922   3.014  15.494  0.7909  0.4148 -0.2637
  366MPD2    C1 5528   3.056   2.998  15.467  0.2212 -0.6245 -0.1729
  366MPD2    C2 5529   3.118   2.874  15.457  0.0335 -0.1216 -0.1618
  366MPD2    C3 5530   3.047   2.758  15.484 -0.6219  0.1869  0.4421
  366MPD2    C4 5531   2.910   2.775  15.506  0.1064  0.5134 -0.1533
  366MPD2    C5 5532   2.854   2.896  15.512 -0.7159  1.1254 -0.0696
  366MPD2     H 5533   3.225   2.880  15.440  0.1668 -0.1453  0.6323
  366MPD2    H1 5534   2.849   2.689  15.531  1.0686  0.1084  0.8034
  366MPD2    H2 5535   2.877   3.110  15.517  0.7650 -0.2254  2.2737
  366MPD2    H3 5536   2.746   2.902  15.511 -0.7356  1.2207  1.5091
  366MPD2     N 5537   3.101   2.625  15.492  0.0611  0.1348  0.2217
  366MPD2    H5 5538   3.035   2.549  15.482 -1.6838  1.3475  2.7686
  366MPD2    N1 5539   3.149   3.107  15.448 -0.4506 -0.4636 -0.3364
  366MPD2    H7 5540   3.245   3.086  15.424 -0.5485 -2.0583  0.6782
  367TMC3    C1 5541   3.214   3.314  15.349  0.0071  0.9008 -0.0026
  367TMC3    C2 5542   3.324   3.327  15.430 -0.1778  0.7490  0.4300
  367TMC3    C3 5543   3.391   3.452  15.436  0.6344 -0.1998  0.0308
  367TMC3    C4 5544   3.182   3.418  15.261 -0.8986 -0.0872 -0.7167
  367TMC3    C5 5545   3.266   3.526  15.250 -0.1056 -0.5215  0.3039
  367TMC3    C6 5546   3.365   3.549  15.335  0.0365 -0.3099  0.6205
  367TMC3     C 5547   3.107   3.235  15.411  0.2115  0.2129 -0.2246
  367TMC3     O 5548   2.999   3.289  15.406  0.1882  0.1917  0.1615
  367TMC3     H 5549   3.342   3.270  15.520  0.6791 -0.8813 -0.7820
  367TMC3    H1 5550   3.087   3.407  15.210 -1.2700  1.2754 -0.3366
  367TMC3    H2 5551   3.403   3.651  15.337  0.8062 -0.5344 -1.7619
  367TMC3    C7 5552   3.225   3.630  15.158 -0.6550  0.9824  0.8292
  367TMC3    C8 5553   3.513   3.460  15.506 -0.0196 -0.2354  0.7245
  367TMC3    O1 5554   3.258   3.743  15.192 -0.3158 -0.0885 -0.1888
  367TMC3    O2 5555   3.528   3.382  15.599  0.3543  0.0889 -0.1141
  368MPD2     C 5556   0.614   4.603  13.362 -0.0703 -0.1236  1.0625
  368MPD2    C1 5557   0.648   4.734  13.394 -0.3702 -0.3079  0.0432
  368MPD2    C2 5558   0.782   0.034  13.377  0.1738  0.1454  0.1762
  368MPD2    C3 5559   0.873   4.697  13.302  0.6472  1.1429  0.4655
  368MPD2    C4 5560   0.833   4.570  13.266  0.6275  0.4796 -0.2449
  368MPD2    C5 5561   0.713   4.520  13.306  0.2118 -0.1943 -0.7685
  368MPD2     H 5562   0.812   0.133  13.411 -1.5763  1.3139 -1.6827
  368MPD2    H1 5563   0.905   4.500  13.225  0.7043  1.2833 -1.4790
  368MPD2    H2 5564   0.516   4.561  13.382 -0.5985  1.3424  1.5334
  368MPD2    H3 5565   0.689   4.417  13.283 -1.3996  0.2490 -1.0708
  368MPD2     N 5566   0.999   0.016  13.265  0.0267  0.5922  0.0956
  368MPD2    H5 5567   1.045   4.707  13.187 -0.4548 -2.6170  1.7277
  368MPD2    N1 5568   0.551   0.090  13.442 -0.4728 -0.3486 -0.2700
  368MPD2    H7 5569   0.458   0.050  13.455 -1.3653  1.2922 -1.6997
  369TMC3    C1 5570   0.448   0.282  13.509 -0.4811 -1.1777  0.1141
  369TMC3    C2 5571   0.478   0.409  13.554  0.1729 -0.1868 -0.8564
  369TMC3    C3 5572   0.372   0.499  13.560 -0.1002 -0.1315  0.1645
  369TMC3    C4 5573   0.324   0.236  13.483  0.4442  1.4853  0.2434
  369TMC3    C5 5574   0.227   0.328  13.497 -0.0347 -0.2531  0.1434
  369TMC3    C6 5575   0.243   0.462  13.538  0.1097 -0.2669 -0.6459
  369TMC3     C 5576   0.569   0.221  13.455  0.6155 -0.1430  0.9185
  369TMC3     O 5577   0.665   0.293  13.434 -0.0156 -0.5166  0.4175
  369TMC3     H 5578   0.569   0.438  13.605 -0.7552 -0.4584  0.9326
  369TMC3    H1 5579   0.293   0.134  13.463  0.6949  1.6039 -0.7686
  369TMC3    H2 5580   0.157   0.528  13.529  0.7338  0.3403 -2.2897
  369TMC3    C7 5581   0.102   0.293  13.440 -0.3143 -0.4311  0.2703
  369TMC3    C8 5582   0.395   0.623  13.489  0.5982  0.6534  0.5768
  369TMC3    O1 5583   0.004   0.336  13.496 -0.2441 -0.0421 -0.8191
  369TMC3    O2 5584   0.292   0.686  13.473 -0.2247 -0.1791  0.0742
  370TMC3    C1 5585   4.473   0.956  16.424  0.3406  0.1660  0.1031
  370TMC3    C2 5586   4.386   0.942  16.529  0.0133  0.3391 -0.2185
  370TMC3    C3 5587   4.292   0.847  16.529  0.1755 -0.9333  0.5300
  370TMC3    C4 5588   4.449   0.888  16.307  0.7942 -0.0957  0.0313
  370TMC3    C5 5589   4.343   0.802  16.302  0.3101 -0.0992 -1.0017
  370TMC3    C6 5590   4.267   0.774  16.415 -0.3376  0.4180 -0.2474
  370TMC3     C 5591   4.568   1.065  16.422 -0.6698 -0.9104 -0.2746
  370TMC3     O 5592   4.544   1.158  16.500 -0.0780  0.0342  0.0007
  370TMC3     H 5593   4.396   1.019  16.605 -1.4008 -0.6130  0.9309
  370TMC3    H1 5594   4.508   0.903  16.217  2.4986 -1.5056  0.9168
  370TMC3    H2 5595   4.190   0.697  16.413 -0.1460  0.2200 -0.0026
  370TMC3    C7 5596   4.355   0.696  16.208 -0.3505 -0.4563 -0.0384
  370TMC3    C8 5597   4.287   0.763  16.646 -0.1408  0.2139  0.5811
  370TMC3    O1 5598   4.257   0.638  16.173  0.2170  0.5971 -0.2367
  370TMC3    O2 5599   4.280   0.646  16.622 -0.1074  1.1411  0.0671
  371TMC3    C1 5600   0.832   3.837  15.628  0.2379  1.6914  0.1615
  371TMC3    C2 5601   0.724   3.818  15.716 -0.6417 -0.0402 -0.2394
  371TMC3    C3 5602   0.665   3.938  15.754  0.5095  0.0779  0.3266
  371TMC3    C4 5603   0.887   3.959  15.588 -0.2379 -0.1433  0.1687
  371TMC3    C5 5604   0.813   4.069  15.620 -0.6102  0.2191  0.5873
  371TMC3    C6 5605   0.713   4.055  15.708  0.4150 -0.0145 -0.3644
  371TMC3     C 5606   0.905   3.720  15.580 -0.2634 -0.5925  0.0269
  371TMC3     O 5607   0.970   3.732  15.480  1.0005  0.2003  0.6457
  371TMC3     H 5608   0.688   3.725  15.757  0.1675 -0.5912 -0.7759
  371TMC3    H1 5609   0.974   3.956  15.524  0.6791 -1.1259  1.4476
  371TMC3    H2 5610   0.665   4.151  15.725  1.1936  0.4403 -0.7604
  371TMC3    C7 5611   0.866   4.200  15.603 -1.1401  0.1509  1.0315
  371TMC3    C8 5612   0.595   3.924  15.877  0.5688  0.2483 -0.0781
  371TMC3    O1 5613   0.830   4.290  15.675 -0.0780 -0.1264  0.1129
  371TMC3    O2 5614   0.593   3.817  15.935 -0.2681  0.5723 -0.4211
  372MPD2     C 5615   0.270   0.017  13.996  0.2251  0.0411 -0.3034
  372MPD2    C1 5616   0.363   4.651  13.976  0.1432 -0.1648 -1.0938
  372MPD2    C2 5617   0.336   4.535  14.047 -0.4933 -0.0668 -0.1298
  372MPD2    C3 5618   0.226   4.515  14.134  0.7783  0.3843 -0.3683
  372MPD2    C4 5619   0.131   4.619  14.145  0.5585 -0.3183  0.5543
  372MPD2    C5 5620   0.158   4.728  14.075  0.3986  0.0611 -0.5107
  372MPD2     H 5621   0.411   4.458  14.034 -0.4814 -0.0928  0.0946
  372MPD2    H1 5622   0.042   4.603  14.205 -0.2685  0.1472 -0.5459
  372MPD2    H2 5623   0.280   0.116  13.954  0.5070  0.3083  0.3843
  372MPD2    H3 5624   0.090   0.074  14.087  2.0881  1.4777 -0.7983
  372MPD2     N 5625   0.189   4.384  14.182 -0.0393  0.0714 -0.1938
  372MPD2    H5 5626   0.259   4.311  14.177 -0.5166 -0.5031  1.3570
  372MPD2    N1 5627   0.477   4.660  13.891 -0.1216 -0.1533 -0.0745
  372MPD2    H7 5628   0.536   4.578  13.895  1.9433  1.3996  1.1037
  373TMC3    C1 5629   0.056   4.199  14.260  0.2991  0.2649  0.3607
  373TMC3    C2 5630   4.694   4.148  14.335  0.0184 -0.0651  0.0529
  373TMC3    C3 5631   4.678   4.016  14.361 -0.0953  0.8368  0.3621
  373TMC3    C4 5632   0.129   4.104  14.190  0.3591  0.4302 -0.0072
  373TMC3    C5 5633   0.103   3.967  14.197 -0.5759  0.1611  0.1837
  373TMC3    C6 5634   0.013   3.930  14.291 -0.4218 -0.1081 -0.2238
  373TMC3     C 5635   0.075   4.346  14.257  0.8424 -0.2357 -0.3814
  373TMC3     O 5636   4.713   4.408  14.295 -0.4263  0.3127 -0.0691
  373TMC3     H 5637   4.636   4.213  14.399 -1.2958 -0.5706 -0.6272
  373TMC3    H1 5638   0.205   4.135  14.118  1.8255  3.6534  2.9088
  373TMC3    H2 5639   0.007   3.830  14.330 -1.4806 -0.3066 -0.9094
  373TMC3    C7 5640   0.208   3.881  14.151 -0.1655  1.0045 -0.1752
  373TMC3    C8 5641   4.625   3.969  14.487  0.0534 -0.1731  0.1736
  373TMC3    O1 5642   0.305   3.933  14.101  0.1722  0.4636 -0.4287
  373TMC3    O2 5643   4.552   3.870  14.475  0.1652  0.4575  0.0798
  374TMC3    C1 5644   1.534   4.547  10.026  0.1610  0.1834  0.9952
  374TMC3    C2 5645   1.634   4.645  10.041  0.7726  0.0676 -0.0738
  374TMC3    C3 5646   1.695   4.672   9.924  0.6228 -0.0635  0.0213
  374TMC3    C4 5647   1.487   4.498   9.905 -0.4448 -0.0860 -0.3832
  374TMC3    C5 5648   1.551   4.548   9.797 -0.2457  0.3341 -0.4813
  374TMC3    C6 5649   1.660   4.629   9.804 -0.1809 -0.5342 -0.0232
  374TMC3     C 5650   1.477   4.498  10.153  0.6242  0.3429  0.5910
  374TMC3     O 5651   1.497   4.564  10.250  0.2632  0.1810 -0.2754
  374TMC3     H 5652   1.672   4.682  10.136 -1.4926 -2.8032  1.9197
  374TMC3    H1 5653   1.406   4.427   9.895 -0.9445 -0.0679  3.3502
  374TMC3    H2 5654   1.716   4.649   9.713 -1.2315 -3.3126 -1.2757
  374TMC3    C7 5655   1.498   4.520   9.663 -1.4309  0.2117 -0.4373
  374TMC3    C8 5656   1.812   0.014   9.919  0.2874 -0.1899 -0.9040
  374TMC3    O1 5657   1.425   4.423   9.653  0.4510  0.6014  0.2487
  374TMC3    O2 5658   1.888   4.718   9.829 -0.1574 -0.6568  0.4297
  375MPD2     C 5659   1.004   1.087  17.511 -0.1140  0.1116  0.5531
  375MPD2    C1 5660   0.943   1.084  17.388  0.0894  0.3045  0.7294
  375MPD2    C2 5661   1.007   1.034  17.282  0.3673  0.2060  0.6842
  375MPD2    C3 5662   1.129   0.977  17.297 -0.3163  0.7527  0.0707
  375MPD2    C4 5663   1.187   0.970  17.420  0.1558  0.2402 -0.1224
  375MPD2    C5 5664   1.122   1.026  17.525 -0.6131 -0.3372 -0.1900
  375MPD2     H 5665   0.962   1.050  17.184 -2.5016 -1.0091  1.8080
  375MPD2    H1 5666   1.279   0.914  17.432 -0.3253 -0.9378 -1.8773
  375MPD2    H2 5667   0.955   1.121  17.601 -1.4616 -0.0299 -0.1342
  375MPD2    H3 5668   1.162   1.014  17.625  0.8580  1.0916 -0.5933
  375MPD2     N 5669   1.210   0.927  17.187 -0.6545 -0.2733 -0.4992
  375MPD2    H5 5670   1.301   0.893  17.214 -0.3707 -1.8506 -3.4389
  375MPD2    N1 5671   0.827   1.151  17.361  0.5556 -0.3468  0.6516
  375MPD2    H7 5672   0.800   1.150  17.263  1.7250 -1.3233  0.3252
  376TMC3    C1 5673   1.272   0.865  16.967 -0.2052  0.2988 -0.4296
  376TMC3    C2 5674   1.395   0.841  17.013  0.6393  0.8251  0.1616
  376TMC3    C3 5675   1.482   0.764  16.943 -0.1864 -0.4053  1.1507
  376TMC3    C4 5676   1.228   0.803  16.845 -0.1081  0.0477  0.4465
  376TMC3    C5 5677   1.316   0.718  16.778 -0.1096  0.2939 -0.1852
  376TMC3    C6 5678   1.445   0.696  16.828 -0.0040  0.3069  0.0021
  376TMC3     C 5679   1.169   0.921  17.055  0.7949  0.3437 -0.2597
  376TMC3     O 5680   1.069   0.956  16.994 -0.5617 -0.0036  0.1497
  376TMC3     H 5681   1.429   0.906  17.092  0.1787  0.2494  0.8467
  376TMC3    H1 5682   1.125   0.814  16.813 -0.3009 -0.9590  0.7269
  376TMC3    H2 5683   1.523   0.652  16.766  0.1645 -0.0706  0.4815
  376TMC3    C7 5684   1.306   0.711  16.632  0.3675 -0.0826 -0.0979
  376TMC3    C8 5685   1.623   0.786  16.961  0.5416 -0.7126 -0.4178
  376TMC3    O1 5686   1.378   0.630  16.570 -0.8920 -0.3072  0.5259
  376TMC3    O2 5687   1.668   0.899  16.988  0.5637  0.0464  0.3126
  377MPD2     C 5688   0.280   0.508  12.939  0.3974  0.1942  0.7413
  377MPD2    C1 5689   0.150   0.537  12.894  0.3413 -0.2871  0.9746
  377MPD2    C2 5690   0.047   0.548  12.986  0.2343 -0.2714 -0.8168
  377MPD2    C3 5691   0.073   0.529  13.121 -0.6783  0.0744  1.0888
  377MPD2    C4 5692   0.196   0.497  13.165 -0.0552 -0.3573  0.2634
  377MPD2    C5 5693   0.302   0.483  13.073  0.1301 -0.6092  0.5838
  377MPD2     H 5694   4.692   0.586  12.944 -0.0280 -2.2434 -1.9854
  377MPD2    H1 5695   0.214   0.492  13.272  1.2721  2.0977  0.1661
  377MPD2    H2 5696   0.360   0.477  12.872 -1.8638 -1.4753 -1.1929
  377MPD2    H3 5697   0.407   0.469  13.095  0.5859 -1.3518 -2.1012
  377MPD2     N 5698   4.705   0.533  13.219 -0.2677 -0.0505  0.3633
  377MPD2    H5 5699   0.000   0.506  13.311  1.6635 -1.1952 -0.6470
  377MPD2    N1 5700   0.130   0.545  12.759  0.5471 -0.4310  0.1218
  377MPD2    H7 5701   0.212   0.545  12.699 -0.1197  2.2380 -0.7528
  378TMC3    C1 5702   4.683   0.646  12.338  0.0011 -0.1030  1.2215
  378TMC3    C2 5703   4.665   0.630  12.480  0.5135 -0.0505 -0.9574
  378TMC3    C3 5704   0.025   0.568  12.549 -0.6902  0.7280 -0.0957
  378TMC3    C4 5705   0.040   0.582  12.274  1.2662 -0.6056  0.0528
  378TMC3    C5 5706   0.126   0.505  12.349  0.1075 -0.0983  0.3281
  378TMC3    C6 5707   0.128   0.506  12.487 -0.0988  0.3117 -0.0656
  378TMC3     C 5708   4.577   0.733  12.278  0.7387  0.3800 -0.1893
  378TMC3     O 5709   4.496   0.778  12.358 -0.0197 -0.6851 -0.5401
  378TMC3     H 5710   4.583   0.681  12.528 -0.0895 -1.5710 -0.3795
  378TMC3    H1 5711   0.050   0.599  12.167  1.8438 -0.0184  0.1946
  378TMC3    H2 5712   0.206   0.455  12.542 -0.5249 -1.5741 -1.2046
  378TMC3    C7 5713   0.220   0.413  12.282  0.1393  0.2322 -0.9916
  378TMC3    C8 5714   0.011   0.574  12.693  0.1141 -0.3216  0.4381
  378TMC3    O1 5715   0.289   0.345  12.357  0.6099  0.2990 -0.4441
  378TMC3    O2 5716   4.642   0.616  12.734  0.1303 -0.0184 -0.4753
  379MPD2     C 5717   4.613   3.587  16.124  0.0017  0.0030  0.6022
  379MPD2    C1 5718   4.546   3.503  16.204  0.2250 -0.3860 -0.3766
  379MPD2    C2 5719   4.590   3.475  16.334  0.1557  0.0776 -1.0452
  379MPD2    C3 5720   4.705   3.533  16.387 -0.5545  0.2627  0.1152
  379MPD2    C4 5721   0.035   3.616  16.304  0.3704  0.2667  0.7383
  379MPD2    C5 5722   4.729   3.640  16.175  0.3727 -0.3776  1.4705
  379MPD2     H 5723   4.535   3.402  16.393 -2.3137  2.6513 -0.1772
  379MPD2    H1 5724   0.131   3.658  16.334  0.3286  0.9636 -0.1094
  379MPD2    H2 5725   4.592   3.607  16.019 -0.2673 -1.6054  0.3601
  379MPD2    H3 5726   0.053   3.696  16.105 -2.5360 -0.6970 -1.3717
  379MPD2     N 5727   0.035   3.482  16.506 -0.0298  0.4848 -0.0797
  379MPD2    H5 5728   0.133   3.504  16.514  0.5309 -0.3563 -4.1568
  379MPD2    N1 5729   4.446   3.430  16.140  0.2098  0.6513 -0.4563
  379MPD2    H7 5730   4.426   3.475  16.051 -1.0153  0.2103 -0.4048
  380TMC3    C1 5731   4.260   3.298  16.090  0.7096  0.0102 -0.5551
  380TMC3    C2 5732   4.245   3.162  16.063  1.1479  0.1780 -0.5170
  380TMC3    C3 5733   4.175   3.135  15.955  0.3236 -0.3501  0.3878
  380TMC3    C4 5734   4.218   3.396  16.008  0.9479  0.7611 -0.6809
  380TMC3    C5 5735   4.127   3.371  15.913  0.2121  0.6854 -0.4744
  380TMC3    C6 5736   4.100   3.236  15.894  0.4034 -0.6986 -0.6340
  380TMC3     C 5737   4.372   3.324  16.186 -0.0352 -0.5195 -0.4470
  380TMC3     O 5738   4.393   3.250  16.281 -0.3009  0.7288  0.0583
  380TMC3     H 5739   4.306   3.081  16.102 -0.2966 -0.2377  0.8644
  380TMC3    H1 5740   4.243   3.499  16.032 -0.0081  1.3671 -2.2800
  380TMC3    H2 5741   4.043   3.207  15.806 -2.9200  3.7496  0.0396
  380TMC3    C7 5742   4.087   3.476  15.824 -0.6844  0.2816 -0.3458
  380TMC3    C8 5743   4.145   2.995  15.934 -0.5099  0.0592 -0.4609
  380TMC3    O1 5744   4.161   3.574  15.814  0.3695  0.2907 -0.2845
  380TMC3    O2 5745   4.172   2.917  16.026  0.7175 -0.9614 -0.5354
  381TMC3    C1 5746   4.158   0.390  16.460 -0.2666 -0.8399 -0.1019
  381TMC3    C2 5747   4.286   0.366  16.409  0.4307 -0.3443 -0.6646
  381TMC3    C3 5748   4.384   0.314  16.481  0.4092  0.3270 -0.3607
  381TMC3    C4 5749   4.129   0.362  16.586 -0.0387 -0.0169  0.3506
  381TMC3    C5 5750   4.234   0.306  16.656 -0.2156  0.0027  0.6438
  381TMC3    C6 5751   4.361   0.277  16.610 -0.3159 -0.0485 -0.1500
  381TMC3     C 5752   4.051   0.435  16.369 -0.2057 -0.6034  0.5016
  381TMC3     O 5753   3.942   0.459  16.418  0.2743  0.5917  0.5631
  381TMC3     H 5754   4.315   0.417  16.319  0.9211 -1.2865 -1.0357
  381TMC3    H1 5755   4.031   0.379  16.631  0.1300 -0.2446  0.8012
  381TMC3    H2 5756   4.440   0.254  16.680 -0.2752  1.2659  0.2372
  381TMC3    C7 5757   4.200   0.240  16.776 -0.4842 -0.6663  0.4844
  381TMC3    C8 5758   4.512   0.380  16.470 -0.4924 -0.7122  0.6592
  381TMC3    O1 5759   4.243   0.130  16.790  0.3551 -0.2327  0.0691
  381TMC3    O2 5760   4.605   0.304  16.436  0.3958 -0.4459  0.2113
  382MPD2     C 5761   3.684   2.575   0.256 -0.4596  0.0502  0.5366
  382MPD2    C1 5762   3.659   2.573   0.122  0.0109  0.3315  0.7620
  382MPD2    C2 5763   3.606   2.454   0.065  0.0381 -0.9260  0.1953
  382MPD2    C3 5764   3.599   2.340   0.135 -0.3850 -0.5059 -0.4851
  382MPD2    C4 5765   3.623   2.339   0.267  0.4002  0.2539 -0.0729
  382MPD2    C5 5766   3.660   2.459   0.328 -0.3254 -0.4750  0.4498
  382MPD2     H 5767   3.584   2.450  17.707 -0.8867  0.5596  0.3261
  382MPD2    H1 5768   3.616   2.246   0.323 -1.9656 -0.5774 -1.7871
  382MPD2    H2 5769   3.732   2.660   0.304  0.0613  0.6014 -0.9517
  382MPD2    H3 5770   3.684   2.469   0.434  2.8370  0.1245 -0.3204
  382MPD2     N 5771   3.575   2.216   0.078  0.4301  0.8400  0.5422
  382MPD2    H5 5772   3.594   2.138   0.141 -0.1365  0.2898  0.0281
  382MPD2    N1 5773   3.683   2.689   0.050  0.4127 -0.7506  0.2638
  382MPD2    H7 5774   3.716   2.768   0.104 -1.4558  0.6954 -0.7250
  383TMC3    C1 5775   3.555   2.060  17.648 -0.1490  0.0634 -0.1318
  383TMC3    C2 5776   3.454   2.002  17.584 -0.6843  0.1880 -0.1701
  383TMC3    C3 5777   3.454   1.868  17.570 -0.0203 -0.5229 -0.0511
  383TMC3    C4 5778   3.660   1.990  17.696  0.2391 -0.3279  0.0889
  383TMC3    C5 5779   3.663   1.858  17.670 -0.2967  0.6411 -0.0622
  383TMC3    C6 5780   3.554   1.789  17.614  0.2975  0.6123  0.3300
  383TMC3     C 5781   3.540   2.199  17.690  0.1642 -0.2699 -0.6473
  383TMC3     O 5782   3.503   2.272  17.596 -0.0066 -0.3146  0.8306
  383TMC3     H 5783   3.374   2.066  17.549 -0.9636  1.2803  2.4359
  383TMC3    H1 5784   3.748   2.044  17.730  0.2463 -0.9563  1.0713
  383TMC3    H2 5785   3.560   1.690  17.570 -2.1494  0.2273  0.9127
  383TMC3    C7 5786   3.793   1.784  17.668  0.5554  0.1555 -0.4084
  383TMC3    C8 5787   3.330   1.815  17.520 -0.3355  0.1217 -0.2484
  383TMC3    O1 5788   3.793   1.672  17.614 -0.0599  0.0709  0.5404
  383TMC3    O2 5789   3.245   1.891  17.469  0.0415  1.0646  0.0095
  384MPD2     C 5790   0.323   3.224  12.380 -0.3500 -0.9213  0.2087
  384MPD2    C1 5791   0.426   3.221  12.469 -0.2505 -0.4152 -0.2117
  384MPD2    C2 5792   0.544   3.175  12.420  0.1769 -0.2637 -0.2098
  384MPD2    C3 5793   0.570   3.140  12.285  0.0537  0.0596  0.3055
  384MPD2    C4 5794   0.465   3.131  12.204  0.0305  0.1748  0.9042
  384MPD2    C5 5795   0.342   3.180  12.251 -0.4239 -0.7773  0.3057
  384MPD2     H 5796   0.631   3.167  12.484 -0.1341 -1.1359  0.0998
  384MPD2    H1 5797   0.458   3.101  12.100 -3.1765  1.2141  0.8021
  384MPD2    H2 5798   0.222   3.242  12.415  0.4235 -0.8600  2.4089
  384MPD2    H3 5799   0.265   3.184  12.174 -0.0107  0.6186 -0.0331
  384MPD2     N 5800   0.700   3.105  12.253  0.5746  0.3620  0.1580
  384MPD2    H5 5801   0.767   3.105  12.329  0.7746  1.2559 -0.0256
  384MPD2    N1 5802   0.395   3.255  12.602 -0.3924  0.2102  0.0377
  384MPD2    H7 5803   0.303   3.290  12.627 -0.3489  0.2100  0.1970
  385TMC3    C1 5804   0.878   3.019  12.143 -0.6002  0.0118 -0.8794
  385TMC3    C2 5805   0.874   2.882  12.116 -0.5768  0.4825 -0.4433
  385TMC3    C3 5806   0.935   2.790  12.205  1.0387  0.0244 -0.1747
  385TMC3    C4 5807   0.941   3.059  12.257 -0.2991  0.2264 -0.9857
  385TMC3    C5 5808   0.995   2.967  12.347  0.5928 -0.1940 -0.5218
  385TMC3    C6 5809   0.997   2.832  12.323  0.0293  0.7720  0.0845
  385TMC3     C 5810   0.749   3.079  12.127  1.3449  0.2841 -0.3499
  385TMC3     O 5811   0.706   3.084  12.013  0.2870  0.2414  0.9179
  385TMC3     H 5812   0.807   2.848  12.038 -0.8165 -0.3978  0.1378
  385TMC3    H1 5813   0.954   3.165  12.273  1.6239 -0.2377  0.4748
  385TMC3    H2 5814   1.051   2.769  12.393  0.1564  0.5357 -0.2254
  385TMC3    C7 5815   0.970   3.002  12.482  0.4190 -0.0195 -0.0502
  385TMC3    C8 5816   0.926   2.643  12.188 -0.5130  0.0798  0.0690
  385TMC3    O1 5817   0.894   3.096  12.497 -0.1766 -0.2417  0.5839
  385TMC3    O2 5818   0.921   2.592  12.299 -0.3186  0.3419 -0.1235
  386TMC3    C1 5819   0.588   0.561  11.889 -0.3036  0.8565 -0.5205
  386TMC3    C2 5820   0.557   0.601  11.755 -0.2291  0.0724 -0.2286
  386TMC3    C3 5821   0.437   0.659  11.730  0.1074  0.0517 -0.3758
  386TMC3    C4 5822   0.503   0.586  11.992 -0.2993 -0.0839  0.0003
  386TMC3    C5 5823   0.383   0.645  11.966  0.1146  0.2608 -0.2667
  386TMC3    C6 5824   0.349   0.677  11.836  0.0619  0.5671 -0.2456
  386TMC3     C 5825   0.708   0.484  11.914 -1.3773 -0.3463 -0.1151
  386TMC3     O 5826   0.784   0.476  11.819  0.3400  0.6238 -0.1114
  386TMC3     H 5827   0.626   0.575  11.676 -0.6015  2.7628 -1.4168
  386TMC3    H1 5828   0.541   0.587  12.093 -0.2874 -0.4355 -0.0024
  386TMC3    H2 5829   0.245   0.702  11.817 -0.6496 -2.2283 -0.0392
  386TMC3    C7 5830   0.312   0.705  12.078  0.1453 -0.8461  0.0875
  386TMC3    C8 5831   0.387   0.690  11.604 -0.2429 -0.3594  0.0139
  386TMC3    O1 5832   0.346   0.664  12.188  0.2870  0.3411 -0.2767
  386TMC3    O2 5833   0.266   0.707  11.593  0.9872 -0.6330  0.1571
  387MPD2     C 5834   3.394   0.897   9.968  0.8995  0.0792 -0.1404
  387MPD2    C1 5835   3.408   0.852  10.100  0.4156 -0.2174 -0.0750
  387MPD2    C2 5836   3.404   0.716  10.117 -0.7216 -0.0618 -0.0686
  387MPD2    C3 5837   3.370   0.629  10.014  0.5791 -0.6955  0.6935
  387MPD2    C4 5838   3.341   0.679   9.892 -0.0486  0.3884 -0.2083
  387MPD2    C5 5839   3.357   0.813   9.870  0.1448 -0.3790  0.6868
  387MPD2     H 5840   3.448   0.690  10.213  0.6532  1.9484 -0.1517
  387MPD2    H1 5841   3.313   0.620   9.806 -0.9621 -0.3681  0.6186
  387MPD2    H2 5842   3.387   1.004   9.956 -1.1874 -0.0053  0.4527
  387MPD2    H3 5843   3.323   0.861   9.779 -0.6173  0.0952  1.2184
  387MPD2     N 5844   3.371   0.491  10.049  0.4967  0.4555  0.2382
  387MPD2    H5 5845   3.412   0.453  10.134 -1.1265 -2.2668 -0.1858
  387MPD2    N1 5846   3.454   0.935  10.202 -0.5781  0.2656  0.6260
  387MPD2    H7 5847   3.443   0.891  10.293 -2.2044 -1.3658 -0.3425
  388TMC3    C1 5848   3.590   1.082  10.311 -0.3587  0.5623  0.4360
  388TMC3    C2 5849   3.662   1.197  10.300 -0.6451  0.0747 -0.3494
  388TMC3    C3 5850   3.785   1.202  10.352  0.1080  0.0831 -0.5222
  388TMC3    C4 5851   3.638   0.970  10.381  0.5744  0.7976  0.4325
  388TMC3    C5 5852   3.765   0.984  10.430  0.3376 -0.6961  0.3753
  388TMC3    C6 5853   3.844   1.098  10.415 -0.1688  0.6160  0.2160
  388TMC3     C 5854   3.497   1.062  10.197  0.3518 -0.0449 -0.2028
  388TMC3     O 5855   3.475   1.146  10.110  0.0004 -0.2525  0.3799
  388TMC3     H 5856   3.612   1.286  10.261  2.1516  1.5959 -0.4657
  388TMC3    H1 5857   3.581   0.879  10.398 -0.8191  1.7823  0.9972
  388TMC3    H2 5858   3.945   1.109  10.451 -0.8143 -1.2135  2.6415
  388TMC3    C7 5859   3.822   0.856  10.477  0.8268  0.8302 -0.6052
  388TMC3    C8 5860   3.869   1.316  10.327  0.3583  0.7251  0.4142
  388TMC3    O1 5861   3.874   0.863  10.591 -0.1163  0.6765  0.2856
  388TMC3    O2 5862   3.991   1.290  10.334  0.0399  0.1077  0.0597
  389MPD2     C 5863   2.459   4.239  11.246  0.6024 -0.2244 -0.1196
  389MPD2    C1 5864   2.435   4.118  11.184 -0.0550  0.0077 -0.3535
  389MPD2    C2 5865   2.437   4.002  11.262  0.2408  0.0716 -0.5153
  389MPD2    C3 5866   2.457   4.015  11.396  0.4096 -0.4370 -0.4479
  389MPD2    C4 5867   2.486   4.136  11.444  0.0693 -0.2266 -0.1715
  389MPD2    C5 5868   2.477   4.246  11.378 -0.8611  0.0160 -0.3779
  389MPD2     H 5869   2.412   3.909  11.213  1.7957 -1.2340  1.1857
  389MPD2    H1 5870   2.522   4.152  11.545  1.8555  0.0462 -0.8380
  389MPD2    H2 5871   2.455   4.333  11.193 -1.4409 -0.0635  0.3248
  389MPD2    H3 5872   2.500   4.345  11.415  0.7675  0.4747 -2.6079
  389MPD2     N 5873   2.458   3.901  11.489 -0.2633  0.6092 -0.5840
  389MPD2    H5 5874   2.495   3.925  11.580  0.9524  0.1579 -0.9497
  389MPD2    N1 5875   2.430   4.114  11.044 -0.0154  0.0144  0.0782
  389MPD2    H7 5876   2.441   4.207  11.006  0.0532 -0.0149  0.0273
  390TMC3    C1 5877   2.437   3.688  11.591  0.6676 -0.1026  0.1582
  390TMC3    C2 5878   2.458   3.549  11.580  0.1430 -0.0881  0.2645
  390TMC3    C3 5879   2.460   3.478  11.704  0.0563 -0.4447 -0.4822
  390TMC3    C4 5880   2.427   3.754  11.717 -1.0167  0.4229  0.0031
  390TMC3    C5 5881   2.448   3.680  11.829 -0.5827  0.1454  0.7231
  390TMC3    C6 5882   2.456   3.540  11.826  0.3809  0.2926 -0.0280
  390TMC3     C 5883   2.435   3.769  11.468 -0.1444  0.5399 -0.7136
  390TMC3     O 5884   2.398   3.714  11.367  0.5462  0.0662  0.0595
  390TMC3     H 5885   2.452   3.498  11.485  0.1512 -1.2331  0.8788
  390TMC3    H1 5886   2.406   3.860  11.724 -1.5992  0.1434  2.5058
  390TMC3    H2 5887   2.490   3.488  11.915  1.2097 -0.9131 -1.0548
  390TMC3    C7 5888   2.380   3.734  11.942  0.4808 -0.4006 -0.7577
  390TMC3    C8 5889   2.398   3.348  11.695  0.1767 -0.6170 -0.0913
  390TMC3    O1 5890   2.372   3.855  11.958 -0.5853 -0.1085 -0.4638
  390TMC3    O2 5891   2.392   3.295  11.583 -0.2145 -0.6132  0.0175
  391MPD2     C 5892   2.298   0.317  11.336 -0.3115  0.1701 -0.3034
  391MPD2    C1 5893   2.378   0.414  11.283 -0.5790 -0.4876 -0.4930
  391MPD2    C2 5894   2.350   0.453  11.156  0.1988 -0.7191  0.2885
  391MPD2    C3 5895   2.247   0.393  11.080  0.1649  0.5323 -0.4536
  391MPD2    C4 5896   2.158   0.302  11.136  0.1162 -0.0741  0.2294
  391MPD2    C5 5897   2.186   0.265  11.272  0.0787 -0.0942  0.5287
  391MPD2     H 5898   2.406   0.540  11.122  0.4634 -1.4606 -1.1754
  391MPD2    H1 5899   2.068   0.265  11.089 -0.8742  0.9764  1.2795
  391MPD2    H2 5900   2.316   0.276  11.435  2.2047 -0.3620 -0.9825
  391MPD2    H3 5901   2.120   0.194  11.321 -1.8325  1.2236 -0.1383
  391MPD2     N 5902   2.222   0.445  10.951 -0.4351 -0.1055 -0.7586
  391MPD2    H5 5903   2.279   0.521  10.915 -0.4398  0.2618 -0.0098
  391MPD2    N1 5904   2.474   0.479  11.363 -0.1130  0.5160 -0.1755
  391MPD2    H7 5905   2.467   0.458  11.462 -1.5354 -0.9795 -0.5942
  392TMC3    C1 5906   2.146   0.467  10.739  0.0653 -0.2057  0.7494
  392TMC3    C2 5907   2.107   0.391  10.629  0.5907 -0.0713  1.0127
  392TMC3    C3 5908   2.119   0.446  10.500 -0.2111 -0.4947  0.0067
  392TMC3    C4 5909   2.222   0.579  10.720  0.3168 -1.0729  0.4239
  392TMC3    C5 5910   2.248   0.617  10.593  0.2430 -0.0229  0.1150
  392TMC3    C6 5911   2.186   0.556  10.486 -0.3741  0.2047 -0.4189
  392TMC3     C 5912   2.132   0.395  10.860 -0.3787  0.2137  0.5851
  392TMC3     O 5913   2.065   0.293  10.866  0.4904 -0.1226 -0.0875
  392TMC3     H 5914   2.060   0.294  10.641 -0.5784  0.3430 -0.1199
  392TMC3    H1 5915   2.244   0.644  10.804 -0.9788 -0.6960  0.4708
  392TMC3    H2 5916   2.212   0.589  10.386  0.0500 -0.3046 -0.4815
  392TMC3    C7 5917   2.336   0.736  10.580 -0.3775  0.8786  0.2331
  392TMC3    C8 5918   2.073   0.367  10.387 -1.0335 -0.0186 -0.2714
  392TMC3    O1 5919   2.384   0.779  10.686 -0.1273  0.2472  0.5647
  392TMC3    O2 5920   2.014   0.264  10.413  0.3219  0.0434 -0.3897
  393TMC3    C1 5921   0.753   2.917  11.314 -0.0764 -0.5384 -0.0211
  393TMC3    C2 5922   0.662   2.862  11.395  0.1981 -0.6758 -0.0905
  393TMC3    C3 5923   0.669   2.724  11.419 -0.2265 -0.6587  0.2090
  393TMC3    C4 5924   0.854   2.840  11.257  1.0384  0.1003  0.3042
  393TMC3    C5 5925   0.860   2.706  11.296  0.7859  0.1105  0.4150
  393TMC3    C6 5926   0.764   2.642  11.371  0.0392  0.1228  0.1405
  393TMC3     C 5927   0.717   3.040  11.251  0.0445  0.7678 -0.8970
  393TMC3     O 5928   0.599   3.054  11.222 -0.0636  0.0708 -0.6464
  393TMC3     H 5929   0.590   2.934  11.432  1.8687  0.7260  0.4364
  393TMC3    H1 5930   0.922   2.890  11.189  1.1254 -2.0337 -1.1700
  393TMC3    H2 5931   0.759   2.535  11.389  3.1801  0.1184  1.0200
  393TMC3    C7 5932   0.959   2.620  11.228 -0.2716 -0.6942  0.1422
  393TMC3    C8 5933   0.550   2.661  11.466  0.3653 -0.3675 -0.3291
  393TMC3    O1 5934   0.923   2.508  11.191  0.2129 -0.0631 -0.0447
  393TMC3    O2 5935   0.548   2.542  11.465  0.2759 -0.4193  0.1639
  394TMC3    C1 5936   2.406   4.057  10.820  0.2324 -0.1215  0.4980
  394TMC3    C2 5937   2.345   3.970  10.729  0.8029 -0.6979 -0.5468
  394TMC3    C3 5938   2.396   3.956  10.601 -0.0337 -0.0428  0.1369
  394TMC3    C4 5939   2.524   4.117  10.787  0.2399  0.4220 -0.2498
  394TMC3    C5 5940   2.565   4.114  10.656 -0.7183  1.3013 -0.0198
  394TMC3    C6 5941   2.507   4.032  10.561  0.6452 -0.3987  0.8255
  394TMC3     C 5942   2.396   4.010  10.961  0.2937  0.3833  0.3593
  394TMC3     O 5943   2.324   3.912  10.990  0.2872 -0.8318 -0.2279
  394TMC3     H 5944   2.248   3.932  10.757  0.4420 -0.0808 -0.9364
  394TMC3    H1 5945   2.582   4.174  10.859 -0.1045  0.6808 -0.1788
  394TMC3    H2 5946   2.562   4.016  10.470  0.2330 -1.7843  0.8271
  394TMC3    C7 5947   2.707   4.155  10.645  0.0319 -0.0973 -0.2154
  394TMC3    C8 5948   2.352   3.852  10.515  0.6480 -0.1121  0.4166
  394TMC3    O1 5949   2.744   4.195  10.536  0.2726 -0.0267 -0.3978
  394TMC3    O2 5950   2.350   3.863  10.395 -0.5457 -0.0817 -0.2921
  395TMC3    C1 5951   2.188   0.693  15.187 -0.3803 -0.0982  0.0967
  395TMC3    C2 5952   2.067   0.706  15.131  0.7172  0.2702  0.4003
  395TMC3    C3 5953   2.054   0.795  15.032 -0.0274  0.0555 -0.3130
  395TMC3    C4 5954   2.296   0.752  15.136 -0.3929 -0.2756  0.6770
  395TMC3    C5 5955   2.282   0.845  15.030 -0.3663  0.0609 -1.0160
  395TMC3    C6 5956   2.154   0.868  14.983  0.6044 -0.1176 -1.2063
  395TMC3     C 5957   2.175   0.652  15.324 -0.2227  0.0451 -0.7354
  395TMC3     O 5958   2.065   0.668  15.381  0.6204  0.0391 -0.4549
  395TMC3     H 5959   1.982   0.646  15.161 -0.0075 -0.2708 -2.6869
  395TMC3    H1 5960   2.391   0.750  15.188 -0.7532  0.7220  1.3768
  395TMC3    H2 5961   2.137   0.949  14.912 -0.7795 -1.4172 -2.3675
  395TMC3    C7 5962   2.363   0.965  15.040 -0.5332 -0.7163 -0.6647
  395TMC3    C8 5963   1.924   0.851  15.011  0.1512 -0.4070  0.2259
  395TMC3    O1 5964   2.301   1.066  15.060  0.2916  0.0292 -0.6552
  395TMC3    O2 5965   1.918   0.969  14.972  0.5239 -0.3637 -0.0920
  396MPD2     C 5966   1.677   1.894  17.177  0.5059  0.6262 -0.4440
  396MPD2    C1 5967   1.800   1.929  17.226  0.7266  0.0780  0.6242
  396MPD2    C2 5968   1.890   2.011  17.164 -0.4393 -0.5465 -1.0823
  396MPD2    C3 5969   1.853   2.072  17.045  0.3194  1.1987  0.0133
  396MPD2    C4 5970   1.730   2.030  16.986 -0.2547  0.8075 -0.1839
  396MPD2    C5 5971   1.640   1.949  17.053 -0.6641 -0.2520 -0.8529
  396MPD2     H 5972   1.987   2.041  17.202 -0.6434  0.1965 -1.1492
  396MPD2    H1 5973   1.695   2.074  16.893  1.5369 -0.6036 -1.5031
  396MPD2    H2 5974   1.619   1.816  17.224 -0.4740  1.3452 -0.4485
  396MPD2    H3 5975   1.542   1.940  17.006 -1.0641  1.4739 -0.3601
  396MPD2     N 5976   1.954   2.162  16.997 -0.0504 -0.0937 -0.3138
  396MPD2    H5 5977   2.033   2.176  17.059 -0.0616  0.4830 -0.4291
  396MPD2    N1 5978   1.838   1.854  17.340 -0.3070 -0.3144  0.1549
  396MPD2    H7 5979   1.785   1.770  17.358  0.3533 -0.5786  0.8631
  397TMC3    C1 5980   1.984   1.780  17.521  1.0123  0.5384 -0.5115
  397TMC3    C2 5981   2.103   1.813  17.590  0.6367 -0.7039  0.6721
  397TMC3    C3 5982   2.183   1.713  17.631 -0.7586  1.4673 -0.2001
  397TMC3    C4 5983   1.966   1.646  17.496  0.2635  0.3903 -0.1638
  397TMC3    C5 5984   2.041   1.544  17.551  0.0736  0.3136 -0.9714
  397TMC3    C6 5985   2.151   1.580  17.620 -0.1111 -0.8787 -0.0868
  397TMC3     C 5986   1.940   1.881  17.423  1.1383 -0.0140 -0.3730
  397TMC3     O 5987   2.017   1.977  17.421  0.3660  0.2570  0.9683
  397TMC3     H 5988   2.115   1.919  17.611  0.4154 -0.4037 -0.6812
  397TMC3    H1 5989   1.867   1.617  17.462  0.5966 -2.2653  1.1198
  397TMC3    H2 5990   2.217   1.505  17.662 -1.0044 -0.4639  2.0687
  397TMC3    C7 5991   1.971   1.423  17.592 -0.0283 -0.6153  0.5703
  397TMC3    C8 5992   2.308   1.731  17.696  0.0930 -0.9386  0.6030
  397TMC3    O1 5993   1.877   1.390  17.523  0.0908 -0.0917 -0.7065
  397TMC3    O2 5994   2.332   1.662   0.045 -0.2149  0.3166  0.2335
  398MPD2     C 5995   4.479   3.585   0.380 -0.2117  0.2704 -0.7226
  398MPD2    C1 5996   4.586   3.539   0.461 -0.3566 -0.0110  0.0997
  398MPD2    C2 5997   4.633   3.624   0.561 -0.2962  0.0560  0.9680
  398MPD2    C3 5998   4.592   3.751   0.561  0.2548 -0.4748  0.0182
  398MPD2    C4 5999   4.485   3.790   0.477  1.0485  0.6213  0.2949
  398MPD2    C5 6000   4.431   3.712   0.388 -0.2852  0.3956 -0.1766
  398MPD2     H 6001   4.713   3.593   0.628 -0.2697 -0.5530  0.6571
  398MPD2    H1 6002   4.455   3.894   0.471 -0.9162  0.0341  0.2002
  398MPD2    H2 6003   4.441   3.532   0.294  0.5664 -0.3926 -0.6621
  398MPD2    H3 6004   4.356   3.750   0.319  0.9154  1.2420 -1.0063
  398MPD2     N 6005   4.657   3.840   0.644 -0.0566 -0.2712  0.2207
  398MPD2    H5 6006   4.716   3.800   0.717 -2.0704 -0.7769  1.5811
  398MPD2    N1 6007   4.638   3.406   0.460  0.7193  0.0836 -0.9203
  398MPD2    H7 6008   4.697   3.379   0.538  0.4586 -0.6814 -0.9870
  399TMC3    C1 6009   4.643   3.180   0.400 -0.1008 -0.0515 -0.0280
  399TMC3    C2 6010   0.030   3.157   0.456 -0.0396 -0.5221  0.3529
  399TMC3    C3 6011   0.069   3.029   0.451  0.8209 -0.3064 -0.0615
  399TMC3    C4 6012   4.555   3.078   0.383 -1.0270 -0.5714 -0.0739
  399TMC3    C5 6013   4.592   2.958   0.414  0.2134  0.2622  0.7423
  399TMC3    C6 6014   4.721   2.926   0.445  1.0195 -0.3635 -0.1200
  399TMC3     C 6015   4.590   3.312   0.369  0.1493  0.2185 -0.3634
  399TMC3     O 6016   4.498   3.316   0.289 -0.0066 -0.1371  0.8498
  399TMC3     H 6017   0.099   3.240   0.465  0.0986 -0.5219 -0.7887
  399TMC3    H1 6018   4.462   3.112   0.337 -1.7635  0.5687  2.2767
  399TMC3    H2 6019   0.012   2.822   0.458 -3.7287 -1.6163  0.3259
  399TMC3    C7 6020   4.500   2.848   0.375  1.0205  0.0827  0.6175
  399TMC3    C8 6021   0.209   2.998   0.493  0.2658  0.0396 -0.0749
  399TMC3    O1 6022   4.535   2.732   0.386 -0.2920  0.6189  0.1550
  399TMC3    O2 6023   0.258   3.078   0.571  0.1301  0.0495 -0.6439
  400TMC3    C1 6024   3.106   1.743  16.959  0.5825 -0.2028 -0.3254
  400TMC3    C2 6025   3.038   1.637  16.914 -0.1572  0.3118 -0.3094
  400TMC3    C3 6026   2.952   1.650  16.803  0.2469 -0.2431  0.5512
  400TMC3    C4 6027   3.094   1.862  16.897  0.0668 -0.2411 -0.1905
  400TMC3    C5 6028   2.993   1.882  16.806  0.7438 -0.5367  0.4004
  400TMC3    C6 6029   2.920   1.776  16.754 -0.1499 -0.0531  0.1552
  400TMC3     C 6030   3.219   1.694  17.041  1.2516  0.1291 -0.0449
  400TMC3     O 6031   3.236   1.573  17.052  0.0057  0.3821  0.2720
  400TMC3     H 6032   3.026   1.547  16.973 -0.9856 -0.3625 -1.5053
  400TMC3    H1 6033   3.154   1.944  16.932 -1.5984  1.4278 -1.2516
  400TMC3    H2 6034   2.852   1.793  16.671 -1.0057  0.6847  1.0108
  400TMC3    C7 6035   2.975   2.014  16.756 -0.7381  0.0452 -0.1844
  400TMC3    C8 6036   2.831   1.567  16.803 -0.1522 -0.6438 -0.0092
  400TMC3    O1 6037   2.958   2.022  16.634  0.1490 -0.6418  0.2172
  400TMC3    O2 6038   2.784   1.541  16.913  0.4041  0.1810 -0.3903
  401MPD2     C 6039   1.909   0.828   1.095 -1.0020 -0.2682  0.0807
  401MPD2    C1 6040   1.905   0.721   1.181 -0.6143  0.3868 -0.7276
  401MPD2    C2 6041   1.804   0.629   1.161  0.3065  0.4480 -0.0555
  401MPD2    C3 6042   1.734   0.626   1.038 -0.6951  0.4028  0.1668
  401MPD2    C4 6043   1.750   0.722   0.946  0.1516 -0.3293  0.5422
  401MPD2    C5 6044   1.835   0.830   0.981  0.2734 -0.0097 -0.2469
  401MPD2     H 6045   1.794   0.543   1.227  0.4477 -0.4673 -1.2153
  401MPD2    H1 6046   1.697   0.728   0.851  2.7643  0.9226 -0.8349
  401MPD2    H2 6047   1.984   0.905   1.109 -3.2558  2.0002 -0.3104
  401MPD2    H3 6048   1.848   0.909   0.908 -0.5315  0.8141  0.5099
  401MPD2     N 6049   1.636   0.527   1.016 -0.5780  0.0100 -0.4608
  401MPD2    H5 6050   1.599   0.486   1.101  3.0476 -1.7538  0.2705
  401MPD2    N1 6051   1.997   0.699   1.286  0.4652  0.0395 -0.3931
  401MPD2    H7 6052   2.015   0.606   1.322  2.1621  0.6188  0.2382
  402TMC3    C1 6053   1.492   0.383   0.905  0.5010 -0.2027 -0.0056
  402TMC3    C2 6054   1.457   0.353   1.034  0.0200 -0.2587 -0.0407
  402TMC3    C3 6055   1.433   0.219   1.069 -0.2870 -1.0579  1.1865
  402TMC3    C4 6056   1.508   0.283   0.808 -0.3362  0.2741  0.0127
  402TMC3    C5 6057   1.461   0.162   0.839  0.0435  0.1038  0.1241
  402TMC3    C6 6058   1.442   0.127   0.969 -0.4127  0.5351  0.4665
  402TMC3     C 6059   1.601   0.480   0.897  0.4565 -0.6460 -1.3154
  402TMC3     O 6060   1.649   0.507   0.785  0.1625  0.1293 -0.2420
  402TMC3     H 6061   1.432   0.425   1.111 -0.1264 -0.2286 -0.1182
  402TMC3    H1 6062   1.550   0.311   0.712  0.1771 -0.0159  0.1538
  402TMC3    H2 6063   1.416   0.027   1.002  1.0046 -0.1276 -0.4338
  402TMC3    C7 6064   1.508   0.043   0.763  0.0666  0.2388 -0.1262
  402TMC3    C8 6065   1.505   0.173   1.189 -0.2065  0.2875 -0.7263
  402TMC3    O1 6066   1.609   0.059   0.706  0.3810 -0.2046 -0.1393
  402TMC3    O2 6067   1.561   0.065   1.174  0.1432 -0.2827  0.5434
  403MPD2     C 6068   4.475   3.002  13.492  0.4068 -0.2301  0.6403
  403MPD2    C1 6069   4.408   2.964  13.608  0.8315  0.7682  0.2389
  403MPD2    C2 6070   4.488   2.945  13.720  0.8547 -0.4947  0.0944
  403MPD2    C3 6071   4.627   2.963  13.720 -0.7800  0.1890  0.1761
  403MPD2    C4 6072   4.688   3.006  13.608  0.8631 -0.2129  0.0907
  403MPD2    C5 6073   4.609   3.032  13.500 -0.2793 -0.0160 -0.1013
  403MPD2     H 6074   4.438   2.914  13.811 -1.1302 -3.9622 -2.1905
  403MPD2    H1 6075   0.058   3.017  13.602  0.7349 -0.7941 -3.2901
  403MPD2    H2 6076   4.420   3.016  13.400  0.6525  0.7220  0.6351
  403MPD2    H3 6077   4.662   3.058  13.408 -0.1798  1.8833  0.4865
  403MPD2     N 6078   4.699   2.942  13.843 -0.3152 -0.4622 -0.5467
  403MPD2    H5 6079   4.648   2.902  13.921  0.2440  3.6942  1.9624
  403MPD2    N1 6080   4.264   2.943  13.612  0.0981 -0.3602 -0.5082
  403MPD2    H7 6081   4.206   2.966  13.532  0.5059  0.0519 -0.6898
  404TMC3    C1 6082   4.114   2.775  13.670 -0.2791  0.3507  0.1787
  404TMC3    C2 6083   4.104   2.678  13.771 -0.6459 -0.3349  0.4348
  404TMC3    C3 6084   4.156   2.554  13.745 -0.6618 -0.3153 -0.5545
  404TMC3    C4 6085   4.142   2.729  13.542 -0.4468 -0.3857  0.3654
  404TMC3    C5 6086   4.195   2.603  13.520  0.5042 -0.0879  0.8609
  404TMC3    C6 6087   4.193   2.516  13.623 -0.0179  0.6920 -0.6615
  404TMC3     C 6088   4.197   2.884  13.716 -0.6628  0.0704  0.1982
  404TMC3     O 6089   4.215   2.895  13.838  0.2119 -0.3786  0.5851
  404TMC3     H 6090   4.084   2.702  13.875 -1.0931 -1.6423  0.6510
  404TMC3    H1 6091   4.144   2.800  13.459 -2.4782  0.9843  1.4887
  404TMC3    H2 6092   4.228   2.414  13.609  0.0208  0.4901  0.9817
  404TMC3    C7 6093   4.285   2.602  13.403  1.0423  0.4169  0.6732
  404TMC3    C8 6094   4.214   2.478  13.857  0.0988 -0.0930  0.0711
  404TMC3    O1 6095   4.271   2.689  13.319 -0.0081  0.3455 -0.0692
  404TMC3    O2 6096   4.322   2.424  13.834 -0.2174 -0.2245  0.2860
  405MPD2     C 6097   0.031   3.964  15.436 -0.3176 -0.3139  0.0823
  405MPD2    C1 6098   0.029   3.881  15.328  0.0666  0.1194 -0.6451
  405MPD2    C2 6099   4.672   3.898  15.229 -0.4320 -0.5108 -0.2671
  405MPD2    C3 6100   4.590   4.010  15.232  0.2383  0.2793  0.8351
  405MPD2    C4 6101   4.604   4.109  15.325 -0.4439  0.3131 -0.8277
  405MPD2    C5 6102   4.692   4.078  15.425 -0.9929 -0.3670 -0.5080
  405MPD2     H 6103   4.659   3.826  15.150  0.5060 -0.2341 -0.6801
  405MPD2    H1 6104   4.564   4.208  15.309 -0.2524  0.4356 -0.5520
  405MPD2    H2 6105   0.110   3.973  15.510 -0.1805  0.7300 -0.1960
  405MPD2    H3 6106   4.728   4.153  15.495  1.0758 -1.8348  0.0297
  405MPD2     N 6107   4.507   4.027  15.119  0.8668 -0.4224  0.2148
  405MPD2    H5 6108   4.516   3.959  15.045 -0.3678  1.6413 -1.8263
  405MPD2    N1 6109   0.115   3.773  15.301  0.6722 -0.4615  0.2183
  405MPD2    H7 6110   0.107   3.723  15.213 -2.0637  2.0536 -0.9750
  406TMC3    C1 6111   4.172   4.102  14.809 -0.1270  0.1711  0.0279
  406TMC3    C2 6112   4.174   3.966  14.775 -0.3455 -0.3146  0.6931
  406TMC3    C3 6113   4.256   3.888  14.854 -0.0061  0.0028 -0.3257
  406TMC3    C4 6114   4.232   4.150  14.923 -0.0084  0.1842  0.2927
  406TMC3    C5 6115   4.319   4.067  14.986 -0.7838  0.2804 -0.2063
  406TMC3    C6 6116   4.328   3.932  14.953  0.5615 -0.0259  0.6520
  406TMC3     C 6117   4.112   4.204  14.710 -0.5485 -0.2501 -0.4597
  406TMC3     O 6118   4.100   4.318  14.746 -0.1035 -0.6325  0.0119
  406TMC3     H 6119   4.116   3.926  14.693  0.9339 -0.9135  0.0799
  406TMC3    H1 6120   4.226   4.256  14.946  1.7725  0.5909 -1.1104
  406TMC3    H2 6121   4.383   3.865  15.017 -0.0002 -0.9356  0.1855
  406TMC3    C7 6122   4.402   4.111  15.098 -0.0998 -0.3661 -0.1838
  406TMC3    C8 6123   4.285   3.756  14.799  0.4829  0.0016 -0.0564
  406TMC3    O1 6124   4.379   4.227  15.140 -0.6099  0.1234  0.1563
  406TMC3    O2 6125   4.195   3.698  14.738 -0.3966 -0.9986  0.5845
  407MPD2     C 6126   2.858   0.581  10.004  0.2536  0.6765  0.5410
  407MPD2    C1 6127   2.955   0.664   9.953 -0.0485 -0.0788  0.3349
  407MPD2    C2 6128   3.011   0.766  10.032 -0.1129 -0.9634  0.5623
  407MPD2    C3 6129   2.972   0.784  10.165  0.2420 -0.3783 -0.5342
  407MPD2    C4 6130   2.872   0.704  10.216 -0.3211 -0.3919  0.1754
  407MPD2    C5 6131   2.819   0.606  10.130  0.2930  0.2827 -0.0982
  407MPD2     H 6132   3.092   0.830   9.999 -1.3824  1.2528  1.7240
  407MPD2    H1 6133   2.833   0.723  10.315 -0.7819  0.5188 -0.1825
  407MPD2    H2 6134   2.810   0.502   9.947 -1.4221  4.0367 -2.7376
  407MPD2    H3 6135   2.745   0.534  10.165 -0.6850  0.1211 -2.5147
  407MPD2     N 6136   3.017   0.883  10.258 -0.0272 -0.7248 -0.6394
  407MPD2    H5 6137   2.983   0.868  10.352 -0.0617  0.9455 -0.3969
  407MPD2    N1 6138   2.996   0.657   9.817  0.6314 -0.1803 -0.3132
  407MPD2    H7 6139   3.064   0.730   9.796 -1.0070  0.8002 -2.1711
  408TMC3    C1 6140   3.059   0.529   9.621 -0.2893 -0.5451 -0.2407
  408TMC3    C2 6141   3.084   0.402   9.601 -0.7080  0.0377 -0.0044
  408TMC3    C3 6142   3.197   0.363   9.535 -0.4492 -0.9324  0.1926
  408TMC3    C4 6143   3.146   0.624   9.578 -0.1564 -0.6456 -0.0569
  408TMC3    C5 6144   3.258   0.584   9.517 -0.0031 -0.4718  0.2836
  408TMC3    C6 6145   3.287   0.454   9.489  0.5026  0.0452 -0.2391
  408TMC3     C 6146   2.965   0.551   9.736  0.4606 -0.5222  0.3942
  408TMC3     O 6147   2.888   0.460   9.751  0.4316  0.4526  0.0626
  408TMC3     H 6148   3.026   0.319   9.641 -0.9605 -0.3876 -1.2755
  408TMC3    H1 6149   3.134   0.730   9.596  0.0848 -0.4246 -1.2272
  408TMC3    H2 6150   3.385   0.431   9.448  1.6740  2.1122  1.3998
  408TMC3    C7 6151   3.372   0.673   9.523 -0.0887 -1.2963 -0.1537
  408TMC3    C8 6152   3.226   0.225   9.571 -0.2781 -0.3461  0.4863
  408TMC3    O1 6153   3.483   0.619   9.526 -0.1503  0.3598  0.0804
  408TMC3    O2 6154   3.138   0.141   9.572  0.1539 -1.1052 -0.4362
  409MPD2     C 6155   2.056   1.159  17.300  0.5155  0.2962 -0.0399
  409MPD2    C1 6156   2.171   1.153  17.371  0.4361 -0.2865  0.6911
  409MPD2    C2 6157   2.259   1.259  17.377 -0.0358  0.6383 -0.1944
  409MPD2    C3 6158   2.219   1.382  17.319 -0.3145 -0.1044  0.4731
  409MPD2    C4 6159   2.100   1.389  17.258 -0.3436  0.2026  0.0812
  409MPD2    C5 6160   2.021   1.280  17.246 -0.3607 -0.6022  0.3382
  409MPD2     H 6161   2.359   1.239  17.414  0.7914  1.4420 -1.9937
  409MPD2    H1 6162   2.073   1.480  17.205  1.8935  1.7292  1.5397
  409MPD2    H2 6163   1.984   1.079  17.288  2.7518 -1.0612 -4.5627
  409MPD2    H3 6164   1.920   1.286  17.206 -0.0858 -1.4346 -0.4861
  409MPD2     N 6165   2.300   1.496  17.315  0.1136 -0.1858  0.3301
  409MPD2    H5 6166   2.259   1.573  17.263  1.8570  2.1299  2.3500
  409MPD2    N1 6167   2.206   1.033  17.438  0.7184 -0.0341 -0.1419
  409MPD2    H7 6168   2.304   1.019  17.461  0.0630 -0.2351  2.4586
  410TMC3    C1 6169   2.512   1.588  17.286  0.0807  0.2211  0.9979
  410TMC3    C2 6170   2.636   1.619  17.334 -0.3753 -0.2027  0.1763
  410TMC3    C3 6171   2.722   1.687  17.256 -0.1871  0.0854 -0.1891
  410TMC3    C4 6172   2.476   1.621  17.159  0.3100  0.6968 -0.4798
  410TMC3    C5 6173   2.554   1.702  17.085 -0.5124  1.0979  0.4756
  410TMC3    C6 6174   2.674   1.743  17.138 -0.2717 -0.3706  0.0676
  410TMC3     C 6175   2.431   1.495  17.360  0.1295  0.1986  0.3182
  410TMC3     O 6176   2.485   1.420  17.440  0.2454  0.3948  0.1497
  410TMC3     H 6177   2.662   1.566  17.425  0.6122 -1.2668 -0.7306
  410TMC3    H1 6178   2.381   1.591  17.115  0.2312  1.0092 -0.5224
  410TMC3    H2 6179   2.740   1.799  17.074 -4.0769 -0.5514 -4.0253
  410TMC3    C7 6180   2.524   1.724  16.949  0.0906 -0.2743  0.4602
  410TMC3    C8 6181   2.866   1.683  17.282 -0.3334 -0.2132 -0.4281
  410TMC3    O1 6182   2.442   1.646  16.909 -0.2323 -0.3644 -0.1300
  410TMC3    O2 6183   2.942   1.764  17.233 -0.1670 -0.5014 -0.7543
  411MPD2     C 6184   2.537   1.816  14.770 -0.2150  0.2524  0.4316
  411MPD2    C1 6185   2.493   1.855  14.893 -0.3065  0.3317  0.2950
  411MPD2    C2 6186   2.422   1.768  14.970 -0.1630  0.5278  0.0103
  411MPD2    C3 6187   2.405   1.632  14.928 -0.1032  0.1483  0.3968
  411MPD2    C4 6188   2.458   1.592  14.808 -0.3615  0.5253  0.8690
  411MPD2    C5 6189   2.520   1.683  14.730  0.4178  0.2526  0.1064
  411MPD2     H 6190   2.373   1.796  15.062  2.1968  1.3438  1.0116
  411MPD2    H1 6191   2.426   1.497  14.767  2.9890  0.6256 -1.9283
  411MPD2    H2 6192   2.586   1.891  14.709  3.0565 -0.5545  2.0773
  411MPD2    H3 6193   2.548   1.660  14.628  2.0977 -0.2712  0.6855
  411MPD2     N 6194   2.322   1.544  14.991 -0.2152 -0.0556  0.4040
  411MPD2    H5 6195   2.308   1.458  14.939  0.5915  0.0743 -0.0278
  411MPD2    N1 6196   2.510   1.988  14.933 -0.4318 -0.0268  0.5288
  411MPD2    H7 6197   2.559   2.041  14.862 -0.6769  0.4224  0.6911
  412TMC3    C1 6198   2.149   1.452  15.129  0.1785  0.6053 -0.0012
  412TMC3    C2 6199   2.015   1.493  15.147 -0.5198 -0.1878  0.8697
  412TMC3    C3 6200   1.917   1.423  15.093 -0.2745  0.8749  0.4761
  412TMC3    C4 6201   2.179   1.343  15.049  0.2195 -0.7172  0.0986
  412TMC3    C5 6202   2.077   1.256  15.009 -0.0656  0.0821 -0.3479
  412TMC3    C6 6203   1.947   1.296  15.026 -0.8675 -0.1754 -0.1255
  412TMC3     C 6204   2.249   1.558  15.113  0.0842 -0.0325 -0.3772
  412TMC3     O 6205   2.245   1.644  15.198 -0.7163  0.8200 -0.1086
  412TMC3     H 6206   1.992   1.592  15.184  0.2694  1.0922 -2.0614
  412TMC3    H1 6207   2.282   1.310  15.041  0.7105  0.6057  0.9996
  412TMC3    H2 6208   1.873   1.234  14.977  0.6821 -1.1575 -1.2179
  412TMC3    C7 6209   2.099   1.241  14.866 -0.6102  0.4408 -1.3493
  412TMC3    C8 6210   1.831   1.507  15.021  0.7299  0.2793 -0.0935
  412TMC3    O1 6211   2.184   1.313  14.816 -0.7697 -0.3246  0.2765
  412TMC3    O2 6212   1.861   1.619  15.006 -0.0275 -0.1098 -0.2971
  413MPD2     C 6213   4.116   0.067  16.146 -1.0190  0.7428 -0.1043
  413MPD2    C1 6214   4.117   0.074  16.007 -0.4735 -0.7580 -0.0368
  413MPD2    C2 6215   4.238   0.051  15.936  0.1009  0.0561 -0.4464
  413MPD2    C3 6216   4.355   0.017  16.006  0.0776 -0.0834  0.3183
  413MPD2    C4 6217   4.357   0.022  16.143  0.2406 -0.5735 -0.2720
  413MPD2    C5 6218   4.237   0.041  16.210  0.2932 -0.2051  0.5140
  413MPD2     H 6219   4.240   0.049  15.828  0.7535 -0.4781 -0.4283
  413MPD2    H1 6220   4.451   0.017  16.196 -0.5484 -0.0743  1.1571
  413MPD2    H2 6221   4.031   0.097  16.206 -1.7192  0.2765 -0.8745
  413MPD2    H3 6222   4.243   0.043  16.319  0.3323  2.8761  0.4543
  413MPD2     N 6223   4.469   4.705  15.928  0.2360 -0.6960 -0.6367
  413MPD2    H5 6224   4.466   4.709  15.827 -2.3149 -0.8495 -0.5627
  413MPD2    N1 6225   4.002   0.090  15.926  0.3513 -0.0466  0.1330
  413MPD2    H7 6226   4.013   0.105  15.827  0.2651  0.1355  0.1492
  414TMC3    C1 6227   4.653   4.583  15.867  0.1152 -0.3180 -0.3931
  414TMC3    C2 6228   4.656   4.448  15.882 -1.2769 -0.0333  0.5482
  414TMC3    C3 6229   4.625   4.379  15.766  0.3873 -0.4349  0.2023
  414TMC3    C4 6230   4.625   4.643  15.743 -0.0469  0.5873  0.3269
  414TMC3    C5 6231   4.603   4.557  15.632  0.1928 -0.2043  0.0812
  414TMC3    C6 6232   4.591   4.424  15.648  0.4635  0.5643  0.0296
  414TMC3     C 6233   4.591   4.655  15.973  0.1221 -0.0190 -0.0432
  414TMC3     O 6234   4.619   4.620  16.087 -0.1858 -0.1171 -0.0205
  414TMC3     H 6235   4.643   4.401  15.978  1.7505 -4.1361 -1.0363
  414TMC3    H1 6236   4.638   0.012  15.725  0.2256  0.1345 -2.2483
  414TMC3    H2 6237   4.586   4.356  15.563  1.0753 -1.2043  1.4087
  414TMC3    C7 6238   4.540   4.627  15.525  0.0604 -0.6595  0.1781
  414TMC3    C8 6239   4.625   4.235  15.773  0.5048  0.2579  0.8576
  414TMC3    O1 6240   4.456   4.707  15.561  0.0536 -0.1669  0.1799
  414TMC3    O2 6241   4.541   4.189  15.696 -0.5468  0.3834 -0.2057
  415TMC3    C1 6242   0.608   2.369  10.578 -0.3855 -0.5484  0.3641
  415TMC3    C2 6243   0.718   2.430  10.528  0.2911  0.3151 -0.2656
  415TMC3    C3 6244   0.768   2.369  10.420  0.1144  0.5799  0.7375
  415TMC3    C4 6245   0.549   2.261  10.524 -0.8821  0.3497 -0.1233
  415TMC3    C5 6246   0.599   2.203  10.411 -0.1017 -0.3346 -0.0199
  415TMC3    C6 6247   0.720   2.252  10.365  0.0899 -0.8792  0.7978
  415TMC3     C 6248   0.534   2.422  10.697 -0.4115  0.1332 -1.4493
  415TMC3     O 6249   0.423   2.375  10.722  0.1244 -0.2658  0.4094
  415TMC3     H 6250   0.758   2.520  10.573  1.7016 -0.3989 -0.1003
  415TMC3    H1 6251   0.473   2.210  10.581 -0.3608  2.0028  2.0316
  415TMC3    H2 6252   0.763   2.209  10.275 -0.0228 -0.2210  0.4213
  415TMC3    C7 6253   0.536   2.106  10.330  0.2992 -0.2969 -0.2677
  415TMC3    C8 6254   0.900   2.418  10.382  0.7146 -0.3912 -0.8213
  415TMC3    O1 6255   0.575   2.078  10.214  0.1263 -0.3608 -0.3055
  415TMC3    O2 6256   0.972   2.334  10.335 -0.3534 -0.2499 -0.0913
  416MPD2     C 6257   2.171   1.539  11.571 -0.1045 -0.0140  0.3075
  416MPD2    C1 6258   2.069   1.473  11.639  0.4564  0.2156  0.1754
  416MPD2    C2 6259   2.024   1.352  11.589  0.4423 -0.2123 -0.1920
  416MPD2    C3 6260   2.068   1.300  11.474  0.3861 -0.0336  0.2531
  416MPD2    C4 6261   2.168   1.367  11.407 -0.6662 -1.0814  0.3063
  416MPD2    C5 6262   2.226   1.484  11.454 -0.2361  0.0591 -1.1008
  416MPD2     H 6263   1.959   1.292  11.652 -0.8055  0.9850 -0.3281
  416MPD2    H1 6264   2.217   1.309  11.330  1.7430  0.5038  0.6445
  416MPD2    H2 6265   2.210   1.628  11.618 -2.9862  0.3634  1.9730
  416MPD2    H3 6266   2.313   1.530  11.407  0.7050  0.0789  0.6235
  416MPD2     N 6267   2.020   1.180  11.429 -0.7382 -0.8720  0.0677
  416MPD2    H5 6268   1.940   1.136  11.472 -1.3729  0.4708  0.2413
  416MPD2    N1 6269   2.019   1.530  11.761  0.3975  0.6432 -0.4212
  416MPD2    H7 6270   2.060   1.622  11.779  2.3474 -0.2079 -0.5313
  417TMC3    C1 6271   1.867   1.560  11.939 -0.7728 -0.2405  0.3430
  417TMC3    C2 6272   1.841   1.511  12.066 -0.5704 -0.4010  0.0312
  417TMC3    C3 6273   1.742   1.579  12.134 -0.4493  0.2250  0.1215
  417TMC3    C4 6274   1.820   1.675  11.881  0.6393  0.1706 -0.0266
  417TMC3    C5 6275   1.726   1.741  11.951  0.1353  0.4515 -0.0727
  417TMC3    C6 6276   1.691   1.698  12.080 -0.3129 -0.2618  0.0895
  417TMC3     C 6277   1.927   1.469  11.847 -0.1479  0.4820  0.3185
  417TMC3     O 6278   1.885   1.354  11.850  0.1115 -0.0924  0.7625
  417TMC3     H 6279   1.877   1.414  12.098 -0.1700 -0.5521 -0.8850
  417TMC3    H1 6280   1.856   1.722  11.790 -1.8367 -0.7438 -1.4745
  417TMC3    H2 6281   1.617   1.747  12.141 -2.0516 -0.6579 -1.7237
  417TMC3    C7 6282   1.647   1.847  11.893 -0.2194 -0.3395 -0.0675
  417TMC3    C8 6283   1.724   1.566  12.271  0.3364 -0.6134  0.1105
  417TMC3    O1 6284   1.698   1.904  11.795  0.0273  0.2241  0.0196
  417TMC3    O2 6285   1.612   1.591  12.311  0.0457  0.0138  0.6539
  418TMC3    C1 6286   0.178   4.143   0.718 -0.0605 -0.0960 -0.1119
  418TMC3    C2 6287   0.044   4.154   0.705 -0.7447  0.4035 -0.0074
  418TMC3    C3 6288   4.710   4.049   0.752 -0.3810 -0.4644 -0.8194
  418TMC3    C4 6289   0.234   4.038   0.779 -0.1780 -0.5755  0.2105
  418TMC3    C5 6290   0.156   3.955   0.850  0.4529 -0.3896 -0.2644
  418TMC3    C6 6291   0.025   3.948   0.828  0.3774  0.8446 -0.0812
  418TMC3     C 6292   0.249   4.214   0.602  0.0837  0.6224 -0.3794
  418TMC3     O 6293   0.214   4.324   0.566  0.0553 -0.2263 -0.6977
  418TMC3     H 6294   4.737   4.227   0.638 -0.8797 -0.4524 -0.8650
  418TMC3    H1 6295   0.341   4.022   0.771  0.0211  0.8003  0.0607
  418TMC3    H2 6296   4.700   3.874   0.877 -0.0851  1.0864 -0.3025
  418TMC3    C7 6297   0.213   3.830   0.894 -0.0278 -0.1647 -0.4692
  418TMC3    C8 6298   4.646   3.982   0.642 -0.7395  0.0281 -0.1099
  418TMC3    O1 6299   0.158   3.725   0.863 -0.0761  0.4443 -0.7637
  418TMC3    O2 6300   4.591   4.048   0.558  0.4037 -0.1697  0.9022
  419MPD2     C 6301   4.215   1.747  13.299 -0.3273 -0.1155 -0.5747
  419MPD2    C1 6302   4.110   1.820  13.239  0.7853  0.8562  0.0591
  419MPD2    C2 6303   4.010   1.870  13.322 -0.3906 -0.0027 -0.4088
  419MPD2    C3 6304   4.010   1.846  13.456  0.3868  0.5697 -0.5560
  419MPD2    C4 6305   4.117   1.779  13.518  0.5731  0.0521 -0.0115
  419MPD2    C5 6306   4.221   1.734  13.440  0.3066  0.9250  0.3338
  419MPD2     H 6307   3.924   1.917  13.276  0.5265 -0.8933 -3.0697
  419MPD2    H1 6308   4.140   1.771  13.623 -1.1276  2.8614  0.5807
  419MPD2    H2 6309   4.304   1.733  13.239 -0.9950 -0.7508 -1.4155
  419MPD2    H3 6310   4.308   1.693  13.491  0.2824  0.6535  0.1566
  419MPD2     N 6311   3.911   1.910  13.531  0.0005  0.1946  0.7039
  419MPD2    H5 6312   3.841   1.969  13.487  0.4054  0.2850  0.1716
  419MPD2    N1 6313   4.089   1.825  13.100 -0.2402 -0.7462  0.1813
  419MPD2    H7 6314   4.013   1.881  13.062  1.5132  0.1553 -1.9571
  420TMC3    C1 6315   3.774   1.955  13.739  0.3401  0.6817  0.9103
  420TMC3    C2 6316   3.715   2.054  13.674  0.1108  0.1731 -0.0345
  420TMC3    C3 6317   3.629   2.133  13.742  0.3984 -0.4749  0.0974
  420TMC3    C4 6318   3.752   1.934  13.871  0.1361  0.1655 -0.6821
  420TMC3    C5 6319   3.661   2.012  13.939  0.0080 -0.2877  0.1611
  420TMC3    C6 6320   3.594   2.115  13.874 -0.2644 -0.1787 -0.0698
  420TMC3     C 6321   3.889   1.884  13.668 -0.5392  0.4674  0.5358
  420TMC3     O 6322   3.943   1.801  13.735 -0.1033  0.1027 -0.0465
  420TMC3     H 6323   3.733   2.090  13.573  0.9466 -0.1286  0.0048
  420TMC3    H1 6324   3.793   1.852  13.927  1.6117  0.4073 -1.4234
  420TMC3    H2 6325   3.534   2.187  13.927  1.5812  1.7465 -0.6098
  420TMC3    C7 6326   3.603   1.953  14.060  0.4564  0.4841  0.1082
  420TMC3    C8 6327   3.588   2.263  13.679  0.7103 -0.5605  0.1926
  420TMC3    O1 6328   3.666   1.860  14.107 -0.2514 -0.4814 -0.1162
  420TMC3    O2 6329   3.661   2.306  13.589  0.7643 -0.1523 -0.0511
  421TMC3    C1 6330   0.125   2.917  14.007  0.4693  0.2514  0.1710
  421TMC3    C2 6331   0.058   2.994  14.096  0.5825 -0.1400  0.1495
  421TMC3    C3 6332   0.112   3.009  14.222 -0.0265 -0.7071  0.1431
  421TMC3    C4 6333   0.245   2.859  14.033 -0.8480 -0.1462  0.6542
  421TMC3    C5 6334   0.308   2.887  14.150  0.5285 -0.2797  0.4377
  421TMC3    C6 6335   0.241   2.958  14.251 -0.0304  0.4127 -0.4009
  421TMC3     C 6336   0.095   2.925  13.865 -0.8210 -0.2367  0.2424
  421TMC3     O 6337   0.187   2.919  13.783  0.4013 -0.9617 -0.3575
  421TMC3     H 6338   4.703   3.042  14.065  0.8772  0.1457 -0.2939
  421TMC3    H1 6339   0.301   2.807  13.956 -0.3019  0.2390  0.7943
  421TMC3    H2 6340   0.280   2.970  14.351  0.5171  1.2462 -0.7148
  421TMC3    C7 6341   0.441   2.842  14.174 -0.0644 -0.1524 -0.4847
  421TMC3    C8 6342   0.056   3.109  14.314  0.6873 -0.4865 -0.4677
  421TMC3    O1 6343   0.508   2.911  14.245  0.0591  0.1298 -0.1204
  421TMC3    O2 6344   0.131   3.133  14.409  0.2720  0.0084  0.6720
  422TMC3    C1 6345   2.668   4.544  12.845  0.2988  0.0020  0.1996
  422TMC3    C2 6346   2.625   4.639  12.939  0.1706  0.1434  0.0083
  422TMC3    C3 6347   2.525   4.609  13.024 -0.0852 -0.1845 -0.0840
  422TMC3    C4 6348   2.613   4.416  12.844 -0.5431  0.3158  0.1522
  422TMC3    C5 6349   2.510   4.393  12.926 -1.0015  0.2097  0.4817
  422TMC3    C6 6350   2.471   4.483  13.025  0.3073 -1.3104  0.5567
  422TMC3     C 6351   2.750   4.594  12.737  0.5129  0.3373  0.2486
  422TMC3     O 6352   2.778   4.715  12.736 -0.7165 -0.4282  0.6577
  422TMC3     H 6353   2.660   0.003  12.929 -2.4743  1.2966  2.5543
  422TMC3    H1 6354   2.636   4.347  12.764 -1.3389  1.1156 -0.7517
  422TMC3    H2 6355   2.392   4.467  13.096 -1.2822  0.8704 -0.7225
  422TMC3    C7 6356   2.439   4.271  12.907 -0.1325 -0.5177 -0.4284
  422TMC3    C8 6357   2.441   4.713  13.070  0.2806 -0.4866 -0.0002
  422TMC3    O1 6358   2.491   4.193  12.830 -0.1627 -0.6173  0.2587
  422TMC3    O2 6359   2.321   4.708  13.053 -0.0663  0.1338  0.3169
  423MPD2     C 6360   4.420   1.081   0.974 -0.3825  0.9197 -0.3963
  423MPD2    C1 6361   4.463   0.952   0.993  0.5382 -0.1324  0.4412
  423MPD2    C2 6362   4.455   0.873   0.881  0.0388 -0.3491 -0.0553
  423MPD2    C3 6363   4.420   0.919   0.756  0.3045  0.6107 -0.7408
  423MPD2    C4 6364   4.389   1.048   0.739  0.1598 -0.0125 -0.8628
  423MPD2    C5 6365   4.383   1.127   0.851  0.0128  0.0767 -0.8922
  423MPD2     H 6366   4.479   0.769   0.896  4.8405  0.6575 -0.7096
  423MPD2    H1 6367   4.365   1.095   0.645 -2.2637  1.9463  0.7249
  423MPD2    H2 6368   4.402   1.145   1.059 -1.4371 -2.3715  1.8515
  423MPD2    H3 6369   4.356   1.232   0.841 -4.1511 -1.0293 -0.8222
  423MPD2     N 6370   4.404   0.831   0.643 -0.3158  0.1148 -0.1012
  423MPD2    H5 6371   4.389   0.873   0.552 -1.2358 -1.7344 -0.8097
  423MPD2    N1 6372   4.497   0.890   1.115 -0.6471 -0.1333 -0.0573
  423MPD2    H7 6373   4.504   0.789   1.120  2.4490  0.0421 -0.9577
  424TMC3    C1 6374   4.519   0.856   1.340 -0.2960 -0.1813  0.1908
  424TMC3    C2 6375   4.627   0.774   1.343  0.1678  0.3675  0.2382
  424TMC3    C3 6376   4.631   0.686   1.451  0.0420 -0.5625 -0.5464
  424TMC3    C4 6377   4.421   0.868   1.436  0.7396  0.1605  0.1474
  424TMC3    C5 6378   4.421   0.772   1.531 -0.6075  0.0997  0.2952
  424TMC3    C6 6379   4.523   0.683   1.541  0.4424 -0.5304  0.0443
  424TMC3     C 6380   4.521   0.952   1.229  0.0274 -0.6098 -0.0341
  424TMC3     O 6381   4.491   1.068   1.251 -0.6441 -0.2474  0.3780
  424TMC3     H 6382   4.700   0.769   1.263  0.7353  0.2795  0.7614
  424TMC3    H1 6383   4.347   0.947   1.434 -0.8251 -1.2845  0.8331
  424TMC3    H2 6384   4.506   0.605   1.614  0.0865  0.1958  0.7470
  424TMC3    C7 6385   4.326   0.769   1.638  0.8684  0.1894  0.5516
  424TMC3    C8 6386   4.732   0.579   1.454 -0.8033 -0.5594  0.2932
  424TMC3    O1 6387   4.348   0.718   1.748 -0.2062  0.5834  0.1595
  424TMC3    O2 6388   4.706   0.484   1.524 -0.3034  0.5033 -0.1188
  425MPD2     C 6389   3.135   0.158  17.444 -0.1117 -0.2783 -0.3699
  425MPD2    C1 6390   3.074   0.037  17.445  0.4882  0.6838 -0.1523
  425MPD2    C2 6391   2.936   0.037  17.475  0.1148  0.6556  0.1506
  425MPD2    C3 6392   2.873   0.155  17.497  0.1398  0.3821 -0.4242
  425MPD2    C4 6393   2.935   0.282  17.480 -0.5159  0.0561  0.2446
  425MPD2    C5 6394   3.070   0.278  17.461  0.2993 -0.4064  0.5677
  425MPD2     H 6395   2.869   4.690  17.467 -0.8180  1.5350 -1.3849
  425MPD2    H1 6396   2.887   0.379  17.494  1.5586  1.0938  0.1520
  425MPD2    H2 6397   3.242   0.162  17.430 -0.4995 -1.2705 -3.5913
  425MPD2    H3 6398   3.129   0.369  17.462  0.4094 -0.4865  1.4328
  425MPD2     N 6399   2.737   0.144  17.538  0.1222  0.5513 -0.0293
  425MPD2    H5 6400   2.691   0.059  17.506  1.2972  0.2072 -0.7678
  425MPD2    N1 6401   3.149   4.661  17.407 -0.2103 -0.0981 -0.0308
  425MPD2    H7 6402   3.240   4.680  17.367 -0.4131 -3.0527 -1.9048
  426TMC3    C1 6403   3.189   4.436  17.353  0.2281 -0.4506 -0.0064
  426TMC3    C2 6404   3.232   4.438  17.224  0.2135  0.6971  0.1434
  426TMC3    C3 6405   3.271   4.320  17.167  0.8771  0.0474  0.3518
  426TMC3    C4 6406   3.199   4.320  17.427  0.4712  0.1705  0.1697
  426TMC3    C5 6407   3.232   4.207  17.365 -0.0809 -0.7358 -0.1039
  426TMC3    C6 6408   3.275   4.205  17.236 -0.6214  0.0573 -0.2122
  426TMC3     C 6409   3.099   4.534  17.408  0.2934  0.2956 -0.1312
  426TMC3     O 6410   3.014   4.486  17.485  0.3776 -0.1452  0.3659
  426TMC3     H 6411   3.218   4.524  17.160 -0.6869  0.6748  0.3090
  426TMC3    H1 6412   3.190   4.328  17.535  0.3957 -1.8702  0.3184
  426TMC3    H2 6413   3.320   4.117  17.191  1.6604  0.3506  1.5248
  426TMC3    C7 6414   3.134   4.106  17.399 -0.8014 -0.1002  0.0800
  426TMC3    C8 6415   3.266   4.301  17.022  0.3788 -0.2800  0.0066
  426TMC3    O1 6416   3.157   3.991  17.358  0.0146 -0.4866  0.6576
  426TMC3    O2 6417   3.255   4.183  16.987 -0.5575  0.4233  0.1141
  427MPD2     C 6418   1.657   2.034  15.076 -0.2494 -0.1272  0.1409
  427MPD2    C1 6419   1.618   2.027  15.203 -0.4068 -0.4345  0.1882
  427MPD2    C2 6420   1.484   2.055  15.236  0.1326 -1.0007 -0.0747
  427MPD2    C3 6421   1.392   2.094  15.143  1.0906  0.1844 -0.4000
  427MPD2    C4 6422   1.436   2.115  15.014  0.9521  0.4101 -0.2249
  427MPD2    C5 6423   1.565   2.081  14.984  0.2904  1.0979 -0.6736
  427MPD2     H 6424   1.461   2.056  15.342  0.7687  1.7292  0.0543
  427MPD2    H1 6425   1.378   2.143  14.927 -2.0011 -1.1858  1.2188
  427MPD2    H2 6426   1.755   2.003  15.042 -0.1659 -1.3347  1.4856
  427MPD2    H3 6427   1.608   2.090  14.885  0.7702 -0.8644 -0.6282
  427MPD2     N 6428   1.258   2.125  15.170 -0.2665  0.4105 -0.5508
  427MPD2    H5 6429   1.203   2.138  15.086  2.3387 -0.0317 -2.3415
  427MPD2    N1 6430   1.703   1.979  15.310  0.1822  0.4931 -0.0998
  427MPD2    H7 6431   1.662   1.965  15.402  2.3138 -0.2162  0.7415
  428TMC3    C1 6432   1.881   1.884  15.439  0.3842 -0.3952  0.1988
  428TMC3    C2 6433   1.799   1.785  15.496 -0.2956  0.3358 -0.2309
  428TMC3    C3 6434   1.861   1.704  15.583 -0.0475 -0.4598 -0.0088
  428TMC3    C4 6435   2.010   1.898  15.479 -0.0233 -0.3645  0.1882
  428TMC3    C5 6436   2.056   1.832  15.582 -0.5065  0.0461 -0.4680
  428TMC3    C6 6437   1.983   1.730  15.640 -0.4654 -0.1970  0.5634
  428TMC3     C 6438   1.835   1.945  15.313 -0.1442  0.1639  0.2751
  428TMC3     O 6439   1.923   1.974  15.233 -0.0979  0.3164  0.2381
  428TMC3     H 6440   1.702   1.760  15.456  0.3712  0.8764 -2.1870
  428TMC3    H1 6441   2.056   1.980  15.426  1.1370 -0.8733  0.4126
  428TMC3    H2 6442   2.041   1.677  15.714  2.8500  0.7561 -1.3310
  428TMC3    C7 6443   2.172   1.883  15.647  1.0268  0.5686 -0.5962
  428TMC3    C8 6444   1.776   1.622  15.660 -0.1572 -0.6476  0.3160
  428TMC3    O1 6445   2.187   1.853  15.759  0.1972 -0.1372  0.0639
  428TMC3    O2 6446   1.663   1.612  15.619  0.0011  0.2533  0.2522
  429MPD2     C 6447   2.620   2.153   0.129 -0.3480 -0.3408  0.1598
  429MPD2    C1 6448   2.733   2.115   0.059 -0.2570  0.1142  0.3670
  429MPD2    C2 6449   2.802   2.212  17.739  0.5304 -0.4767  0.5790
  429MPD2    C3 6450   2.756   2.342  17.726  0.6614 -0.1955  0.3708
  429MPD2    C4 6451   2.655   2.382   0.065 -0.2404  0.2388 -0.4552
  429MPD2    C5 6452   2.586   2.287   0.133 -0.0789 -0.1878  0.7567
  429MPD2     H 6453   2.889   2.185  17.679  0.3642  0.6839 -0.1772
  429MPD2    H1 6454   2.616   2.483   0.071 -2.3433 -0.3583 -3.7523
  429MPD2    H2 6455   2.547   2.088   0.175 -2.5593  1.7638 -0.3979
  429MPD2    H3 6456   2.496   2.316   0.187 -1.8940  1.8754 -3.3998
  429MPD2     N 6457   2.827   2.424  17.632 -0.6194  0.0939  0.1210
  429MPD2    H5 6458   2.898   2.377  17.576 -1.0166  0.7225 -0.9091
  429MPD2    N1 6459   2.782   1.984   0.031 -0.2676  0.2801  0.0370
  429MPD2    H7 6460   2.871   1.985  17.730 -0.2591  1.1540  0.0761
  430TMC3    C1 6461   2.883   2.615  17.498  0.4041  0.4602  0.1925
  430TMC3    C2 6462   2.848   2.738  17.455 -0.4252  0.5173  0.1840
  430TMC3    C3 6463   2.909   2.785  17.340 -0.4594 -0.5536  0.0892
  430TMC3    C4 6464   2.977   2.538  17.433 -0.0854  0.3684 -0.6955
  430TMC3    C5 6465   3.039   2.588  17.320 -0.3207 -0.1613  0.1679
  430TMC3    C6 6466   3.011   2.712  17.275  0.5627  0.2162  0.0217
  430TMC3     C 6467   2.816   2.555  17.620 -0.6608  0.2888 -0.0874
  430TMC3     O 6468   2.740   2.623  17.682 -0.0655 -0.2288 -0.9512
  430TMC3     H 6469   2.772   2.794  17.509  0.2694  1.9239 -0.2983
  430TMC3    H1 6470   2.999   2.440  17.475 -1.3121  0.2305 -0.3716
  430TMC3    H2 6471   3.078   2.761  17.206 -0.1777  0.5019 -0.4989
  430TMC3    C7 6472   3.036   2.487  17.218 -0.8034 -0.1695 -0.1491
  430TMC3    C8 6473   2.823   2.861  17.251  0.2936  0.1127  0.0241
  430TMC3    O1 6474   3.027   2.373  17.261  0.2913 -0.4810  0.4354
  430TMC3    O2 6475   2.727   2.915  17.305  0.3611 -0.5725 -0.3561
  431MPD2     C 6476   4.112   2.406  12.328 -0.2972 -0.1940 -0.2317
  431MPD2    C1 6477   4.099   2.421  12.467 -0.0319 -0.3074  0.3805
  431MPD2    C2 6478   4.060   2.308  12.540 -0.6270 -0.3579  0.8686
  431MPD2    C3 6479   4.051   2.183  12.470 -0.1033  0.0908 -0.5610
  431MPD2    C4 6480   4.073   2.169  12.332  0.3975  0.2196  0.6136
  431MPD2    C5 6481   4.101   2.283  12.262 -0.0750 -0.1466 -0.0588
  431MPD2     H 6482   4.063   2.314  12.648 -2.5952  0.7993  0.8483
  431MPD2    H1 6483   4.073   2.075  12.278  1.1710  0.0447  0.9031
  431MPD2    H2 6484   4.122   2.495  12.266  3.1606  0.5269  1.3698
  431MPD2    H3 6485   4.100   2.278  12.154  1.7254 -2.6326  0.0341
  431MPD2     N 6486   4.029   2.067  12.544  0.5013 -0.6794  0.1527
  431MPD2    H5 6487   4.053   1.979  12.499 -0.3344  0.2624 -2.1647
  431MPD2    N1 6488   4.109   2.549  12.530 -0.2129  0.4037  0.1538
  431MPD2    H7 6489   4.096   2.540  12.630  1.1792  1.0842  0.3932
  432TMC3    C1 6490   3.991   1.917  12.717  0.3755 -0.2112  0.0102
  432TMC3    C2 6491   3.999   1.820  12.617  0.3968  0.7919  0.3312
  432TMC3    C3 6492   4.070   1.709  12.652 -0.4346  0.0597  0.1956
  432TMC3    C4 6493   4.053   1.904  12.841  0.1231 -0.2785  0.7188
  432TMC3    C5 6494   4.107   1.786  12.871 -0.0236 -0.8610 -0.3250
  432TMC3    C6 6495   4.125   1.692  12.774 -0.3268  0.1466  0.0959
  432TMC3     C 6496   3.994   2.061  12.680  0.3391  0.0139 -0.0713
  432TMC3     O 6497   3.975   2.150  12.758  0.4824 -0.0826  0.5831
  432TMC3     H 6498   3.976   1.840  12.513 -2.1697  2.6143  1.2772
  432TMC3    H1 6499   4.040   1.979  12.919 -0.9168  1.3969 -1.0659
  432TMC3    H2 6500   4.166   1.595  12.799 -3.1835 -0.8774  0.7529
  432TMC3    C7 6501   4.160   1.761  13.005 -0.2128 -0.0810  0.0589
  432TMC3    C8 6502   4.132   1.629  12.552  0.3432  0.0027  0.5183
  432TMC3    O1 6503   4.240   1.668  13.017 -0.5103  0.3832  0.1487
  432TMC3    O2 6504   4.086   1.633  12.439 -0.3248 -0.3081 -0.0778
  433MPD2     C 6505   2.877   1.112  11.139 -0.2396 -0.4983  0.2476
  433MPD2    C1 6506   2.910   0.982  11.174 -0.0942  1.0415 -0.1451
  433MPD2    C2 6507   2.943   0.962  11.309  0.3463  0.4250 -0.0065
  433MPD2    C3 6508   2.944   1.056  11.406  0.1034 -0.4658 -0.0118
  433MPD2    C4 6509   2.924   1.187  11.364  0.4790 -0.1323 -0.3245
  433MPD2    C5 6510   2.895   1.211  11.233  0.9571  0.5897  0.2176
  433MPD2     H 6511   2.955   0.864  11.353 -0.2374 -0.7255 -2.3865
  433MPD2    H1 6512   2.925   1.264  11.441  0.8087 -1.0961  0.6245
  433MPD2    H2 6513   2.843   1.138  11.040  0.4897 -0.8616 -0.0980
  433MPD2    H3 6514   2.859   1.310  11.206  0.3991  0.0577 -0.9527
  433MPD2     N 6515   2.960   1.019  11.544 -0.6297 -0.3480  0.4407
  433MPD2    H5 6516   2.964   0.918  11.555 -0.3105 -0.3852 -0.0017
  433MPD2    N1 6517   2.906   0.872  11.082  0.3769  0.1422  0.3798
  433MPD2    H7 6518   2.910   0.906  10.986  0.3963 -1.8503 -0.3180
  434TMC3    C1 6519   2.897   0.647  11.000 -0.1948 -0.2246 -0.9596
  434TMC3    C2 6520   2.905   0.520  11.037  0.0110 -0.1620  0.6746
  434TMC3    C3 6521   2.931   0.433  10.935  0.0310 -0.4876 -0.0529
  434TMC3    C4 6522   2.891   0.691  10.870  0.2653 -0.0795  0.5175
  434TMC3    C5 6523   2.896   0.595  10.774  0.1222  1.3283 -0.5581
  434TMC3    C6 6524   2.913   0.463  10.804  0.1509 -0.0652  0.3576
  434TMC3     C 6525   2.932   0.739  11.113 -0.4798 -0.2400 -0.5187
  434TMC3     O 6526   2.964   0.690  11.225  0.3900 -0.6420  0.1491
  434TMC3     H 6527   2.892   0.486  11.139 -1.4362  1.4299  1.0278
  434TMC3    H1 6528   2.895   0.795  10.841 -0.3356  1.0458  4.5196
  434TMC3    H2 6529   2.935   0.392  10.725  0.4589  1.6414 -1.0627
  434TMC3    C7 6530   2.795   0.604  10.665 -0.1543  0.1022  0.3148
  434TMC3    C8 6531   2.964   0.295  10.985  0.2759 -0.1574  0.2605
  434TMC3    O1 6532   2.822   0.669  10.564 -0.6178 -0.2566  0.4823
  434TMC3    O2 6533   2.944   0.274  11.104 -0.1207  0.2092 -0.6211
  435MPD2     C 6534   0.068   0.635  15.618  0.7281 -0.2387  0.1383
  435MPD2    C1 6535   0.019   0.616  15.744  0.4759 -0.2427  0.5024
  435MPD2    C2 6536   0.102   0.604  15.853 -0.4563 -0.2695 -0.0439
  435MPD2    C3 6537   0.241   0.591  15.845  0.1211  0.0451 -0.1675
  435MPD2    C4 6538   0.291   0.593  15.716 -0.3248 -0.2057 -0.0701
  435MPD2    C5 6539   0.206   0.620  15.606 -0.7947  0.2449  0.7610
  435MPD2     H 6540   0.049   0.620  15.946  0.2804 -1.4124  0.5603
  435MPD2    H1 6541   0.399   0.583  15.703 -0.2426  1.5666 -0.7211
  435MPD2    H2 6542   0.012   0.648  15.526  1.0824 -0.7063 -0.1495
  435MPD2    H3 6543   0.244   0.642  15.507 -1.0296  0.2482  0.6722
  435MPD2     N 6544   0.322   0.565  15.958 -0.0527  0.6891 -0.2677
  435MPD2    H5 6545   0.281   0.557  16.051 -0.6952  0.5487 -0.5658
  435MPD2    N1 6546   4.620   0.641  15.770 -0.0539  0.2058  0.6462
  435MPD2    H7 6547   4.592   0.662  15.865 -1.3787  0.3579  0.2277
  436TMC3    C1 6548   4.283   0.857  15.818  0.2164 -0.4608  0.0631
  436TMC3    C2 6549   4.394   0.788  15.799 -0.2173 -0.1970  0.2713
  436TMC3    C3 6550   4.414   0.716  15.683  0.3841 -0.2460  0.1969
  436TMC3    C4 6551   4.196   0.880  15.712  0.0329  0.6518 -0.1034
  436TMC3    C5 6552   4.227   0.817  15.594 -0.3221  0.2729 -0.6601
  436TMC3    C6 6553   4.332   0.729  15.580  0.1971 -0.4444 -0.4137
  436TMC3     C 6554   4.297   0.962  15.915  0.3185  0.3495 -0.1374
  436TMC3     O 6555   4.410   0.995  15.945  0.2522 -0.0669  0.2040
  436TMC3     H 6556   4.469   0.779  15.876 -0.8529  1.0019  1.0368
  436TMC3    H1 6557   4.121   0.956  15.729  0.3025  0.9839 -0.4048
  436TMC3    H2 6558   4.349   0.684  15.483 -0.6628 -1.4856 -0.0829
  436TMC3    C7 6559   4.187   0.881  15.472  0.1714  0.0963 -0.2288
  436TMC3    C8 6560   4.529   0.627  15.669 -0.8372  0.2914 -0.4659
  436TMC3    O1 6561   4.192   1.002  15.469 -0.1250  0.1569 -0.0728
  436TMC3    O2 6562   4.537   0.591  15.553  0.2173 -0.1499 -0.2681
  437TMC3    C1 6563   3.783   3.361  11.823  0.4188  0.9611 -0.1768
  437TMC3    C2 6564   3.882   3.278  11.792 -0.3051 -1.0819  0.6159
  437TMC3    C3 6565   3.929   3.199  11.893 -0.2344 -0.3889 -1.2296
  437TMC3    C4 6566   3.740   3.387  11.955  0.3629  0.2222 -0.0939
  437TMC3    C5 6567   3.795   3.309  12.058  0.1906  0.3654 -0.2958
  437TMC3    C6 6568   3.888   3.209  12.028 -0.5785 -0.5477 -0.6156
  437TMC3     C 6569   3.695   3.413  11.714  0.8752  0.2659 -0.6383
  437TMC3     O 6570   3.626   3.515  11.741  0.2180  0.2909  0.3636
  437TMC3     H 6571   3.908   3.266  11.688 -1.3915 -0.8293  0.3078
  437TMC3    H1 6572   3.648   3.443  11.962 -0.6870 -1.6514  1.2679
  437TMC3    H2 6573   3.915   3.133  12.101 -1.4446 -0.2366  0.0272
  437TMC3    C7 6574   3.745   3.337  12.189  0.0591  0.1393 -0.6230
  437TMC3    C8 6575   4.030   3.113  11.855  0.7584 -0.0840 -0.2995
  437TMC3    O1 6576   3.652   3.421  12.189 -0.0672  0.4674  0.1671
  437TMC3    O2 6577   4.083   3.129  11.746  0.0584  0.1796 -0.0675
  438MPD2     C 6578   0.752   3.658  16.861  0.2490 -0.0940  0.2230
  438MPD2    C1 6579   0.800   3.539  16.915  0.4003 -0.7519 -0.5410
  438MPD2    C2 6580   0.794   3.537  17.054 -0.2624 -0.0504 -0.0062
  438MPD2    C3 6581   0.730   3.629  17.136  0.8542  0.1386  0.3984
  438MPD2    C4 6582   0.685   3.738  17.068  0.2842  0.3903 -0.3924
  438MPD2    C5 6583   0.706   3.759  16.934 -0.7225  0.1348  0.3297
  438MPD2     H 6584   0.824   3.442  17.097  1.5687 -0.1560 -1.4764
  438MPD2    H1 6585   0.648   3.825  17.121  0.5478 -0.7120  1.6110
  438MPD2    H2 6586   0.743   3.675  16.755  0.6397  0.9514  0.3635
  438MPD2    H3 6587   0.702   3.857  16.888  0.6804 -0.0269 -0.1228
  438MPD2     N 6588   0.717   3.616  17.278 -0.1818  0.6435 -1.2151
  438MPD2    H5 6589   0.650   3.680  17.319 -2.0352 -1.9284 -0.2331
  438MPD2    N1 6590   0.850   3.432  16.841 -0.1257 -0.1585  0.4169
  438MPD2    H7 6591   0.890   3.356  16.895 -0.3326  1.3992  2.7474
  439TMC3    C1 6592   0.889   3.280  16.669  0.2284  0.3747 -0.2555
  439TMC3    C2 6593   0.874   3.230  16.547 -1.3496  0.5405  0.2479
  439TMC3    C3 6594   0.893   3.098  16.523 -0.0069  0.1627 -0.3621
  439TMC3    C4 6595   0.974   3.216  16.759 -0.4757 -0.5323  0.5016
  439TMC3    C5 6596   1.003   3.087  16.730  0.2931  0.0838 -0.0919
  439TMC3    C6 6597   0.945   3.025  16.627  0.5286 -0.2098 -0.1386
  439TMC3     C 6598   0.830   3.410  16.704 -0.1635 -0.5212 -0.2354
  439TMC3     O 6599   0.770   3.477  16.616 -0.2519 -0.4530  0.3184
  439TMC3     H 6600   0.825   3.295  16.475  0.1868 -0.0788 -1.3630
  439TMC3    H1 6601   1.020   3.271  16.841 -0.2636  0.6415 -0.4125
  439TMC3    H2 6602   0.950   2.918  16.610  0.6450 -0.2336  0.0446
  439TMC3    C7 6603   1.138   3.050  16.752 -0.2552 -0.3556  0.0775
  439TMC3    C8 6604   0.965   3.064  16.395 -0.5762 -1.2973 -0.0547
  439TMC3    O1 6605   1.184   3.085  16.856  0.5455 -0.1560 -0.2475
  439TMC3    O2 6606   1.026   2.957  16.402  0.1122 -0.3767  0.6003
  440MPD2     C 6607   4.009   3.902  15.143 -0.1238  0.8704  0.4310
  440MPD2    C1 6608   4.087   3.944  15.246 -0.0163 -0.3636  1.2296
  440MPD2    C2 6609   4.185   3.862  15.298 -0.4344  0.2883  0.9927
  440MPD2    C3 6610   4.208   3.734  15.236 -1.0031 -0.7871 -0.4073
  440MPD2    C4 6611   4.123   3.703  15.128 -0.3075  0.2383 -0.2516
  440MPD2    C5 6612   4.031   3.785  15.087  0.1584 -0.0322  0.5817
  440MPD2     H 6613   4.243   3.896  15.383 -0.8692 -1.6242  2.0620
  440MPD2    H1 6614   4.132   3.605  15.082 -1.9701  0.2304 -0.5548
  440MPD2    H2 6615   3.942   3.972  15.092  1.8508  1.6962 -1.0447
  440MPD2    H3 6616   3.972   3.755  15.001 -0.3996 -1.3189  1.4179
  440MPD2     N 6617   4.303   3.639  15.281 -0.9620 -0.8654  0.8415
  440MPD2    H5 6618   4.296   3.550  15.235  0.0849  0.4975 -1.9084
  440MPD2    N1 6619   4.087   4.074  15.297 -0.5581 -0.4061 -0.7349
  440MPD2    H7 6620   4.146   4.089  15.378 -1.9113 -0.6885  0.2952
  441TMC3    C1 6621   4.492   3.570  15.408  0.4160  0.0839  0.4927
  441TMC3    C2 6622   4.596   3.618  15.488 -0.6960  0.3049  0.1894
  441TMC3    C3 6623   4.642   3.539  15.591  0.0949 -0.0258  0.3302
  441TMC3    C4 6624   4.434   3.449  15.428  0.4154  0.1629  0.1544
  441TMC3    C5 6625   4.492   3.369  15.534  0.6434 -0.8317 -0.6035
  441TMC3    C6 6626   4.594   3.414  15.611  0.7938 -0.4996  0.0920
  441TMC3     C 6627   4.403   3.677  15.366 -0.4158  0.0429 -0.4363
  441TMC3     O 6628   4.428   3.780  15.421 -0.2837  0.3370  0.0811
  441TMC3     H 6629   4.638   3.717  15.476  1.5445 -0.7064 -0.3056
  441TMC3    H1 6630   4.337   3.415  15.391  0.4931 -0.8274  0.8568
  441TMC3    H2 6631   4.629   3.357  15.696 -1.5808 -1.5954  0.3223
  441TMC3    C7 6632   4.420   3.267  15.596  0.1066  0.1841 -0.2768
  441TMC3    C8 6633   4.736   3.595  15.690 -0.5951  0.0309 -0.3439
  441TMC3    O1 6634   4.426   3.250  15.717  0.3366 -0.4650 -0.2128
  441TMC3    O2 6635   0.073   3.519  15.746 -1.0649  0.5212  0.8711
  442MPD2     C 6636   2.716   4.047  16.779 -0.5222  0.2653  0.7995
  442MPD2    C1 6637   2.577   4.022  16.783  0.3281  0.0820 -0.8910
  442MPD2    C2 6638   2.534   3.912  16.707 -0.3707  0.2874 -0.5421
  442MPD2    C3 6639   2.621   3.835  16.634 -0.5290  0.1042 -0.7943
  442MPD2    C4 6640   2.754   3.865  16.629  0.0686  0.1470 -0.1522
  442MPD2    C5 6641   2.802   3.971  16.699 -0.1617 -0.0296 -0.4459
  442MPD2     H 6642   2.429   3.886  16.708 -0.1261 -0.6491  1.2219
  442MPD2    H1 6643   2.827   3.812  16.568  0.6592  1.7426 -0.8468
  442MPD2    H2 6644   2.753   4.125  16.845  0.2682  0.3278  0.2890
  442MPD2    H3 6645   2.907   3.994  16.686 -0.5218  1.6693 -0.3420
  442MPD2     N 6646   2.584   3.732  16.545  0.1469 -0.2099  0.2169
  442MPD2    H5 6647   2.656   3.686  16.492  1.4795 -0.0026  1.8415
  442MPD2    N1 6648   2.485   4.095  16.860  0.0120 -0.5768  0.4507
  442MPD2    H7 6649   2.388   4.066  16.854 -0.0842 -0.2659  0.4804
  443TMC3    C1 6650   2.390   4.265  16.989  0.2480 -0.2386 -0.0583
  443TMC3    C2 6651   2.371   4.399  16.984 -0.2862 -0.0939  0.4490
  443TMC3    C3 6652   2.246   4.458  17.009  0.1252  0.3546 -0.3107
  443TMC3    C4 6653   2.298   4.179  17.045  0.6212 -0.3673  0.4758
  443TMC3    C5 6654   2.183   4.238  17.093  0.5789  0.3060  0.2298
  443TMC3    C6 6655   2.156   4.374  17.067  0.3723  0.1174  0.2575
  443TMC3     C 6656   2.504   4.209  16.932  0.3636 -0.0887  0.5607
  443TMC3     O 6657   2.603   4.281  16.930  0.2453  0.0103 -0.2578
  443TMC3     H 6658   2.451   4.464  16.951 -0.3942 -0.8468 -1.2976
  443TMC3    H1 6659   2.321   4.073  17.053 -0.5792 -0.7043 -0.6836
  443TMC3    H2 6660   2.060   4.413  17.098 -0.1836 -1.7361  0.8760
  443TMC3    C7 6661   2.080   4.150  17.135 -0.6556 -0.3692 -0.7948
  443TMC3    C8 6662   2.188   4.486  16.883  0.3597 -0.4060  0.4085
  443TMC3    O1 6663   2.103   4.029  17.116 -0.5448  0.2187  0.4985
  443TMC3    O2 6664   2.083   4.432  16.849  0.3956 -0.5914  0.3340
  444MPD2     C 6665   2.755   4.066  17.167  0.5603 -0.2693  0.5553
  444MPD2    C1 6666   2.680   3.952  17.144  0.3031 -0.1752  0.2075
  444MPD2    C2 6667   2.731   3.852  17.063  0.3164  0.0839 -0.2552
  444MPD2    C3 6668   2.863   3.853  17.022  0.3515 -0.1852  0.1324
  444MPD2    C4 6669   2.942   3.964  17.063 -0.2735  0.1649  0.4045
  444MPD2    C5 6670   2.885   4.065  17.133 -0.2764  0.8600  0.6289
  444MPD2     H 6671   2.670   3.767  17.037  1.3635 -0.3678 -1.2155
  444MPD2    H1 6672   3.046   3.976  17.036 -0.2779 -1.9192 -0.5466
  444MPD2    H2 6673   2.727   4.154  17.224  1.3914  3.2307 -4.5478
  444MPD2    H3 6674   2.958   4.139  17.163  2.0675 -0.6218 -1.4259
  444MPD2     N 6675   2.900   3.749  16.943  0.0194  0.3114  0.0657
  444MPD2    H5 6676   2.831   3.678  16.924  0.4412 -0.1216  0.1612
  444MPD2    N1 6677   2.555   3.927  17.194  0.0112 -0.3081 -0.0565
  444MPD2    H7 6678   2.517   3.839  17.160 -1.5857 -0.0735  1.0958
  445TMC3    C1 6679   3.041   3.610  16.825  0.4679  0.0416 -0.0000
  445TMC3    C2 6680   2.940   3.567  16.742 -0.2088 -0.4105 -0.2713
  445TMC3    C3 6681   2.976   3.460  16.659  0.5753 -0.6145 -0.2612
  445TMC3    C4 6682   3.166   3.557  16.830 -0.8208  0.9577  0.4492
  445TMC3    C5 6683   3.186   3.452  16.750 -0.6557 -0.4304  0.2560
  445TMC3    C6 6684   3.097   3.395  16.667  0.7527  0.1626 -0.0806
  445TMC3     C 6685   3.032   3.733  16.906  0.1836  0.2185 -0.3427
  445TMC3     O 6686   3.137   3.777  16.948  0.3066  0.0438 -0.2284
  445TMC3     H 6687   2.841   3.609  16.728 -0.1057 -0.5305 -1.3928
  445TMC3    H1 6688   3.243   3.586  16.900 -0.4516 -0.2085  0.5253
  445TMC3    H2 6689   3.119   3.323  16.589  1.2397  2.3206 -1.9403
  445TMC3    C7 6690   3.318   3.382  16.748 -0.5814  1.3530 -0.0445
  445TMC3    C8 6691   2.874   3.403  16.579  0.4670  1.0484 -0.8133
  445TMC3    O1 6692   3.356   3.343  16.643  0.0501 -0.2885 -1.0454
  445TMC3    O2 6693   2.773   3.472  16.557 -0.0482  0.1393  0.3836
  446MPD2     C 6694   2.719   0.271  11.602  0.3598 -0.2555  0.0447
  446MPD2    C1 6695   2.724   0.221  11.479  0.2690 -0.5553  0.2710
  446MPD2    C2 6696   2.832   0.252  11.392  0.1650  0.7881  0.3403
  446MPD2    C3 6697   2.940   0.325  11.440  0.0796 -0.2360 -0.6034
  446MPD2    C4 6698   2.926   0.379  11.568 -0.7633  0.2883 -0.2819
  446MPD2    C5 6699   2.815   0.353  11.647 -0.1493 -0.2842 -0.3802
  446MPD2     H 6700   2.850   0.213  11.292 -2.2718  0.5520  0.0050
  446MPD2    H1 6701   3.005   0.440  11.610  0.3035 -0.8373 -0.6682
  446MPD2    H2 6702   2.649   0.247  11.681 -0.2661  0.6065 -0.2455
  446MPD2    H3 6703   2.805   0.378  11.752  1.4773  1.9360 -0.7489
  446MPD2     N 6704   3.046   0.351  11.356  0.3618 -0.2300  0.3562
  446MPD2    H5 6705   3.025   0.335  11.258  0.3786 -0.0469  0.3225
  446MPD2    N1 6706   2.634   0.126  11.427  0.7321 -0.0194 -0.1993
  446MPD2    H7 6707   2.666   0.080  11.342 -0.5437 -2.3076  0.5737
  447TMC3    C1 6708   3.272   0.372  11.288  0.2647 -0.6660 -0.0851
  447TMC3    C2 6709   3.228   0.434  11.171  0.0276  0.5861 -0.6590
  447TMC3    C3 6710   3.307   0.433  11.060 -1.1734  0.7659 -0.8999
  447TMC3    C4 6711   3.403   0.321  11.295 -0.7226  0.4814 -1.4641
  447TMC3    C5 6712   3.473   0.315  11.176 -0.1116  0.6616  0.3431
  447TMC3    C6 6713   3.422   0.362  11.062  0.3512  0.0215 -1.6401
  447TMC3     C 6714   3.176   0.369  11.398  0.6145  0.3151  0.6347
  447TMC3     O 6715   3.218   0.365  11.513 -0.9308  0.3828 -0.3624
  447TMC3     H 6716   3.130   0.480  11.165 -2.1000 -3.9949 -1.2103
  447TMC3    H1 6717   3.431   0.270  11.387  2.2019  2.6818 -1.1145
  447TMC3    H2 6718   3.479   0.337  10.972  1.9421 -3.4828  0.3377
  447TMC3    C7 6719   3.605   0.257  11.176  0.4526 -0.6597  0.1091
  447TMC3    C8 6720   3.307   0.561  10.982  0.2404  0.1916  0.2227
  447TMC3    O1 6721   3.635   0.196  11.071 -1.2029 -0.3671  0.5675
  447TMC3    O2 6722   3.203   0.626  10.990  0.1730 -0.3457 -0.1593
  448TMC3    C1 6723   0.811   0.020  17.203 -0.5032  0.0550 -0.6446
  448TMC3    C2 6724   0.792   4.719  17.072 -0.0197 -0.9703 -0.7491
  448TMC3    C3 6725   0.764   4.589  17.050 -0.0210  0.6071  0.2713
  448TMC3    C4 6726   0.798   4.670  17.306  0.4499 -0.4955  0.4124
  448TMC3    C5 6727   0.751   4.546  17.278 -0.2588 -0.0589 -0.8172
  448TMC3    C6 6728   0.739   4.507  17.149  0.0921  0.2028 -0.6171
  448TMC3     C 6729   0.885   0.146  17.233 -0.0883  1.3523 -0.7127
  448TMC3     O 6730   0.908   0.179  17.351  0.5375  0.2475  0.2260
  448TMC3     H 6731   0.793   0.048  16.987  0.4992  0.3168  0.2600
  448TMC3    H1 6732   0.833   4.704  17.403 -0.8829  0.9724  0.3713
  448TMC3    H2 6733   0.705   4.405  17.135  1.8544 -0.5407  0.5465
  448TMC3    C7 6734   0.765   4.434  17.377 -0.2425 -0.1157  0.8025
  448TMC3    C8 6735   0.749   4.532  16.917 -1.0040 -0.5712  0.4813
  448TMC3    O1 6736   0.774   4.317  17.347  0.0704 -0.3736 -0.0000
  448TMC3    O2 6737   0.777   4.412  16.905  0.1499 -0.6122  0.2896
  449MPD2     C 6738   2.189   3.812  13.399 -0.0748  0.1496 -0.0770
  449MPD2    C1 6739   2.080   3.731  13.372 -0.3027 -0.5095  0.6672
  449MPD2    C2 6740   2.016   3.684  13.484  0.4561  0.0563  0.3796
  449MPD2    C3 6741   2.066   3.695  13.611 -1.1435  0.5590  0.2258
  449MPD2    C4 6742   2.179   3.775  13.635  0.4432 -0.1150 -0.0095
  449MPD2    C5 6743   2.234   3.833  13.529  0.5127  0.8416  0.2550
  449MPD2     H 6744   1.921   3.634  13.470  1.9732 -2.7840  0.2303
  449MPD2    H1 6745   2.211   3.802  13.735  2.5671  0.1985 -0.7622
  449MPD2    H2 6746   2.253   3.850  13.320 -1.6188  0.0578 -1.3535
  449MPD2    H3 6747   2.309   3.911  13.537  3.5796 -2.1512  0.2223
  449MPD2     N 6748   1.997   3.624  13.709 -0.6405  0.1109 -0.2047
  449MPD2    H5 6749   1.914   3.574  13.680 -0.8438 -1.1060  2.4604
  449MPD2    N1 6750   2.032   3.692  13.241  0.4028  0.3743 -0.0043
  449MPD2    H7 6751   1.944   3.642  13.249  1.0380 -0.5213  1.2800
  450TMC3    C1 6752   2.035   3.636  13.014  0.3881 -0.0118  0.6491
  450TMC3    C2 6753   2.110   3.550  12.941 -0.5562  0.6906  0.3548
  450TMC3    C3 6754   2.068   3.417  12.937  0.9344  0.5320 -0.1772
  450TMC3    C4 6755   1.911   3.608  13.056  0.8089 -0.3374  0.2505
  450TMC3    C5 6756   1.866   3.478  13.047  0.0824 -0.2277  1.2550
  450TMC3    C6 6757   1.948   3.379  12.990  0.3150 -0.0188  0.3452
  450TMC3     C 6758   2.103   3.701  13.121 -0.2769  0.0299  1.2169
  450TMC3     O 6759   2.219   3.740  13.110 -0.3369 -0.2335  0.5296
  450TMC3     H 6760   2.213   3.576  12.918 -0.1502  0.1611  1.5780
  450TMC3    H1 6761   1.847   3.690  13.083  0.1114 -1.4519  1.9612
  450TMC3    H2 6762   1.907   3.280  12.971 -0.5204  0.6475 -1.3036
  450TMC3    C7 6763   1.783   3.443  13.162 -0.3158 -0.7081  0.8374
  450TMC3    C8 6764   2.153   3.308  12.891  0.6696 -0.2176  0.7431
  450TMC3    O1 6765   1.792   3.531  13.248  0.0872  0.0247 -0.0552
  450TMC3    O2 6766   2.084   3.213  12.851  0.2174  0.1222 -0.0738
  451MPD2     C 6767   3.268   1.893   0.896 -0.1121 -0.2198  0.8682
  451MPD2    C1 6768   3.340   1.991   0.972 -0.9519  0.7044  0.1134
  451MPD2    C2 6769   3.463   1.965   1.030 -0.2072 -0.0662 -0.1306
  451MPD2    C3 6770   3.528   1.847   1.001 -0.6335 -0.0762  0.3235
  451MPD2    C4 6771   3.447   1.752   0.932  0.2899 -0.4458 -0.0699
  451MPD2    C5 6772   3.325   1.775   0.874  0.5817  0.2889  0.4213
  451MPD2     H 6773   3.520   2.041   1.083 -0.2124 -0.0457 -0.1541
  451MPD2    H1 6774   3.500   1.661   0.909 -0.8336 -0.2540 -3.3848
  451MPD2    H2 6775   3.177   1.912   0.840  0.1933 -2.1567 -0.2625
  451MPD2    H3 6776   3.284   1.691   0.818 -0.0826  1.1839 -0.4389
  451MPD2     N 6777   3.654   1.805   1.058 -0.4801  0.1517 -0.0444
  451MPD2    H5 6778   3.676   1.706   1.049  1.2806  0.5966 -0.7369
  451MPD2    N1 6779   3.264   2.111   0.996 -0.0945  0.7760  0.4306
  451MPD2    H7 6780   3.182   2.131   0.939 -1.3488  1.1391  2.3475
  452TMC3    C1 6781   3.866   1.800   1.172  0.6036 -0.5546 -0.3429
  452TMC3    C2 6782   3.867   1.666   1.144 -0.1209  0.3314 -0.0644
  452TMC3    C3 6783   3.992   1.614   1.111 -0.9220  0.1494 -0.1606
  452TMC3    C4 6784   3.974   1.874   1.188 -0.4195  0.0796  0.4015
  452TMC3    C5 6785   4.094   1.820   1.169  0.1173 -0.6679  0.1177
  452TMC3    C6 6786   4.104   1.684   1.143 -0.2555  0.0208 -0.2711
  452TMC3     C 6787   3.746   1.878   1.124  0.5534 -0.0392 -0.1397
  452TMC3     O 6788   3.749   2.001   1.127 -0.1086 -0.5008  0.1715
  452TMC3     H 6789   3.778   1.614   1.110 -0.8953  2.4315 -1.2202
  452TMC3    H1 6790   3.965   1.980   1.209 -1.9095 -0.2974  1.6424
  452TMC3    H2 6791   4.202   1.640   1.128 -0.5688 -0.0442 -2.1227
  452TMC3    C7 6792   4.163   1.900   1.070  0.1239  1.3469  0.2867
  452TMC3    C8 6793   4.001   1.517   1.003  0.8054  0.5498  0.2809
  452TMC3    O1 6794   4.111   1.997   1.021  0.2023 -0.4681  0.5941
  452TMC3    O2 6795   3.902   1.449   0.976 -1.2736  0.1642  0.4110
  453TMC3    C1 6796   0.013   3.686  12.386  0.5229  0.6487 -0.2765
  453TMC3    C2 6797   4.701   3.556  12.375  0.8584 -0.1582 -0.1412
  453TMC3    C3 6798   4.665   3.509  12.251 -0.1073 -0.5618 -1.1238
  453TMC3    C4 6799   0.005   3.769  12.272 -0.3848 -0.4875 -0.9020
  453TMC3    C5 6800   4.700   3.716  12.152 -0.3378 -1.2114 -0.0625
  453TMC3    C6 6801   4.660   3.583  12.138 -0.5391 -0.2930 -0.3952
  453TMC3     C 6802   0.102   3.733  12.493 -0.1868 -0.7118  0.3310
  453TMC3     O 6803   0.170   3.830  12.464  0.0129 -0.0369 -0.2091
  453TMC3     H 6804   4.666   3.499  12.460 -1.5396  1.8287  0.1987
  453TMC3    H1 6805   0.046   3.869  12.278  2.7843 -1.9306  1.1608
  453TMC3    H2 6806   4.621   3.540  12.047 -2.9622  0.8366  0.0888
  453TMC3    C7 6807   4.721   3.803  12.035 -0.4356 -0.2343 -0.3916
  453TMC3    C8 6808   4.619   3.372  12.247  0.1307 -0.1116 -0.5981
  453TMC3    O1 6809   0.015   3.917  12.051 -0.3766  0.2817 -0.2056
  453TMC3    O2 6810   4.568   3.323  12.347  0.2508 -0.0275  0.0182
  454MPD2     C 6811   3.580   3.442  16.114  0.2338 -0.1667 -0.1633
  454MPD2    C1 6812   3.478   3.483  16.037 -0.4213  0.1960  0.2935
  454MPD2    C2 6813   3.420   3.608  16.057  0.0309  0.0620  0.1685
  454MPD2    C3 6814   3.464   3.692  16.161  0.1836 -0.5655  0.2784
  454MPD2    C4 6815   3.565   3.640  16.247 -0.6758  0.7911 -0.9023
  454MPD2    C5 6816   3.612   3.513  16.226 -0.4702  0.0978 -0.0441
  454MPD2     H 6817   3.339   3.635  15.991 -0.3047  2.5756  1.6155
  454MPD2    H1 6818   3.584   3.691  16.341  1.4079  0.5853 -1.2224
  454MPD2    H2 6819   3.617   3.340  16.113 -1.1872 -0.6708 -1.4739
  454MPD2    H3 6820   3.686   3.482  16.300 -1.0942 -1.1461  0.0507
  454MPD2     N 6821   3.411   3.817  16.186 -0.2822  0.2153 -0.5590
  454MPD2    H5 6822   3.440   3.864  16.271  0.3225  0.4748 -0.9113
  454MPD2    N1 6823   3.438   3.411  15.919 -0.3139  0.7229  0.1759
  454MPD2    H7 6824   3.389   3.465  15.848 -1.3314 -0.3293  0.0579
  455TMC3    C1 6825   3.225   3.938  16.184 -0.0307  0.2600  0.6044
  455TMC3    C2 6826   3.269   4.005  16.292 -0.4852 -0.0099  0.7831
  455TMC3    C3 6827   3.187   3.995  16.403 -0.4149 -0.4963 -0.2542
  455TMC3    C4 6828   3.117   3.853  16.199 -0.6919 -0.3676  0.3361
  455TMC3    C5 6829   3.032   3.863  16.302 -0.4475 -0.7822 -0.4599
  455TMC3    C6 6830   3.075   3.926  16.407 -0.5113 -0.1775 -1.0344
  455TMC3     C 6831   3.323   3.878  16.102 -0.6995  0.0094  0.5434
  455TMC3     O 6832   3.287   3.859  15.985 -0.3895  0.5215  0.4104
  455TMC3     H 6833   3.365   4.055  16.294 -0.5057  0.0527  0.2447
  455TMC3    H1 6834   3.107   3.780  16.119 -1.5755  0.0077  0.1050
  455TMC3    H2 6835   3.011   3.927  16.495  0.4889  1.4327 -0.3192
  455TMC3    C7 6836   2.984   3.730  16.325 -0.4594  0.1837  0.0089
  455TMC3    C8 6837   3.215   4.082  16.523  0.4761 -0.6839  0.4135
  455TMC3    O1 6838   2.866   3.697  16.325  0.4386  0.1033  0.4629
  455TMC3    O2 6839   3.151   4.063  16.627 -0.5642 -0.2175  0.1570
  456MPD2     C 6840   1.210   3.960  15.678  0.1370 -0.1361  0.0155
  456MPD2    C1 6841   1.200   3.839  15.738 -0.5324 -0.1001 -0.3710
  456MPD2    C2 6842   1.120   3.822  15.855  0.2051  0.1381  0.1361
  456MPD2    C3 6843   1.052   3.933  15.910 -0.4819  0.0710  0.4666
  456MPD2    C4 6844   1.063   4.054  15.847 -0.4657 -0.3960 -0.4336
  456MPD2    C5 6845   1.145   4.065  15.734  0.0264 -0.3174 -0.0146
  456MPD2     H 6846   1.104   3.727  15.904  0.7928 -0.2183 -0.3669
  456MPD2    H1 6847   1.007   4.140  15.882 -0.5330 -0.6237  0.0133
  456MPD2    H2 6848   1.264   3.968  15.584  0.8970  1.2825  0.5742
  456MPD2    H3 6849   1.160   4.164  15.694  0.8439 -1.0261 -1.4940
  456MPD2     N 6850   0.981   3.909  16.031  0.7411  0.5278 -0.3015
  456MPD2    H5 6851   1.002   3.821  16.077 -2.6479 -0.4999 -0.6905
  456MPD2    N1 6852   1.281   3.734  15.689 -0.4045  0.9554  0.0042
  456MPD2    H7 6853   1.359   3.762  15.631  0.3639  0.9402  1.0386
  457TMC3    C1 6854   0.824   3.977  16.210  0.0866  0.4240 -0.2226
  457TMC3    C2 6855   0.777   4.085  16.271 -0.1237 -0.1841  0.1921
  457TMC3    C3 6856   0.743   4.066  16.398  0.0850  0.7155  0.1680
  457TMC3    C4 6857   0.870   3.858  16.271 -0.2243 -0.0014  0.1968
  457TMC3    C5 6858   0.823   3.842  16.396 -0.8457 -0.0247  0.2040
  457TMC3    C6 6859   0.758   3.944  16.463  0.8410 -0.0237  0.3763
  457TMC3     C 6860   0.882   3.998  16.079 -0.5287 -0.0334  0.1840
  457TMC3     O 6861   0.838   4.102  16.031 -0.0275 -0.0820  0.3245
  457TMC3     H 6862   0.794   4.182  16.225  0.0709 -1.2084 -1.9160
  457TMC3    H1 6863   0.906   3.778  16.207  3.5637  1.4666  0.5244
  457TMC3    H2 6864   0.726   3.923  16.564 -0.4200  0.2200  0.0283
  457TMC3    C7 6865   0.914   3.776  16.484  0.2847 -0.0717 -0.1805
  457TMC3    C8 6866   0.731   4.183  16.495  0.2903  0.7694  0.3604
  457TMC3    O1 6867   0.934   3.817  16.597  0.0057  0.1228  0.0300
  457TMC3    O2 6868   0.744   4.151  16.612  0.1018 -0.2973  0.8695
  458MPD2     C 6869   3.679   3.268  12.684 -0.3703  0.3708  0.1314
  458MPD2    C1 6870   3.802   3.205  12.656 -0.4800  0.6355  0.3904
  458MPD2    C2 6871   3.845   3.215  12.528  0.6625 -0.3415 -0.4457
  458MPD2    C3 6872   3.767   3.272  12.428 -0.5689 -0.6267  0.5711
  458MPD2    C4 6873   3.646   3.331  12.465  0.2886 -0.3166 -0.0217
  458MPD2    C5 6874   3.600   3.330  12.592  0.4006  0.1700  0.2525
  458MPD2     H 6875   3.929   3.157  12.492 -0.2327 -0.1085 -2.9155
  458MPD2    H1 6876   3.574   3.375  12.396 -0.7674 -2.3412 -0.1907
  458MPD2    H2 6877   3.654   3.284  12.788 -0.6385 -0.4800  0.1960
  458MPD2    H3 6878   3.516   3.387  12.630 -0.0693  1.0854 -2.1778
  458MPD2     N 6879   3.816   3.270  12.292 -0.4103  0.0933  0.4858
  458MPD2    H5 6880   3.899   3.214  12.275 -0.4840  0.2548 -0.4204
  458MPD2    N1 6881   3.868   3.139  12.763  0.0245 -0.5938  0.1975
  458MPD2    H7 6882   3.831   3.139  12.857 -1.8900 -0.2724 -0.5345
  459TMC3    C1 6883   4.034   3.040  12.882 -0.4996 -0.6946  0.2684
  459TMC3    C2 6884   4.169   3.060  12.920  0.0435 -0.0902  0.2330
  459TMC3    C3 6885   4.235   2.966  12.996  0.8121 -0.4311 -0.4482
  459TMC3    C4 6886   3.968   2.928  12.925  0.6567 -0.1454  0.0169
  459TMC3    C5 6887   4.033   2.843  13.012  0.1271  0.4176  0.1704
  459TMC3    C6 6888   4.162   2.865  13.051 -1.2278 -0.8684 -0.4294
  459TMC3     C 6889   3.994   3.094  12.760 -0.4747 -0.2237  0.8062
  459TMC3     O 6890   4.080   3.114  12.679 -0.4383  0.3707  0.1773
  459TMC3     H 6891   4.217   3.151  12.887 -0.1284 -0.8671 -2.1582
  459TMC3    H1 6892   3.872   2.900  12.884  0.3569  2.7417 -1.2046
  459TMC3    H2 6893   4.220   2.783  13.092  0.0425  0.0544 -0.4173
  459TMC3    C7 6894   3.945   2.750  13.084 -0.6215 -0.6568  0.7280
  459TMC3    C8 6895   4.373   2.988  13.047  0.4007 -0.3906 -0.2969
  459TMC3    O1 6896   3.825   2.762  13.063  0.4946  0.2760  0.2864
  459TMC3    O2 6897   4.429   3.079  12.987  0.1046 -0.4592 -0.5581
  460MPD2     C 6898   3.602   0.744  10.859  0.1914  0.1506  0.0124
  460MPD2    C1 6899   3.471   0.714  10.876 -0.1723 -0.2553 -0.0366
  460MPD2    C2 6900   3.373   0.799  10.821  0.2860  0.4219 -0.4655
  460MPD2    C3 6901   3.412   0.910  10.751 -0.1351  0.3255  0.0750
  460MPD2    C4 6902   3.548   0.949  10.754  0.1724 -0.6041  0.3299
  460MPD2    C5 6903   3.643   0.859  10.800 -0.5984  0.0687 -0.5416
  460MPD2     H 6904   3.267   0.777  10.831  0.6867 -1.6104 -0.8762
  460MPD2    H1 6905   3.576   1.045  10.712  0.2292 -0.3427  0.9558
  460MPD2    H2 6906   3.680   0.679  10.895  1.7701  0.8470 -2.1339
  460MPD2    H3 6907   3.750   0.870  10.789 -0.1777  0.1603  3.8484
  460MPD2     N 6908   3.310   0.976  10.679  0.3307  0.0858  0.7858
  460MPD2    H5 6909   3.216   0.941  10.694  0.1953 -0.8849 -2.2652
  460MPD2    N1 6910   3.426   0.591  10.940  0.3823  0.3900  0.1831
  460MPD2    H7 6911   3.494   0.516  10.948 -0.4753 -0.3807  0.2222
  461TMC3    C1 6912   3.208   1.126  10.523  0.3488  0.1119  0.2255
  461TMC3    C2 6913   3.147   1.036  10.446 -0.6050  0.0490 -0.2110
  461TMC3    C3 6914   3.097   1.085  10.331  0.0512 -0.5213  0.2842
  461TMC3    C4 6915   3.194   1.261  10.500 -0.2068 -0.0653 -0.3818
  461TMC3    C5 6916   3.138   1.303  10.388  0.4030  0.2533  0.4405
  461TMC3    C6 6917   3.083   1.217  10.302 -0.3992  0.0068  0.3714
  461TMC3     C 6918   3.328   1.081  10.593  0.4904  0.3545 -0.1781
  461TMC3     O 6919   3.423   1.150  10.569 -0.0317  0.2899  0.2254
  461TMC3     H 6920   3.189   0.936  10.449  0.0652  0.3463  0.3525
  461TMC3    H1 6921   3.231   1.338  10.567 -0.0662  0.2289 -0.8001
  461TMC3    H2 6922   3.021   1.255  10.221 -0.3574  1.4591  1.0325
  461TMC3    C7 6923   3.138   1.445  10.357  0.0392  0.0113 -0.0604
  461TMC3    C8 6924   3.092   0.991  10.224  0.0910  0.2945  0.5855
  461TMC3    O1 6925   3.144   1.523  10.451 -0.7465  0.6166  0.1939
  461TMC3    O2 6926   3.134   1.024  10.111  0.6713  0.0622  1.0356
  462TMC3    C1 6927   3.434   1.940   0.569  0.7912 -0.3618 -0.2854
  462TMC3    C2 6928   3.557   1.884   0.578 -0.0013  0.3708  0.0455
  462TMC3    C3 6929   3.571   1.754   0.551  0.6539 -0.0374  0.0119
  462TMC3    C4 6930   3.327   1.864   0.539 -0.5092 -0.1670 -0.4835
  462TMC3    C5 6931   3.350   1.731   0.498 -0.4679  0.5627 -0.0318
  462TMC3    C6 6932   3.474   1.673   0.508  0.1231  0.2128  0.0767
  462TMC3     C 6933   3.408   2.082   0.580  0.3023 -0.0245  0.5130
  462TMC3     O 6934   3.298   2.118   0.537  0.4030 -0.7912 -0.4911
  462TMC3     H 6935   3.638   1.951   0.603  0.3846 -0.0077 -0.1925
  462TMC3    H1 6936   3.228   1.907   0.523 -1.5293 -2.0825  0.5809
  462TMC3    H2 6937   3.488   1.565   0.507 -3.4063 -0.2319 -0.0703
  462TMC3    C7 6938   3.235   1.646   0.460 -0.1168  0.4429  0.0522
  462TMC3    C8 6939   3.705   1.701   0.531  0.1905  0.2558  0.1942
  462TMC3    O1 6940   3.260   1.529   0.428 -0.3539  0.1154 -0.0051
  462TMC3    O2 6941   3.801   1.756   0.586  0.4840 -0.1541 -0.1215
  463MPD2     C 6942   4.648   4.139   1.517 -0.2040  0.7422  0.6317
  463MPD2    C1 6943   4.601   4.261   1.561 -0.7659  0.1066  1.0782
  463MPD2    C2 6944   4.688   4.341   1.631  0.3060 -0.0989  0.1784
  463MPD2    C3 6945   0.082   4.305   1.667  0.3931  0.7610 -0.3886
  463MPD2    C4 6946   0.123   4.174   1.634  0.4368 -0.2479 -0.4788
  463MPD2    C5 6947   0.040   4.100   1.553  0.1365  0.5805 -0.0789
  463MPD2     H 6948   4.645   4.435   1.664  1.0899 -1.2809  4.5921
  463MPD2    H1 6949   0.222   4.138   1.657  0.4070 -0.2848 -0.4089
  463MPD2    H2 6950   4.595   4.058   1.468 -2.1841  2.6771 -0.4463
  463MPD2    H3 6951   0.075   4.000   1.528 -2.1071  0.0903 -1.2595
  463MPD2     N 6952   0.179   4.387   1.732 -0.3727 -0.0831  0.8411
  463MPD2    H5 6953   0.263   4.341   1.766  1.4222  2.7637  0.1880
  463MPD2    N1 6954   4.464   4.305   1.542 -0.4872 -0.3131 -0.7155
  463MPD2    H7 6955   4.436   4.393   1.583  1.0404  0.3567 -1.1418
  464TMC3    C1 6956   4.239   4.297   1.470 -0.3983  0.0965 -0.6547
  464TMC3    C2 6957   4.215   4.416   1.525  0.4536  0.5840 -1.4464
  464TMC3    C3 6958   4.084   4.468   1.514  1.2571 -0.5917  0.1135
  464TMC3    C4 6959   4.134   4.223   1.425 -0.1565  0.0167 -0.2171
  464TMC3    C5 6960   4.010   4.281   1.405 -0.1190  0.2060 -0.0468
  464TMC3    C6 6961   3.983   4.403   1.454  0.1739  0.3145  0.1449
  464TMC3     C 6962   4.368   4.234   1.472 -0.3225 -0.7092  0.3137
  464TMC3     O 6963   4.381   4.123   1.424 -0.5655  0.1177 -0.3967
  464TMC3     H 6964   4.293   4.488   1.546  1.1052 -0.7374  0.6593
  464TMC3    H1 6965   4.163   4.129   1.378 -0.2648 -1.1498  2.0821
  464TMC3    H2 6966   3.886   4.451   1.446  1.3308  2.4338 -1.1199
  464TMC3    C7 6967   3.916   4.221   1.309 -0.1504 -0.3479  0.1767
  464TMC3    C8 6968   4.052   4.602   1.563 -0.5837 -0.5137  0.3291
  464TMC3    O1 6969   3.950   4.111   1.273  0.2247  0.2983  0.6390
  464TMC3    O2 6970   3.954   4.656   1.521 -0.3897  0.1275  0.2732
  465MPD2     C 6971   0.340   3.591  17.088  0.5293 -0.5631  0.0497
  465MPD2    C1 6972   0.217   3.633  17.127 -0.0066  0.4828  0.2021
  465MPD2    C2 6973   0.136   3.695  17.035  0.4984  0.2987  0.7058
  465MPD2    C3 6974   0.178   3.718  16.902  0.5948 -0.1736  0.1164
  465MPD2    C4 6975   0.302   3.678  16.871 -0.3835  0.0592  0.5083
  465MPD2    C5 6976   0.384   3.622  16.963 -0.2267 -0.3088 -0.1217
  465MPD2     H 6977   0.031   3.716  17.049  0.5894  1.1187  0.2126
  465MPD2    H1 6978   0.340   3.684  16.770  0.9412  1.3820  1.0868
  465MPD2    H2 6979   0.399   3.529  17.154  1.7751  0.1283 -0.4089
  465MPD2    H3 6980   0.486   3.593  16.937  0.3412 -0.5079  2.3968
  465MPD2     N 6981   0.089   3.767  16.801 -0.1244  0.2508 -0.9855
  465MPD2    H5 6982   4.734   3.792  16.833  0.9088  1.3134  1.1667
  465MPD2    N1 6983   0.156   3.613  17.249 -0.3286  0.7605 -0.5768
  465MPD2    H7 6984   0.066   3.658  17.266  0.2765  1.3360  1.1140
  466TMC3    C1 6985   4.517   3.898  16.590 -0.0449 -0.4324  0.8497
  466TMC3    C2 6986   4.541   4.019  16.535 -0.3618 -0.0023  0.0079
  466TMC3    C3 6987   4.667   4.049  16.486  0.1883  0.1520 -0.6068
  466TMC3    C4 6988   4.619   3.817  16.632  0.4802  0.4001 -0.0536
  466TMC3    C5 6989   0.006   3.850  16.591  0.1600 -0.2579 -0.4669
  466TMC3    C6 6990   0.034   3.962  16.510 -0.0810 -0.8742  0.0808
  466TMC3     C 6991   4.390   3.878  16.653 -0.0192  0.6253  0.7451
  466TMC3     O 6992   4.392   3.836  16.768 -0.5416 -0.1039  0.4773
  466TMC3     H 6993   4.457   4.080  16.504  0.5159  1.3055  0.1751
  466TMC3    H1 6994   4.604   3.720  16.677  0.3241  0.3018 -0.3232
  466TMC3    H2 6995   0.139   3.979  16.491  0.9104 -3.0198  3.5490
  466TMC3    C7 6996   0.117   3.787  16.667  0.0234 -0.1607 -0.7872
  466TMC3    C8 6997   4.692   4.183  16.442  0.0852  0.2489 -0.1925
  466TMC3    O1 6998   0.229   3.790  16.615  0.8933  0.0365 -0.4488
  466TMC3    O2 6999   0.052   4.204  16.373 -0.3552 -0.0407  0.0519
  467TMC3    C1 7000   1.231   2.283  14.156  0.1936  1.1715  0.7006
  467TMC3    C2 7001   1.136   2.377  14.119 -0.4641  0.1724  0.4590
  467TMC3    C3 7002   1.012   2.330  14.073  0.4615 -0.1270 -0.3718
  467TMC3    C4 7003   1.202   2.148  14.149 -0.5597 -0.8153 -0.3873
  467TMC3    C5 7004   1.075   2.110  14.107 -0.4745  0.9802  0.1897
  467TMC3    C6 7005   0.978   2.200  14.077  0.0288 -0.5336 -0.1856
  467TMC3     C 7006   1.363   2.326  14.203  0.4202 -0.2582 -0.0560
  467TMC3     O 7007   1.370   2.442  14.248  0.3764  0.2282  0.4201
  467TMC3     H 7008   1.160   2.482  14.126 -0.0557  0.1341 -0.4442
  467TMC3    H1 7009   1.276   2.078  14.186  0.7295  0.3275 -0.7668
  467TMC3    H2 7010   0.883   2.180  14.028  0.2483 -3.0561  0.4246
  467TMC3    C7 7011   1.030   2.004  14.190 -0.6091 -0.4547 -0.0992
  467TMC3    C8 7012   0.988   2.395  13.940 -0.2583 -0.0378 -0.5981
  467TMC3    O1 7013   1.112   1.914  14.216 -0.2700 -0.3866 -0.4825
  467TMC3    O2 7014   1.004   2.514  13.935 -0.1296 -0.4526  0.1058
  468MPD2     C 7015   4.452   0.323  10.741 -0.5207 -0.0180 -0.1537
  468MPD2    C1 7016   4.557   0.361  10.816 -0.2706  0.2255 -0.2018
  468MPD2    C2 7017   4.651   0.265  10.861  0.1853 -0.2638  0.0573
  468MPD2    C3 7018   4.655   0.142  10.809 -0.0860 -0.0773  0.9425
  468MPD2    C4 7019   4.549   0.108  10.728  0.1306 -0.4207  0.8069
  468MPD2    C5 7020   4.446   0.197  10.700  0.6806 -0.2766 -0.3289
  468MPD2     H 7021   4.730   0.284  10.933 -0.1472 -0.2494  0.4234
  468MPD2    H1 7022   4.550   0.009  10.684  0.1333 -0.9579  2.0248
  468MPD2    H2 7023   4.375   0.396  10.716  0.0935 -0.0782 -2.2909
  468MPD2    H3 7024   4.362   0.177  10.635  0.2747  0.2261  0.0351
  468MPD2     N 7025   0.024   0.045  10.827  0.1352  0.3136  0.5411
  468MPD2    H5 7026   0.008   4.691  10.785 -1.7370  0.7607  0.2555
  468MPD2    N1 7027   4.585   0.493  10.857  0.5480  0.1351 -0.3720
  468MPD2    H7 7028   4.663   0.510  10.920  0.5843 -0.4177 -0.2675
  469TMC3    C1 7029   4.561   0.722  10.882  0.0881 -0.0961  0.0786
  469TMC3    C2 7030   4.695   0.731  10.888  0.6325  0.4345 -1.1439
  469TMC3    C3 7031   0.021   0.811  10.976 -0.3830 -0.4915 -0.2237
  469TMC3    C4 7032   4.482   0.792  10.973  0.3265 -0.4433 -0.1592
  469TMC3    C5 7033   4.539   0.873  11.063 -0.0961  0.2124 -0.2403
  469TMC3    C6 7034   4.676   0.883  11.065  0.1239 -0.2153  0.6274
  469TMC3     C 7035   4.499   0.599  10.827  0.4267 -0.0065  0.5706
  469TMC3     O 7036   4.382   0.607  10.789  1.1543 -0.8143  0.4017
  469TMC3     H 7037   0.014   0.677  10.813  1.5218 -1.1644  0.6966
  469TMC3    H1 7038   4.375   0.779  10.962  0.2333 -0.4274  0.7168
  469TMC3    H2 7039   4.711   0.956  11.138 -0.3217 -2.5458  3.1754
  469TMC3    C7 7040   4.453   0.942  11.156 -0.2672 -0.3243 -0.4850
  469TMC3    C8 7041   0.164   0.808  10.985  0.3886 -0.0394  0.3218
  469TMC3    O1 7042   4.342   0.980  11.121 -0.1088  0.1078  0.2104
  469TMC3    O2 7043   0.232   0.761  10.898  0.0820 -0.1075 -0.2070
  470TMC3    C1 7044   2.501   2.010   1.513  0.9265  0.1178  0.8885
  470TMC3    C2 7045   2.447   2.131   1.487  0.2144 -0.4815 -0.3926
  470TMC3    C3 7046   2.360   2.139   1.380 -0.5218  0.6164  0.0135
  470TMC3    C4 7047   2.449   1.894   1.461  0.5339 -0.3014 -0.7867
  470TMC3    C5 7048   2.349   1.902   1.369 -0.3957 -0.1584  0.0524
  470TMC3    C6 7049   2.308   2.024   1.325  0.3484  0.2372 -0.0003
  470TMC3     C 7050   2.616   2.002   1.602 -0.4475  0.5818 -0.0420
  470TMC3     O 7051   2.645   1.888   1.632 -0.2183 -0.7719 -0.3315
  470TMC3     H 7052   2.476   2.223   1.536 -1.7055  0.2900 -0.7130
  470TMC3    H1 7053   2.494   1.801   1.492 -0.6622 -0.8337 -0.6359
  470TMC3    H2 7054   2.222   2.032   1.259 -0.6889 -2.0729  1.0545
  470TMC3    C7 7055   2.255   1.796   1.373  0.9779 -0.3567  0.0848
  470TMC3    C8 7056   2.302   2.269   1.355 -0.0931  0.0890 -0.5324
  470TMC3    O1 7057   2.169   1.803   1.286 -0.9559 -0.0256  0.1428
  470TMC3    O2 7058   2.344   2.364   1.420 -0.1978  0.1757  0.4230
  471MPD2     C 7059   2.586   2.889  16.806  1.1865 -0.8943 -0.7382
  471MPD2    C1 7060   2.693   2.800  16.797  0.4070 -0.8095 -0.2264
  471MPD2    C2 7061   2.784   2.799  16.896 -0.6884  0.3582 -0.3268
  471MPD2    C3 7062   2.769   2.873  17.014  0.1737  0.2924 -0.2496
  471MPD2    C4 7063   2.658   2.946  17.026 -0.1816 -0.6966  0.0122
  471MPD2    C5 7064   2.573   2.966  16.923  0.0464 -0.4422 -0.3052
  471MPD2     H 7065   2.859   2.721  16.905 -0.2864  0.4642 -2.9576
  471MPD2    H1 7066   2.627   3.005  17.112  1.1494 -1.9858  1.3730
  471MPD2    H2 7067   2.512   2.894  16.727 -1.1262  0.0990  1.4849
  471MPD2    H3 7068   2.488   3.030  16.941  0.7925  0.7602 -1.0543
  471MPD2     N 7069   2.857   2.846  17.119  0.2818  0.2957  0.4372
  471MPD2    H5 7070   2.938   2.795  17.085  0.4290  1.0694 -0.3890
  471MPD2    N1 7071   2.717   2.718  16.684  0.1867 -0.0696 -0.1689
  471MPD2    H7 7072   2.815   2.691  16.674  0.5669  0.2405  2.8567
  472TMC3    C1 7073   2.672   2.575  16.502  0.4164 -0.5283  0.1935
  472TMC3    C2 7074   2.604   2.563  16.385 -0.4565 -0.9781 -0.6317
  472TMC3    C3 7075   2.603   2.443  16.315 -0.2164  0.5101  0.1047
  472TMC3    C4 7076   2.734   2.467  16.564 -0.1155  0.3677 -0.5173
  472TMC3    C5 7077   2.736   2.350  16.495  0.3292  0.0032  0.6073
  472TMC3    C6 7078   2.672   2.337  16.369 -0.0940  0.3379  0.8261
  472TMC3     C 7079   2.622   2.683  16.592  0.0232 -0.2968  0.7869
  472TMC3     O 7080   2.506   2.720  16.585 -0.3820 -0.7076 -0.4739
  472TMC3     H 7081   2.539   2.646  16.359 -0.4910 -0.9185 -0.3511
  472TMC3    H1 7082   2.786   2.476  16.659  0.2729  2.9602 -0.9712
  472TMC3    H2 7083   2.691   2.253  16.303  0.4361 -0.3171  1.8074
  472TMC3    C7 7084   2.703   2.252  16.588 -0.2189  0.6241  0.3369
  472TMC3    C8 7085   2.460   2.416  16.296  0.0274 -0.3844 -0.2275
  472TMC3    O1 7086   2.688   2.280  16.704  0.3192  0.2314 -0.2982
  472TMC3    O2 7087   2.398   2.490  16.222  0.2897  0.3458 -0.9059
  473MPD2     C 7088   3.141   4.615  14.199 -0.5120 -0.0547  0.4869
  473MPD2    C1 7089   3.057   4.719  14.172 -0.3303  0.0883 -0.4706
  473MPD2    C2 7090   3.024   0.069  14.272  0.4560 -0.1135  0.3372
  473MPD2    C3 7091   3.082   0.058  14.399 -0.0389  0.4392  0.5298
  473MPD2    C4 7092   3.183   4.709  14.419 -0.6783  0.1163  1.1064
  473MPD2    C5 7093   3.204   4.620  14.324  1.1854  1.2358  0.3382
  473MPD2     H 7094   2.940   0.136  14.257 -1.3029 -2.5177 -0.5810
  473MPD2    H1 7095   3.239   4.714  14.512  2.9852 -0.5896 -1.0615
  473MPD2    H2 7096   3.164   4.531  14.134 -2.2707 -1.5107  1.7338
  473MPD2    H3 7097   3.276   4.540  14.341 -2.3411 -2.0826 -0.4308
  473MPD2     N 7098   3.056   0.143  14.507 -0.5097  0.3187 -0.1177
  473MPD2    H5 7099   3.121   0.130  14.584  1.2686 -0.2923 -1.7109
  473MPD2    N1 7100   2.984   4.724  14.052 -0.2877 -0.1220  0.3668
  473MPD2    H7 7101   2.925   0.068  14.037  2.0762  1.6632  0.7598
  474TMC3    C1 7102   2.983   0.331  14.631  0.2069  0.1304  0.3886
  474TMC3    C2 7103   2.870   0.398  14.661 -0.0830 -0.7103  1.0129
  474TMC3    C3 7104   2.884   0.522  14.716 -0.4421 -0.7508 -0.1977
  474TMC3    C4 7105   3.112   0.378  14.649  0.4135  0.5344  0.3801
  474TMC3    C5 7106   3.116   0.502  14.697 -0.1459  0.2545  0.4201
  474TMC3    C6 7107   3.007   0.577  14.734  0.0435  0.2992 -0.2482
  474TMC3     C 7108   2.956   0.234  14.523 -0.4819  0.9642  0.8794
  474TMC3     O 7109   2.856   0.249  14.451  0.6374  0.0016 -0.0145
  474TMC3     H 7110   2.770   0.355  14.656 -0.1606 -0.4327  0.1939
  474TMC3    H1 7111   3.209   0.333  14.629 -1.7427 -3.3383 -1.3034
  474TMC3    H2 7112   3.016   0.682  14.762  2.7468  0.3565 -1.3377
  474TMC3    C7 7113   3.242   0.565  14.726 -0.5205  0.1808  0.0339
  474TMC3    C8 7114   2.767   0.607  14.712  0.0082 -0.2633 -0.4897
  474TMC3    O1 7115   3.328   0.571  14.637  0.2381 -0.4506  0.4611
  474TMC3    O2 7116   2.658   0.565  14.738  0.0626  0.2720 -0.0128
  475MPD2     C 7117   1.413   2.604  11.001  0.1538  0.4212 -0.5957
  475MPD2    C1 7118   1.402   2.726  11.069 -0.3442 -0.7140 -0.9570
  475MPD2    C2 7119   1.284   2.754  11.134  0.5979  0.3267 -0.0826
  475MPD2    C3 7120   1.184   2.660  11.128 -0.4166 -0.4044  0.7067
  475MPD2    C4 7121   1.190   2.542  11.060  0.8276  0.2118  0.0752
  475MPD2    C5 7122   1.312   2.521  10.999 -0.5101 -0.3839  0.6757
  475MPD2     H 7123   1.269   2.853  11.175  1.3689  0.2881  0.2928
  475MPD2    H1 7124   1.113   2.467  11.047  0.5602  0.4183  0.4309
  475MPD2    H2 7125   1.510   2.581  10.958  0.0750 -1.4969  0.2851
  475MPD2    H3 7126   1.321   2.423  10.952 -1.0621  0.6552 -1.5612
  475MPD2     N 7127   1.077   2.691  11.210  0.3563 -0.0290 -0.1744
  475MPD2    H5 7128   1.088   2.772  11.270  0.9932  1.2164 -2.0092
  475MPD2    N1 7129   1.506   2.820  11.071 -0.0522 -0.1618 -0.4772
  475MPD2    H7 7130   1.501   2.890  11.144  4.6711  0.2676 -0.5785
  476TMC3    C1 7131   1.686   2.946  11.025 -0.1141 -0.2097  0.2289
  476TMC3    C2 7132   1.660   3.044  10.927 -0.5122  0.0396 -0.0420
  476TMC3    C3 7133   1.598   3.164  10.960  0.0489  0.5604  0.1214
  476TMC3    C4 7134   1.665   2.973  11.157  0.0863  0.3969  0.0034
  476TMC3    C5 7135   1.640   3.103  11.186 -0.1258  0.4270 -0.0541
  476TMC3    C6 7136   1.598   3.195  11.095 -0.1855  0.0596 -0.2543
  476TMC3     C 7137   1.613   2.823  10.989 -0.8883  0.3688  1.2273
  476TMC3     O 7138   1.623   2.780  10.879 -0.2339  0.2699 -0.2635
  476TMC3     H 7139   1.676   3.001  10.828  0.7780  0.9606 -0.2293
  476TMC3    H1 7140   1.687   2.909  11.242 -2.9684 -0.5796  0.0633
  476TMC3    H2 7141   1.548   3.288  11.116 -2.8012 -1.2384 -0.7070
  476TMC3    C7 7142   1.592   3.123  11.326 -0.1731  0.4604  0.0216
  476TMC3    C8 7143   1.467   3.173  10.902  0.0163 -0.1898  0.1491
  476TMC3    O1 7144   1.536   3.026  11.377 -0.2220  0.2328 -0.1966
  476TMC3    O2 7145   1.403   3.276  10.919 -0.0547 -0.6811 -0.2419
  477MPD2     C 7146   3.880   4.313  11.548 -0.0973  0.3956 -0.1156
  477MPD2    C1 7147   3.785   4.340  11.648  0.5142 -0.0278  0.4932
  477MPD2    C2 7148   3.761   4.256  11.754 -0.4435  0.0295 -0.4116
  477MPD2    C3 7149   3.838   4.143  11.764 -0.2080  0.2299 -0.1786
  477MPD2    C4 7150   3.921   4.102  11.664  0.1221 -0.8916 -0.0738
  477MPD2    C5 7151   3.943   4.192  11.561  0.1176  0.2875 -1.4864
  477MPD2     H 7152   3.677   4.271  11.821 -1.6661 -0.5124 -1.8309
  477MPD2    H1 7153   3.979   4.011  11.673  1.2077 -0.0382  1.5462
  477MPD2    H2 7154   3.907   4.375  11.463  2.1245 -1.1966 -0.5657
  477MPD2    H3 7155   4.012   4.167  11.481  1.4214  1.7961 -0.8417
  477MPD2     N 7156   3.815   4.061  11.879 -0.1962 -0.0131  0.3163
  477MPD2    H5 7157   3.744   4.083  11.948 -0.6251  0.6001 -0.3210
  477MPD2    N1 7158   3.707   4.456  11.622 -0.1804 -0.9468  0.0103
  477MPD2    H7 7159   3.713   4.510  11.537 -1.0168 -0.5637  0.2023
  478TMC3    C1 7160   3.523   4.593  11.642  0.0874  0.0660  0.4758
  478TMC3    C2 7161   3.444   4.662  11.725  1.1745 -0.0695  0.0831
  478TMC3    C3 7162   3.347   0.004  11.662  0.0040  0.6432  0.2877
  478TMC3    C4 7163   3.516   4.598  11.505  0.5554  0.4403 -0.0866
  478TMC3    C5 7164   3.423   4.682  11.448 -0.6967  0.1166 -0.0423
  478TMC3    C6 7165   3.336   0.020  11.529  0.6120 -0.3264  0.1704
  478TMC3     C 7166   3.605   4.491  11.703 -0.1864 -0.3169 -0.2895
  478TMC3     O 7167   3.600   4.483  11.824  0.4794 -0.4574  0.5492
  478TMC3     H 7168   3.457   4.665  11.832 -0.5129 -1.8565  0.3331
  478TMC3    H1 7169   3.565   4.522  11.445 -1.0508  0.4507 -1.4182
  478TMC3    H2 7170   3.253   0.076  11.487  1.9560  1.7807  0.2900
  478TMC3    C7 7171   3.423   4.675  11.305 -0.0354  0.5957 -0.6164
  478TMC3    C8 7172   3.235   0.032  11.756 -0.3135  1.2473 -0.9550
  478TMC3    O1 7173   3.518   4.633  11.243  0.6362  0.1190  0.6334
  478TMC3    O2 7174   3.228   4.694  11.851  0.0953 -0.1298  0.7269
  479MPD2     C 7175   2.398   2.123  15.487 -0.5665 -0.0213  1.0355
  479MPD2    C1 7176   2.342   2.058  15.592 -0.9486 -0.2482  0.1642
  479MPD2    C2 7177   2.386   2.087  15.719  0.5495 -0.9974  0.6002
  479MPD2    C3 7178   2.475   2.185  15.750 -0.0869  0.3099  0.0589
  479MPD2    C4 7179   2.516   2.261  15.646 -0.8905 -0.2256 -0.0546
  479MPD2    C5 7180   2.480   2.228  15.513  0.2379 -0.6750  1.8267
  479MPD2     H 7181   2.347   2.020  15.795  1.0622 -0.1885  1.5791
  479MPD2    H1 7182   2.588   2.341  15.656  0.8908 -1.6257 -1.6470
  479MPD2    H2 7183   2.370   2.100  15.385 -0.0267 -0.3103  0.9503
  479MPD2    H3 7184   2.514   2.296  15.436 -1.0507 -1.5185  0.5343
  479MPD2     N 7185   2.527   2.215  15.879 -0.5428 -1.2667  0.7696
  479MPD2    H5 7186   2.616   2.264  15.883 -2.5470  2.3164  1.6785
  479MPD2    N1 7187   2.250   1.958  15.561  0.1410  0.0261  0.3596
  479MPD2    H7 7188   2.227   1.934  15.465  0.1196  0.8600  0.1606
  480TMC3    C1 7189   2.205   1.977  16.136 -0.0790 -0.2318  0.0079
  480TMC3    C2 7190   2.102   2.027  16.064 -0.5400  0.5828  0.5163
  480TMC3    C3 7191   2.128   2.137  15.985 -0.1998 -0.2558  0.5642
  480TMC3    C4 7192   2.336   2.032  16.124  0.4468  0.1822 -0.1624
  480TMC3    C5 7193   2.355   2.122  16.030  0.3908 -0.3114 -0.0303
  480TMC3    C6 7194   2.252   2.181  15.959 -0.3922  0.0883 -0.4850
  480TMC3     C 7195   2.201   1.841  16.201 -1.1740  0.0538  0.0622
  480TMC3     O 7196   2.305   1.778  16.228 -0.1587 -0.4245 -0.7329
  480TMC3     H 7197   1.999   1.991  16.062 -0.6322  0.9607 -1.6057
  480TMC3    H1 7198   2.412   1.999  16.194  0.8201  2.9326  0.7198
  480TMC3    H2 7199   2.275   2.259  15.887  1.2075  0.9295  0.9357
  480TMC3    C7 7200   2.495   2.168  16.004  0.6696  0.1975  0.0419
  480TMC3    C8 7201   2.029   2.166  15.886 -0.4194 -0.1336  0.0842
  480TMC3    O1 7202   2.565   2.171  16.104  0.2216 -0.2401  0.5161
  480TMC3    O2 7203   1.913   2.140  15.919 -0.4273 -0.2226  0.0846
  481MPD2     C 7204   3.951   1.502  14.483 -0.4214 -0.3179 -0.1227
  481MPD2    C1 7205   3.868   1.433  14.570 -0.9757  0.0282  0.0536
  481MPD2    C2 7206   3.910   1.402  14.696 -0.2225 -0.2141 -0.0676
  481MPD2    C3 7207   4.046   1.439  14.732 -0.2322 -0.2407 -0.6090
  481MPD2    C4 7208   4.125   1.493  14.636  0.0720  0.9638  0.8921
  481MPD2    C5 7209   4.075   1.539  14.515 -0.5235 -0.0007 -0.4627
  481MPD2     H 7210   3.853   1.344  14.767  1.0568 -0.6437  0.6069
  481MPD2    H1 7211   4.230   1.507  14.658  0.3943  0.6724 -0.4375
  481MPD2    H2 7212   3.919   1.520  14.381 -0.3976 -1.5240 -0.3535
  481MPD2    H3 7213   4.135   1.578  14.433  0.5808  0.5527  0.6159
  481MPD2     N 7214   4.106   1.418  14.856  0.5925  0.2179 -0.4806
  481MPD2    H5 7215   4.201   1.454  14.860 -0.2049  2.4615 -1.8375
  481MPD2    N1 7216   3.739   1.404  14.522 -0.0759  0.3101 -0.5685
  481MPD2    H7 7217   3.709   1.437  14.431  1.5723 -0.0697 -1.2596
  482TMC3    C1 7218   3.536   1.307  14.509  0.1506 -1.2688 -0.7120
  482TMC3    C2 7219   3.553   1.223  14.401  0.2601 -0.2571 -0.5014
  482TMC3    C3 7220   3.444   1.220  14.325  0.4725 -0.5961  0.2355
  482TMC3    C4 7221   3.431   1.387  14.528  0.0141 -0.2896 -0.7548
  482TMC3    C5 7222   3.339   1.390  14.439  0.4449 -0.2643 -1.0339
  482TMC3    C6 7223   3.349   1.314  14.328 -0.4308 -0.2147  0.0586
  482TMC3     C 7224   3.647   1.330  14.588  0.2890  0.7069 -0.0374
  482TMC3     O 7225   3.653   1.287  14.703 -0.2570  0.4431 -0.1336
  482TMC3     H 7226   3.631   1.149  14.399  1.7933  1.3358  0.6525
  482TMC3    H1 7227   3.424   1.458  14.610 -0.1307  0.8510 -1.7617
  482TMC3    H2 7228   3.279   1.345  14.252 -0.3110  0.7375  0.3321
  482TMC3    C7 7229   3.290   1.523  14.419  0.0229 -0.4388  1.0521
  482TMC3    C8 7230   3.438   1.123  14.218 -0.7458  0.5859 -0.1560
  482TMC3    O1 7231   3.176   1.547  14.462 -0.6799 -0.7738  0.2070
  482TMC3    O2 7232   3.542   1.063  14.194 -0.2486 -0.4869 -0.4996
  483TMC3    C1 7233   2.179   0.717   1.421 -0.5994  0.6537  0.2654
  483TMC3    C2 7234   2.297   0.758   1.386 -0.1403  0.7285 -0.6749
  483TMC3    C3 7235   2.395   0.671   1.367  0.2013 -0.4233 -0.0308
  483TMC3    C4 7236   2.149   0.595   1.450  0.1762 -0.5583  0.0683
  483TMC3    C5 7237   2.246   0.502   1.438 -0.4117  0.6388  0.4646
  483TMC3    C6 7238   2.372   0.537   1.394 -0.4538  0.2879  0.3324
  483TMC3     C 7239   2.081   0.786   1.341  0.6430 -0.5127 -0.2037
  483TMC3     O 7240   2.091   0.904   1.316  0.8167  0.6202  0.1368
  483TMC3     H 7241   2.305   0.861   1.355 -1.5242  1.0744  0.0937
  483TMC3    H1 7242   2.059   0.557   1.497 -1.6274  0.3689 -2.6484
  483TMC3    H2 7243   2.446   0.478   1.342  0.1601  0.9768  0.4224
  483TMC3    C7 7244   2.197   0.368   1.408 -0.8533 -0.0617 -0.1789
  483TMC3    C8 7245   2.485   0.718   1.263 -0.4352 -0.6774  0.8782
  483TMC3    O1 7246   2.088   0.361   1.346 -0.0533  0.1569  0.6009
  483TMC3    O2 7247   2.445   0.816   1.201  0.0447 -0.1365  0.0860
  484MPD2     C 7248   4.587   2.775  13.252 -0.1439 -0.3915 -0.0401
  484MPD2    C1 7249   4.558   2.880  13.168  0.0584 -0.1992 -0.4363
  484MPD2    C2 7250   4.666   2.955  13.126 -1.2986  0.1246  0.8392
  484MPD2    C3 7251   0.063   2.925  13.161  0.3737 -0.1136  0.2640
  484MPD2    C4 7252   0.082   2.812  13.235  0.6313 -0.3874 -0.7610
  484MPD2    C5 7253   4.716   2.734  13.276  0.5987 -0.7122  0.4678
  484MPD2     H 7254   4.650   3.031  13.050  1.4652 -0.4599 -0.3339
  484MPD2    H1 7255   0.183   2.782  13.263 -0.0402 -0.1058  1.9058
  484MPD2    H2 7256   4.504   2.713  13.286 -0.4835  1.2195  2.0739
  484MPD2    H3 7257   0.007   2.650  13.338  0.1450 -0.5870  0.8500
  484MPD2     N 7258   0.175   2.989  13.108  0.3103  0.2433 -0.3438
  484MPD2    H5 7259   0.265   2.971  13.152  0.1397 -0.9623 -0.4763
  484MPD2    N1 7260   4.424   2.896  13.132 -0.1287 -0.6313 -0.2089
  484MPD2    H7 7261   4.355   2.833  13.171 -2.2368  1.7354 -0.1050
  485TMC3    C1 7262   0.308   3.129  12.977 -0.4749  0.2585  0.0163
  485TMC3    C2 7263   0.415   3.108  13.066  0.4026  0.2165 -0.3243
  485TMC3    C3 7264   0.531   3.177  13.034  0.2566 -0.8214 -0.3607
  485TMC3    C4 7265   0.323   3.201  12.861  0.2091 -0.4795 -0.3147
  485TMC3    C5 7266   0.440   3.264  12.832  0.7085 -0.3413  0.1608
  485TMC3    C6 7267   0.541   3.252  12.924 -0.9514 -0.0634 -0.5806
  485TMC3     C 7268   0.182   3.075  13.001 -0.0058  0.7981  0.1054
  485TMC3     O 7269   0.095   3.097  12.916 -0.3706  0.5862 -0.1495
  485TMC3     H 7270   0.399   3.054  13.158 -1.1376 -0.4776 -1.0041
  485TMC3    H1 7271   0.247   3.192  12.784 -0.1897  0.3436 -0.0232
  485TMC3    H2 7272   0.629   3.315  12.912 -0.1354 -1.3581 -1.4190
  485TMC3    C7 7273   0.492   3.244  12.698  0.2689  0.5743 -0.5925
  485TMC3    C8 7274   0.654   3.100  13.047  0.0964  0.2999  0.1890
  485TMC3    O1 7275   0.611   3.214  12.685 -0.0746  0.5068  0.3454
  485TMC3    O2 7276   0.701   3.061  13.155 -0.1915 -0.2806 -0.2449
  486MPD2     C 7277   1.949   1.885  13.352 -0.2925  0.0553  0.0682
  486MPD2    C1 7278   1.904   1.819  13.236  0.4335  0.4104  0.1533
  486MPD2    C2 7279   1.857   1.891  13.124 -0.9706 -0.0776 -0.6030
  486MPD2    C3 7280   1.844   2.030  13.136 -0.2728  0.3371  0.4388
  486MPD2    C4 7281   1.900   2.095  13.252 -0.0649 -0.6884 -0.1068
  486MPD2    C5 7282   1.948   2.024  13.357  0.3368  0.4197  0.0232
  486MPD2     H 7283   1.819   1.839  13.037 -1.0382 -0.6480 -0.2336
  486MPD2    H1 7284   1.895   2.202  13.268  1.1552 -0.7264  0.5525
  486MPD2    H2 7285   1.991   1.832  13.436 -0.8174 -0.0165  0.2833
  486MPD2    H3 7286   1.959   2.077  13.451  0.9112 -1.1291  0.8310
  486MPD2     N 7287   1.786   2.111  13.032 -0.5283  0.4250 -0.0207
  486MPD2    H5 7288   1.755   2.062  12.949  0.7362 -3.7281  1.9197
  486MPD2    N1 7289   1.893   1.679  13.247  0.2628  0.1942 -0.3960
  486MPD2    H7 7290   1.910   1.633  13.336 -1.2263 -0.3736 -0.4067
  487TMC3    C1 7291   1.856   1.452  13.207  0.2893  0.1827  0.5305
  487TMC3    C2 7292   1.780   1.359  13.144  0.1477 -0.2206 -0.9708
  487TMC3    C3 7293   1.789   1.230  13.169 -0.3069 -1.2006  0.2063
  487TMC3    C4 7294   1.935   1.418  13.310  0.1556 -0.3204  0.2275
  487TMC3    C5 7295   1.923   1.288  13.352 -0.1349 -0.0729 -0.2684
  487TMC3    C6 7296   1.865   1.189  13.278 -0.8911  0.3166 -0.3252
  487TMC3     C 7297   1.849   1.591  13.155 -0.7622  0.5045 -0.2931
  487TMC3     O 7298   1.816   1.612  13.039  0.1745  0.0700 -0.3264
  487TMC3     H 7299   1.717   1.388  13.060  0.9539 -0.1454 -1.5479
  487TMC3    H1 7300   1.994   1.491  13.364  1.3236 -0.5360 -0.7490
  487TMC3    H2 7301   1.852   1.087  13.312 -0.0430  1.0430  2.2186
  487TMC3    C7 7302   1.923   1.287  13.504  0.2551  0.0642 -0.2378
  487TMC3    C8 7303   1.667   1.164  13.150 -0.3945  0.6785  0.2405
  487TMC3    O1 7304   1.995   1.366  13.561 -0.5138 -0.3491  0.3441
  487TMC3    O2 7305   1.669   1.048  13.106 -0.1087 -0.0650  0.2775
  488MPD2     C 7306   1.835   3.564  16.347  0.1288 -0.2215 -0.0198
  488MPD2    C1 7307   1.896   3.633  16.449 -0.1028 -0.1691  0.0830
  488MPD2    C2 7308   1.848   3.617  16.577  0.7643  0.3268  0.1394
  488MPD2    C3 7309   1.751   3.533  16.611 -0.4109  0.0941  0.3066
  488MPD2    C4 7310   1.694   3.453  16.514 -0.5366  0.1910 -0.4481
  488MPD2    C5 7311   1.740   3.469  16.388  0.6302 -0.0474 -0.0183
  488MPD2     H 7312   1.901   3.670  16.656  1.7176  1.1199 -1.0326
  488MPD2    H1 7313   1.621   3.376  16.532 -0.1760  0.2095  1.1200
  488MPD2    H2 7314   1.872   3.575  16.246 -1.1144  0.4183 -0.4003
  488MPD2    H3 7315   1.684   3.417  16.311  2.1238  0.9096 -1.7694
  488MPD2     N 7316   1.703   3.537  16.740  0.7390 -0.1055 -0.6065
  488MPD2    H5 7317   1.750   3.610  16.793 -1.3871  1.2727 -0.6076
  488MPD2    N1 7318   1.999   3.729  16.428 -0.5137  0.0457  0.2187
  488MPD2    H7 7319   2.049   3.764  16.509  0.2377  0.6783 -0.5066
  489TMC3    C1 7320   1.647   3.476  16.945  0.2417 -0.6461  0.5198
  489TMC3    C2 7321   1.675   3.601  16.985  0.5932  0.5014 -0.0987
  489TMC3    C3 7322   1.676   3.623  17.124  0.1636  0.2852 -0.2849
  489TMC3    C4 7323   1.621   3.378  17.034 -0.0236 -0.4226 -0.1448
  489TMC3    C5 7324   1.637   3.401  17.171 -0.1752 -0.0749 -0.1649
  489TMC3    C6 7325   1.683   3.524  17.217  0.3786 -0.1351  0.3611
  489TMC3     C 7326   1.644   3.440  16.807  0.3595  0.6484  0.1181
  489TMC3     O 7327   1.585   3.334  16.773 -0.2702 -0.3123  0.3951
  489TMC3     H 7328   1.659   3.681  16.914  1.2357 -2.7713 -3.9162
  489TMC3    H1 7329   1.621   3.276  16.998 -1.1363 -0.3001 -0.4950
  489TMC3    H2 7330   1.694   3.547  17.323  1.0371  1.4164 -0.0398
  489TMC3    C7 7331   1.617   3.297  17.265  0.2698 -0.2130  0.0211
  489TMC3    C8 7332   1.750   3.739  17.161  0.1324 -0.7455 -0.0088
  489TMC3    O1 7333   1.647   3.326  17.382 -0.1959  0.3142  0.2091
  489TMC3    O2 7334   1.842   3.761  17.081  0.4221 -0.1080 -0.0666
  490MPD2     C 7335   2.732   3.348  17.175 -0.1598 -0.5530 -0.6833
  490MPD2    C1 7336   2.712   3.383  17.307  0.2922  0.4265  0.3113
  490MPD2    C2 7337   2.814   3.447  17.380 -0.8385  0.7471  0.2450
  490MPD2    C3 7338   2.929   3.491  17.314 -0.0515 -0.4648 -0.2080
  490MPD2    C4 7339   2.950   3.454  17.183  0.6566  0.0825 -0.3084
  490MPD2    C5 7340   2.853   3.381  17.115  0.2191  0.8684 -0.2606
  490MPD2     H 7341   2.810   3.461  17.487 -2.3898 -2.9931  0.6842
  490MPD2    H1 7342   3.030   3.494  17.122  1.3196 -0.0831  0.4554
  490MPD2    H2 7343   2.659   3.297  17.114 -0.1669 -1.7814  0.3529
  490MPD2    H3 7344   2.879   3.357  17.013 -1.3183 -0.8002 -0.2542
  490MPD2     N 7345   3.031   3.578  17.371 -0.2955  0.0886 -0.2407
  490MPD2    H5 7346   3.109   3.602  17.311  0.8920 -1.7620  0.5507
  490MPD2    N1 7347   2.599   3.338  17.375 -0.0399 -0.3898  0.0233
  490MPD2    H7 7348   2.602   3.350  17.475 -0.2851 -1.0818  0.1135
  491TMC3    C1 7349   2.385   3.240  17.404  0.0672 -0.1054  1.0401
  491TMC3    C2 7350   2.406   3.260  17.541 -1.1446 -0.1833  0.2276
  491TMC3    C3 7351   2.370   3.158  17.630  0.2488  0.4203 -0.3566
  491TMC3    C4 7352   2.328   3.126  17.354 -0.0414  0.5342 -0.2229
  491TMC3    C5 7353   2.301   3.031  17.446 -0.3842  0.3837 -0.0717
  491TMC3    C6 7354   2.331   3.033  17.580 -0.4342  0.2310  0.2934
  491TMC3     C 7355   2.487   3.289  17.312 -0.3905 -0.0431 -1.0122
  491TMC3     O 7356   2.465   3.273  17.190 -0.0149  0.0328 -0.5373
  491TMC3     H 7357   2.430   3.355  17.587  0.6218  0.2206 -1.5283
  491TMC3    H1 7358   2.302   3.110  17.250 -2.0887  3.3685 -0.1464
  491TMC3    H2 7359   2.288   2.960  17.649  0.2348  0.4623  0.9636
  491TMC3    C7 7360   2.291   2.902  17.388  0.9055 -0.1382 -0.3335
  491TMC3    C8 7361   2.369   3.172   0.025 -1.0419 -0.3955  0.2185
  491TMC3    O1 7362   2.267   2.900  17.267  0.5052  0.5567 -0.5173
  491TMC3    O2 7363   2.326   3.279   0.065 -0.2850  0.0691  0.5770
  492MPD2     C 7364   3.116   3.381  11.993 -0.3267 -0.2143 -0.9351
  492MPD2    C1 7365   3.094   3.269  11.917  0.4345 -0.3171  0.2823
  492MPD2    C2 7366   3.033   3.158  11.976  0.4692 -0.4485 -0.2956
  492MPD2    C3 7367   3.000   3.151  12.109  0.2325 -0.7988 -0.2785
  492MPD2    C4 7368   3.013   3.276  12.177  0.7452 -0.5768  0.4476
  492MPD2    C5 7369   3.077   3.381  12.123 -0.4409  0.0192  0.3617
  492MPD2     H 7370   3.009   3.071  11.915 -1.7927 -2.4223  3.4489
  492MPD2    H1 7371   2.997   3.281  12.284 -4.2782  0.2755 -0.3663
  492MPD2    H2 7372   3.153   3.475  11.954  0.6279 -1.1660 -2.2979
  492MPD2    H3 7373   3.104   3.458  12.195 -0.2890 -0.2452  0.5892
  492MPD2     N 7374   2.928   3.042  12.169  0.2474  0.1053  0.2258
  492MPD2    H5 7375   2.907   3.051  12.268 -2.9631 -1.3413 -0.3031
  492MPD2    N1 7376   3.124   3.272  11.781 -0.2333  0.0534 -0.1324
  492MPD2    H7 7377   3.153   3.361  11.742  0.2370  0.3284  0.8448
  493TMC3    C1 7378   3.110   3.222  11.552 -0.4216  0.2798 -0.3588
  493TMC3    C2 7379   3.124   3.349  11.532 -0.4484  0.4076 -0.0694
  493TMC3    C3 7380   3.121   3.394  11.404 -0.5105 -0.7741  0.4878
  493TMC3    C4 7381   3.103   3.132  11.450 -0.6891  0.1080  0.3447
  493TMC3    C5 7382   3.112   3.182  11.316  0.3201 -0.1139  0.6331
  493TMC3    C6 7383   3.117   3.316  11.301 -0.7013  0.0582 -0.0328
  493TMC3     C 7384   3.107   3.166  11.689  0.1327  0.3731 -0.2753
  493TMC3     O 7385   3.087   3.046  11.702 -0.8286  0.3855  0.3964
  493TMC3     H 7386   3.120   3.423  11.610 -0.0518  1.5681 -1.1452
  493TMC3    H1 7387   3.099   3.025  11.466  0.1423 -0.1707 -1.2349
  493TMC3    H2 7388   3.146   3.356  11.204  0.9835 -0.3005  0.3176
  493TMC3    C7 7389   3.025   3.119  11.214  0.6789  0.1004  0.7399
  493TMC3    C8 7390   3.125   3.540  11.390  0.2820 -0.7315 -0.2514
  493TMC3    O1 7391   2.980   3.189  11.125  0.4166  0.2231 -0.1264
  493TMC3    O2 7392   3.115   3.603  11.496 -0.4720  0.4672 -0.3629
  494TMC3    C1 7393   3.476   0.356   0.859  0.4127 -0.5729  0.4289
  494TMC3    C2 7394   3.460   0.239   0.792  0.2661 -0.6738 -0.0333
  494TMC3    C3 7395   3.531   0.228   0.679 -0.5669  0.5892 -0.0227
  494TMC3    C4 7396   3.555   0.455   0.819  0.2290 -0.4244 -0.4157
  494TMC3    C5 7397   3.637   0.435   0.711 -0.2870 -0.2285  0.3545
  494TMC3    C6 7398   3.624   0.321   0.645  0.5436 -0.1005  0.8231
  494TMC3     C 7399   3.435   0.358   1.000  0.1690 -0.2379 -0.0365
  494TMC3     O 7400   3.517   0.409   1.074  0.0127  0.2088  0.2453
  494TMC3     H 7401   3.405   0.154   0.830 -0.0407 -0.7696 -0.6984
  494TMC3    H1 7402   3.562   0.546   0.878  0.8922 -0.0566 -1.0515
  494TMC3    H2 7403   3.696   0.294   0.569 -0.8720  0.1728 -0.6194
  494TMC3    C7 7404   3.741   0.526   0.687  1.0865  0.0459  0.2574
  494TMC3    C8 7405   3.579   0.096   0.663  0.1524 -0.6957 -0.3824
  494TMC3    O1 7406   3.758   0.611   0.777 -0.0814  0.2120 -0.1993
  494TMC3    O2 7407   3.700   0.091   0.685  0.1576 -0.0325  0.7361
  495TMC3    C1 7408   2.411   2.187  15.007 -0.5339 -0.3985 -0.6691
  495TMC3    C2 7409   2.333   2.199  14.896 -0.1696 -0.2932 -0.3521
  495TMC3    C3 7410   2.206   2.244  14.899  0.1772 -0.6849  0.0148
  495TMC3    C4 7411   2.365   2.244  15.124 -0.6995  0.4015  0.2248
  495TMC3    C5 7412   2.233   2.295  15.126 -0.6364 -0.0843  1.1528
  495TMC3    C6 7413   2.153   2.290  15.016  0.2702  0.0586 -0.9112
  495TMC3     C 7414   2.453   2.051  15.039  0.3155  0.2005  0.4545
  495TMC3     O 7415   2.420   2.012  15.151 -0.1198 -0.0167  0.4954
  495TMC3     H 7416   2.363   2.142  14.809  1.3697 -0.6350  0.4025
  495TMC3    H1 7417   2.428   2.237  15.212 -1.5935  1.7652  0.9822
  495TMC3    H2 7418   2.047   2.310  15.021  0.4107  0.1022  1.5900
  495TMC3    C7 7419   2.192   2.318  15.260  0.2116 -0.3602  0.6515
  495TMC3    C8 7420   2.112   2.200  14.799 -0.4603 -0.3853  0.2487
  495TMC3    O1 7421   2.272   2.367  15.337  0.2712 -0.2950 -0.0704
  495TMC3    O2 7422   1.996   2.178  14.834  0.5622 -0.7199  0.4446
  496MPD2     C 7423   3.933   2.150  15.674  0.0358  0.7914 -0.5654
  496MPD2    C1 7424   4.045   2.148  15.750 -0.6974 -0.0020 -1.1375
  496MPD2    C2 7425   4.031   2.191  15.886  0.0624  0.1869 -0.0199
  496MPD2    C3 7426   3.913   2.245  15.933  0.3406  0.0724  0.5795
  496MPD2    C4 7427   3.801   2.263  15.843 -0.0021 -0.1920 -0.2238
  496MPD2    C5 7428   3.815   2.210  15.721  0.4892  0.0766 -0.2790
  496MPD2     H 7429   4.115   2.173  15.952  1.5837  0.6233 -1.8292
  496MPD2    H1 7430   3.702   2.285  15.879  0.2261  0.2212  0.1515
  496MPD2    H2 7431   3.939   2.134  15.567  0.0999 -1.2917 -0.2481
  496MPD2    H3 7432   3.726   2.216  15.660 -0.7715 -0.4045  1.5217
  496MPD2     N 7433   3.901   2.284  16.072 -0.4791 -0.3852 -0.3833
  496MPD2    H5 7434   3.827   2.343  16.106  0.7307 -0.5031  2.4905
  496MPD2    N1 7435   4.163   2.096  15.692 -0.5880 -0.3814  0.0614
  496MPD2    H7 7436   4.176   2.071  15.595  3.0229 -1.6107  0.8261
  497TMC3    C1 7437   3.974   2.300  16.300 -0.1333  0.2736 -0.0235
  497TMC3    C2 7438   3.884   2.402  16.307  0.1394 -0.0863 -0.0170
  497TMC3    C3 7439   3.832   2.424  16.435  0.3043  0.2735 -0.1557
  497TMC3    C4 7440   4.018   2.226  16.408 -0.1003 -0.0508  0.2272
  497TMC3    C5 7441   3.967   2.257  16.529 -0.0021  0.1167 -0.1443
  497TMC3    C6 7442   3.871   2.351  16.545 -0.0909 -0.4775 -0.3385
  497TMC3     C 7443   3.988   2.240  16.170 -0.3915  0.0003  0.4516
  497TMC3     O 7444   4.074   2.150  16.169  0.6977  0.9140 -0.5236
  497TMC3     H 7445   3.861   2.476  16.231  2.0748  0.0667 -0.4426
  497TMC3    H1 7446   4.091   2.149  16.387  1.8051  1.6208  0.6681
  497TMC3    H2 7447   3.829   2.378  16.642  1.8626  0.2522  0.2963
  497TMC3    C7 7448   3.985   2.176  16.648 -0.2145 -0.7487  0.2350
  497TMC3    C8 7449   3.765   2.553  16.465  0.0429  0.0165 -0.6730
  497TMC3    O1 7450   3.882   2.160  16.710  0.2363 -0.7210  0.6939
  497TMC3    O2 7451   3.786   2.602  16.573  0.3153  0.7286  0.4810
  498MPD2     C 7452   1.264   2.786  10.378 -0.5930 -0.0285 -0.0771
  498MPD2    C1 7453   1.139   2.837  10.418 -0.6250 -0.6597  0.1608
  498MPD2    C2 7454   1.031   2.759  10.422  0.0160 -0.0070 -0.1703
  498MPD2    C3 7455   1.033   2.625  10.384 -0.2796 -0.2377 -0.4740
  498MPD2    C4 7456   1.151   2.581  10.327  0.0624 -0.5568  0.1798
  498MPD2    C5 7457   1.269   2.657  10.326 -0.0670  0.3088  0.7197
  498MPD2     H 7458   0.937   2.804  10.455  1.9879  0.8286  4.3517
  498MPD2    H1 7459   1.168   2.480  10.289 -0.6035 -0.7502  0.4080
  498MPD2    H2 7460   1.355   2.845  10.375 -0.8567  0.4047  0.5387
  498MPD2    H3 7461   1.364   2.619  10.290 -0.1103 -0.0438  0.9758
  498MPD2     N 7462   0.914   2.552  10.401  0.0954  0.1611  1.5320
  498MPD2    H5 7463   0.838   2.610  10.435 -0.0907 -0.6491  2.5028
  498MPD2    N1 7464   1.113   2.969  10.457 -0.1342 -0.5058  0.0078
  498MPD2    H7 7465   1.022   2.981  10.500  0.4344  2.2060  0.4459
  499TMC3    C1 7466   1.147   3.186  10.520 -0.4151 -0.2127  0.9825
  499TMC3    C2 7467   1.230   3.283  10.568 -0.0028  0.8486  0.4741
  499TMC3    C3 7468   1.170   3.389  10.637 -0.2550 -0.3605 -0.0430
  499TMC3    C4 7469   1.006   3.196  10.531  0.2228 -0.1361  0.0437
  499TMC3    C5 7470   0.947   3.297  10.604 -0.4178  0.2474 -0.3470
  499TMC3    C6 7471   1.030   3.394  10.647 -0.4576 -0.1439  0.5034
  499TMC3     C 7472   1.204   3.066  10.460  0.0515  0.3998 -0.2006
  499TMC3     O 7473   1.325   3.061  10.447  0.0079  0.5098 -0.6972
  499TMC3     H 7474   1.336   3.274  10.549  0.0765 -0.0548  1.3585
  499TMC3    H1 7475   0.959   3.140  10.451  0.7387  0.5799 -0.7670
  499TMC3    H2 7476   0.984   3.470  10.710  0.2892  0.7726 -0.0532
  499TMC3    C7 7477   0.825   3.357  10.547 -0.2676 -0.1695 -0.6866
  499TMC3    C8 7478   1.256   3.479  10.716  0.0584  0.7192  0.1876
  499TMC3    O1 7479   0.810   3.478  10.552  0.0637  0.6616 -0.1817
  499TMC3    O2 7480   1.207   3.536  10.813 -0.3261  0.3464  0.4472
  500MPD2     C 7481   2.151   4.108  10.352  0.1782  0.3777  0.4680
  500MPD2    C1 7482   2.097   4.140  10.477  0.7296  0.0015 -0.2853
  500MPD2    C2 7483   1.982   4.068  10.515  0.0322 -0.1673  0.0464
  500MPD2    C3 7484   1.926   3.976  10.432  0.3130 -0.1378  0.0446
  500MPD2    C4 7485   1.986   3.940  10.311  0.0740 -0.8783  0.2963
  500MPD2    C5 7486   2.093   4.009  10.273 -0.4164 -0.5732  0.4669
  500MPD2     H 7487   1.943   4.107  10.609  1.8389 -0.0010  0.7158
  500MPD2    H1 7488   1.929   3.885  10.238 -0.4815  0.5298 -0.3240
  500MPD2    H2 7489   2.232   4.168  10.312  0.1395  1.9374  2.6978
  500MPD2    H3 7490   2.139   3.992  10.176 -1.6942  2.3867 -0.6805
  500MPD2     N 7491   1.808   3.914  10.457  0.0716  0.0058 -0.0996
  500MPD2    H5 7492   1.777   3.842  10.393  0.8304 -0.3066 -0.1193
  500MPD2    N1 7493   2.132   4.250  10.554  0.3270  0.5378  1.0467
  500MPD2    H7 7494   2.067   4.275  10.628 -1.0737 -0.4407  0.1521
  501TMC3    C1 7495   2.210   4.458  10.606  1.3803  0.8613  0.1386
  501TMC3    C2 7496   2.226   4.576  10.539  0.1026 -0.1935  0.4952
  501TMC3    C3 7497   2.316   4.667  10.587 -0.4863 -0.2465  0.4790
  501TMC3    C4 7498   2.294   4.436  10.712 -0.0079 -0.2399 -0.2269
  501TMC3    C5 7499   2.384   4.530  10.753 -0.2490 -1.0915  0.1456
  501TMC3    C6 7500   2.409   4.646  10.692 -0.1480 -0.2197 -0.0597
  501TMC3     C 7501   2.216   4.351  10.512 -0.5112  0.1818 -0.0921
  501TMC3     O 7502   2.305   4.362  10.431  0.4225 -1.1669  0.4861
  501TMC3     H 7503   2.171   4.612  10.454  1.9260 -0.3358 -0.7433
  501TMC3    H1 7504   2.295   4.341  10.764  2.5559 -0.3317 -0.4198
  501TMC3    H2 7505   2.491   4.711  10.718  2.2539 -2.9997 -0.7005
  501TMC3    C7 7506   2.487   4.472  10.839 -0.2220 -0.2200 -0.2120
  501TMC3    C8 7507   2.344   0.049  10.505  0.8903 -0.5185  0.3180
  501TMC3    O1 7508   2.457   4.385  10.918  0.0906 -0.1471 -0.1046
  501TMC3    O2 7509   2.317   0.045  10.381  0.3701  0.6860  0.4185
  502TMC3    C1 7510   1.714   3.062  15.036  0.2265  0.3394  0.1364
  502TMC3    C2 7511   1.695   3.200  15.027  0.5797 -0.6606  0.8953
  502TMC3    C3 7512   1.570   3.248  15.049 -0.1629 -0.4309  0.2097
  502TMC3    C4 7513   1.612   2.975  15.067 -0.7030  0.9309 -0.3093
  502TMC3    C5 7514   1.491   3.025  15.093 -0.6689 -0.3185 -0.2805
  502TMC3    C6 7515   1.467   3.164  15.084  0.1283 -0.0187 -0.2962
  502TMC3     C 7516   1.832   3.031  15.104 -0.1296  0.3357  0.4607
  502TMC3     O 7517   1.933   3.090  15.066  0.7311 -0.4370 -0.0737
  502TMC3     H 7518   1.785   3.259  15.015  0.7875 -1.1933 -0.1683
  502TMC3    H1 7519   1.628   2.868  15.052  3.4774  1.7564 -1.9683
  502TMC3    H2 7520   1.370   3.207  15.105 -0.0797  1.2957 -3.8406
  502TMC3    C7 7521   1.433   2.941  15.202  0.2959 -0.7633  0.5116
  502TMC3    C8 7522   1.551   3.393  15.037 -0.2396  0.2729 -0.0791
  502TMC3    O1 7523   1.520   2.884  15.265  0.8680  0.3140  1.1616
  502TMC3    O2 7524   1.653   3.452  14.996  0.1429 -0.0762 -0.7834
  503MPD2     C 7525   3.597   4.043  17.346 -0.1543  0.4075 -0.0104
  503MPD2    C1 7526   3.635   4.045  17.478 -0.9156 -0.5798 -0.2438
  503MPD2    C2 7527   3.702   3.942  17.536  0.5924 -0.3385  0.5444
  503MPD2    C3 7528   3.731   3.832  17.461 -0.2985  0.3341  0.7401
  503MPD2    C4 7529   3.682   3.828  17.331 -0.1397  0.2702  0.0835
  503MPD2    C5 7530   3.618   3.937  17.271 -0.8331 -0.0105 -0.2491
  503MPD2     H 7531   3.736   3.952  17.639 -0.3083  1.3642  0.6773
  503MPD2    H1 7532   3.676   3.731  17.282  0.7141  0.8463 -1.1658
  503MPD2    H2 7533   3.557   4.126  17.289  0.8939  0.4704 -0.6584
  503MPD2    H3 7534   3.582   3.935  17.168  0.5354  0.0902 -0.7298
  503MPD2     N 7535   3.821   3.736  17.510 -0.0406  0.4179 -0.7302
  503MPD2    H5 7536   3.841   3.738  17.609 -0.2629 -1.1172 -0.6582
  503MPD2    N1 7537   3.641   4.162  17.557 -0.6494  0.0610 -0.3250
  503MPD2    H7 7538   3.662   4.150  17.655  0.7631  0.5648 -0.5732
  504TMC3    C1 7539   4.009   3.593  17.507 -0.1471  0.1119  1.0118
  504TMC3    C2 7540   4.009   3.621  17.639  0.0590  0.2426  0.2920
  504TMC3    C3 7541   4.116   3.580  17.706 -0.6041 -0.2057  0.0236
  504TMC3    C4 7542   4.116   3.551  17.436 -0.1439 -0.0355  0.0666
  504TMC3    C5 7543   4.229   3.548  17.504 -0.1794  0.1992  0.4274
  504TMC3    C6 7544   4.232   3.546  17.643  0.1730  0.0130  0.1646
  504TMC3     C 7545   3.902   3.656  17.429  0.6642  0.3807 -0.6085
  504TMC3     O 7546   3.918   3.644  17.310 -0.1737  0.1421 -0.1355
  504TMC3     H 7547   3.923   3.652  17.698 -0.1312  2.9382 -1.4124
  504TMC3    H1 7548   4.119   3.543  17.328 -1.5798 -0.1685  0.0456
  504TMC3    H2 7549   4.326   3.530  17.694 -0.6967  0.5070  1.9462
  504TMC3    C7 7550   4.345   3.507  17.426  0.0092  0.1156  0.5591
  504TMC3    C8 7551   4.119   3.624   0.093  0.0076  0.3801  0.0810
  504TMC3    O1 7552   4.347   3.546  17.310 -0.0263 -0.1488 -0.0247
  504TMC3    O2 7553   4.072   3.732   0.119 -0.3374  0.0169 -1.0211
  505MPD2     C 7554   4.360   2.065  10.715  0.5726  0.8297 -0.3926
  505MPD2    C1 7555   4.425   2.005  10.819  0.4715  0.3453  1.0009
  505MPD2    C2 7556   4.468   2.084  10.931  0.4990  0.4958 -0.4903
  505MPD2    C3 7557   4.459   2.223  10.925 -0.2078 -0.1150 -0.2234
  505MPD2    C4 7558   4.400   2.283  10.813 -0.8604 -0.0182 -0.3288
  505MPD2    C5 7559   4.351   2.204  10.716 -0.8329  0.5404 -0.5025
  505MPD2     H 7560   4.508   2.038  11.021  0.8304  0.2760 -0.7445
  505MPD2    H1 7561   4.400   2.392  10.809 -1.5076 -0.0525 -1.2773
  505MPD2    H2 7562   4.328   2.016  10.623 -0.1367 -0.3452  0.4794
  505MPD2    H3 7563   4.315   2.258  10.629  0.6017 -0.7362 -1.8581
  505MPD2     N 7564   4.492   2.310  11.034 -0.2311 -0.0776  0.4773
  505MPD2    H5 7565   4.483   2.408  11.009  0.0258 -0.6545 -1.8504
  505MPD2    N1 7566   4.436   1.866  10.818 -0.8568 -0.5909 -0.1417
  505MPD2    H7 7567   4.407   1.825  10.730  1.2750 -1.4898 -0.4245
  506TMC3    C1 7568   4.542   1.653  10.873  0.4716  0.2612  0.1640
  506TMC3    C2 7569   4.585   1.654  10.745  0.2684  0.3295  0.0953
  506TMC3    C3 7570   4.712   1.618  10.722  0.0024 -0.5706 -0.5191
  506TMC3    C4 7571   4.621   1.602  10.974 -0.3008 -0.5733  0.1106
  506TMC3    C5 7572   0.015   1.580  10.946  0.0859  0.5465  0.1848
  506TMC3    C6 7573   0.065   1.591  10.819 -0.3892  0.2081  0.2890
  506TMC3     C 7574   4.495   1.786  10.921  0.0813 -0.6084 -0.1349
  506TMC3     O 7575   4.539   1.823  11.027  0.0473 -0.0618 -0.1554
  506TMC3     H 7576   4.531   1.698  10.662  0.2902  2.9974  1.4865
  506TMC3    H1 7577   4.588   1.606  11.078  0.1118  2.7491  0.0837
  506TMC3    H2 7578   0.173   1.584  10.813 -0.5874 -2.9760  0.4355
  506TMC3    C7 7579   0.120   1.622  11.043 -0.6048  0.2657  0.3641
  506TMC3    C8 7580   0.033   1.632  10.588 -0.5524  0.1194  0.7985
  506TMC3    O1 7581   0.228   1.570  11.046  0.2293 -0.1886 -0.4976
  506TMC3    O2 7582   4.734   1.565  10.496  0.1654 -0.2682  0.0917
  507TMC3    C1 7583   0.171   3.361  15.315  0.4037  0.7024 -1.0239
  507TMC3    C2 7584   0.171   3.367  15.177  0.2662 -0.1550 -0.5923
  507TMC3    C3 7585   0.208   3.488  15.119 -0.2043  0.0956  0.2652
  507TMC3    C4 7586   0.200   3.467  15.396 -0.6867  0.0980 -0.7266
  507TMC3    C5 7587   0.246   3.580  15.333 -0.3631 -0.5133  0.2836
  507TMC3    C6 7588   0.256   3.589  15.195  0.3235 -0.4457 -0.1823
  507TMC3     C 7589   0.070   3.268  15.368 -0.1500  0.1687  0.1676
  507TMC3     O 7590   0.011   3.204  15.281 -0.2034  0.0938  0.1117
  507TMC3     H 7591   0.133   3.284  15.119 -0.0150  0.5500 -1.4232
  507TMC3    H1 7592   0.178   3.471  15.502 -3.4018 -0.1085 -1.2758
  507TMC3    H2 7593   0.304   3.679  15.158  0.8034 -1.2241 -1.4487
  507TMC3    C7 7594   0.192   3.700  15.395 -0.1213  0.3655  0.5201
  507TMC3    C8 7595   0.114   3.540  15.025 -0.6149  0.0660  0.1967
  507TMC3    O1 7596   0.216   3.716  15.516  0.4942 -0.0492  0.0984
  507TMC3    O2 7597   0.085   3.655  15.051  0.2122  0.4862 -0.3126
  508MPD2     C 7598   1.218   0.714  16.352  0.0219  0.0763 -0.0983
  508MPD2    C1 7599   1.182   0.810  16.445 -0.6561  0.5203  0.4008
  508MPD2    C2 7600   1.102   0.920  16.407 -0.3413  0.9043 -0.1165
  508MPD2    C3 7601   1.059   0.937  16.272 -0.5164 -0.2048  0.4306
  508MPD2    C4 7602   1.103   0.844  16.183  0.3360 -0.0702 -0.5068
  508MPD2    C5 7603   1.187   0.741  16.219  0.1399 -0.4988  0.0438
  508MPD2     H 7604   1.076   0.987  16.488 -2.5160 -0.5030  0.3612
  508MPD2    H1 7605   1.072   0.842  16.079  2.0702 -2.0277 -0.9803
  508MPD2    H2 7606   1.272   0.628  16.389  1.1667  1.0331  0.4356
  508MPD2    H3 7607   1.220   0.671  16.142  0.3808  0.0061 -0.3105
  508MPD2     N 7608   0.981   1.044  16.238 -0.0487  0.2730  0.0537
  508MPD2    H5 7609   0.958   1.111  16.311  0.4024  0.4895  0.0007
  508MPD2    N1 7610   1.220   0.805  16.581  0.3240 -0.2285  0.0284
  508MPD2    H7 7611   1.180   0.873  16.645  0.5387  3.4066 -3.6912
  509TMC3    C1 7612   0.861   1.361  15.925 -0.2680  0.1028  0.1682
  509TMC3    C2 7613   0.940   1.455  15.995  0.9675  0.6818  0.2253
  509TMC3    C3 7614   0.973   1.411  16.126  0.5444 -0.3363 -0.2116
  509TMC3    C4 7615   0.829   1.236  15.974 -0.1415 -0.6300  0.0196
  509TMC3    C5 7616   0.866   1.203  16.103 -0.3185 -0.5236  0.3601
  509TMC3    C6 7617   0.925   1.296  16.182 -0.2015 -0.3640 -0.4572
  509TMC3     C 7618   0.762   1.421  15.839  0.1099  0.3056 -0.3344
  509TMC3     O 7619   0.665   1.343  15.824 -0.2010 -0.0632  0.4937
  509TMC3     H 7620   0.973   1.550  15.956  0.4496  1.2452  1.1534
  509TMC3    H1 7621   0.774   1.165  15.913 -0.4058 -0.8890  0.5580
  509TMC3    H2 7622   0.945   1.290  16.288 -0.4180  2.5601 -0.2398
  509TMC3    C7 7623   0.931   1.073  16.112 -0.6086 -0.3566 -0.4345
  509TMC3    C8 7624   1.084   1.470  16.201 -0.0669  0.0381  0.0279
  509TMC3    O1 7625   0.927   1.015  16.003 -0.7462  0.3553 -0.8387
  509TMC3    O2 7626   1.125   1.424  16.310 -0.1531 -0.1830 -0.2849
  510MPD2     C 7627   3.188   2.605  14.872  0.3883  0.0774 -0.4062
  510MPD2    C1 7628   3.270   2.531  14.952 -0.2158  0.3736 -0.0123
  510MPD2    C2 7629   3.407   2.544  14.941 -0.4254 -0.3627 -0.6309
  510MPD2    C3 7630   3.471   2.624  14.851 -0.2760 -0.2490  0.0103
  510MPD2    C4 7631   3.390   2.682  14.754  0.0786 -0.4498 -1.1215
  510MPD2    C5 7632   3.255   2.670  14.764  0.7263  0.5548 -0.0891
  510MPD2     H 7633   3.477   2.506  15.014 -1.9918  0.3033  1.2277
  510MPD2    H1 7634   3.422   2.746  14.673 -1.6425  0.0716 -1.4015
  510MPD2    H2 7635   3.082   2.597  14.855  0.2690 -0.1862  0.4749
  510MPD2    H3 7636   3.195   2.723  14.692 -0.4210 -2.2407 -1.2087
  510MPD2     N 7637   3.613   2.624  14.854  0.0210 -0.3544 -0.0768
  510MPD2    H5 7638   3.654   2.560  14.921 -2.3900  0.5019  2.2233
  510MPD2    N1 7639   3.209   2.430  15.036 -0.2191 -0.3424 -0.0711
  510MPD2    H7 7640   3.107   2.421  15.037 -0.3872  1.3814 -1.1762
  511TMC3    C1 7641   3.190   2.249  15.186 -0.0915 -0.0252  0.2196
  511TMC3    C2 7642   3.082   2.299  15.246 -0.9176 -0.0442  0.0357
  511TMC3    C3 7643   3.024   2.224  15.345  0.1889  0.0746  1.2666
  511TMC3    C4 7644   3.249   2.137  15.224 -0.3557 -0.2829 -0.2570
  511TMC3    C5 7645   3.180   2.053  15.304 -0.9034 -0.2585  0.4202
  511TMC3    C6 7646   3.062   2.092  15.364  0.1884 -0.9081 -0.0769
  511TMC3     C 7647   3.279   2.344  15.121 -0.1105  0.4364  0.1801
  511TMC3     O 7648   3.398   2.335  15.143 -0.4305 -0.4670  0.3168
  511TMC3     H 7649   3.049   2.402  15.234  1.9374  0.6967 -1.3894
  511TMC3    H1 7650   3.334   2.099  15.169  1.1797  2.2291  0.4166
  511TMC3    H2 7651   3.016   2.028  15.438  2.0682 -1.8913  0.2455
  511TMC3    C7 7652   3.253   1.933  15.336  0.3278 -0.2778  0.4079
  511TMC3    C8 7653   2.951   2.294  15.447  0.0143 -0.0300 -0.2819
  511TMC3    O1 7654   3.377   1.930  15.339  0.2214  0.0331 -0.3708
  511TMC3    O2 7655   2.933   2.412  15.425  0.1885 -0.1896  0.3237
  512TMC3    C1 7656   2.948   1.783  13.653 -0.4593 -0.6596 -0.5952
  512TMC3    C2 7657   2.989   1.897  13.718  0.3936 -0.3344  0.6689
  512TMC3    C3 7658   2.979   1.901  13.854  0.1008  0.8181  0.0975
  512TMC3    C4 7659   2.929   1.665  13.728 -0.7785 -0.1173  0.2915
  512TMC3    C5 7660   2.934   1.678  13.866  0.1301  0.0055  0.2570
  512TMC3    C6 7661   2.943   1.797  13.935 -0.1623  0.3012  0.0856
  512TMC3     C 7662   2.995   1.762  13.518  0.2214 -0.0372 -0.6811
  512TMC3     O 7663   3.042   1.654  13.490 -0.6541  1.0640 -0.1368
  512TMC3     H 7664   3.028   1.980  13.661 -3.6519  1.1211 -0.0353
  512TMC3    H1 7665   2.898   1.580  13.670  0.4163  0.1565 -0.7586
  512TMC3    H2 7666   2.956   1.794  14.042  1.0925  1.8142 -0.0256
  512TMC3    C7 7667   2.886   1.568  13.948  0.5038  0.0128 -0.7281
  512TMC3    C8 7668   2.997   2.037  13.906  0.2636 -0.1408 -0.8616
  512TMC3    O1 7669   2.885   1.587  14.071 -0.0619  0.0764  0.2087
  512TMC3    O2 7670   3.042   2.124  13.832  0.3144 -0.0657 -0.0585
  513MPD2     C 7671   0.562   1.591  14.152  0.2983  0.3511  0.3155
  513MPD2    C1 7672   0.483   1.486  14.119 -0.1192 -0.4260 -0.2123
  513MPD2    C2 7673   0.485   1.375  14.211 -0.3873 -0.7893  0.2414
  513MPD2    C3 7674   0.558   1.378  14.330  0.2904  0.5517 -0.8430
  513MPD2    C4 7675   0.628   1.490  14.369  0.0841  0.7284 -0.4382
  513MPD2    C5 7676   0.620   1.596  14.279  0.0723 -0.1013 -0.2303
  513MPD2     H 7677   0.443   1.281  14.177  0.3793 -1.4109  1.0082
  513MPD2    H1 7678   0.697   1.495  14.452  0.6173 -0.0877 -0.8385
  513MPD2    H2 7679   0.575   1.671  14.081  0.6189  1.8674  2.0954
  513MPD2    H3 7680   0.680   1.685  14.293  1.4596 -0.9795 -0.5604
  513MPD2     N 7681   0.564   1.255  14.397 -0.5459 -0.2045  0.0681
  513MPD2    H5 7682   0.511   1.186  14.344  0.8290 -2.0560  1.1019
  513MPD2    N1 7683   0.425   1.479  13.993 -0.0494 -0.4200  0.0791
  513MPD2    H7 7684   0.457   1.553  13.930  1.3081  0.9745  2.4071
  514TMC3    C1 7685   0.312   1.372  13.807 -0.1647 -0.2022  0.2560
  514TMC3    C2 7686   0.393   1.437  13.712 -0.2640 -0.1741 -0.0782
  514TMC3    C3 7687   0.408   1.388  13.592  0.0263  0.2089  0.1834
  514TMC3    C4 7688   0.250   1.259  13.771  0.3665  0.1970 -0.1032
  514TMC3    C5 7689   0.284   1.201  13.654 -0.4116 -0.0475 -0.7092
  514TMC3    C6 7690   0.362   1.263  13.557 -0.3738  0.4604 -0.0361
  514TMC3     C 7691   0.334   1.385  13.953  0.5430  0.8734 -0.4576
  514TMC3     O 7692   0.278   1.300  14.015 -0.0179 -0.0990  0.1720
  514TMC3     H 7693   0.435   1.531  13.745 -3.5308  1.2044  0.1810
  514TMC3    H1 7694   0.176   1.211  13.834  1.2516 -3.3532 -1.7842
  514TMC3    H2 7695   0.399   1.211  13.470 -1.2911 -1.6289  0.8195
  514TMC3    C7 7696   0.307   1.056  13.661 -0.0993  0.3333  0.6034
  514TMC3    C8 7697   0.466   1.463  13.489 -0.0810  0.2445  0.1728
  514TMC3    O1 7698   0.352   1.000  13.563 -0.2643 -0.4014  0.1101
  514TMC3    O2 7699   0.554   1.546  13.515  0.5687  0.5596  0.3066
  515MPD2     C 7700   2.724   3.343  14.762 -0.0049 -0.1278  0.2371
  515MPD2    C1 7701   2.629   3.433  14.708  0.5356  0.4105 -0.6420
  515MPD2    C2 7702   2.633   3.566  14.758 -0.2514 -0.2824  0.5789
  515MPD2    C3 7703   2.702   3.594  14.873 -0.9330 -0.5809 -0.3038
  515MPD2    C4 7704   2.797   3.507  14.925 -0.9795  0.6814  0.5504
  515MPD2    C5 7705   2.802   3.385  14.870  0.3888 -0.1958  0.6843
  515MPD2     H 7706   2.566   3.639  14.714  1.3572  1.3700  0.8832
  515MPD2    H1 7707   2.863   3.544  15.002 -0.6507  2.9164 -0.8137
  515MPD2    H2 7708   2.727   3.241  14.726  1.9087 -0.7243  2.0771
  515MPD2    H3 7709   2.870   3.307  14.903 -1.7684 -2.0345  0.7827
  515MPD2     N 7710   2.699   3.729  14.916  0.3685  0.6437  0.3420
  515MPD2    H5 7711   2.744   3.752  15.004  1.1127 -1.3909  0.5111
  515MPD2    N1 7712   2.533   3.403  14.615 -0.3331  0.2983 -0.6103
  515MPD2    H7 7713   2.474   3.483  14.593 -0.6760 -0.2829 -1.7569
  516TMC3    C1 7714   2.355   3.256  14.525 -0.3149 -0.4422  0.3303
  516TMC3    C2 7715   2.266   3.359  14.511  0.1036 -0.3884  0.7695
  516TMC3    C3 7716   2.137   3.319  14.487  0.1028  0.7321 -0.1775
  516TMC3    C4 7717   2.322   3.127  14.500 -0.0879  0.6399 -0.8120
  516TMC3    C5 7718   2.187   3.099  14.504  0.4416  0.0944 -0.9848
  516TMC3    C6 7719   2.090   3.197  14.495  0.2134  0.7795  0.6388
  516TMC3     C 7720   2.486   3.274  14.592 -0.0599  0.0863  0.0047
  516TMC3     O 7721   2.538   3.170  14.628 -0.2743  0.0090  0.4758
  516TMC3     H 7722   2.295   3.461  14.535 -1.7855  0.7973 -1.9203
  516TMC3    H1 7723   2.398   3.052  14.484  0.0315  0.3113  1.3934
  516TMC3    H2 7724   1.986   3.180  14.519 -0.4312  1.3780 -1.8241
  516TMC3    C7 7725   2.159   2.980  14.586 -0.4818 -0.7551  0.3707
  516TMC3    C8 7726   2.043   3.418  14.459 -0.0583  0.1873  1.0887
  516TMC3    O1 7727   2.260   2.936  14.644  0.0331 -1.0530 -0.0919
  516TMC3    O2 7728   1.926   3.387  14.462  0.2062 -0.0620  0.1892
  517MPD2     C 7729   2.151   0.625   0.194  0.1083  0.2059  0.7724
  517MPD2    C1 7730   2.278   0.579   0.202 -0.1466 -0.2738  0.2157
  517MPD2    C2 7731   2.368   0.660   0.272 -0.3217  0.4055 -0.3791
  517MPD2    C3 7732   2.335   0.776   0.340 -0.2498 -1.1180 -0.1647
  517MPD2    C4 7733   2.206   0.819   0.330  0.7180 -0.7706 -0.1571
  517MPD2    C5 7734   2.116   0.742   0.253 -0.1915 -0.2759 -0.2433
  517MPD2     H 7735   2.467   0.616   0.273 -0.0062  1.1995  4.1964
  517MPD2    H1 7736   2.164   0.907   0.379  0.7543 -1.7482  1.6299
  517MPD2    H2 7737   2.068   0.591   0.134 -0.9617  0.2493  2.2350
  517MPD2    H3 7738   2.016   0.779   0.239 -0.3976 -0.1167  1.6360
  517MPD2     N 7739   2.421   0.855   0.423 -0.2128 -0.1844  1.2685
  517MPD2    H5 7740   2.379   0.938   0.465 -1.5802 -1.0809  1.6511
  517MPD2    N1 7741   2.326   0.467   0.135  0.2682 -1.0059 -0.1759
  517MPD2    H7 7742   2.426   0.452   0.142  0.4561  0.8584  1.2415
  518TMC3    C1 7743   2.319   0.282  17.727 -0.2079  0.1489  1.0500
  518TMC3    C2 7744   2.267   0.154  17.718 -0.3828  0.0476  0.1742
  518TMC3    C3 7745   2.348   0.052  17.671 -0.3342 -0.6019 -0.2668
  518TMC3    C4 7746   2.454   0.304  17.701  0.5997 -0.0894  0.1187
  518TMC3    C5 7747   2.530   0.200  17.653  1.2710 -0.2267 -0.1202
  518TMC3    C6 7748   2.476   0.073  17.631 -0.1051  0.4384  1.2344
  518TMC3     C 7749   2.248   0.374   0.073 -0.6510  0.3562 -0.6282
  518TMC3     O 7750   2.127   0.364   0.070 -0.1194  0.2029  0.2651
  518TMC3     H 7751   2.170   0.140   0.016 -0.4312  0.7648  0.2905
  518TMC3    H1 7752   2.500   0.397  17.733  0.3527 -1.2841  3.8360
  518TMC3    H2 7753   2.534   4.725  17.599 -1.6053 -0.4022  0.7555
  518TMC3    C7 7754   2.663   0.238  17.606 -0.6220  0.0882  0.0814
  518TMC3    C8 7755   2.293   4.658  17.642 -0.6810 -0.1040  0.3260
  518TMC3    O1 7756   2.703   0.350  17.645  0.5587 -0.0368 -0.6531
  518TMC3    O2 7757   2.366   4.575  17.590 -0.3113  0.2331 -0.1110
  519MPD2     C 7758   3.453   3.057  14.419  0.1972  0.8542  0.4576
  519MPD2    C1 7759   3.494   3.176  14.368  0.3719  0.0461 -0.0704
  519MPD2    C2 7760   3.623   3.210  14.367  0.0880 -0.2755  0.2081
  519MPD2    C3 7761   3.721   3.109  14.372 -0.0681 -0.1584 -0.4854
  519MPD2    C4 7762   3.680   2.980  14.416  0.3577 -0.2728 -0.0395
  519MPD2    C5 7763   3.548   2.963  14.448  0.1619 -0.2382  0.4705
  519MPD2     H 7764   3.648   3.314  14.350  0.2937 -0.7770 -2.5849
  519MPD2    H1 7765   3.743   2.892  14.418 -0.8749 -1.1956 -2.0156
  519MPD2    H2 7766   3.346   3.041  14.434  0.4863 -1.4997  0.0229
  519MPD2    H3 7767   3.520   2.875  14.503  1.1122 -2.2089 -2.2116
  519MPD2     N 7768   3.854   3.131  14.341  0.4771 -0.3603 -0.1822
  519MPD2    H5 7769   3.910   3.047  14.341  0.8391 -0.1242  0.4041
  519MPD2    N1 7770   3.392   3.268  14.324  0.4361  0.2934  0.2887
  519MPD2    H7 7771   3.296   3.247  14.350  0.6248  1.7673  2.1473
  520TMC3    C1 7772   4.022   3.224  14.218 -0.1103  0.2422  1.0362
  520TMC3    C2 7773   4.010   3.284  14.094 -0.2653  0.3813  0.1386
  520TMC3    C3 7774   4.101   3.255  14.000  0.3826 -0.7487  0.6792
  520TMC3    C4 7775   4.116   3.125  14.248  0.2146 -0.2497  0.2549
  520TMC3    C5 7776   4.210   3.108  14.146  0.2941 -0.0772 -0.3509
  520TMC3    C6 7777   4.200   3.162  14.021  0.4134 -0.0305 -0.2315
  520TMC3     C 7778   3.906   3.245  14.288 -0.4759 -0.2812  0.1582
  520TMC3     O 7779   3.858   3.358  14.288  0.0690  0.4051  0.0204
  520TMC3     H 7780   3.930   3.355  14.077 -0.9784 -0.8595 -1.7086
  520TMC3    H1 7781   4.126   3.062  14.336  2.0997 -0.3322 -0.0338
  520TMC3    H2 7782   4.268   3.135  13.941  2.6409  1.2470  1.2279
  520TMC3    C7 7783   4.306   3.003  14.183 -0.3237  0.1043 -0.4717
  520TMC3    C8 7784   4.082   3.288  13.861 -0.4045 -0.8568 -0.1110
  520TMC3    O1 7785   4.347   3.002  14.298  0.1985  0.3503 -0.5517
  520TMC3    O2 7786   4.168   3.250  13.781 -0.8178 -0.1750  0.6845
  521MPD2     C 7787   4.691   1.617  17.747 -0.0109  0.0417 -0.0906
  521MPD2    C1 7788   4.675   1.619  17.609 -0.2113 -0.0344  0.0508
  521MPD2    C2 7789   0.016   1.543  17.527  0.1370 -0.2651 -0.0393
  521MPD2    C3 7790   0.121   1.470  17.585  0.0856 -0.0095  0.2762
  521MPD2    C4 7791   0.139   1.476  17.727 -0.7658  0.3924 -0.3794
  521MPD2    C5 7792   0.058   1.552   0.054 -0.0529  0.1874  0.1775
  521MPD2     H 7793   4.737   1.540  17.420 -1.2253  1.6076  0.1170
  521MPD2    H1 7794   0.207   1.414   0.037 -2.4661 -0.1342  1.0438
  521MPD2    H2 7795   4.629   1.680   0.062 -0.9620  0.8916 -1.8775
  521MPD2    H3 7796   0.064   1.550   0.162 -0.4731  1.5373  0.2237
  521MPD2     N 7797   0.210   1.400  17.503  0.2702 -0.2437 -0.8925
  521MPD2    H5 7798   0.206   1.412  17.402 -0.1484  0.4187 -0.7980
  521MPD2    N1 7799   4.570   1.704  17.568  0.5275  0.1188  0.3117
  521MPD2    H7 7800   4.521   1.757  17.639 -0.7027  0.9800 -1.1793
  522TMC3    C1 7801   0.408   1.296  17.451 -0.3208  0.9594  0.5655
  522TMC3    C2 7802   0.536   1.282  17.488  0.2773 -0.2680 -0.1346
  522TMC3    C3 7803   0.624   1.230  17.405 -0.9544 -0.0540  0.0719
  522TMC3    C4 7804   0.365   1.271  17.319 -0.1007  0.0968 -0.8894
  522TMC3    C5 7805   0.463   1.217  17.231  0.0729 -0.5002 -0.0469
  522TMC3    C6 7806   0.590   1.198  17.274 -0.4402  0.1295 -0.3666
  522TMC3     C 7807   0.310   1.323  17.555 -0.4829 -0.4784 -0.1120
  522TMC3     O 7808   0.325   1.263  17.659  0.0097  0.3902  0.2743
  522TMC3     H 7809   0.566   1.326  17.583  0.2987 -0.4987 -0.0342
  522TMC3    H1 7810   0.261   1.271  17.290 -0.0838 -3.4717 -1.0373
  522TMC3    H2 7811   0.663   1.161  17.203  1.5196  0.7696  1.3186
  522TMC3    C7 7812   0.434   1.140  17.109 -0.3049  0.2903 -0.7742
  522TMC3    C8 7813   0.761   1.225  17.449 -0.1982 -0.3755 -0.8436
  522TMC3    O1 7814   0.523   1.071  17.050  0.0631  0.6815  0.0414
  522TMC3    O2 7815   0.783   1.247  17.566 -0.0890  0.1452  0.0723
  523MPD2     C 7816   3.163   1.617  10.027 -0.0489 -0.1145  0.5505
  523MPD2    C1 7817   3.128   1.597  10.154 -0.1689  0.0159  0.3605
  523MPD2    C2 7818   3.062   1.686  10.225  0.4963  0.7788  0.3913
  523MPD2    C3 7819   3.024   1.807  10.171  0.0378  0.2704 -0.1038
  523MPD2    C4 7820   3.056   1.840  10.039 -0.3540  0.0162 -0.2169
  523MPD2    C5 7821   3.123   1.739   9.969 -0.1154 -0.2888  0.6539
  523MPD2     H 7822   3.047   1.677  10.332  1.5832 -3.0119  0.2091
  523MPD2    H1 7823   3.036   1.936   9.994  1.5245  0.3329 -0.3979
  523MPD2    H2 7824   3.208   1.544   9.961 -0.6122 -0.8693  1.0010
  523MPD2    H3 7825   3.144   1.754   9.864  1.2009 -1.0682  0.8064
  523MPD2     N 7826   2.963   1.908  10.246  0.1529  0.0417 -0.9262
  523MPD2    H5 7827   2.955   1.997  10.198  1.4059  0.8925  0.4464
  523MPD2    N1 7828   3.150   1.469  10.218 -0.1201  0.2269 -0.3021
  523MPD2    H7 7829   3.200   1.396  10.170 -1.0084 -0.6814  0.1576
  524TMC3    C1 7830   2.845   2.015  10.417  0.3991 -0.2702 -0.3371
  524TMC3    C2 7831   2.829   2.020  10.549  0.0303  0.7201  0.1193
  524TMC3    C3 7832   2.734   2.106  10.605 -0.3698 -0.5472  0.4913
  524TMC3    C4 7833   2.745   2.068  10.337 -0.4925  1.1516 -0.6490
  524TMC3    C5 7834   2.645   2.141  10.392 -0.4085 -0.2161  0.1750
  524TMC3    C6 7835   2.631   2.165  10.524  0.0054 -0.1651  0.0208
  524TMC3     C 7836   2.915   1.894  10.377 -0.1353 -0.3795  0.8678
  524TMC3     O 7837   2.906   1.801  10.456 -0.1202 -0.6898 -0.6617
  524TMC3     H 7838   2.914   1.984  10.606 -0.8921  1.0383  1.6964
  524TMC3    H1 7839   2.758   2.060  10.230 -0.1545 -0.2785 -0.5053
  524TMC3    H2 7840   2.537   2.215  10.546  1.1283  1.9211  0.0864
  524TMC3    C7 7841   2.540   2.204  10.310  0.0325 -0.0498 -1.0460
  524TMC3    C8 7842   2.737   2.118  10.756 -0.2538 -0.9409 -0.1042
  524TMC3    O1 7843   2.531   2.324  10.316  0.5889 -0.7066  0.2373
  524TMC3    O2 7844   2.793   2.030  10.814 -0.7858 -0.0378  0.4723
  525MPD2     C 7845   0.464   2.847  14.731  0.3945  0.3824 -0.4289
  525MPD2    C1 7846   0.580   2.852  14.797  0.0933  0.5375 -0.6016
  525MPD2    C2 7847   0.659   2.964  14.811  0.1864  0.1600 -0.3071
  525MPD2    C3 7848   0.622   3.080  14.748 -0.1386 -0.4580  0.6242
  525MPD2    C4 7849   0.508   3.076  14.676  0.7402  0.0206  0.1100
  525MPD2    C5 7850   0.430   2.960  14.668  0.6857 -0.0593  0.0587
  525MPD2     H 7851   0.750   2.952  14.868  1.0151 -1.5252 -1.9657
  525MPD2    H1 7852   0.480   3.163  14.618  1.8735  0.4927  0.2679
  525MPD2    H2 7853   0.416   2.751  14.720 -0.7797  0.8972  0.2042
  525MPD2    H3 7854   0.348   2.966  14.598 -0.6120 -0.9198  1.5147
  525MPD2     N 7855   0.708   3.195  14.755  0.0197 -0.3702 -0.2988
  525MPD2    H5 7856   0.675   3.289  14.737 -2.6624 -1.6731 -2.2193
  525MPD2    N1 7857   0.626   2.736  14.871 -0.0456  0.0452 -0.0970
  525MPD2    H7 7858   0.720   2.744  14.907 -0.6088  3.7250  0.5600
  526TMC3    C1 7859   0.621   2.546  15.010 -0.3495 -0.0519 -0.2144
  526TMC3    C2 7860   0.561   2.538  15.134  0.2551 -0.2190  0.1877
  526TMC3    C3 7861   0.647   2.522  15.242 -0.0349  0.2356  0.6219
  526TMC3    C4 7862   0.760   2.539  14.990  0.7677  0.8337 -0.4931
  526TMC3    C5 7863   0.831   2.519  15.100  0.1065  0.2255  0.4643
  526TMC3    C6 7864   0.781   2.511  15.223  0.1292  0.4813 -0.3330
  526TMC3     C 7865   0.548   2.623  14.910 -0.7606 -0.6242 -0.0828
  526TMC3     O 7866   0.432   2.606  14.886  0.1097  0.3024 -0.1593
  526TMC3     H 7867   0.454   2.523  15.146  0.1872 -0.2138 -0.4019
  526TMC3    H1 7868   0.790   2.546  14.886 -2.3471 -0.4868 -1.4996
  526TMC3    H2 7869   0.854   2.496  15.302 -0.6720  1.6411  0.6448
  526TMC3    C7 7870   0.978   2.526  15.083 -0.0793  0.0051 -0.0270
  526TMC3    C8 7871   0.604   2.530  15.385  0.5931  0.7815  0.6319
  526TMC3    O1 7872   1.040   2.567  15.180 -0.1159 -0.1820  0.0268
  526TMC3    O2 7873   0.684   2.497  15.471  0.1121 -0.4055 -0.1391
  527MPD2     C 7874   3.827   0.756   1.779  0.2537 -0.3679 -0.5731
  527MPD2    C1 7875   3.837   0.777   1.642 -0.0554 -0.0282  0.1852
  527MPD2    C2 7876   3.961   0.790   1.585  0.6732  0.0220 -0.5877
  527MPD2    C3 7877   4.081   0.779   1.653 -0.1962  0.6417  0.0026
  527MPD2    C4 7878   4.072   0.766   1.791 -0.2408 -0.1265  0.1851
  527MPD2    C5 7879   3.945   0.760   1.848 -0.7094 -0.4468  0.1849
  527MPD2     H 7880   3.957   0.810   1.478 -0.8990 -1.5717 -0.8195
  527MPD2    H1 7881   4.156   0.768   1.860  0.5415 -0.9629 -0.7547
  527MPD2    H2 7882   3.737   0.754   1.839  1.4447 -0.2179  1.2265
  527MPD2    H3 7883   3.937   0.748   1.956 -1.3682  1.3050  0.3441
  527MPD2     N 7884   4.205   0.789   1.583  0.5221 -0.5585  0.1153
  527MPD2    H5 7885   4.203   0.819   1.486 -0.8943 -2.4432 -0.4493
  527MPD2    N1 7886   3.716   0.789   1.566 -0.4452  0.5709  0.0025
  527MPD2    H7 7887   3.721   0.805   1.465 -4.6100  0.6456 -0.2026
  528TMC3    C1 7888   3.480   0.802   1.514 -0.6616  0.2481  0.1712
  528TMC3    C2 7889   3.516   0.769   1.381 -0.4940  0.2860 -0.0539
  528TMC3    C3 7890   3.410   0.760   1.297  0.1763 -0.4649 -0.1414
  528TMC3    C4 7891   3.352   0.811   1.557  0.9671 -0.2655  0.3056
  528TMC3    C5 7892   3.251   0.780   1.471 -0.6337 -0.3270  0.0285
  528TMC3    C6 7893   3.279   0.762   1.340  0.1702 -0.4804 -0.0590
  528TMC3     C 7894   3.586   0.800   1.614 -0.3941  0.1139 -0.1708
  528TMC3     O 7895   3.559   0.824   1.728 -0.1330 -0.6152 -0.1333
  528TMC3     H 7896   3.615   0.791   1.343  0.3170 -1.0472  1.2626
  528TMC3    H1 7897   3.326   0.835   1.660 -0.6366  1.2572 -0.4615
  528TMC3    H2 7898   3.195   0.752   1.271 -1.4633 -0.8997  1.9914
  528TMC3    C7 7899   3.116   0.810   1.510  0.3811 -0.3690  0.0040
  528TMC3    C8 7900   3.448   0.765   1.160  0.0226  0.2135  0.4597
  528TMC3    O1 7901   3.036   0.837   1.418  0.2963  0.0873 -0.0493
  528TMC3    O2 7902   3.539   0.844   1.132 -0.6304 -0.4133  0.6047
  529MPD2     C 7903   0.757   4.329   1.262 -0.5129 -0.2797 -0.2534
  529MPD2    C1 7904   0.783   4.216   1.174 -0.2171  0.3389 -0.3947
  529MPD2    C2 7905   0.770   4.242   1.039  0.4593  0.1204 -0.5918
  529MPD2    C3 7906   0.713   4.362   0.989  0.0480  0.2262 -0.1545
  529MPD2    C4 7907   0.698   4.462   1.082  0.0805  0.1725  0.2600
  529MPD2    C5 7908   0.733   4.454   1.211  0.3168 -0.3428 -0.4822
  529MPD2     H 7909   0.784   4.157   0.972  1.6471 -1.0867  1.1801
  529MPD2    H1 7910   0.649   4.551   1.043 -0.9011  0.1637  1.5028
  529MPD2    H2 7911   0.780   4.336   1.368  1.3909  2.3090 -0.8473
  529MPD2    H3 7912   0.724   4.541   1.276 -0.0005 -1.2120  0.6427
  529MPD2     N 7913   0.662   4.373   0.854  0.4576  0.0195  0.4045
  529MPD2    H5 7914   0.668   4.300   0.784  2.6653  0.5298  0.0606
  529MPD2    N1 7915   0.816   4.087   1.214  0.2344  0.0681 -0.3947
  529MPD2    H7 7916   0.831   4.012   1.147  0.0834 -0.4904  0.1921
  530TMC3    C1 7917   0.931   3.939   1.354 -0.2785  0.3428  0.0388
  530TMC3    C2 7918   1.048   3.937   1.428  0.7316  0.1441  0.1987
  530TMC3    C3 7919   1.126   3.828   1.418  0.6088 -0.5338  0.1961
  530TMC3    C4 7920   0.898   3.838   1.269  0.3145  0.7934 -0.1632
  530TMC3    C5 7921   0.983   3.729   1.268  0.5198 -0.2054 -0.1637
  530TMC3    C6 7922   1.091   3.722   1.340  0.4046  0.5973 -0.2647
  530TMC3     C 7923   0.877   4.074   1.332 -0.2343  0.4726 -0.0154
  530TMC3     O 7924   0.903   4.151   1.420 -0.2025 -0.0626  0.0496
  530TMC3     H 7925   1.060   4.022   1.494 -0.4635  0.7570 -0.3766
  530TMC3    H1 7926   0.807   3.843   1.212 -0.8489 -0.3419  1.5677
  530TMC3    H2 7927   1.165   3.643   1.336 -0.2855  0.0450 -2.0827
  530TMC3    C7 7928   0.954   3.620   1.169 -0.2511 -0.3687  0.1652
  530TMC3    C8 7929   1.263   3.848   1.467  0.1972  0.3385 -0.1646
  530TMC3    O1 7930   0.896   3.658   1.068  0.5013  0.2797  0.3018
  530TMC3    O2 7931   1.349   3.795   1.397 -0.2848 -0.0039  0.0227
  531MPD2     C 7932   0.540   0.736  13.984  0.0786  0.0884 -0.0273
  531MPD2    C1 7933   0.477   0.827  14.061 -0.3402 -0.3561 -0.4701
  531MPD2    C2 7934   0.397   0.920  13.993  0.3644  0.1089 -0.4282
  531MPD2    C3 7935   0.379   0.918  13.853  0.0014 -0.2684 -0.1851
  531MPD2    C4 7936   0.439   0.819  13.788  0.2764  0.0989 -0.7947
  531MPD2    C5 7937   0.523   0.733  13.854  0.4199 -0.2521  0.1975
  531MPD2     H 7938   0.356   1.004  14.048  0.2697  0.4525 -1.0147
  531MPD2    H1 7939   0.435   0.802  13.681 -0.6220 -2.2474 -0.3848
  531MPD2    H2 7940   0.592   0.656  14.035  0.5113 -0.4424 -1.2902
  531MPD2    H3 7941   0.565   0.651  13.797 -2.1119 -0.3204 -1.5948
  531MPD2     N 7942   0.300   1.014  13.791 -0.1481 -0.3032  0.6498
  531MPD2    H5 7943   0.269   1.085  13.856 -0.7300  0.6239 -0.6530
  531MPD2    N1 7944   0.492   0.817  14.198  0.1730  0.3107 -0.1775
  531MPD2    H7 7945   0.546   0.743  14.243 -2.1288 -2.1692 -1.4870
  532TMC3    C1 7946   0.538   0.916  14.408 -0.2400  0.0311 -0.5387
  532TMC3    C2 7947   0.517   1.025  14.485  0.1508  0.1265 -0.5138
  532TMC3    C3 7948   0.621   1.083  14.550  0.0452  0.3473  0.6974
  532TMC3    C4 7949   0.661   0.861  14.396  0.9934  0.2822 -0.2434
  532TMC3    C5 7950   0.760   0.913  14.471 -0.1426 -0.4345  0.0143
  532TMC3    C6 7951   0.745   1.026  14.548 -0.1042 -0.2306  0.3267
  532TMC3     C 7952   0.461   0.916  14.288  0.1701 -0.2394  0.4992
  532TMC3     O 7953   0.396   1.017  14.273  0.4754 -0.1022  0.1526
  532TMC3     H 7954   0.417   1.064  14.497  0.8394  1.0609  2.1561
  532TMC3    H1 7955   0.679   0.776  14.332 -3.9889  0.0079 -1.3113
  532TMC3    H2 7956   0.830   1.077  14.591  0.7726 -2.0669  0.7789
  532TMC3    C7 7957   0.894   0.866  14.444 -0.3113 -0.7359 -0.5470
  532TMC3    C8 7958   0.635   1.225  14.511 -0.2653  0.5866  0.2464
  532TMC3    O1 7959   0.981   0.947  14.431  0.0903 -0.3982  0.8322
  532TMC3    O2 7960   0.714   1.288  14.578 -0.6845  0.1666 -0.2905
  533TMC3    C1 7961   0.882   3.328  14.824 -0.4059  0.2012 -0.3587
  533TMC3    C2 7962   1.017   3.345  14.797 -0.1558  0.3208  0.3503
  533TMC3    C3 7963   1.075   3.439  14.883  0.2771  0.5932  0.1332
  533TMC3    C4 7964   0.815   3.397  14.927  0.3792 -0.3438  0.2253
  533TMC3    C5 7965   0.885   3.485  15.009 -0.1321  0.8712  0.2088
  533TMC3    C6 7966   1.011   3.502  14.982  0.3623 -0.6225 -1.0013
  533TMC3     C 7967   0.831   3.194  14.800  0.6817 -0.5204  0.0281
  533TMC3     O 7968   0.912   3.103  14.789 -0.4039 -0.2888 -0.8186
  533TMC3     H 7969   1.066   3.296  14.714 -3.1043 -1.0971 -0.5353
  533TMC3    H1 7970   0.715   3.367  14.955  0.3661 -0.7674 -0.2687
  533TMC3    H2 7971   1.064   3.575  15.041 -0.1191 -3.4904  2.9799
  533TMC3    C7 7972   0.867   3.449  15.140 -0.8029  0.1206 -1.0375
  533TMC3    C8 7973   1.181   3.522  14.836  1.1404  0.3586  0.8690
  533TMC3    O1 7974   0.882   3.330  15.169  0.4079 -0.1416  0.2386
  533TMC3    O2 7975   1.183   3.643  14.866 -0.2827  0.2869  0.2472
  534MPD2     C 7976   3.686   4.143   1.130 -0.4753  0.2279  0.2170
  534MPD2    C1 7977   3.701   4.265   1.190  0.4101 -0.5557 -0.2432
  534MPD2    C2 7978   3.599   4.356   1.162 -0.7730  0.7193  0.5190
  534MPD2    C3 7979   3.491   4.321   1.085 -0.0920  0.3247  0.2539
  534MPD2    C4 7980   3.483   4.197   1.029  0.1740 -0.0977  0.2108
  534MPD2    C5 7981   3.575   4.106   1.065 -0.0291  0.6238  0.4310
  534MPD2     H 7982   3.609   4.459   1.194  0.5486  0.5242  0.7521
  534MPD2    H1 7983   3.404   4.171   0.961 -1.0971 -1.9974  2.3957
  534MPD2    H2 7984   3.763   4.069   1.148 -0.1288  0.6944  0.6430
  534MPD2    H3 7985   3.562   4.007   1.022 -1.2193  1.5079 -1.2536
  534MPD2     N 7986   3.386   4.413   1.049  0.0767 -0.3263  0.3192
  534MPD2    H5 7987   3.318   4.376   0.984 -0.5420  1.9827 -0.3289
  534MPD2    N1 7988   3.820   4.302   1.263  0.4169 -0.0260  0.2286
  534MPD2    H7 7989   3.825   4.397   1.296 -2.0519 -0.1756  1.0125
  535TMC3    C1 7990   3.235   4.591   1.073  0.4777  0.8489 -0.0501
  535TMC3    C2 7991   3.159   4.656   1.170 -0.2227  0.2656 -0.7165
  535TMC3    C3 7992   3.028   4.692   1.141 -0.4821  0.0589 -0.7041
  535TMC3    C4 7993   3.190   4.576   0.945 -0.1273  0.6562  0.0861
  535TMC3    C5 7994   3.060   4.620   0.922  0.3185 -0.5181 -0.0110
  535TMC3    C6 7995   2.981   4.674   1.017 -1.0794  0.4666 -0.8578
  535TMC3     C 7996   3.361   4.530   1.117  0.0284 -0.2496 -1.0720
  535TMC3     O 7997   3.417   4.565   1.215 -0.9726 -0.3724  0.0523
  535TMC3     H 7998   3.199   4.667   1.271  0.7336  2.7122 -1.3701
  535TMC3    H1 7999   3.255   4.541   0.866 -1.4326  0.3265 -0.8450
  535TMC3    H2 8000   2.875   4.679   0.994 -1.3394 -1.2313 -0.0161
  535TMC3    C7 8001   3.031   4.658   0.783  0.1504 -0.1975  0.1663
  535TMC3    C8 8002   2.925   4.723   1.248 -0.0049  0.4484  0.0781
  535TMC3    O1 8003   3.102   4.613   0.698  0.1263  0.3543  0.0159
  535TMC3    O2 8004   2.807   4.713   1.217  0.9665 -0.2138 -0.1008
  536MPD2     C 8005   2.261   2.850  16.442  0.0243 -0.1843  0.1245
  536MPD2    C1 8006   2.174   2.754  16.461 -0.6667  0.8170 -0.0101
  536MPD2    C2 8007   2.067   2.745  16.374  0.6593 -0.4950 -0.4621
  536MPD2    C3 8008   2.058   2.824  16.262  0.5886  0.8187  0.3966
  536MPD2    C4 8009   2.155   2.915  16.236 -0.4199 -0.5630 -0.1914
  536MPD2    C5 8010   2.257   2.936  16.329  0.4009 -0.0974 -0.2236
  536MPD2     H 8011   1.995   2.665  16.379 -0.7039  0.7473 -0.2447
  536MPD2    H1 8012   2.147   2.984  16.154  2.7448  0.0293 -0.0109
  536MPD2    H2 8013   2.339   2.860  16.516  0.6684  0.3741 -0.6256
  536MPD2    H3 8014   2.331   3.013  16.313 -0.8688  1.1692 -0.0049
  536MPD2     N 8015   1.948   2.828  16.172 -0.0500  0.4038  0.1326
  536MPD2    H5 8016   1.965   2.891  16.095 -2.4000 -1.6707 -2.0644
  536MPD2    N1 8017   2.211   2.652  16.560 -0.4257  0.4049 -0.1621
  536MPD2    H7 8018   2.303   2.662  16.602 -0.7598 -1.7911  1.1014
  537TMC3    C1 8019   2.197   2.451  16.688 -0.2115 -0.1253 -0.5923
  537TMC3    C2 8020   2.277   2.499  16.790  0.2168 -0.6808  0.7066
  537TMC3    C3 8021   2.248   2.447  16.919  0.5090 -0.4605 -0.2774
  537TMC3    C4 8022   2.095   2.361  16.712  1.0427  0.4651 -0.5154
  537TMC3    C5 8023   2.072   2.306  16.843 -0.9050  0.2140 -0.4088
  537TMC3    C6 8024   2.149   2.357  16.946  0.5488 -0.5314  0.2581
  537TMC3     C 8025   2.142   2.538  16.584  0.0280 -0.2815 -0.0848
  537TMC3     O 8026   2.031   2.506  16.544 -0.1063  0.4804  0.1119
  537TMC3     H 8027   2.353   2.575  16.780 -0.1463 -0.6837 -2.2000
  537TMC3    H1 8028   2.060   2.308  16.624  1.0956  0.7820 -0.7268
  537TMC3    H2 8029   2.133   2.322  17.048 -1.1262 -1.2402 -0.2532
  537TMC3    C7 8030   1.957   2.221  16.868  0.1878 -0.0574  0.6075
  537TMC3    C8 8031   2.300   2.521  17.035 -0.0301  0.3190  0.1993
  537TMC3    O1 8032   1.871   2.210  16.783  0.0919  0.0219 -0.0422
  537TMC3    O2 8033   2.358   2.628  17.010 -0.0163 -0.4530 -1.1067
  538TMC3    C1 8034   3.429   0.986  11.411 -1.0249 -0.1143  0.1974
  538TMC3    C2 8035   3.536   0.908  11.398  0.3940 -0.0420 -0.0898
  538TMC3    C3 8036   3.567   0.870  11.268  0.3831  0.5295  0.4998
  538TMC3    C4 8037   3.349   1.017  11.308  0.0591 -0.3257 -0.3323
  538TMC3    C5 8038   3.383   0.988  11.179  0.4778 -0.5763  0.4882
  538TMC3    C6 8039   3.493   0.913  11.165  0.0054 -0.0413 -0.2083
  538TMC3     C 8040   3.375   1.020  11.545  0.2907  0.1553 -0.0763
  538TMC3     O 8041   3.253   1.035  11.564 -0.3096 -0.2532 -0.2947
  538TMC3     H 8042   3.588   0.867  11.484  1.7502  0.0292 -0.8665
  538TMC3    H1 8043   3.286   1.105  11.321  2.6562  1.3785  0.9150
  538TMC3    H2 8044   3.525   0.902  11.062  0.4429  2.0272 -0.2972
  538TMC3    C7 8045   3.329   1.071  11.078  0.5321  0.6668  0.5084
  538TMC3    C8 8046   3.669   0.777  11.246 -0.1996  0.2803 -0.9611
  538TMC3    O1 8047   3.214   1.051  11.051 -0.1050  0.1147  0.7137
  538TMC3    O2 8048   3.692   0.700  11.341 -0.2944 -0.2547  0.1313
  539MPD2     C 8049   3.045   0.158  11.925  0.0074  0.8602  0.8325
  539MPD2    C1 8050   3.125   0.233  11.841  0.2062  0.9075  0.5824
  539MPD2    C2 8051   3.112   0.373  11.837  0.1328 -0.5687 -0.8277
  539MPD2    C3 8052   3.023   0.430  11.922  0.1670  0.5688 -0.1433
  539MPD2    C4 8053   2.946   0.358  12.011 -0.3001 -0.0627  0.4744
  539MPD2    C5 8054   2.964   0.228  12.011  0.1407  0.6162  0.5403
  539MPD2     H 8055   3.185   0.430  11.781 -0.0551 -0.6489 -1.1564
  539MPD2    H1 8056   2.884   0.400  12.089 -1.4498  1.9914 -1.5382
  539MPD2    H2 8057   3.038   0.051  11.941 -1.6845  0.8966  0.3805
  539MPD2    H3 8058   2.911   0.171  12.086 -0.1262 -1.4947 -1.2824
  539MPD2     N 8059   3.017   0.572  11.919  0.5482  0.4500 -0.0835
  539MPD2    H5 8060   2.960   0.613  11.992  0.0560  1.5612 -1.0903
  539MPD2    N1 8061   3.212   0.167  11.750  0.3883 -0.7904 -1.3462
  539MPD2    H7 8062   3.256   0.226  11.680  0.8775  0.6235  0.1533
  540TMC3    C1 8063   3.006   0.787  11.851 -0.4197  0.3774  0.3431
  540TMC3    C2 8064   3.029   0.886  11.759 -0.3824 -0.2949 -0.0937
  540TMC3    C3 8065   2.985   1.013  11.778  0.6875 -0.0902  0.1555
  540TMC3    C4 8066   2.941   0.820  11.969 -0.3504 -0.1115 -0.7115
  540TMC3    C5 8067   2.898   0.953  11.984  0.6799 -0.4044  0.0514
  540TMC3    C6 8068   2.928   1.050  11.898 -0.3071 -0.2376  1.3155
  540TMC3     C 8069   3.049   0.654  11.821  0.1961 -0.6148  0.3541
  540TMC3     O 8070   3.111   0.640  11.716  0.2506  0.1259  0.1016
  540TMC3     H 8071   3.103   0.863  11.683 -0.3231 -0.3106 -0.0312
  540TMC3    H1 8072   2.905   0.747  12.040 -0.8148  0.3092 -0.5121
  540TMC3    H2 8073   2.888   1.150  11.916 -0.8210 -0.0365 -0.9960
  540TMC3    C7 8074   2.785   0.988  12.076  0.2363 -0.2066 -0.0222
  540TMC3    C8 8075   2.959   1.097  11.658  0.1182  0.5469 -0.6033
  540TMC3    O1 8076   2.703   1.071  12.036 -0.0618 -0.5635 -0.1356
  540TMC3    O2 8077   2.959   1.220  11.676 -0.6569  0.9486  0.2592
  541MPD2     C 8078   1.522   1.879  13.740  0.7532  0.2092 -0.5001
  541MPD2    C1 8079   1.445   1.788  13.665 -0.2597  0.3426 -0.5256
  541MPD2    C2 8080   1.464   1.797  13.527 -0.7705 -0.1602 -0.0911
  541MPD2    C3 8081   1.547   1.884  13.460 -0.6667  0.4123  0.2003
  541MPD2    C4 8082   1.620   1.980  13.538 -0.2279 -0.8206 -0.6505
  541MPD2    C5 8083   1.608   1.964  13.674 -1.3023  0.2908 -0.7567
  541MPD2     H 8084   1.397   1.746  13.459  0.0342 -2.9897  1.2339
  541MPD2    H1 8085   1.680   2.057  13.490 -2.6573  0.0460 -2.2462
  541MPD2    H2 8086   1.518   1.887  13.848  2.6706  1.2205 -0.5012
  541MPD2    H3 8087   1.670   2.026  13.738  1.9156 -2.7758 -0.8671
  541MPD2     N 8088   1.564   1.891  13.320  0.1746 -0.1205  0.5130
  541MPD2    H5 8089   1.605   1.973  13.276  3.6429 -1.3807  1.4444
  541MPD2    N1 8090   1.358   1.697  13.739 -0.5655 -0.5882  0.6028
  541MPD2    H7 8091   1.350   1.720  13.837 -0.0769  0.0930  0.4838
  542TMC3    C1 8092   1.527   1.829  13.091 -0.4191  0.0207  0.5378
  542TMC3    C2 8093   1.543   1.729  12.998 -0.7262 -0.3685  0.5835
  542TMC3    C3 8094   1.492   1.759  12.871 -0.3583 -0.6270  0.7494
  542TMC3    C4 8095   1.466   1.949  13.068  0.6160 -0.0538 -0.3434
  542TMC3    C5 8096   1.412   1.977  12.937 -0.6784 -0.2048 -0.2677
  542TMC3    C6 8097   1.431   1.881  12.834  0.1910  0.0447  0.1291
  542TMC3     C 8098   1.538   1.790  13.232  0.2065  0.0499 -0.1112
  542TMC3     O 8099   1.530   1.673  13.266 -0.0542  0.1657  0.0861
  542TMC3     H 8100   1.575   1.631  13.032  0.9124 -0.6382 -1.7184
  542TMC3    H1 8101   1.439   2.017  13.149  1.0063  1.3625 -1.3880
  542TMC3    H2 8102   1.382   1.880  12.737  0.5139  0.7756 -0.0425
  542TMC3    C7 8103   1.324   2.086  12.926  0.3971 -0.1200 -0.6675
  542TMC3    C8 8104   1.560   1.689  12.768  0.3047  0.6975 -0.9512
  542TMC3    O1 8105   1.309   2.169  13.015 -0.4642 -0.0443  0.1065
  542TMC3    O2 8106   1.511   1.693  12.654 -1.0762 -0.2573  0.0427
  543TMC3    C1 8107   0.714   3.500  17.483 -0.1521 -0.2998 -0.1339
  543TMC3    C2 8108   0.703   3.372  17.530  0.2171 -0.3662 -0.0640
  543TMC3    C3 8109   0.609   3.349  17.628  0.6177  0.3590 -0.0416
  543TMC3    C4 8110   0.633   3.605  17.522 -0.1203 -0.5666 -0.0171
  543TMC3    C5 8111   0.546   3.574  17.617 -0.5305 -0.0814 -0.4425
  543TMC3    C6 8112   0.525   3.451  17.673 -0.9270 -0.2372  0.2475
  543TMC3     C 8113   0.775   3.516  17.352  0.6698  0.4314 -0.5189
  543TMC3     O 8114   0.864   3.439  17.317  0.9140 -0.1220 -0.2772
  543TMC3     H 8115   0.771   3.293  17.500  0.6921 -0.2869  0.8005
  543TMC3    H1 8116   0.644   3.708  17.489  0.0442 -0.7314 -0.4781
  543TMC3    H2 8117   0.466   3.438   0.015 -1.4317  0.9477  0.0923
  543TMC3    C7 8118   0.473   3.677  17.676  0.3653 -0.1988  0.1532
  543TMC3    C8 8119   0.608   3.212  17.669 -1.1129  0.3430 -0.2656
  543TMC3    O1 8120   0.432   3.654   0.039  0.6696 -0.3269 -0.6628
  543TMC3    O2 8121   0.697   3.139  17.630 -0.0749  0.4484 -0.2103
  544MPD2     C 8122   0.351   2.790   0.050 -0.5985 -0.8763 -0.0176
  544MPD2    C1 8123   0.466   2.808  17.728 -0.3860 -0.2793  0.5337
  544MPD2    C2 8124   0.522   2.929  17.716  0.6664 -0.4756 -0.4717
  544MPD2    C3 8125   0.454   3.043   0.015 -0.4947 -0.0333  1.0365
  544MPD2    C4 8126   0.339   3.023   0.090 -0.0077 -0.7521 -0.2708
  544MPD2    C5 8127   0.291   2.898   0.113  0.2638 -0.3650  0.2583
  544MPD2     H 8128   0.603   2.938  17.645 -0.2027 -1.0353 -1.5192
  544MPD2    H1 8129   0.275   3.104   0.123 -0.8996 -2.0975  1.2738
  544MPD2    H2 8130   0.296   2.697   0.054 -0.8861 -0.6817  0.5722
  544MPD2    H3 8131   0.196   2.880   0.162 -0.7100  0.6952 -1.2228
  544MPD2     N 8132   0.497   3.176  17.740  0.0961 -0.3143  0.6215
  544MPD2    H5 8133   0.425   3.245   0.012  0.2977 -0.0010  0.2765
  544MPD2    N1 8134   0.518   2.696  17.662  0.5576 -0.0380 -0.5577
  544MPD2    H7 8135   0.460   2.613  17.671 -0.3957  0.5239 -1.5241
  545TMC3    C1 8136   0.672   2.532  17.580  0.2140 -0.2898 -0.3395
  545TMC3    C2 8137   0.795   2.497  17.531 -0.7990 -0.4923 -0.3915
  545TMC3    C3 8138   0.819   2.361  17.508  0.2084  0.2144  0.8805
  545TMC3    C4 8139   0.578   2.434  17.617  0.1851 -0.7828  0.2556
  545TMC3    C5 8140   0.608   2.302  17.606  0.6859  0.2956  0.4652
  545TMC3    C6 8141   0.725   2.264  17.542 -0.2383 -0.2255 -0.7309
  545TMC3     C 8142   0.647   2.675  17.610  0.7469  0.6078  0.0836
  545TMC3     O 8143   0.750   2.743  17.618 -0.3537  0.0668 -0.6273
  545TMC3     H 8144   0.859   2.578  17.499 -0.2053 -0.8386 -0.0744
  545TMC3    H1 8145   0.480   2.459  17.658  0.8031  0.8362  0.7636
  545TMC3    H2 8146   0.756   2.160  17.546  0.2593 -0.1423 -2.5029
  545TMC3    C7 8147   0.510   2.199  17.619  0.3466  0.5232 -0.1248
  545TMC3    C8 8148   0.916   2.327  17.406 -0.1284  0.1361 -0.3235
  545TMC3    O1 8149   0.396   2.237  17.590 -0.2315 -0.2127  0.2024
  545TMC3    O2 8150   0.885   2.237  17.330  0.1688 -0.1775  0.6878
  546MPD2     C 8151   2.038   3.218  17.524 -0.2274 -0.1480 -0.4925
  546MPD2    C1 8152   2.029   3.244  17.389 -0.6056 -0.0985 -0.1428
  546MPD2    C2 8153   2.056   3.377  17.347 -0.5137 -0.0565 -0.0282
  546MPD2    C3 8154   2.088   3.468  17.447 -0.0489  0.5814 -0.0180
  546MPD2    C4 8155   2.086   3.437  17.576 -0.0776  0.2839 -0.1173
  546MPD2    C5 8156   2.065   3.311  17.617  0.1445 -0.7974 -0.5448
  546MPD2     H 8157   2.067   3.408  17.243 -3.3769 -0.6468 -0.5043
  546MPD2    H1 8158   2.102   3.516  17.650  1.6316  1.4182 -1.7079
  546MPD2    H2 8159   2.033   3.115  17.558 -2.1900  0.0080 -0.3172
  546MPD2    H3 8160   2.072   3.282  17.721  0.3145 -0.5923 -0.4982
  546MPD2     N 8161   2.119   3.603  17.418  0.0685 -0.8352 -0.1191
  546MPD2    H5 8162   2.134   3.663  17.499 -1.5091  0.1033 -0.5308
  546MPD2    N1 8163   1.992   3.139  17.305 -0.5586  0.1334 -0.8520
  546MPD2    H7 8164   1.988   3.051  17.356 -0.9245 -0.4609 -1.8994
  547TMC3    C1 8165   1.920   3.035  17.114  0.0957 -0.6617 -0.0018
  547TMC3    C2 8166   1.833   3.045  17.010  0.2490  0.1017  0.2917
  547TMC3    C3 8167   1.769   2.930  16.963  0.5495  0.1089  0.0475
  547TMC3    C4 8168   1.940   2.917  17.180 -0.2728 -0.3919  0.1795
  547TMC3    C5 8169   1.872   2.806  17.140 -0.0645  0.3929 -0.0226
  547TMC3    C6 8170   1.785   2.810  17.028 -0.5014 -0.4458 -0.0780
  547TMC3     C 8171   1.963   3.160  17.175  0.3224  0.1340  0.4223
  547TMC3     O 8172   1.949   3.264  17.109 -0.2518 -0.1324 -0.6366
  547TMC3     H 8173   1.829   3.138  16.955  0.2414 -0.4209 -0.6112
  547TMC3    H1 8174   2.015   2.902  17.258 -1.6259 -3.1084  0.9382
  547TMC3    H2 8175   1.726   2.724  16.999  2.2187 -2.5063  0.5807
  547TMC3    C7 8176   1.867   2.684  17.225 -0.2371  0.3543 -0.5617
  547TMC3    C8 8177   1.666   2.943  16.871 -0.3689  0.5110 -0.4983
  547TMC3    O1 8178   1.925   2.693  17.328 -0.0329 -0.2041 -0.9559
  547TMC3    O2 8179   1.604   3.050  16.879 -0.0500 -0.3773 -0.5239
  548MPD2     C 8180   1.880   3.682  12.658 -0.1441 -0.0626 -0.3186
  548MPD2    C1 8181   1.860   3.543  12.660  0.0626 -0.2339 -0.2791
  548MPD2    C2 8182   1.961   3.452  12.629 -0.0102  0.0816  0.2556
  548MPD2    C3 8183   2.085   3.502  12.588  0.2464  0.3614  0.1158
  548MPD2    C4 8184   2.103   3.641  12.588  0.2175 -0.6805 -0.0389
  548MPD2    C5 8185   2.004   3.729  12.626 -0.0540  0.5307 -0.6759
  548MPD2     H 8186   1.946   3.345  12.633  2.6954 -0.3281 -0.5867
  548MPD2    H1 8187   2.198   3.687  12.565  0.2574  0.1245  1.7514
  548MPD2    H2 8188   1.796   3.748  12.677  0.9956  0.4399  3.0280
  548MPD2    H3 8189   2.025   3.835  12.633 -2.7842  0.9286  1.2984
  548MPD2     N 8190   2.181   3.404  12.541 -0.2220 -0.0478  0.4263
  548MPD2    H5 8191   2.157   3.306  12.547  1.5541 -0.5729 -0.7792
  548MPD2    N1 8192   1.734   3.507  12.696 -0.5280  0.1165  0.0530
  548MPD2    H7 8193   1.665   3.580  12.716 -0.4928  0.6808 -1.9394
  549TMC3    C1 8194   1.533   3.393  12.725 -0.2334 -0.5972 -0.5034
  549TMC3    C2 8195   1.462   3.506  12.703  0.5244 -0.0910  0.0226
  549TMC3    C3 8196   1.336   3.512  12.752 -0.1459 -0.1553 -0.0032
  549TMC3    C4 8197   1.479   3.285  12.787 -0.1912  0.2181  0.4972
  549TMC3    C5 8198   1.350   3.298  12.828  0.0016 -0.0829  1.1706
  549TMC3    C6 8199   1.278   3.411  12.817 -0.0149 -0.3743  0.2158
  549TMC3     C 8200   1.682   3.380  12.693  0.5933 -0.2535 -0.2153
  549TMC3     O 8201   1.727   3.268  12.663  0.4342 -0.4652 -0.2882
  549TMC3     H 8202   1.508   3.584  12.644  2.3346 -0.5022  0.8895
  549TMC3    H1 8203   1.544   3.204  12.820 -1.3496 -0.3776  1.3417
  549TMC3    H2 8204   1.172   3.404  12.839 -0.4097  0.3868 -1.4069
  549TMC3    C7 8205   1.305   3.210  12.937  0.0250  0.0139  0.6686
  549TMC3    C8 8206   1.264   3.640  12.752  0.5255 -0.3459  0.1930
  549TMC3    O1 8207   1.236   3.253  13.029 -0.0441  0.1811  0.5198
  549TMC3    O2 8208   1.146   3.633  12.773  0.9721 -0.0508  0.0013
  550TMC3    C1 8209   1.451   1.269  12.698  0.0268  0.0828 -0.5162
  550TMC3    C2 8210   1.459   1.308  12.833 -0.6546 -0.1328 -0.0426
  550TMC3    C3 8211   1.345   1.309  12.910  0.1316  0.5629 -0.6787
  550TMC3    C4 8212   1.332   1.221  12.641 -0.7578  0.6108  0.3586
  550TMC3    C5 8213   1.224   1.220  12.724  0.0760 -0.5116  0.6448
  550TMC3    C6 8214   1.233   1.264  12.855 -0.7725  0.4176 -0.2025
  550TMC3     C 8215   1.576   1.248  12.621  0.9744  0.5186  0.4793
  550TMC3     O 8216   1.682   1.247  12.678 -0.3393  0.3747  0.0775
  550TMC3     H 8217   1.549   1.349  12.878  1.1220 -0.9601 -2.8153
  550TMC3    H1 8218   1.330   1.188  12.538 -1.6147  2.9405 -0.3696
  550TMC3    H2 8219   1.140   1.265  12.911 -1.6354  0.5561 -1.6516
  550TMC3    C7 8220   1.090   1.195  12.677 -0.1904 -0.9672 -0.2294
  550TMC3    C8 8221   1.329   1.420  13.003 -0.0457  0.2388 -0.4994
  550TMC3    O1 8222   1.005   1.172  12.761 -0.2402 -0.0605 -0.5587
  550TMC3    O2 8223   1.426   1.435  13.077  0.3049  0.1915  0.3613
  551TMC3    C1 8224   3.526   4.400  13.389 -0.2045 -0.6268  0.8716
  551TMC3    C2 8225   3.635   4.453  13.328  0.5653  0.1712  0.5336
  551TMC3    C3 8226   3.683   4.568  13.376  0.9487 -0.2775 -0.1221
  551TMC3    C4 8227   3.480   4.456  13.508  0.2030  0.0353  0.0222
  551TMC3    C5 8228   3.549   4.559  13.575  1.0010  0.4847  0.4310
  551TMC3    C6 8229   3.645   4.623  13.505  0.6603 -0.1412  0.4861
  551TMC3     C 8230   3.429   4.348  13.303 -0.0971 -0.4198  0.5902
  551TMC3     O 8231   3.419   4.226  13.285 -0.1059  0.7062  0.0777
  551TMC3     H 8232   3.659   4.414  13.230  3.3621 -0.9329  1.6533
  551TMC3    H1 8233   3.395   4.403  13.548  1.2475 -1.7979 -0.2095
  551TMC3    H2 8234   3.667   4.726  13.529  0.2851 -0.1716  0.9425
  551TMC3    C7 8235   3.466   4.632  13.672  0.2518 -0.4621  0.4462
  551TMC3    C8 8236   3.725   4.668  13.279 -0.2394 -0.0016 -0.2728
  551TMC3    O1 8237   3.346   4.628  13.653  0.3943  0.5044 -0.7186
  551TMC3    O2 8238   3.696   4.654  13.163  0.0611  0.1967  0.1487
  552MPD2     C 8239   0.150   1.237  14.495  0.4208  0.1596  0.6966
  552MPD2    C1 8240   0.167   1.143  14.597  0.2434  0.6400  0.1306
  552MPD2    C2 8241   0.261   1.173  14.690  0.4564  0.7267  0.7870
  552MPD2    C3 8242   0.332   1.293  14.682  0.0295  0.0731  0.1997
  552MPD2    C4 8243   0.310   1.388  14.586 -0.4849  0.4473 -0.0596
  552MPD2    C5 8244   0.222   1.355  14.490 -0.7706 -0.2763 -0.6320
  552MPD2     H 8245   0.274   1.092  14.761 -1.3791  3.0697  3.7777
  552MPD2    H1 8246   0.368   1.479  14.584 -2.2204  1.5918  1.6763
  552MPD2    H2 8247   0.077   1.229  14.415  1.5376  0.6250 -0.3740
  552MPD2    H3 8248   0.201   1.433  14.417 -2.3728  0.4413  0.5826
  552MPD2     N 8249   0.432   1.329  14.779  0.0452  0.2785 -0.3375
  552MPD2    H5 8250   0.491   1.408  14.757  2.0335 -0.6619  1.5573
  552MPD2    N1 8251   0.103   1.025  14.602  0.0186 -0.3539  0.5769
  552MPD2    H7 8252   0.124   0.965  14.681  1.1227  0.7944  1.1530
  553TMC3    C1 8253   0.015   0.839  14.519  0.0344 -0.0230  0.4118
  553TMC3    C2 8254   0.059   0.758  14.418  0.2140 -0.4873 -0.4014
  553TMC3    C3 8255   0.135   0.655  14.456  0.4793 -0.1473 -0.3726
  553TMC3    C4 8256   0.029   0.798  14.649  0.0116 -0.0125  0.1705
  553TMC3    C5 8257   0.120   0.701  14.684  0.2901 -0.0578  0.1407
  553TMC3    C6 8258   0.164   0.620  14.586  0.0479 -0.0770  0.5447
  553TMC3     C 8259   0.022   0.974  14.502 -0.5792  0.6589  0.3560
  553TMC3     O 8260   4.728   1.006  14.382 -0.2162  0.0354  0.3265
  553TMC3     H 8261   0.045   0.792  14.316 -1.8932  1.8351  0.6547
  553TMC3    H1 8262   4.720   0.851  14.732 -0.2905 -1.6375  1.0306
  553TMC3    H2 8263   0.224   0.535  14.617  0.7464  1.1125  2.4667
  553TMC3    C7 8264   0.217   0.762  14.772 -0.4446  0.2462  0.6453
  553TMC3    C8 8265   0.224   0.608  14.360 -0.3096 -0.9652  0.2084
  553TMC3    O1 8266   0.181   0.868  14.827  0.6708 -0.4998 -0.1447
  553TMC3    O2 8267   0.337   0.577  14.399 -0.3554 -0.2608 -0.0609
  554TMC3    C1 8268   2.579   0.722  11.655  0.3824  0.1679  0.0943
  554TMC3    C2 8269   2.585   0.619  11.572 -0.0938  0.0547  0.4827
  554TMC3    C3 8270   2.628   0.647  11.445 -0.8132 -0.3338 -0.1471
  554TMC3    C4 8271   2.603   0.855  11.624  0.0874 -0.0871 -0.1253
  554TMC3    C5 8272   2.649   0.879  11.491  1.0134  0.6416 -0.2159
  554TMC3    C6 8273   2.659   0.774  11.410  0.3914 -0.2437 -0.6718
  554TMC3     C 8274   2.601   0.695  11.803  0.2071 -0.3384 -0.2849
  554TMC3     O 8275   2.641   0.790  11.872 -0.7129  0.0880 -0.1361
  554TMC3     H 8276   2.583   0.514  11.598  1.8657 -0.4072 -1.2736
  554TMC3    H1 8277   2.604   0.939  11.692  1.2984  0.9266 -1.3815
  554TMC3    H2 8278   2.685   0.789  11.306 -1.1610 -0.8576 -1.1488
  554TMC3    C7 8279   2.606   0.996  11.428 -0.3245  0.1847 -0.7003
  554TMC3    C8 8280   2.569   0.577  11.331 -0.5531  0.4817 -0.3342
  554TMC3    O1 8281   2.542   0.983  11.323 -0.0317  0.0653 -0.3130
  554TMC3    O2 8282   2.578   0.633  11.223 -0.3713 -0.0348  0.3789
  555TMC3    C1 8283   0.930   0.229  15.749  0.2312 -0.1156 -0.3047
  555TMC3    C2 8284   0.944   0.264  15.879  0.6976 -0.4780  0.4074
  555TMC3    C3 8285   1.016   0.192  15.969  0.2907  0.4302  0.1377
  555TMC3    C4 8286   0.996   0.117  15.708 -0.5923 -0.5651  1.0266
  555TMC3    C5 8287   1.067   0.046  15.806  0.0963 -0.0965 -0.0780
  555TMC3    C6 8288   1.075   0.076  15.935  0.3750 -0.5222 -0.2367
  555TMC3     C 8289   0.908   0.327  15.646  0.6099 -0.6115 -0.6701
  555TMC3     O 8290   0.930   0.442  15.675 -0.0931  0.1002  0.9466
  555TMC3     H 8291   0.920   0.366  15.906  0.9282 -0.5454  0.8787
  555TMC3    H1 8292   0.998   0.095  15.602  1.2267  1.8158  0.5586
  555TMC3    H2 8293   1.122   0.008  16.005 -0.2820  1.0035  1.7018
  555TMC3    C7 8294   1.103   4.644  15.766 -0.5610 -0.2632  0.2457
  555TMC3    C8 8295   1.032   0.257  16.102  0.4893  0.3178  0.5634
  555TMC3    O1 8296   1.113   4.551  15.846 -0.2085 -0.4321 -0.5945
  555TMC3    O2 8297   0.980   0.363  16.129  0.6214  0.1427 -0.4988
  556MPD2     C 8298   0.013   1.264  11.138  0.1141 -0.6239  0.0282
  556MPD2    C1 8299   4.619   1.303  11.139 -0.0467 -0.3633 -0.3062
  556MPD2    C2 8300   4.534   1.273  11.031  1.2694 -0.3710 -0.0268
  556MPD2    C3 8301   4.581   1.224  10.916 -0.3522  0.2147 -0.0810
  556MPD2    C4 8302   4.719   1.196  10.912 -0.9378  0.2864 -0.3510
  556MPD2    C5 8303   0.062   1.218  11.024  0.1410  0.4754  0.3513
  556MPD2     H 8304   4.433   1.311  11.033  1.4696  0.0811  1.5693
  556MPD2    H1 8305   0.029   1.141  10.831  0.4353  0.3740  0.3846
  556MPD2    H2 8306   0.082   1.274  11.222  1.3664 -0.3239 -1.0406
  556MPD2    H3 8307   0.164   1.183  11.013  0.6722  1.7759  1.2387
  556MPD2     N 8308   4.484   1.192  10.822  0.2304 -0.1726 -0.1576
  556MPD2    H5 8309   4.385   1.201  10.842 -0.0141  0.6454 -1.6808
  556MPD2    N1 8310   4.565   1.380  11.242  0.2641  0.3807  0.2998
  556MPD2    H7 8311   4.467   1.405  11.234  0.2402 -0.3756 -1.8326
  557TMC3    C1 8312   4.405   1.055  10.649  0.2635  0.0628 -0.8386
  557TMC3    C2 8313   4.400   1.024  10.519  0.2125 -1.1948 -0.2108
  557TMC3    C3 8314   4.315   0.920  10.482  0.1258 -0.4960  0.1275
  557TMC3    C4 8315   4.330   0.990  10.741 -0.5385 -0.6339  0.5753
  557TMC3    C5 8316   4.241   0.899  10.703  0.4671  0.2235 -0.2701
  557TMC3    C6 8317   4.234   0.853  10.571  0.3044  0.3132 -0.1541
  557TMC3     C 8318   4.513   1.138  10.704 -0.0762  0.2913 -0.0008
  557TMC3     O 8319   4.621   1.136  10.644 -0.8184  0.4559  0.2698
  557TMC3     H 8320   4.466   1.069  10.446 -0.1978 -0.7302 -0.2894
  557TMC3    H1 8321   4.333   1.021  10.845  1.5994  1.8740 -0.2389
  557TMC3    H2 8322   4.152   0.789  10.539 -0.5747  0.5956  1.5707
  557TMC3    C7 8323   4.134   0.877  10.798  0.1273 -0.4807 -0.2317
  557TMC3    C8 8324   4.275   0.912  10.339 -0.7810 -0.0731  0.4442
  557TMC3    O1 8325   4.083   0.977  10.840 -0.0250  0.6998  0.2786
  557TMC3    O2 8326   4.319   0.998  10.261  0.2863 -0.0549 -0.0813
  558TMC3    C1 8327   1.582   3.883  10.541 -0.2921  0.1533  0.7157
  558TMC3    C2 8328   1.487   3.902  10.641  0.7797  0.3375  0.0760
  558TMC3    C3 8329   1.357   3.866  10.617 -0.0833 -0.2975 -0.0913
  558TMC3    C4 8330   1.552   3.840  10.418 -0.0313  1.0233 -0.2232
  558TMC3    C5 8331   1.421   3.805  10.397 -0.5992 -0.0412 -0.0703
  558TMC3    C6 8332   1.317   3.821  10.493  0.2405  0.4561 -0.0228
  558TMC3     C 8333   1.719   3.932  10.569 -0.5221  0.1093 -0.0690
  558TMC3     O 8334   1.730   4.001  10.671  0.1150 -0.3642 -0.0157
  558TMC3     H 8335   1.529   3.949  10.729  2.0347 -0.7372  0.0413
  558TMC3    H1 8336   1.623   3.827  10.337 -0.1691  1.8918 -0.4835
  558TMC3    H2 8337   1.213   3.812  10.465  0.2060  2.1653 -0.4012
  558TMC3    C7 8338   1.385   3.795  10.253  1.2714 -0.4359 -0.2542
  558TMC3    C8 8339   1.258   3.912  10.710 -0.1185  0.5605  0.9251
  558TMC3    O1 8340   1.469   3.847  10.185 -0.0328 -0.1915 -0.1186
  558TMC3    O2 8341   1.147   3.941  10.663  0.2233 -1.0008 -0.8653
  559MPD2     C 8342   1.859   4.729  10.801  0.8643  0.0552  0.2962
  559MPD2    C1 8343   1.799   4.724  10.923 -0.4834 -0.1462 -0.2620
  559MPD2    C2 8344   1.879   4.704  11.034  0.5093 -0.8653  0.0999
  559MPD2    C3 8345   2.012   4.690  11.020  0.6954  0.2954  0.9497
  559MPD2    C4 8346   2.066   4.690  10.895  0.6974  0.9808 -0.0596
  559MPD2    C5 8347   1.990   4.704  10.786  0.4618 -1.0914 -0.3793
  559MPD2     H 8348   1.838   4.703  11.134  1.9563 -1.1212  0.6831
  559MPD2    H1 8349   2.173   4.676  10.884  0.4085 -0.0092 -1.7331
  559MPD2    H2 8350   1.804   0.018  10.711  1.8235 -3.8669 -1.4494
  559MPD2    H3 8351   2.020   4.704  10.682  0.4613  2.2666 -0.3880
  559MPD2     N 8352   2.095   4.668  11.139 -0.7490 -1.2126  0.1161
  559MPD2    H5 8353   2.048   4.646  11.226  0.0968 -0.7086  0.7028
  559MPD2    N1 8354   1.659   4.727  10.935 -0.2174 -0.3602  0.4829
  559MPD2    H7 8355   1.605   4.730  10.850  0.3534 -0.4359  0.1187
  560TMC3    C1 8356   2.299   4.666  11.274 -0.3066 -0.4344  0.1376
  560TMC3    C2 8357   2.244   4.574  11.358 -0.1662  0.2876 -0.3787
  560TMC3    C3 8358   2.305   4.545  11.477 -0.6661  0.0568  0.3268
  560TMC3    C4 8359   2.400   0.011  11.309 -0.0229 -0.2307 -0.0321
  560TMC3    C5 8360   2.454   4.716  11.426 -0.1097 -0.3393  0.6628
  560TMC3    C6 8361   2.413   4.621  11.510 -0.1042  0.1276  0.3976
  560TMC3     C 8362   2.229   4.697  11.146 -0.1338 -0.0674  0.3973
  560TMC3     O 8363   2.303   0.010  11.068  0.1435 -0.1847  0.2420
  560TMC3     H 8364   2.143   4.541  11.338 -0.4903  1.3879 -0.5623
  560TMC3    H1 8365   2.441   0.089  11.246  0.2740  1.0448  1.7263
  560TMC3    H2 8366   2.462   4.619  11.606 -0.2609 -0.6477  0.4595
  560TMC3    C7 8367   2.521   0.079  11.498 -0.0061 -0.2304  0.4857
  560TMC3    C8 8368   2.267   4.436  11.565 -0.1374  0.5810  0.0260
  560TMC3    O1 8369   2.488   0.109  11.615 -0.2992 -0.8141 -0.0649
  560TMC3    O2 8370   2.325   4.437  11.672  0.2422  0.1411  0.2002
  561TMC3    C1 8371   0.005   3.608  11.427 -0.1799 -0.7090 -0.1158
  561TMC3    C2 8372   4.674   3.517  11.505  0.0169 -0.4108  0.0579
  561TMC3    C3 8373   4.573   3.567  11.582 -0.6057  0.8410 -0.1422
  561TMC3    C4 8374   4.713   3.742  11.413  0.1875  0.2025  0.4488
  561TMC3    C5 8375   4.608   3.789  11.488 -0.0348  0.0647  0.1908
  561TMC3    C6 8376   4.540   3.700  11.567  0.0881  0.3162  0.0190
  561TMC3     C 8377   0.122   3.561  11.353  0.3280 -0.0724 -0.0419
  561TMC3     O 8378   0.177   3.463  11.402 -0.0778 -0.2837  0.0653
  561TMC3     H 8379   4.691   3.410  11.505 -0.7140 -0.5264  0.8549
  561TMC3    H1 8380   0.043   3.811  11.364  2.4428 -1.9723  0.4992
  561TMC3    H2 8381   4.480   3.757  11.638  0.7807  1.2161 -0.1165
  561TMC3    C7 8382   4.570   3.931  11.500  0.6345 -0.4273 -0.2719
  561TMC3    C8 8383   4.514   3.478  11.684 -0.3278 -0.7162  0.5140
  561TMC3    O1 8384   4.485   3.960  11.587  0.4209  0.2554 -0.5329
  561TMC3    O2 8385   4.564   3.369  11.707  0.1500 -0.6769  0.7865
  562TMC3    C1 8386   1.043   4.699  16.743  0.1136 -0.0396 -0.3564
  562TMC3    C2 8387   0.993   0.093  16.732  0.2185  0.0870 -0.0409
  562TMC3    C3 8388   0.919   0.126  16.617 -0.0235  0.1559 -0.3243
  562TMC3    C4 8389   1.046   4.610  16.640 -0.0749 -0.5326  0.1983
  562TMC3    C5 8390   0.981   4.653  16.521 -0.2113 -0.0089  0.0091
  562TMC3    C6 8391   0.922   0.039  16.508 -0.6286 -0.0238  0.9094
  562TMC3     C 8392   1.082   4.654  16.875 -0.8595 -0.2572  0.6252
  562TMC3     O 8393   1.076   0.007  16.959  0.7830 -0.1617 -0.5792
  562TMC3     H 8394   0.986   0.150  16.824 -1.2986  0.4310 -0.3817
  562TMC3    H1 8395   1.094   4.513  16.648 -2.5697 -1.9351 -1.9549
  562TMC3    H2 8396   0.874   0.055  16.412 -1.9305 -0.4624  1.4788
  562TMC3    C7 8397   1.012   4.584  16.399 -0.6160 -0.2129 -0.6275
  562TMC3    C8 8398   0.842   0.250  16.630  0.5285 -0.3298  0.7065
  562TMC3    O1 8399   1.026   4.651  16.298  0.0623 -0.0377  0.3128
  562TMC3    O2 8400   0.826   0.284  16.743 -0.4466  0.3257 -0.1912
  563MPD2     C 8401   2.942   1.783  15.784  0.0363  0.0556 -0.1900
  563MPD2    C1 8402   2.990   1.841  15.904 -0.1409 -0.1658 -0.2317
  563MPD2    C2 8403   3.121   1.809  15.946 -0.1268  0.5897 -0.4566
  563MPD2    C3 8404   3.207   1.737  15.874 -0.2645 -0.5694 -0.4559
  563MPD2    C4 8405   3.163   1.696  15.748 -0.4324 -0.1881 -0.4074
  563MPD2    C5 8406   3.033   1.712  15.709 -0.2172 -0.4715  0.1143
  563MPD2     H 8407   3.152   1.830  16.048  1.1965 -0.4417 -0.6492
  563MPD2    H1 8408   3.221   1.621  15.694  0.2131 -1.1882  1.6968
  563MPD2    H2 8409   2.843   1.809  15.747 -0.9922 -3.0830  0.3907
  563MPD2    H3 8410   3.007   1.682  15.608  1.2180 -1.5307  0.0689
  563MPD2     N 8411   3.334   1.700  15.929  0.2162  0.3685  0.0805
  563MPD2    H5 8412   3.351   1.738  16.022  0.1938  0.4237  0.0617
  563MPD2    N1 8413   2.900   1.910  15.988  0.2828 -0.0143 -0.3433
  563MPD2    H7 8414   2.805   1.920  15.952 -0.0755 -0.1122  0.5766
  564TMC3    C1 8415   2.833   1.927  16.215  0.3710  0.2367  0.0246
  564TMC3    C2 8416   2.723   1.875  16.156  1.0653 -0.3047 -0.0779
  564TMC3    C3 8417   2.665   1.762  16.215 -0.2511 -0.3442 -0.0752
  564TMC3    C4 8418   2.898   1.863  16.319  0.0176 -0.8894 -0.0238
  564TMC3    C5 8419   2.856   1.737  16.357 -0.4659  0.2188 -0.0180
  564TMC3    C6 8420   2.733   1.700  16.314 -0.1815 -0.3923  0.2394
  564TMC3     C 8421   2.931   1.962  16.114 -0.0340  0.0022  0.0447
  564TMC3     O 8422   3.043   1.995  16.160 -0.2875  0.2271 -0.3671
  564TMC3     H 8423   2.670   1.952  16.101  2.4011  0.1061 -0.8199
  564TMC3    H1 8424   3.003   1.874  16.342  0.2836 -0.6744 -1.2910
  564TMC3    H2 8425   2.701   1.602  16.347 -0.4864 -0.3943 -0.0667
  564TMC3    C7 8426   2.953   1.633  16.338 -0.2736 -0.3947 -0.2575
  564TMC3    C8 8427   2.597   1.663  16.143 -0.8929  0.4613 -0.0816
  564TMC3    O1 8428   2.980   1.571  16.438  0.5534  0.2040  0.2581
  564TMC3    O2 8429   2.546   1.566  16.199 -0.1324 -0.2956 -0.5322
  565TMC3    C1 8430   3.471   2.624  10.239 -0.1317 -0.2248  0.2179
  565TMC3    C2 8431   3.501   2.538  10.338 -0.2493  0.5484 -0.0338
  565TMC3    C3 8432   3.476   2.401  10.328  0.5866  0.0554  0.2769
  565TMC3    C4 8433   3.398   2.577  10.129  0.5572  0.1805 -0.0992
  565TMC3    C5 8434   3.372   2.443  10.129  0.0727  0.5108 -0.0873
  565TMC3    C6 8435   3.421   2.348  10.220  0.8691  1.0126  0.2339
  565TMC3     C 8436   3.514   2.764  10.245 -0.4173  0.2375  0.1238
  565TMC3     O 8437   3.441   2.840  10.178 -0.3896  0.1707 -0.2135
  565TMC3     H 8438   3.543   2.570  10.433 -0.9446 -1.7209  1.0363
  565TMC3    H1 8439   3.362   2.646  10.053 -1.9665  1.7828  2.5099
  565TMC3    H2 8440   3.383   2.246  10.226  0.0559  1.2423 -0.8784
  565TMC3    C7 8441   3.277   2.388  10.023 -0.1597 -0.3509  0.1886
  565TMC3    C8 8442   3.565   2.307  10.410  0.4185 -0.6513 -0.2422
  565TMC3    O1 8443   3.196   2.469   9.973 -0.4414 -0.1729 -0.7507
  565TMC3    O2 8444   3.606   2.352  10.518  0.1973  0.6931  0.2598
  566MPD2     C 8445   0.237   4.290  14.687 -1.0682 -1.0078  0.2086
  566MPD2    C1 8446   0.267   4.180  14.619  0.6045  0.3584 -0.0385
  566MPD2    C2 8447   0.162   4.095  14.592  0.2116  0.5438  0.3036
  566MPD2    C3 8448   0.034   4.131  14.617 -0.0290 -0.3834 -0.6832
  566MPD2    C4 8449   0.016   4.251  14.674  0.1404  0.0188 -0.3104
  566MPD2    C5 8450   0.117   4.333  14.711 -0.4458  0.2046  0.9102
  566MPD2     H 8451   0.182   3.996  14.554 -0.1789  0.2961  0.7392
  566MPD2    H1 8452   4.651   4.270  14.701 -0.5974 -3.1170 -0.9438
  566MPD2    H2 8453   0.322   4.352  14.713 -1.4124 -0.9192  1.1195
  566MPD2    H3 8454   0.114   4.421  14.774 -1.2557  1.2364 -0.5481
  566MPD2     N 8455   4.654   4.052  14.589 -0.2402 -1.0662 -0.3708
  566MPD2    H5 8456   4.573   4.088  14.640  0.8421  1.0740 -0.1727
  566MPD2    N1 8457   0.399   4.156  14.578  0.3471  0.1238  0.6226
  566MPD2    H7 8458   0.464   4.229  14.604 -0.4065  0.4361  1.6287
  567TMC3    C1 8459   0.577   4.068  14.463  0.1301 -0.0256 -0.2972
  567TMC3    C2 8460   0.622   4.024  14.339 -0.1805  0.0871  0.5812
  567TMC3    C3 8461   0.752   4.031  14.316 -0.3307 -0.2812 -0.3051
  567TMC3    C4 8462   0.662   4.116  14.560 -0.2637 -0.0920  0.1998
  567TMC3    C5 8463   0.797   4.099  14.534  0.2746 -0.0904 -0.2669
  567TMC3    C6 8464   0.840   4.047  14.416  0.1523  0.7141  1.4479
  567TMC3     C 8465   0.440   4.055  14.490 -0.5602  0.5536  0.3645
  567TMC3     O 8466   0.376   3.976  14.417  0.3030  0.1614 -0.0979
  567TMC3     H 8467   0.559   3.991  14.256  0.1133 -0.4676  0.5769
  567TMC3    H1 8468   0.629   4.166  14.650 -2.7487 -0.9543 -0.2357
  567TMC3    H2 8469   0.948   4.052  14.404 -0.0079 -0.4472 -0.5613
  567TMC3    C7 8470   0.895   4.160  14.619 -0.7993 -0.1124 -0.3125
  567TMC3    C8 8471   0.784   4.108  14.197 -0.3520 -0.3755  0.2448
  567TMC3    O1 8472   1.008   4.159  14.576 -0.2202 -0.5995  0.4928
  567TMC3    O2 8473   0.689   4.149  14.132  0.1619  0.3062  0.0291
  568MPD2     C 8474   3.333   0.597  16.572 -0.0264 -0.0214 -0.3952
  568MPD2    C1 8475   3.207   0.561  16.609 -0.1262 -0.2252 -0.0543
  568MPD2    C2 8476   3.107   0.581  16.518 -0.2832  0.7518  0.1325
  568MPD2    C3 8477   3.133   0.638  16.396  0.1640 -1.0375  0.0759
  568MPD2    C4 8478   3.255   0.687  16.361 -0.1978 -0.0810 -0.5630
  568MPD2    C5 8479   3.360   0.661  16.451 -0.7626 -0.0506 -0.0792
  568MPD2     H 8480   3.002   0.564  16.537 -0.2314 -0.2477 -0.5095
  568MPD2    H1 8481   3.284   0.705  16.258  1.7517  0.2816  0.0510
  568MPD2    H2 8482   3.416   0.579  16.639  0.7608  0.3813 -1.2632
  568MPD2    H3 8483   3.461   0.685  16.419 -0.9271  0.6798 -0.0374
  568MPD2     N 8484   3.025   0.651  16.307  0.2470  0.7233  0.0918
  568MPD2    H5 8485   2.941   0.603  16.337  0.5542  0.8627  1.1769
  568MPD2    N1 8486   3.180   0.503  16.734  0.1986 -0.3607  0.4751
  568MPD2    H7 8487   3.254   0.491  16.802 -1.2066 -1.8242  1.7380
  569TMC3    C1 8488   2.879   0.779  16.180 -0.2234 -0.6790 -0.4372
  569TMC3    C2 8489   2.816   0.819  16.292  0.0672  0.3364  0.3770
  569TMC3    C3 8490   2.724   0.926  16.291 -0.1048  0.9117  0.0292
  569TMC3    C4 8491   2.861   0.862  16.069 -0.4777  1.2505  0.3444
  569TMC3    C5 8492   2.779   0.976  16.075  0.0514 -0.3158  0.6113
  569TMC3    C6 8493   2.702   1.009  16.185  0.1781  0.3699 -0.4280
  569TMC3     C 8494   3.015   0.736  16.202 -0.8606 -0.0637  0.7411
  569TMC3     O 8495   3.098   0.804  16.147  0.0457  0.1078 -0.4734
  569TMC3     H 8496   2.858   0.786  16.387 -3.3867  0.3379  1.9045
  569TMC3    H1 8497   2.918   0.845  15.978  0.1617  1.2415  0.7509
  569TMC3    H2 8498   2.628   1.087  16.197  0.4980  0.8558 -1.5876
  569TMC3    C7 8499   2.774   1.066  15.959  0.0682 -0.1841 -0.4644
  569TMC3    C8 8500   2.687   0.971  16.418  0.7077 -0.0981 -0.3340
  569TMC3    O1 8501   2.844   1.045  15.862  0.0806  0.1624  0.0866
  569TMC3    O2 8502   2.616   0.897  16.487  0.0870 -0.7288 -0.0875
  570TMC3    C1 8503   2.135   3.878  16.301 -0.2613  0.0198 -0.3954
  570TMC3    C2 8504   2.212   3.889  16.187 -0.0359  0.3928 -0.0534
  570TMC3    C3 8505   2.260   4.012  16.140 -0.0088  0.0188  0.3396
  570TMC3    C4 8506   2.125   3.982  16.380  0.2511  0.0194  0.0016
  570TMC3    C5 8507   2.173   4.101  16.329 -0.2808 -0.0777 -0.1828
  570TMC3    C6 8508   2.233   4.123  16.210 -0.6220  0.5503  0.9557
  570TMC3     C 8509   2.028   3.775  16.297  0.6858  0.3166 -0.5225
  570TMC3     O 8510   2.001   3.734  16.183 -0.6165 -0.8271 -0.0175
  570TMC3     H 8511   2.229   3.799  16.129  1.5111  0.1074  0.8230
  570TMC3    H1 8512   2.062   3.974  16.468  0.2649 -0.2849 -0.0175
  570TMC3    H2 8513   2.242   4.223  16.169  0.1299  0.4585  0.8976
  570TMC3    C7 8514   2.166   4.210  16.428  0.1297 -0.2462 -0.5322
  570TMC3    C8 8515   2.345   4.030  16.022  0.0046  0.2245  0.2922
  570TMC3    O1 8516   2.103   4.195  16.533  0.5175 -0.4452 -0.4650
  570TMC3    O2 8517   2.404   4.134  16.023  0.3451 -0.4890 -0.6795
  571MPD2     C 8518   0.468   0.933   0.277  0.0611  0.4506 -0.1833
  571MPD2    C1 8519   0.395   1.052   0.270 -0.3501  1.1768 -0.9422
  571MPD2    C2 8520   0.428   1.163   0.347  0.4926 -0.3433  0.0906
  571MPD2    C3 8521   0.537   1.159   0.429  0.2063 -0.2858  0.1647
  571MPD2    C4 8522   0.615   1.047   0.435 -0.0402 -0.1056  0.1023
  571MPD2    C5 8523   0.580   0.935   0.359 -0.3105  0.5051  0.0185
  571MPD2     H 8524   0.366   1.251   0.334 -0.2319 -0.8875 -0.1131
  571MPD2    H1 8525   0.711   1.046   0.485  0.1619 -2.0364 -0.3173
  571MPD2    H2 8526   0.450   0.843   0.219  1.4103 -0.9373  1.5594
  571MPD2    H3 8527   0.654   0.856   0.361 -0.7979  0.0302 -1.5651
  571MPD2     N 8528   0.568   1.269   0.515  1.0590  0.0640 -0.0382
  571MPD2    H5 8529   0.636   1.238   0.584  2.0156 -0.2166 -1.0996
  571MPD2    N1 8530   0.277   1.051   0.195  0.2411 -0.5268  0.3316
  571MPD2    H7 8531   0.255   0.969   0.140 -1.3980 -1.8429  2.9686
  572TMC3    C1 8532   0.583   1.498   0.595  1.0903 -1.0851  0.1536
  572TMC3    C2 8533   0.666   1.463   0.699  0.4157 -0.7634  0.8992
  572TMC3    C3 8534   0.758   1.558   0.739 -0.1225 -0.2524  0.3693
  572TMC3    C4 8535   0.583   1.618   0.533  0.2646 -0.2164 -0.1906
  572TMC3    C5 8536   0.682   1.704   0.573  0.5353 -0.5991  0.1367
  572TMC3    C6 8537   0.773   1.682   0.670 -0.1986 -0.4300  0.7582
  572TMC3     C 8538   0.513   1.397   0.517  0.0019 -0.4461  0.5292
  572TMC3     O 8539   0.415   1.437   0.453 -0.5264  0.0432  0.4396
  572TMC3     H 8540   0.634   1.374   0.751  1.1105  0.4465  3.4335
  572TMC3    H1 8541   0.513   1.631   0.451  0.4355  0.1197 -0.2820
  572TMC3    H2 8542   0.838   1.757   0.714  2.6249 -2.2396 -0.3208
  572TMC3    C7 8543   0.709   1.822   0.491  0.6579 -0.7558  0.3440
  572TMC3    C8 8544   0.843   1.536   0.855  0.6510 -0.3283 -0.2142
  572TMC3    O1 8545   0.817   1.877   0.512 -0.2167  0.4637 -0.1983
  572TMC3    O2 8546   0.947   1.600   0.869 -0.2551 -0.5509  0.4689
  573MPD2     C 8547   1.246   1.308   0.791  0.1304  0.4666  0.4797
  573MPD2    C1 8548   1.208   1.429   0.735  0.0125 -0.6114  0.0092
  573MPD2    C2 8549   1.117   1.432   0.635  0.3285  0.1430  0.1169
  573MPD2    C3 8550   1.061   1.317   0.583 -0.7454  0.0273 -0.1228
  573MPD2    C4 8551   1.105   1.196   0.633  0.1791  0.3962  0.1932
  573MPD2    C5 8552   1.196   1.192   0.738 -0.7214 -0.1318 -0.2649
  573MPD2     H 8553   1.074   1.523   0.595 -1.0480 -0.9616 -0.9179
  573MPD2    H1 8554   1.070   1.103   0.590  1.0584  0.7911 -1.3806
  573MPD2    H2 8555   1.321   1.303   0.870  1.6900  3.9911 -0.7839
  573MPD2    H3 8556   1.221   1.096   0.782  1.0614 -0.7479 -2.6129
  573MPD2     N 8557   0.976   1.306   0.472 -0.0677  0.1088  0.3614
  573MPD2    H5 8558   0.966   1.216   0.426 -0.2116 -0.4814  1.5576
  573MPD2    N1 8559   1.265   1.548   0.785  0.2972  0.0207  0.1833
  573MPD2    H7 8560   1.309   1.553   0.876 -1.2326 -0.5202  0.9605
  574TMC3    C1 8561   0.826   1.382   0.289 -0.2710  0.4998 -0.8810
  574TMC3    C2 8562   0.734   1.477   0.259 -0.5913 -0.3139  0.4455
  574TMC3    C3 8563   0.640   1.442   0.168 -0.1978 -0.2319  1.0931
  574TMC3    C4 8564   0.806   1.248   0.240 -0.2455 -0.1762  0.0282
  574TMC3    C5 8565   0.706   1.218   0.156  0.3801  0.0389  0.8809
  574TMC3    C6 8566   0.625   1.322   0.113 -0.4107 -0.6756 -0.1679
  574TMC3     C 8567   0.914   1.411   0.397  0.1982  0.0700  0.4025
  574TMC3     O 8568   0.927   1.530   0.433 -0.0222 -0.8298  0.1841
  574TMC3     H 8569   0.719   1.575   0.303  0.1506  0.8278 -1.8536
  574TMC3    H1 8570   0.887   1.177   0.255 -0.3671  0.0294  1.6692
  574TMC3    H2 8571   0.529   1.302   0.066 -1.0984  0.7913  0.6144
  574TMC3    C7 8572   0.709   1.092   0.080 -0.5919 -0.0408 -0.4862
  574TMC3    C8 8573   0.528   1.535   0.154 -0.4847  0.6548  0.0650
  574TMC3    O1 8574   0.806   1.025   0.106 -0.5336 -0.0354  0.1948
  574TMC3    O2 8575   0.416   1.484   0.158  0.4145  0.5858  0.0355
  575TMC3    C1 8576   4.156   2.166  11.068 -0.0559 -0.0511  0.1941
  575TMC3    C2 8577   4.193   2.044  11.107 -0.1468  0.3676 -0.6815
  575TMC3    C3 8578   4.149   1.945  11.031  0.4067 -0.5122  1.3418
  575TMC3    C4 8579   4.082   2.196  10.960  0.6740 -0.7900 -0.1424
  575TMC3    C5 8580   4.020   2.089  10.896 -0.1697 -0.0128 -0.6620
  575TMC3    C6 8581   4.048   1.962  10.937 -0.3012  0.1088 -0.4402
  575TMC3     C 8582   4.180   2.279  11.165  0.2505  0.8616  0.2286
  575TMC3     O 8583   4.139   2.389  11.129  0.6990  0.2137 -0.2311
  575TMC3     H 8584   4.280   2.025  11.169 -1.6163  1.2397  1.6338
  575TMC3    H1 8585   4.079   2.293  10.911  1.3904 -1.2993 -1.1702
  575TMC3    H2 8586   3.997   1.881  10.886  1.1859 -1.6563  0.8894
  575TMC3    C7 8587   3.935   2.116  10.783 -0.0629 -0.0439  0.2561
  575TMC3    C8 8588   4.169   1.813  11.083 -0.2630  0.1684  0.3945
  575TMC3    O1 8589   3.883   2.233  10.776 -0.4086  0.3293 -0.5286
  575TMC3    O2 8590   4.196   1.810  11.205 -0.1362  0.0158 -0.9015
  576MPD2     C 8591   4.285   4.255  12.332 -0.0813 -0.3793 -0.4376
  576MPD2    C1 8592   4.177   4.265  12.246  0.1202  0.1947 -0.0018
  576MPD2    C2 8593   4.177   4.373  12.160 -0.2276  0.2208  0.1472
  576MPD2    C3 8594   4.282   4.461  12.152 -0.1866  0.6564  0.2141
  576MPD2    C4 8595   4.386   4.450  12.235  0.0929 -0.5474  0.1495
  576MPD2    C5 8596   4.390   4.341  12.324 -0.2268 -0.2880  0.0686
  576MPD2     H 8597   4.096   4.385  12.090 -0.8252 -0.6523  0.6843
  576MPD2    H1 8598   4.467   4.521  12.243  0.6232 -1.3926  2.2730
  576MPD2    H2 8599   4.290   4.176  12.405  0.6132 -1.0325 -1.1908
  576MPD2    H3 8600   4.476   4.327  12.389  1.7731  0.9388 -2.3071
  576MPD2     N 8601   4.262   4.563  12.055  0.0598 -0.1054 -0.1871
  576MPD2    H5 8602   4.174   4.560  12.005 -0.6740 -1.9627  1.2010
  576MPD2    N1 8603   4.073   4.169  12.230  0.2585  0.0343 -0.5552
  576MPD2    H7 8604   4.008   4.190  12.155 -2.7775 -1.6704  1.5875
  577TMC3    C1 8605   3.964   3.955  12.245  0.2527  0.3942  0.1827
  577TMC3    C2 8606   3.986   3.830  12.280  0.0850  0.3109 -0.9831
  577TMC3    C3 8607   3.935   3.736  12.192 -0.7646 -0.5095  0.4509
  577TMC3    C4 8608   3.884   3.990  12.139  0.5392  0.0380  0.7058
  577TMC3    C5 8609   3.846   3.896  12.044 -0.2659 -0.2859  0.2638
  577TMC3    C6 8610   3.872   3.765  12.076  0.2040  0.5723  0.5375
  577TMC3     C 8611   4.060   4.047  12.295 -0.7067 -0.2779 -0.0045
  577TMC3     O 8612   4.122   4.011  12.392 -0.9743  0.1845 -0.0552
  577TMC3     H 8613   4.030   3.787  12.370 -0.8896  1.2538 -0.0547
  577TMC3    H1 8614   3.870   4.096  12.119  2.0278  0.1786  0.4102
  577TMC3    H2 8615   3.832   3.685  12.014 -0.3933 -0.3409  2.1246
  577TMC3    C7 8616   3.869   3.944  11.907 -0.2755 -0.1387  0.4891
  577TMC3    C8 8617   4.000   3.610  12.184  0.1148 -0.2860  0.3622
  577TMC3    O1 8618   3.953   3.873  11.843  0.0777  0.3300  0.5379
  577TMC3    O2 8619   4.005   3.539  12.285 -0.4763 -0.1103 -0.6610
  578MPD2     C 8620   1.571   0.367   1.497  0.2527  0.1399  0.2882
  578MPD2    C1 8621   1.600   0.269   1.405 -0.2013 -0.4071  0.0847
  578MPD2    C2 8622   1.703   0.183   1.424  0.1852  1.1649  0.1649
  578MPD2    C3 8623   1.792   0.205   1.532  0.0701  0.2596  0.0844
  578MPD2    C4 8624   1.760   0.296   1.627 -0.3544 -0.5133  0.4523
  578MPD2    C5 8625   1.661   0.394   1.603  0.2072  0.1324  0.3992
  578MPD2     H 8626   1.720   0.113   1.342 -2.0494 -1.1046  1.6466
  578MPD2    H1 8627   1.825   0.323   1.709  2.4958 -1.8494 -1.3756
  578MPD2    H2 8628   1.480   0.425   1.488  1.4097  1.8617 -0.3765
  578MPD2    H3 8629   1.629   0.467   1.677 -0.6439 -1.3552  1.4891
  578MPD2     N 8630   1.909   0.131   1.535  0.2402  0.4006  0.4816
  578MPD2    H5 8631   1.936   0.086   1.448 -0.6994 -0.3813  0.5993
  578MPD2    N1 8632   1.510   0.268   1.294  0.3850  0.4387 -0.0624
  578MPD2    H7 8633   1.446   0.346   1.299 -1.3166 -1.0308  0.7141
  579TMC3    C1 8634   2.122   0.052   1.608 -0.1928 -0.0795 -0.0359
  579TMC3    C2 8635   2.234   0.077   1.685  0.1409  0.3044 -0.4720
  579TMC3    C3 8636   2.330   4.713   1.684  0.3133  0.5049  0.2484
  579TMC3    C4 8637   2.101   4.673   1.538  0.7609 -0.6619 -0.8357
  579TMC3    C5 8638   2.196   4.575   1.542 -0.4912  0.3712  0.5045
  579TMC3    C6 8639   2.312   4.598   1.611  0.0412 -0.7207  0.9463
  579TMC3     C 8640   2.003   0.131   1.638  0.1548 -0.1762  0.1398
  579TMC3     O 8641   1.997   0.195   1.739 -0.1538 -0.6013 -0.1917
  579TMC3     H 8642   2.250   0.171   1.737 -1.0652  0.1078  0.2426
  579TMC3    H1 8643   2.015   4.660   1.473 -1.3685  0.9529  1.6181
  579TMC3    H2 8644   2.401   4.536   1.607  1.0858  0.9257 -1.4077
  579TMC3    C7 8645   2.189   4.450   1.470  0.4116 -0.2312  0.3126
  579TMC3    C8 8646   2.472   0.029   1.709  0.1309  0.2565  0.0162
  579TMC3    O1 8647   2.293   4.402   1.434  0.4378 -0.2344  0.3582
  579TMC3    O2 8648   2.482   0.121   1.792 -0.1420 -0.4246 -0.0458
  580TMC3    C1 8649   1.616   3.258  12.390  0.3754  0.3680 -0.0143
  580TMC3    C2 8650   1.728   3.324  12.361  0.4559  0.2852 -0.3127
  580TMC3    C3 8651   1.844   3.248  12.327  0.1844 -0.1067 -0.3543
  580TMC3    C4 8652   1.609   3.122  12.379 -0.8287  0.4114 -0.2711
  580TMC3    C5 8653   1.723   3.057  12.343  0.6221 -0.4092  0.3971
  580TMC3    C6 8654   1.841   3.114  12.316 -0.0380 -0.1792  0.4601
  580TMC3     C 8655   1.499   3.345  12.354 -0.4600  0.8174 -0.3700
  580TMC3     O 8656   1.516   3.427  12.263 -0.4662  0.0455  0.1737
  580TMC3     H 8657   1.722   3.432  12.369  1.3810  0.3561 -0.5248
  580TMC3    H1 8658   1.515   3.069  12.371 -1.0807  0.8630 -0.2827
  580TMC3    H2 8659   1.924   3.054  12.279 -0.0426 -0.6733  1.2552
  580TMC3    C7 8660   1.717   2.925  12.376  0.0541  0.3959 -0.1755
  580TMC3    C8 8661   1.966   3.317  12.298 -0.4776  0.0861  0.3139
  580TMC3    O1 8662   1.655   2.895  12.476 -0.3107 -0.1967 -0.4364
  580TMC3    O2 8663   2.065   3.256  12.270 -0.3026  0.2916 -0.2709
  581MPD2     C 8664   3.888   2.927  15.096  0.4970 -0.1215 -0.0803
  581MPD2    C1 8665   3.762   2.890  15.096  0.6131 -0.1332  0.0273
  581MPD2    C2 8666   3.685   2.965  15.002  0.4598 -0.9655 -0.2713
  581MPD2    C3 8667   3.739   3.055  14.915  0.3817  0.3953  0.0168
  581MPD2    C4 8668   3.873   3.080  14.920 -0.6057 -0.8443  0.4159
  581MPD2    C5 8669   3.950   3.016  15.011 -0.0324  0.4738  0.4730
  581MPD2     H 8670   3.578   2.951  15.001  0.0979  1.7007  0.3602
  581MPD2    H1 8671   3.922   3.144  14.847  0.4340 -1.6706  0.3912
  581MPD2    H2 8672   3.960   2.886  15.165 -0.0742  0.5876  0.9311
  581MPD2    H3 8673   4.056   3.034  15.024  0.0801 -0.9676  1.5405
  581MPD2     N 8674   3.663   3.143  14.839 -0.1354  0.4832 -0.2027
  581MPD2    H5 8675   3.714   3.217  14.792  2.3997  0.1471  2.0523
  581MPD2    N1 8676   3.713   2.815  15.207  0.3784  0.1966  0.1185
  581MPD2    H7 8677   3.779   2.790  15.280  1.1011  0.2730 -0.5046
  582TMC3    C1 8678   3.539   2.712  15.338  0.2418 -0.2691 -0.0364
  582TMC3    C2 8679   3.601   2.754  15.457  0.0283 -0.9152  0.3621
  582TMC3    C3 8680   3.534   2.742  15.579 -0.4383  0.1349  0.3856
  582TMC3    C4 8681   3.410   2.658  15.344  0.6675  0.0838 -0.2516
  582TMC3    C5 8682   3.343   2.665  15.468  0.4303 -0.3284  0.7771
  582TMC3    C6 8683   3.405   2.702  15.586 -0.7108 -0.0041  0.2684
  582TMC3     C 8684   3.583   2.779  15.214  0.7384  0.0548 -0.4777
  582TMC3     O 8685   3.496   2.786  15.129  0.1753  0.3015  0.1943
  582TMC3     H 8686   3.700   2.799  15.460  0.4210 -1.6939 -1.1517
  582TMC3    H1 8687   3.357   2.635  15.252 -1.2008 -0.1948  0.8920
  582TMC3    H2 8688   3.356   2.690  15.681 -0.3568 -1.4413  0.2731
  582TMC3    C7 8689   3.225   2.576  15.481 -0.0488 -0.2061 -0.2648
  582TMC3    C8 8690   3.598   2.764  15.707 -0.1813 -0.3935 -0.1919
  582TMC3    O1 8691   3.251   2.456  15.461  0.0334 -0.2497  0.2303
  582TMC3    O2 8692   3.533   2.821  15.796  0.0637 -0.3202 -0.3246
  583MPD2     C 8693   4.172   0.193  17.064 -0.5832 -0.5539 -0.9107
  583MPD2    C1 8694   4.130   0.307  17.001 -0.6425  0.2803  0.3265
  583MPD2    C2 8695   4.095   0.415  17.077  0.1513 -0.5876  0.8135
  583MPD2    C3 8696   4.089   0.398  17.215 -0.3524 -0.0835 -0.6053
  583MPD2    C4 8697   4.115   0.277  17.275 -0.2438  0.5279  0.1559
  583MPD2    C5 8698   4.149   0.171  17.196  0.5247 -0.2377  0.7531
  583MPD2     H 8699   4.077   0.511  17.030 -0.2078 -1.1800 -0.2382
  583MPD2    H1 8700   4.101   0.254  17.380  0.6155 -0.4340  0.0660
  583MPD2    H2 8701   4.217   0.108  17.016  1.6319  0.2052 -0.1740
  583MPD2    H3 8702   4.168   0.075  17.243 -0.5981 -1.3455 -1.0368
  583MPD2     N 8703   4.052   0.512  17.296 -0.4989 -0.0056 -0.7608
  583MPD2    H5 8704   4.038   0.594  17.237  1.5713  0.2519 -0.9028
  583MPD2    N1 8705   4.151   0.334  16.866  0.0988  0.3838 -0.4731
  583MPD2    H7 8706   4.123   0.425  16.830 -1.2059 -0.4641 -1.6070
  584TMC3    C1 8707   4.037   0.648  17.489 -0.6827 -0.4182  0.1167
  584TMC3    C2 8708   4.068   0.759  17.408 -0.3996  0.1426  0.1116
  584TMC3    C3 8709   4.080   0.880  17.463  0.8698  0.3401  0.2703
  584TMC3    C4 8710   4.036   0.657  17.622 -0.3695  0.0957  0.8405
  584TMC3    C5 8711   4.062   0.780  17.675 -0.2332 -0.1260  0.0424
  584TMC3    C6 8712   4.077   0.895  17.601  0.5282 -0.4238  0.5245
  584TMC3     C 8713   4.039   0.511  17.435 -0.1724  0.7185  0.7681
  584TMC3     O 8714   4.056   0.416  17.514 -0.3243 -0.0920 -0.5045
  584TMC3     H 8715   4.089   0.760  17.301  1.4037 -0.2609  0.4594
  584TMC3    H1 8716   4.045   0.571  17.686  0.7752 -1.1431 -0.9709
  584TMC3    H2 8717   4.081   0.989  17.654  2.1349  0.2607 -0.8151
  584TMC3    C7 8718   4.053   0.793   0.073 -0.9626  0.2922  0.2433
  584TMC3    C8 8719   4.031   0.982  17.372 -0.0114  0.0624 -0.1180
  584TMC3    O1 8720   4.106   0.897   0.107  0.1340 -0.1198 -0.2570
  584TMC3    O2 8721   3.953   0.946  17.282  0.2256 -0.4639 -0.1417
  585MPD2     C 8722   2.874   4.364   0.186  0.3408 -0.0814  0.4218
  585MPD2    C1 8723   2.984   4.379   0.107  0.1907  0.2204 -0.1612
  585MPD2    C2 8724   3.053   4.268   0.068  0.1036  0.0575 -0.1053
  585MPD2    C3 8725   3.008   4.144   0.088 -0.4750  0.5650 -0.4306
  585MPD2    C4 8726   2.894   4.123   0.162  0.4013  0.6126 -0.4640
  585MPD2    C5 8727   2.826   4.235   0.203  0.0196 -0.5089 -0.2470
  585MPD2     H 8728   3.141   4.276   0.005 -0.0793 -0.0525 -0.3787
  585MPD2    H1 8729   2.847   4.026   0.170 -0.6557  1.1854  0.2956
  585MPD2    H2 8730   2.820   4.445   0.233  1.2945  0.7735  0.0444
  585MPD2    H3 8731   2.728   4.224   0.248 -0.4339 -2.1947 -1.6244
  585MPD2     N 8732   3.075   4.033   0.037  0.3101 -0.0290  0.2628
  585MPD2    H5 8733   3.026   3.946   0.054  0.9646  0.0056  2.3212
  585MPD2    N1 8734   3.026   4.506   0.086  0.4930 -0.4954 -0.2654
  585MPD2    H7 8735   2.964   4.583   0.110  0.5175 -1.0515  1.5938
  586TMC3    C1 8736   3.219   3.885  17.682  0.3378 -0.4996 -0.4373
  586TMC3    C2 8737   3.348   3.848  17.649 -0.9112  0.1316 -0.2191
  586TMC3    C3 8738   3.366   3.738  17.558  0.0814  0.1818  0.6163
  586TMC3    C4 8739   3.120   3.814  17.630 -0.3671 -0.3747  0.1036
  586TMC3    C5 8740   3.137   3.716  17.530 -0.6510 -0.3909 -0.1324
  586TMC3    C6 8741   3.263   3.673  17.502  0.0092 -0.0893  0.0073
  586TMC3     C 8742   3.195   4.016  17.730 -0.1628 -0.2944  0.3971
  586TMC3     O 8743   3.288   4.094  17.718 -0.6962 -0.0859  0.3519
  586TMC3     H 8744   3.435   3.896  17.693 -1.2207  0.0437  0.4826
  586TMC3    H1 8745   3.022   3.830  17.674 -0.7285 -0.7857 -0.5314
  586TMC3    H2 8746   3.272   3.604  17.419 -0.0831  1.5652 -1.4007
  586TMC3    C7 8747   3.019   3.637  17.494 -0.1539 -0.7039  0.2270
  586TMC3    C8 8748   3.478   3.651  17.579 -0.0202  0.5348  0.1249
  586TMC3    O1 8749   2.931   3.630  17.581  0.3085  0.3846  0.3160
  586TMC3    O2 8750   3.489   3.567  17.496 -0.0155 -0.2850 -0.0914
  587TMC3    C1 8751   0.608   2.448  16.686  0.5890 -0.4274  0.1559
  587TMC3    C2 8752   0.640   2.570  16.643 -0.5497  0.5622 -0.0847
  587TMC3    C3 8753   0.705   2.576  16.520  0.1987  0.0869  0.1535
  587TMC3    C4 8754   0.646   2.330  16.620 -0.0338 -0.3022 -0.8555
  587TMC3    C5 8755   0.723   2.346  16.509  0.1593  0.2869 -0.0201
  587TMC3    C6 8756   0.749   2.468  16.453 -0.2840 -0.5236 -0.3843
  587TMC3     C 8757   0.510   2.445  16.788 -0.6446 -0.1108 -0.4819
  587TMC3     O 8758   0.470   2.557  16.825  0.3302  0.0606 -0.0662
  587TMC3     H 8759   0.606   2.655  16.700 -1.8153  1.7736 -2.6264
  587TMC3    H1 8760   0.631   2.231  16.662  2.2398 -0.5936 -0.7551
  587TMC3    H2 8761   0.809   2.467  16.363  0.6669 -2.2960  0.2788
  587TMC3    C7 8762   0.800   2.228  16.467  0.1455 -0.2453 -0.0304
  587TMC3    C8 8763   0.734   2.699  16.452  0.2449 -0.6091 -0.3900
  587TMC3    O1 8764   0.743   2.119  16.475  0.3925 -0.2641 -0.3941
  587TMC3    O2 8765   0.780   2.696  16.338 -0.2044  0.0169  0.5202
  588TMC3    C1 8766   3.391   0.266  10.009  0.7734 -0.2820 -0.2648
  588TMC3    C2 8767   3.311   0.161  10.036 -0.0529  0.2765 -0.7330
  588TMC3    C3 8768   3.359   0.058  10.109 -0.3644  0.1703 -0.3049
  588TMC3    C4 8769   3.513   0.282  10.059 -0.4189  0.5905  0.3388
  588TMC3    C5 8770   3.565   0.179  10.128 -0.1015 -0.1769  0.2964
  588TMC3    C6 8771   3.489   0.066  10.152 -0.1691 -0.2760 -0.5934
  588TMC3     C 8772   3.330   0.388   9.971 -0.1258 -0.4916  0.2669
  588TMC3     O 8773   3.275   0.387   9.862  0.1632 -0.4174 -0.3307
  588TMC3     H 8774   3.205   0.177  10.018 -0.6254 -0.6342  1.7784
  588TMC3    H1 8775   3.577   0.366  10.033  0.3134 -0.5547 -1.5322
  588TMC3    H2 8776   3.523   4.718  10.210  1.5211  0.1986 -0.8806
  588TMC3    C7 8777   3.677   0.204  10.214  0.1248  0.6765 -0.1323
  588TMC3    C8 8778   3.263   4.697  10.158 -0.7212  0.3526 -0.1930
  588TMC3    O1 8779   3.703   0.121  10.299 -0.5804  0.1383  0.8442
  588TMC3    O2 8780   3.148   4.734  10.143  0.4229  0.2633  0.0876
  589TMC3    C1 8781   2.159   3.188   1.431  0.3267  0.8287  0.3870
  589TMC3    C2 8782   2.287   3.153   1.479  0.3792 -0.0849 -0.8402
  589TMC3    C3 8783   2.338   3.035   1.440 -0.0393  0.3678 -0.6052
  589TMC3    C4 8784   2.087   3.092   1.365  0.1855  0.0440  0.4573
  589TMC3    C5 8785   2.132   2.964   1.352 -0.5054 -1.3880 -0.0911
  589TMC3    C6 8786   2.264   2.931   1.378  0.4441  0.5807  0.1641
  589TMC3     C 8787   2.086   3.303   1.472  0.2584 -0.0448 -0.1138
  589TMC3     O 8788   1.965   3.304   1.463  0.5746  0.0994 -0.2787
  589TMC3     H 8789   2.352   3.219   1.537  1.6501  0.0469 -2.4062
  589TMC3    H1 8790   1.981   3.101   1.343  0.3316 -1.4442 -0.8828
  589TMC3    H2 8791   2.307   2.833   1.359  0.3840  0.5278  0.3051
  589TMC3    C7 8792   2.049   2.869   1.278  0.0648 -0.6782 -0.2015
  589TMC3    C8 8793   2.484   3.019   1.465 -0.4623  0.0696  0.7918
  589TMC3    O1 8794   1.989   2.922   1.186 -0.4816 -0.3504  0.5099
  589TMC3    O2 8795   2.528   3.080   1.561 -0.0983  0.3476  0.3794
  590MPD2     C 8796   1.878   0.528  16.910 -0.2375  0.1742 -0.1590
  590MPD2    C1 8797   1.822   0.653  16.906  0.2082  0.8305  0.9518
  590MPD2    C2 8798   1.894   0.757  16.851 -0.4457  0.4346  0.1842
  590MPD2    C3 8799   2.022   0.730  16.794 -0.4422  0.2774 -0.6063
  590MPD2    C4 8800   2.070   0.605  16.801 -0.0682  0.7813  0.1535
  590MPD2    C5 8801   2.007   0.502  16.866 -0.4078  0.3998  0.4060
  590MPD2     H 8802   1.853   0.856  16.862  0.9401  1.1773 -1.3563
  590MPD2    H1 8803   2.169   0.579  16.767 -0.5361 -2.7480  1.4980
  590MPD2    H2 8804   1.821   0.442  16.942 -0.7639  0.4553 -0.3363
  590MPD2    H3 8805   2.057   0.407  16.877 -1.2707 -0.0731  0.2682
  590MPD2     N 8806   2.086   0.843  16.736 -0.2117 -0.8333  0.0629
  590MPD2    H5 8807   2.028   0.925  16.720  0.0126 -1.1751 -2.5856
  590MPD2    N1 8808   1.688   0.664  16.942 -0.2481 -0.3110 -0.3048
  590MPD2    H7 8809   1.639   0.579  16.968  1.0572 -1.8783 -2.9383
  591TMC3    C1 8810   2.247   0.960  16.605  0.1094 -0.4543  1.0093
  591TMC3    C2 8811   2.319   0.935  16.486  0.7410  0.6461 -0.4593
  591TMC3    C3 8812   2.313   1.023  16.388  0.0078 -0.6143 -0.2242
  591TMC3    C4 8813   2.160   1.067  16.616  0.3681 -0.3652 -0.5599
  591TMC3    C5 8814   2.157   1.157  16.513  0.1006 -0.6085 -0.4436
  591TMC3    C6 8815   2.227   1.135  16.395 -0.4335  0.2248  0.5576
  591TMC3     C 8816   2.211   0.841  16.673  0.4852  0.3391  0.3178
  591TMC3     O 8817   2.297   0.756  16.686 -0.2536 -0.0147  0.1803
  591TMC3     H 8818   2.368   0.839  16.473 -1.2880 -0.4266 -0.2515
  591TMC3    H1 8819   2.127   1.093  16.716 -0.9678 -2.5096 -0.4453
  591TMC3    H2 8820   2.206   1.199  16.310 -0.3729 -0.7223 -0.1731
  591TMC3    C7 8821   2.060   1.269  16.517  0.6618 -0.2157  0.1243
  591TMC3    C8 8822   2.350   0.979  16.252  0.0459 -0.1769  0.1711
  591TMC3    O1 8823   1.957   1.248  16.581 -0.4598  0.3152 -1.1019
  591TMC3    O2 8824   2.409   0.873  16.246 -0.3417 -0.5927  0.3806
  592MPD2     C 8825   2.492   2.662  11.553 -0.8185  0.0961 -0.1376
  592MPD2    C1 8826   2.496   2.704  11.684 -0.2606 -0.1383 -0.1642
  592MPD2    C2 8827   2.445   2.614  11.780 -0.1433 -0.4370  0.5178
  592MPD2    C3 8828   2.394   2.494  11.751 -0.1650  0.2769 -0.0256
  592MPD2    C4 8829   2.391   2.457  11.620 -0.5832 -0.1994 -0.5004
  592MPD2    C5 8830   2.449   2.537  11.523 -0.1145 -0.0528  0.3014
  592MPD2     H 8831   2.450   2.648  11.883 -0.1378  1.1446  0.0044
  592MPD2    H1 8832   2.349   2.367  11.576  1.9839 -1.6771  0.0344
  592MPD2    H2 8833   2.520   2.724  11.469 -0.8007 -0.5519 -0.6153
  592MPD2    H3 8834   2.449   2.507  11.418 -1.2243  0.2467  0.2133
  592MPD2     N 8835   2.343   2.410  11.861  0.1277 -0.3716 -0.0202
  592MPD2    H5 8836   2.354   2.454  11.952 -0.3478  0.3835 -0.3329
  592MPD2    N1 8837   2.543   2.833  11.721  0.3507 -0.1071 -0.1392
  592MPD2    H7 8838   2.583   2.878  11.640  2.9321 -1.7309  0.2277
  593TMC3    C1 8839   2.606   3.018  11.849 -0.0547 -0.0599  0.0603
  593TMC3    C2 8840   2.610   3.089  11.964 -0.4849 -0.3262  0.9614
  593TMC3    C3 8841   2.687   3.200  11.979  0.6094  0.5609  0.6324
  593TMC3    C4 8842   2.676   3.069  11.741  0.2369 -0.2725 -0.3548
  593TMC3    C5 8843   2.749   3.183  11.763  0.1346  0.5379 -0.5738
  593TMC3    C6 8844   2.762   3.250  11.880  0.5945 -1.3198 -0.3575
  593TMC3     C 8845   2.538   2.891  11.847 -0.3889  0.8760  0.1053
  593TMC3     O 8846   2.483   2.858  11.951 -0.6313  0.1793  0.8706
  593TMC3     H 8847   2.546   3.059  12.046 -1.1837 -0.3031  0.4252
  593TMC3    H1 8848   2.677   3.022  11.643  1.7670  0.0492 -0.4898
  593TMC3    H2 8849   2.816   3.344  11.889  2.1896 -2.1410 -1.2825
  593TMC3    C7 8850   2.777   3.275  11.654 -0.1446 -0.2738 -0.2289
  593TMC3    C8 8851   2.637   3.292  12.075 -0.6457 -0.2710 -0.7356
  593TMC3    O1 8852   2.835   3.381  11.680 -0.2008  0.4789 -0.1422
  593TMC3    O2 8853   2.518   3.315  12.072  0.5001  0.6280 -0.1908
  594MPD2     C 8854   0.989   1.384  14.515 -0.2862  0.1333  0.5024
  594MPD2    C1 8855   1.004   1.451  14.633 -0.5532  0.4655 -0.0324
  594MPD2    C2 8856   1.080   1.564  14.641 -0.1819  0.4234  0.4337
  594MPD2    C3 8857   1.162   1.598  14.534 -0.7481  0.0948  0.0109
  594MPD2    C4 8858   1.179   1.509  14.429 -0.9507  0.3289 -0.1105
  594MPD2    C5 8859   1.086   1.404  14.422  0.0236 -0.1435 -0.4394
  594MPD2     H 8860   1.065   1.634  14.723  0.2192 -0.0058  0.8686
  594MPD2    H1 8861   1.246   1.523  14.345  3.2668  2.8203  3.6790
  594MPD2    H2 8862   0.922   1.299  14.511  0.2241 -0.2290 -0.1676
  594MPD2    H3 8863   1.092   1.330  14.343 -1.1121 -0.5757 -0.1227
  594MPD2     N 8864   1.238   1.712  14.542  0.6773 -0.3523 -0.0411
  594MPD2    H5 8865   1.221   1.770  14.623 -1.8233  1.5607 -1.9442
  594MPD2    N1 8866   0.911   1.406  14.726 -0.4555  0.4706 -0.0069
  594MPD2    H7 8867   0.835   1.347  14.694 -2.2318  2.4854  0.5137
  595TMC3    C1 8868   1.547   2.055  14.447  0.1805  0.2185 -0.4881
  595TMC3    C2 8869   1.502   1.927  14.434 -0.3865 -0.3861 -0.6291
  595TMC3    C3 8870   1.381   1.893  14.478 -0.1786 -0.3899  0.0552
  595TMC3    C4 8871   1.452   2.146  14.487  0.2431 -0.2135 -0.0101
  595TMC3    C5 8872   1.327   2.111  14.516  0.2239 -0.0103 -0.4640
  595TMC3    C6 8873   1.291   1.985  14.515  0.0749  0.0102  0.4807
  595TMC3     C 8874   1.685   2.082  14.499 -0.1318  0.3566 -0.6626
  595TMC3     O 8875   1.691   2.162  14.589  0.0852  0.1221  0.4128
  595TMC3     H 8876   1.576   1.850  14.414 -0.1095  0.0775 -1.3900
  595TMC3    H1 8877   1.473   2.251  14.468 -0.4005 -0.0408  0.2267
  595TMC3    H2 8878   1.187   1.956  14.522 -0.1729  0.6317 -0.7250
  595TMC3    C7 8879   1.262   2.194  14.614  0.0306 -0.0264 -0.4603
  595TMC3    C8 8880   1.346   1.753  14.465  1.2003 -0.4728 -0.2022
  595TMC3    O1 8881   1.142   2.171  14.635  0.0008  0.1335  0.1203
  595TMC3    O2 8882   1.411   1.695  14.380 -0.2283  0.2360 -0.2231
  596MPD2     C 8883   0.147   4.638  16.985  0.2571 -0.1364 -0.8382
  596MPD2    C1 8884   0.185   0.022  16.931 -0.3521  0.1352  0.8960
  596MPD2    C2 8885   0.231   0.022  16.799 -0.1041  0.1681  0.2769
  596MPD2    C3 8886   0.224   4.650  16.721  0.7742 -1.2563 -0.5457
  596MPD2    C4 8887   0.195   4.528  16.782 -0.0126 -0.1936 -0.0146
  596MPD2    C5 8888   0.157   4.524  16.910 -0.0756  0.6163 -0.8795
  596MPD2     H 8889   0.267   0.117  16.762 -0.4995  1.0556  2.1833
  596MPD2    H1 8890   0.194   4.443  16.714  0.6659 -0.5066  0.3736
  596MPD2    H2 8891   0.113   4.625  17.087 -0.2044  0.0494 -0.9635
  596MPD2    H3 8892   0.123   4.429  16.950 -2.4552  1.0647 -1.8149
  596MPD2     N 8893   0.236   4.649  16.581  0.3349 -0.6723 -0.4033
  596MPD2    H5 8894   0.235   4.558  16.536 -1.5851 -0.6693 -0.3659
  596MPD2    N1 8895   0.187   0.143  17.007 -0.3113 -0.3280  0.5176
  596MPD2    H7 8896   0.218   0.230  16.965  0.8935 -0.4624  1.1111
  597TMC3    C1 8897   0.140   0.311  17.163  0.9956 -0.0208  0.2407
  597TMC3    C2 8898   0.229   0.397  17.106 -0.5821  0.7222 -0.0389
  597TMC3    C3 8899   0.213   0.532  17.125  0.2420  0.3668  0.2988
  597TMC3    C4 8900   0.049   0.354  17.262 -0.8229 -0.6036 -0.7459
  597TMC3    C5 8901   0.029   0.486  17.272  0.3029  0.1791 -0.8185
  597TMC3    C6 8902   0.106   0.579  17.201  0.4835  0.1901 -0.1136
  597TMC3     C 8903   0.135   0.165  17.129 -0.1561 -0.1271 -0.9172
  597TMC3     O 8904   0.072   0.087  17.195  0.3297 -0.7339  0.2985
  597TMC3     H 8905   0.309   0.366  17.040 -0.5532 -0.8796  0.7442
  597TMC3    H1 8906   4.729   0.276  17.309 -0.9928 -1.2392 -1.9892
  597TMC3    H2 8907   0.097   0.685  17.223 -4.3639 -0.3011  0.1378
  597TMC3    C7 8908   4.650   0.524  17.352  0.0827  0.0105 -0.2233
  597TMC3    C8 8909   0.330   0.618  17.100 -0.0903 -0.9674  0.2321
  597TMC3    O1 8910   4.584   0.433  17.402  1.4261  0.0798  0.4453
  597TMC3    O2 8911   0.306   0.733  17.140 -0.0627  0.0078  0.3622
  598TMC3    C1 8912   2.799   1.037  15.355  0.1327  0.2368  0.1028
  598TMC3    C2 8913   2.664   1.039  15.347  0.3565 -0.0159  0.0278
  598TMC3    C3 8914   2.602   1.159  15.344 -0.2136 -0.7732  0.4444
  598TMC3    C4 8915   2.882   1.142  15.361 -0.2010  0.4119 -0.2123
  598TMC3    C5 8916   2.813   1.257  15.374 -0.2337 -0.4140 -0.5318
  598TMC3    C6 8917   2.675   1.271  15.374 -0.1678 -0.0017  0.2449
  598TMC3     C 8918   2.863   0.912  15.372 -0.4093  0.2453  0.1773
  598TMC3     O 8919   2.832   0.824  15.298 -0.1179  0.1670 -0.0531
  598TMC3     H 8920   2.613   0.944  15.339  1.3486 -0.5361 -0.1620
  598TMC3    H1 8921   2.990   1.135  15.363 -0.1038  2.3590  0.8824
  598TMC3    H2 8922   2.622   1.365  15.389 -0.4509 -0.3894  1.6812
  598TMC3    C7 8923   2.886   1.384  15.391  0.7064 -0.4399 -0.5613
  598TMC3    C8 8924   2.460   1.171  15.337  1.0093  0.0902  0.0050
  598TMC3    O1 8925   2.828   1.488  15.367  0.3389  0.1978  0.1954
  598TMC3    O2 8926   2.410   1.275  15.294 -0.1518  0.2371  0.3140
  599MPD2     C 8927   3.047   3.719  15.867 -0.5015  0.3928  0.2557
  599MPD2    C1 8928   2.993   3.590  15.888  1.0028 -0.3222 -0.0871
  599MPD2    C2 8929   2.880   3.563  15.956  0.2798 -0.4316 -0.5666
  599MPD2    C3 8930   2.800   3.666  16.003  0.5313  0.2967 -0.4775
  599MPD2    C4 8931   2.840   3.792  15.969 -0.6290 -0.1766  0.7507
  599MPD2    C5 8932   2.956   3.816  15.903  0.2117 -0.1095 -0.4280
  599MPD2     H 8933   2.856   3.459  15.973  3.2440 -0.6729  2.1201
  599MPD2    H1 8934   2.780   3.877  16.001  0.0621  1.3773 -2.0990
  599MPD2    H2 8935   3.146   3.750  15.837 -0.1841 -0.4722  0.3981
  599MPD2    H3 8936   2.986   3.918  15.883 -2.0951  0.5515 -0.6103
  599MPD2     N 8937   2.680   3.655  16.079 -0.1958 -0.4137 -0.5484
  599MPD2    H5 8938   2.644   3.739  16.124 -0.2818 -0.0413 -1.3197
  599MPD2    N1 8939   3.066   3.487  15.829  0.9837 -0.4519  0.3645
  599MPD2    H7 8940   3.156   3.515  15.792 -0.0447 -0.0287 -1.8245
  600TMC3    C1 8941   2.493   3.565  16.183  0.2911 -0.1390  0.5483
  600TMC3    C2 8942   2.378   3.492  16.168  0.4681  0.0377  0.4806
  600TMC3    C3 8943   2.286   3.482  16.276 -0.6768 -0.0930 -0.2783
  600TMC3    C4 8944   2.521   3.631  16.292  0.2921 -0.3810 -0.1240
  600TMC3    C5 8945   2.437   3.614  16.398  0.0152 -0.7720  0.6946
  600TMC3    C6 8946   2.326   3.536  16.395 -0.5127  0.4476  0.1128
  600TMC3     C 8947   2.603   3.547  16.094  0.7163 -0.7353 -0.3195
  600TMC3     O 8948   2.616   3.433  16.046  0.8043  0.4285  0.2178
  600TMC3     H 8949   2.366   3.429  16.080 -1.3630 -0.3159  0.9789
  600TMC3    H1 8950   2.610   3.689  16.312  0.6509 -1.5557  1.8152
  600TMC3    H2 8951   2.265   3.518  16.483  0.9907  0.2680  1.1220
  600TMC3    C7 8952   2.457   3.687  16.527  0.2304  0.2253  0.4971
  600TMC3    C8 8953   2.179   3.386  16.278 -0.3954 -0.1473  0.0487
  600TMC3    O1 8954   2.356   3.704  16.597  0.1398 -0.2375 -0.2554
  600TMC3    O2 8955   2.169   3.316  16.380  0.4030  0.3252 -0.6087
  601MPD2     C 8956   0.588   2.239   0.214 -0.8960  0.6512 -0.5166
  601MPD2    C1 8957   0.474   2.165   0.240  0.6047  0.4071  0.0058
  601MPD2    C2 8958   0.483   2.046   0.305  0.2699  0.5649  0.7264
  601MPD2    C3 8959   0.601   1.988   0.342 -0.5171 -0.3802 -0.4015
  601MPD2    C4 8960   0.714   2.056   0.306  0.6939  0.3733 -0.1435
  601MPD2    C5 8961   0.711   2.184   0.238 -1.4259  0.6978 -0.4689
  601MPD2     H 8962   0.391   1.997   0.335  0.7546 -0.6663  0.1732
  601MPD2    H1 8963   0.808   2.002   0.303  0.7986  0.6388 -1.5582
  601MPD2    H2 8964   0.595   2.324   0.147 -0.4483  0.4228 -0.7543
  601MPD2    H3 8965   0.806   2.237   0.230 -0.4962 -0.4057  3.2419
  601MPD2     N 8966   0.603   1.866   0.414 -0.2676  0.0282 -0.2052
  601MPD2    H5 8967   0.512   1.823   0.426 -0.4887 -0.1490 -2.5534
  601MPD2    N1 8968   0.349   2.207   0.202 -0.3904 -0.5367 -0.3601
  601MPD2    H7 8969   0.277   2.136   0.210 -1.7820  0.8082 -1.0094
  602TMC3    C1 8970   0.178   2.331   0.112  0.3656 -0.4203 -0.5223
  602TMC3    C2 8971   0.141   2.461   0.113  0.4291 -0.1044 -0.1570
  602TMC3    C3 8972   0.070   2.512   0.009  0.0091  0.3565  0.2352
  602TMC3    C4 8973   0.130   2.249   0.016  0.4180 -0.0832 -0.1395
  602TMC3    C5 8974   0.071   2.303  17.652 -0.3403  0.3757 -0.1939
  602TMC3    C6 8975   0.033   2.435  17.659 -0.5695  0.5364 -0.8211
  602TMC3     C 8976   0.315   2.321   0.144 -1.0237  0.2663  1.0099
  602TMC3     O 8977   0.376   2.421   0.123  0.8887 -0.1680 -0.3469
  602TMC3     H 8978   0.184   2.530   0.186 -0.0614  0.3715 -0.3216
  602TMC3    H1 8979   0.156   2.144   0.022 -1.6229 -0.5627  0.3402
  602TMC3    H2 8980   4.700   2.464  17.581  2.3689  1.4456 -3.1679
  602TMC3    C7 8981   0.011   2.212  17.552  0.8608  0.2810 -0.5376
  602TMC3    C8 8982   0.036   2.655   0.004  0.1777  0.1139  0.4245
  602TMC3    O1 8983   0.008   2.092  17.577 -0.0809 -0.1056 -0.1367
  602TMC3    O2 8984   0.023   2.717   0.109 -0.5225 -0.2138 -0.4043
  603TMC3    C1 8985   3.883   2.214  11.294  0.2156 -0.1638 -0.2912
  603TMC3    C2 8986   3.939   2.207  11.418  0.5769 -0.2414  0.1113
  603TMC3    C3 8987   3.951   2.322  11.486 -0.2654  0.0374  0.2106
  603TMC3    C4 8988   3.830   2.331  11.246  0.3257  0.5860  0.2064
  603TMC3    C5 8989   3.844   2.444  11.320 -0.3412  0.1244  0.6099
  603TMC3    C6 8990   3.903   2.447  11.444 -0.6970  0.2104  0.5054
  603TMC3     C 8991   3.825   2.091  11.249 -0.7586  0.3988 -0.2119
  603TMC3     O 8992   3.741   2.106  11.156  0.3826  0.1077  0.0277
  603TMC3     H 8993   3.971   2.120  11.475 -1.6409  1.2520  3.5860
  603TMC3    H1 8994   3.790   2.342  11.146  0.4188 -2.1114 -0.1224
  603TMC3    H2 8995   3.941   2.537  11.490  0.3153 -0.4646  1.0004
  603TMC3    C7 8996   3.774   2.571  11.280  0.5617 -0.3760  0.0785
  603TMC3    C8 8997   3.981   2.299  11.627 -0.2162 -0.7836 -0.7391
  603TMC3    O1 8998   3.829   2.679  11.301 -0.0968 -0.2548  0.0239
  603TMC3    O2 8999   4.049   2.203  11.657 -0.1165 -0.1151 -0.5992
  604MPD2     C 9000   4.119   1.187  16.345 -0.6808 -0.4401 -0.5508
  604MPD2    C1 9001   4.016   1.117  16.282 -0.4189 -0.3161  0.0168
  604MPD2    C2 9002   4.044   1.051  16.162 -0.5087  0.4218  0.4624
  604MPD2    C3 9003   4.166   1.054  16.101  0.4105 -0.1132 -0.1117
  604MPD2    C4 9004   4.268   1.123  16.170 -0.1435  0.2599  0.6154
  604MPD2    C5 9005   4.244   1.188  16.291  0.0673 -0.6623 -0.0587
  604MPD2     H 9006   3.966   0.985  16.128  1.9854 -2.1618 -0.2004
  604MPD2    H1 9007   4.372   1.129  16.141  0.0369  1.4989  1.5365
  604MPD2    H2 9008   4.100   1.241  16.437 -0.4011  1.2844 -1.5042
  604MPD2    H3 9009   4.323   1.239  16.345 -0.1753  0.1468 -0.4610
  604MPD2     N 9010   4.177   0.982  15.982 -0.0752  0.6812 -0.2865
  604MPD2    H5 9011   4.092   0.936  15.952  1.7223 -2.4653 -0.6138
  604MPD2    N1 9012   3.889   1.119  16.345  0.2613  0.2447  0.7238
  604MPD2    H7 9013   3.876   1.151  16.440 -0.9068  0.2854  0.5582
  605TMC3    C1 9014   3.664   1.084  16.388  0.7761  0.3622 -0.4237
  605TMC3    C2 9015   3.708   1.098  16.518 -0.2617 -0.2286 -0.1759
  605TMC3    C3 9016   3.636   1.167  16.611  0.3694  0.3158  0.1433
  605TMC3    C4 9017   3.553   1.150  16.351  0.3876  0.1173 -0.4352
  605TMC3    C5 9018   3.472   1.213  16.439 -0.0456 -0.4990  0.2708
  605TMC3    C6 9019   3.514   1.223  16.572  0.3519 -0.1816  0.2921
  605TMC3     C 9020   3.771   1.077  16.294  0.9078  0.0308 -0.4916
  605TMC3     O 9021   3.741   1.067  16.178 -0.1275  0.2317  0.9549
  605TMC3     H 9022   3.789   1.034  16.552 -0.5027 -0.9840 -1.0303
  605TMC3    H1 9023   3.536   1.134  16.245  0.4614  1.6099 -0.6799
  605TMC3    H2 9024   3.447   1.274  16.641  0.6978 -1.4935  1.5928
  605TMC3    C7 9025   3.359   1.290  16.388 -0.3317 -0.7275 -0.1233
  605TMC3    C8 9026   3.725   1.253  16.680 -0.7275  0.4095 -0.0432
  605TMC3    O1 9027   3.302   1.355  16.476  0.0951 -0.5887 -0.5325
  605TMC3    O2 9028   3.846   1.222  16.662 -0.3802 -0.0841 -0.0035
  606TMC3    C1 9029   0.027   0.089  17.615  0.0298 -1.0292 -0.3151
  606TMC3    C2 9030   4.700   0.076  17.737 -0.0125  0.4586 -0.4203
  606TMC3    C3 9031   4.641   4.691   0.012 -0.4126 -0.4611 -0.0842
  606TMC3    C4 9032   0.037   4.729  17.517  0.0874 -0.2970 -0.7123
  606TMC3    C5 9033   4.707   4.615  17.544 -0.0248  0.7092  0.8202
  606TMC3    C6 9034   4.646   4.592  17.667  0.1238 -0.4935 -0.3886
  606TMC3     C 9035   0.099   0.219  17.599  0.1264  0.2039 -0.6235
  606TMC3     O 9036   0.054   0.320  17.654 -0.1390  0.5508  0.5618
  606TMC3     H 9037   4.716   0.150   0.067 -2.8122  0.8437 -0.1999
  606TMC3    H1 9038   0.073   0.017  17.417  0.3247 -2.8579 -1.2724
  606TMC3    H2 9039   4.620   4.490  17.692 -0.6662 -0.3334 -0.5714
  606TMC3    C7 9040   4.700   4.513  17.435 -0.8988  0.1521  0.9604
  606TMC3    C8 9041   4.623   4.653   0.155 -0.7692 -0.1955 -0.2105
  606TMC3    O1 9042   0.038   4.527  17.339 -0.2299 -0.2009  0.2646
  606TMC3    O2 9043   4.652   4.542   0.192  0.1471 -0.1329 -0.2839
  607MPD2     C 9044   2.533   2.217  12.218 -0.5434 -0.0202 -0.2737
  607MPD2    C1 9045   2.617   2.275  12.314 -0.1450  0.2460 -0.5718
  607MPD2    C2 9046   2.633   2.200  12.429 -0.0018 -0.3470 -0.1151
  607MPD2    C3 9047   2.595   2.072  12.446  0.1838  0.2908  0.0327
  607MPD2    C4 9048   2.516   2.014  12.351  0.4510 -0.3005 -0.0176
  607MPD2    C5 9049   2.477   2.092  12.239 -0.1596 -0.3440 -0.0761
  607MPD2     H 9050   2.686   2.245  12.513 -1.3715 -1.2096  1.2088
  607MPD2    H1 9051   2.485   1.910  12.363 -2.0807  0.2190 -2.1815
  607MPD2    H2 9052   2.518   2.274  12.127 -2.7761 -0.4669 -0.1680
  607MPD2    H3 9053   2.428   2.056  12.150 -1.0017  0.2331  0.1614
  607MPD2     N 9054   2.637   2.017  12.570  0.0693  0.2900 -0.5428
  607MPD2    H5 9055   2.672   2.082  12.640 -0.0722  0.2070 -0.3980
  607MPD2    N1 9056   2.676   2.406  12.313 -0.6871 -0.0607  0.5402
  607MPD2    H7 9057   2.746   2.416  12.386 -1.0912 -2.1524  1.2179
  608TMC3    C1 9058   2.728   2.628  12.260  0.6477 -0.1133  0.4303
  608TMC3    C2 9059   2.757   2.645  12.395  0.0838  0.0837  0.6440
  608TMC3    C3 9060   2.828   2.760  12.430 -0.1446  0.3896 -0.6369
  608TMC3    C4 9061   2.747   2.735  12.173 -0.1445 -0.2806 -0.5433
  608TMC3    C5 9062   2.825   2.836  12.213  0.4878 -0.0400  0.6030
  608TMC3    C6 9063   2.863   2.853  12.344  0.3119  0.0052  0.2208
  608TMC3     C 9064   2.662   2.506  12.218 -0.1920 -0.2535  0.3870
  608TMC3     O 9065   2.591   2.508  12.120  0.0757  0.6675  0.0730
  608TMC3     H 9066   2.708   2.589  12.474 -0.5011  0.1998  0.3664
  608TMC3    H1 9067   2.720   2.717  12.069 -1.3282  0.4912 -0.3773
  608TMC3    H2 9068   2.918   2.937  12.383 -0.3020  0.8044 -0.6333
  608TMC3    C7 9069   2.884   2.929  12.111  0.5201  0.1679  0.8983
  608TMC3    C8 9070   2.885   2.771  12.563 -0.8466 -0.2349 -0.1385
  608TMC3    O1 9071   2.883   2.886  11.996  1.1704  0.6824  0.1429
  608TMC3    O2 9072   2.920   2.877  12.611 -0.4965  0.0237 -0.4137
  609TMC3    C1 9073   1.479   0.411  10.014  0.1075  0.5478 -0.2787
  609TMC3    C2 9074   1.496   0.334   9.908 -0.2493  0.5699 -0.3791
  609TMC3    C3 9075   1.620   0.325   9.853  0.2780 -0.3142  0.1753
  609TMC3    C4 9076   1.587   0.469  10.080 -0.3763  0.2539 -0.3265
  609TMC3    C5 9077   1.709   0.458  10.027  0.3684 -0.1794  0.1941
  609TMC3    C6 9078   1.724   0.403   9.902 -0.2995  0.4410 -0.1436
  609TMC3     C 9079   1.350   0.430  10.075  0.5315 -0.0913 -0.2177
  609TMC3     O 9080   1.343   0.499  10.174 -0.0565 -0.4944 -0.5865
  609TMC3     H 9081   1.417   0.265   9.880  1.3397 -1.4713  0.1380
  609TMC3    H1 9082   1.576   0.537  10.164  1.1660  0.0788  0.0140
  609TMC3    H2 9083   1.821   0.421   9.859  0.8914 -0.0466  2.3472
  609TMC3    C7 9084   1.808   0.563  10.067 -0.5087 -0.4172  0.6203
  609TMC3    C8 9085   1.638   0.250   9.725 -0.3051 -0.0307 -0.3256
  609TMC3    O1 9086   1.870   0.606   9.978 -0.6130  0.2000  0.2130
  609TMC3    O2 9087   1.561   0.162   9.693  0.5266 -0.0868 -0.5783
  610TMC3    C1 9088   3.847   3.016  13.333  0.1299  1.0834 -0.3200
  610TMC3    C2 9089   3.767   3.067  13.232  0.3520 -0.1855 -0.2285
  610TMC3    C3 9090   3.652   2.995  13.203  0.3505  0.3625  0.7182
  610TMC3    C4 9091   3.814   2.907  13.408 -0.1331 -0.3098  0.2903
  610TMC3    C5 9092   3.682   2.861  13.389  0.7413  0.1113 -0.1206
  610TMC3    C6 9093   3.613   2.888  13.276  0.2566  0.1706  0.6990
  610TMC3     C 9094   3.983   3.058  13.336 -0.3834  0.0293  0.0852
  610TMC3     O 9095   4.045   3.011  13.430  0.2166 -0.1308 -0.1484
  610TMC3     H 9096   3.796   3.155  13.176  2.5683 -1.9662 -1.9115
  610TMC3    H1 9097   3.880   2.855  13.476 -1.0986 -0.5659  1.0194
  610TMC3    H2 9098   3.529   2.827  13.243  1.2540 -0.6548 -0.3046
  610TMC3    C7 9099   3.636   2.762  13.477 -0.4470 -0.7526 -0.5178
  610TMC3    C8 9100   3.590   3.032  13.079 -0.1134  0.4271  0.8785
  610TMC3    O1 9101   3.714   2.721  13.562 -0.1621 -0.0715 -0.3354
  610TMC3    O2 9102   3.648   3.109  13.004 -0.3411 -0.2363  0.2869
  611MPD2     C 9103   2.403   3.001  10.481  0.7466 -1.1603 -0.8574
  611MPD2    C1 9104   2.365   2.905  10.568 -1.8161  0.4155 -0.0531
  611MPD2    C2 9105   2.469   2.834  10.635 -0.6644  0.0714 -0.1219
  611MPD2    C3 9106   2.601   2.874  10.624 -0.1728  0.3053 -0.5380
  611MPD2    C4 9107   2.635   2.963  10.528 -0.2507  0.0686  0.3099
  611MPD2    C5 9108   2.535   3.013  10.455 -0.5441  0.2280 -0.3783
  611MPD2     H 9109   2.437   2.755  10.702  0.3988 -1.6717 -1.6826
  611MPD2    H1 9110   2.735   2.994  10.501 -0.4033  1.4800  1.4029
  611MPD2    H2 9111   2.334   3.062  10.424 -0.0753 -0.5806  0.7506
  611MPD2    H3 9112   2.567   3.085  10.381 -1.7470 -1.0589 -2.1731
  611MPD2     N 9113   2.710   2.804  10.683 -0.3354 -0.2936  0.9058
  611MPD2    H5 9114   2.806   2.819  10.653  0.0744  0.9838  2.8868
  611MPD2    N1 9115   2.227   2.870  10.580  0.3093  0.5679 -0.3771
  611MPD2    H7 9116   2.160   2.922  10.524 -2.0216 -0.7619  1.1969
  612TMC3    C1 9117   2.831   2.643  10.780  0.9956 -1.4271 -0.1196
  612TMC3    C2 9118   2.925   2.716  10.849  0.2812 -0.3885  0.6828
  612TMC3    C3 9119   3.033   2.653  10.908 -0.1298  0.9725 -1.0125
  612TMC3    C4 9120   2.834   2.508  10.785  0.4293 -0.2179 -0.5698
  612TMC3    C5 9121   2.944   2.453  10.836 -0.5503  0.1676 -0.9690
  612TMC3    C6 9122   3.041   2.522  10.908 -0.6045 -0.8231 -0.0497
  612TMC3     C 9123   2.700   2.692  10.760  0.6099 -0.2809 -0.9081
  612TMC3     O 9124   2.600   2.638  10.802 -0.7290  0.2181 -0.1739
  612TMC3     H 9125   2.913   2.823  10.854 -0.4521 -0.4991  1.2803
  612TMC3    H1 9126   2.776   2.448  10.714  1.2719  0.0200 -1.4621
  612TMC3    H2 9127   3.129   2.466  10.937  0.5891  1.1501  0.1667
  612TMC3    C7 9128   3.003   2.335  10.766 -0.0925 -0.2755 -0.2275
  612TMC3    C8 9129   3.144   2.741  10.949 -0.0468 -0.1415 -0.4061
  612TMC3    O1 9130   3.085   2.267  10.831 -0.0808  0.3660  0.0957
  612TMC3    O2 9131   3.125   2.862  10.936 -0.0663  0.0409 -0.3445
  613MPD2     C 9132   1.390   4.226  17.115 -0.4448 -0.2835 -0.2801
  613MPD2    C1 9133   1.409   4.258  16.983  0.2477  0.3029  0.8186
  613MPD2    C2 9134   1.378   4.171  16.882 -0.2684  0.1930 -0.1222
  613MPD2    C3 9135   1.342   4.042  16.918  0.1656  0.5968 -0.5873
  613MPD2    C4 9136   1.333   4.007  17.051 -0.0276 -0.3339 -0.0328
  613MPD2    C5 9137   1.358   4.102  17.146  0.2730 -0.0235 -0.7974
  613MPD2     H 9138   1.407   4.186  16.779  0.9145 -1.7606 -0.0758
  613MPD2    H1 9139   1.307   3.911  17.094 -0.9322 -0.4942 -0.9497
  613MPD2    H2 9140   1.409   4.287  17.202 -0.4086 -1.3463  0.4575
  613MPD2    H3 9141   1.350   4.079  17.251 -0.1903  3.9142  0.0171
  613MPD2     N 9142   1.327   3.934  16.824 -0.2382  0.1769  0.1972
  613MPD2    H5 9143   1.312   3.839  16.856 -1.1041 -0.9808 -3.6596
  613MPD2    N1 9144   1.479   4.376  16.946  0.0733 -0.2942  0.4873
  613MPD2    H7 9145   1.505   4.383  16.848 -1.3912 -2.5284 -0.0809
  614TMC3    C1 9146   1.575   4.576  16.937  0.7653  0.1195  0.1727
  614TMC3    C2 9147   1.666   4.509  16.862  1.1591  0.0165 -0.4308
  614TMC3    C3 9148   1.670   4.522  16.724  1.1821  0.2424  0.1405
  614TMC3    C4 9149   1.490   4.662  16.875 -0.1371 -1.0860 -0.4742
  614TMC3    C5 9150   1.502   4.688  16.740 -0.1635  0.0465 -0.4717
  614TMC3    C6 9151   1.595   4.614  16.664  0.6894  0.5325  0.5953
  614TMC3     C 9152   1.514   4.476  17.024 -0.2972 -0.1881 -0.0217
  614TMC3     O 9153   1.481   4.507  17.139 -0.4185 -0.4081  0.2694
  614TMC3     H 9154   1.738   4.447  16.915 -0.9376  0.2033  2.6523
  614TMC3    H1 9155   1.425   4.715  16.944  0.8632 -1.0340  0.4515
  614TMC3    H2 9156   1.605   4.630  16.557 -0.2848  1.0148  0.5793
  614TMC3    C7 9157   1.437   0.076  16.688  0.0733 -0.4153  0.3459
  614TMC3    C8 9158   1.698   4.393  16.662  0.0120 -0.1218 -0.6915
  614TMC3    O1 9159   1.398   0.154  16.774  0.3023  0.1902  0.0692
  614TMC3    O2 9160   1.672   4.292  16.723 -0.1457 -0.0211  0.4454
  615MPD2     C 9161   0.659   1.322  16.876  0.3141 -0.6287 -0.2081
  615MPD2    C1 9162   0.785   1.368  16.827 -0.1353  0.8797  0.6334
  615MPD2    C2 9163   0.788   1.437  16.707 -0.2128 -0.2677  0.2265
  615MPD2    C3 9164   0.673   1.448  16.633 -0.5802  0.2259 -0.3376
  615MPD2    C4 9165   0.557   1.400  16.677 -0.5511 -0.1898  0.3819
  615MPD2    C5 9166   0.544   1.338  16.803  0.0671 -0.3283  0.5468
  615MPD2     H 9167   0.884   1.479  16.678 -0.0782  0.6389  1.9572
  615MPD2    H1 9168   0.467   1.418  16.619  0.6050  0.4873 -1.2123
  615MPD2    H2 9169   0.654   1.273  16.973  0.9580 -2.4136 -1.0761
  615MPD2    H3 9170   0.452   1.287  16.829 -2.3504  2.5743 -2.3972
  615MPD2     N 9171   0.666   1.502  16.500  0.0774 -0.1320  0.1493
  615MPD2    H5 9172   0.571   1.515  16.467  1.0563  1.2080 -2.1242
  615MPD2    N1 9173   0.905   1.358  16.892 -0.5196 -0.6151  0.2610
  615MPD2    H7 9174   0.985   1.401  16.847  0.6078 -1.5122  1.4000
  616TMC3    C1 9175   1.062   1.330  17.064 -0.2484  0.3252  0.7687
  616TMC3    C2 9176   1.164   1.311  16.971  0.2299 -0.4150 -0.3916
  616TMC3    C3 9177   1.293   1.309  17.032  0.0081  0.8226  0.7196
  616TMC3    C4 9178   1.079   1.345  17.197  0.2162  0.5565 -0.0731
  616TMC3    C5 9179   1.201   1.321  17.251 -0.3647 -0.1336  0.4222
  616TMC3    C6 9180   1.316   1.314  17.171 -0.5480  0.8378  0.7164
  616TMC3     C 9181   0.919   1.327  17.026 -0.4341 -0.0451 -0.1775
  616TMC3     O 9182   0.833   1.312  17.111  0.0246  0.4814 -0.2473
  616TMC3     H 9183   1.140   1.295  16.867 -0.6361  2.5040 -0.6501
  616TMC3    H1 9184   0.991   1.360  17.258 -0.1447  0.5537 -0.5929
  616TMC3    H2 9185   1.420   1.314  17.203 -0.9380 -1.7079  1.9392
  616TMC3    C7 9186   1.218   1.351  17.394 -0.4707  0.4893 -0.3673
  616TMC3    C8 9187   1.390   1.387  16.959 -0.0067 -0.3279  0.1448
  616TMC3    O1 9188   1.137   1.429  17.446  0.6792  0.1396  0.4223
  616TMC3    O2 9189   1.493   1.412  17.021 -0.9703 -0.7894  0.0118
  617MPD2     C 9190   3.913   4.369  13.799  0.5878  0.1427 -0.2650
  617MPD2    C1 9191   3.909   4.422  13.923 -0.1403  0.6518  0.7847
  617MPD2    C2 9192   3.785   4.435  13.990 -0.0358  0.8267  0.0525
  617MPD2    C3 9193   3.671   4.393  13.924 -0.3515  0.3027  0.6376
  617MPD2    C4 9194   3.681   4.346  13.799  0.3160  0.4709  0.3795
  617MPD2    C5 9195   3.805   4.329  13.734  0.2973 -0.4167  0.1506
  617MPD2     H 9196   3.775   4.471  14.091 -1.3294 -2.3245  1.0394
  617MPD2    H1 9197   3.590   4.314  13.748  0.1890 -0.4421  1.1637
  617MPD2    H2 9198   4.005   4.363  13.742  0.6268 -0.7401 -0.1140
  617MPD2    H3 9199   3.805   4.288  13.634  0.1438  1.3598 -0.5905
  617MPD2     N 9200   3.539   4.390  13.980 -0.4349  0.4144 -0.0940
  617MPD2    H5 9201   3.477   4.332  13.924  0.1339  0.3822 -0.7022
  617MPD2    N1 9202   4.033   4.452  13.977 -0.2213  0.3827 -0.6865
  617MPD2    H7 9203   4.110   4.413  13.925 -0.4616 -1.3055  0.2176
  618TMC3    C1 9204   4.189   4.469  14.157 -0.0096 -0.0493  1.0151
  618TMC3    C2 9205   4.209   4.342  14.197  0.1638  0.5689 -0.8856
  618TMC3    C3 9206   4.325   4.279  14.187  0.3407 -0.2507 -0.2465
  618TMC3    C4 9207   4.303   4.542  14.119 -0.2115  0.4025 -0.8346
  618TMC3    C5 9208   4.424   4.471  14.112  0.0384  0.3694 -0.0294
  618TMC3    C6 9209   4.435   4.338  14.141  0.1604 -0.7831  0.2791
  618TMC3     C 9210   4.057   4.490  14.108 -0.5740 -0.7198 -0.2094
  618TMC3     O 9211   3.977   4.517  14.202 -0.0229  0.1772 -0.3217
  618TMC3     H 9212   4.118   4.284  14.202 -0.2303  1.3323  0.5994
  618TMC3    H1 9213   4.291   4.633  14.061  3.3661  1.8508  0.6840
  618TMC3    H2 9214   4.532   4.291  14.152  1.2735  1.5916  0.7856
  618TMC3    C7 9215   4.527   4.557  14.059 -0.2445 -0.6492 -0.0712
  618TMC3    C8 9216   4.335   4.136  14.205 -0.4725  0.4214  0.4077
  618TMC3    O1 9217   4.524   4.671  14.097 -0.3607 -0.1049 -0.3322
  618TMC3    O2 9218   4.257   4.083  14.283 -0.3709  0.3977  0.4995
  619MPD2     C 9219   0.227   4.644  14.493 -0.6057 -0.2794  0.0206
  619MPD2    C1 9220   0.250   0.036  14.445  0.1109  0.2048  0.2916
  619MPD2    C2 9221   0.145   0.122  14.429  0.1911 -0.0496 -0.3510
  619MPD2    C3 9222   0.015   0.086  14.447 -0.1232  0.4105 -1.2294
  619MPD2    C4 9223   4.726   4.690  14.480 -0.1466 -0.3558 -0.3803
  619MPD2    C5 9224   0.097   4.610  14.515  0.0234 -0.4864 -0.4264
  619MPD2     H 9225   0.167   0.216  14.379 -1.0532  0.1816 -0.4524
  619MPD2    H1 9226   4.633   4.634  14.479 -0.3328 -0.0428 -0.6293
  619MPD2    H2 9227   0.302   4.567  14.508  0.9705  1.5480  1.4946
  619MPD2    H3 9228   0.075   4.506  14.535 -0.4851  0.1395  2.3131
  619MPD2     N 9229   4.641   0.166  14.412  0.7307  0.6250 -0.4302
  619MPD2    H5 9230   4.551   0.123  14.396  0.0193  1.7723  0.4212
  619MPD2    N1 9231   0.373   0.080  14.400  0.9215 -0.4810 -0.6527
  619MPD2    H7 9232   0.376   0.168  14.349 -2.3254 -1.2435 -2.1267
  620TMC3    C1 9233   0.603   0.054  14.331 -0.4598  0.2841 -0.4297
  620TMC3    C2 9234   0.561   0.092  14.204  0.3185 -0.1216  0.0540
  620TMC3    C3 9235   0.646   0.173  14.135  0.1841 -0.4970 -0.3210
  620TMC3    C4 9236   0.725   0.074  14.383 -0.5569 -0.9680 -0.2258
  620TMC3    C5 9237   0.806   0.152  14.305 -0.2484 -0.1973  0.0699
  620TMC3    C6 9238   0.775   0.198  14.177  0.0520 -0.4601 -0.1722
  620TMC3     C 9239   0.496   0.011  14.418  0.1426  0.0493 -0.1345
  620TMC3     O 9240   0.507   4.668  14.511 -0.0487 -0.0958 -0.3339
  620TMC3     H 9241   0.461   0.071  14.165  0.7293 -2.4920  0.2942
  620TMC3    H1 9242   0.759   0.045  14.482  0.1740 -0.8338 -0.4343
  620TMC3    H2 9243   0.830   0.276  14.126  1.1732  1.0643  3.3605
  620TMC3    C7 9244   0.902   0.233  14.372 -1.1346  0.5269 -0.0786
  620TMC3    C8 9245   0.587   0.298  14.116 -0.1291  0.0622 -0.2654
  620TMC3    O1 9246   0.872   0.260  14.487  0.9905 -0.1188  0.6590
  620TMC3    O2 9247   0.613   0.387  14.196  0.1611 -0.1598  1.4340
  621MPD2     C 9248   1.066   0.215  10.763 -0.1773  0.0580 -0.6994
  621MPD2    C1 9249   1.099   0.259  10.634 -0.4693  0.1088  0.3290
  621MPD2    C2 9250   1.212   0.348  10.623  0.6569  0.9851 -0.0518
  621MPD2    C3 9251   1.289   0.386  10.733 -0.0071  0.3560 -0.0570
  621MPD2    C4 9252   1.254   0.340  10.853  0.3863  0.5659  0.4515
  621MPD2    C5 9253   1.144   0.261  10.866 -0.4188  0.2443 -0.8735
  621MPD2     H 9254   1.231   0.389  10.525 -0.0753 -2.8239 -1.7953
  621MPD2    H1 9255   1.312   0.366  10.940 -1.9629 -2.2408  2.8220
  621MPD2    H2 9256   0.990   0.140  10.777  1.8586 -1.8882 -0.1014
  621MPD2    H3 9257   1.109   0.233  10.964  2.8106 -2.4064 -0.4810
  621MPD2     N 9258   1.399   0.472  10.729  0.2453 -0.0054 -0.4640
  621MPD2    H5 9259   1.457   0.481  10.812 -1.6944  1.5671  0.7011
  621MPD2    N1 9260   1.032   0.209  10.518  0.6492 -0.6525  0.0265
  621MPD2    H7 9261   1.073   0.230  10.428 -1.4962  1.0200 -0.5442
  622TMC3    C1 9262   0.849   0.095  10.401 -0.0726 -0.0522 -0.5549
  622TMC3    C2 9263   0.735   0.024  10.405 -0.2992 -0.5875  0.2007
  622TMC3    C3 9264   0.708   4.678  10.304 -0.1105 -0.3163  0.3446
  622TMC3    C4 9265   0.934   0.090  10.295  0.4891  0.1819 -0.2009
  622TMC3    C5 9266   0.897   0.011  10.191  0.6995  0.2635 -0.4927
  622TMC3    C6 9267   0.790   4.661  10.196  0.0479 -0.3965  0.5867
  622TMC3     C 9268   0.906   0.150  10.527  0.0243 -0.6587 -0.5360
  622TMC3     O 9269   0.822   0.153  10.616  0.3069 -0.5515  0.1288
  622TMC3     H 9270   0.656   0.040  10.478  0.2060  1.6813  0.2331
  622TMC3    H1 9271   1.024   0.150  10.281 -0.3275  2.1510  2.9546
  622TMC3    H2 9272   0.774   4.586  10.119  1.0587 -0.9482  0.9128
  622TMC3    C7 9273   1.003   4.704  10.106 -0.4729 -0.3559 -0.8868
  622TMC3    C8 9274   0.589   4.605  10.295  0.6320 -0.2706 -0.2909
  622TMC3    O1 9275   1.115   4.730  10.143  0.2136  0.2782  0.4555
  622TMC3    O2 9276   0.596   4.493  10.245 -0.4085  0.2982 -0.4346
  623MPD2     C 9277   4.189   1.532  16.003  0.2764  0.0829 -0.1222
  623MPD2    C1 9278   4.105   1.519  16.111 -0.3852 -0.2118  0.3443
  623MPD2    C2 9279   4.160   1.530  16.232 -0.1280  0.1940  0.2016
  623MPD2    C3 9280   4.299   1.540  16.248  0.1050 -0.3662 -0.6534
  623MPD2    C4 9281   4.385   1.534  16.139  0.1635 -0.8512  0.1990
  623MPD2    C5 9282   4.326   1.542  16.013 -0.3669 -0.3290  0.6100
  623MPD2     H 9283   4.108   1.518  16.326 -1.2249 -2.0526 -0.6917
  623MPD2    H1 9284   4.492   1.544  16.150  0.1645 -1.2446  0.5786
  623MPD2    H2 9285   4.155   1.534  15.900 -0.3492  0.0025  0.0836
  623MPD2    H3 9286   4.384   1.558  15.923 -1.3679  1.6359  0.3176
  623MPD2     N 9287   4.341   1.558  16.380 -0.4077 -0.1161  0.1159
  623MPD2    H5 9288   4.263   1.541  16.443  0.2044  0.1572  0.9491
  623MPD2    N1 9289   3.965   1.492  16.105 -0.2891 -1.1296 -1.0072
  623MPD2    H7 9290   3.930   1.479  16.200  1.4069 -2.0170 -0.4929
  624TMC3    C1 9291   4.525   1.419  16.757 -0.8353 -0.0590  0.5890
  624TMC3    C2 9292   4.411   1.461  16.825 -0.0251 -0.1497 -0.2856
  624TMC3    C3 9293   4.319   1.544  16.766 -0.9675  0.2573  0.3752
  624TMC3    C4 9294   4.547   1.460  16.634 -0.4069 -0.1257 -0.3648
  624TMC3    C5 9295   4.460   1.550  16.578 -0.2200 -0.0579  0.6295
  624TMC3    C6 9296   4.345   1.595  16.641 -0.3831 -0.1326  0.3112
  624TMC3     C 9297   4.624   1.344  16.825 -0.3268 -0.5103 -0.0137
  624TMC3     O 9298   4.623   1.372  16.941  0.4767  0.1463 -0.1103
  624TMC3     H 9299   4.392   1.421  16.923 -0.3056  2.4334  0.7217
  624TMC3    H1 9300   4.633   1.423  16.578 -1.1112 -0.7300 -1.0401
  624TMC3    H2 9301   4.271   1.664  16.605 -1.5849 -0.4819  2.1046
  624TMC3    C7 9302   4.467   1.568  16.437 -0.9417 -0.4717  0.6742
  624TMC3    C8 9303   4.185   1.494  16.788 -0.1792  0.2628  0.2265
  624TMC3    O1 9304   4.579   1.559  16.387 -0.5419 -0.3169  0.2208
  624TMC3    O2 9305   4.153   1.395  16.719  0.4410 -0.0549 -0.4902
  625MPD2     C 9306   4.615   2.630   0.769  0.6826 -0.6981  0.4704
  625MPD2    C1 9307   4.596   2.767   0.771 -0.2124 -0.2445  0.0255
  625MPD2    C2 9308   4.704   2.852   0.792 -0.7538 -0.1039  0.7794
  625MPD2    C3 9309   0.095   2.809   0.816  0.3820  0.5940  0.8104
  625MPD2    C4 9310   0.111   2.665   0.836 -0.9212 -0.1597 -0.6515
  625MPD2    C5 9311   0.003   2.582   0.812  0.1478 -0.0409  0.1273
  625MPD2     H 9312   4.685   2.958   0.801 -3.2367 -0.3120 -2.0356
  625MPD2    H1 9313   0.203   2.619   0.870 -0.0542 -0.3061 -3.2158
  625MPD2    H2 9314   4.543   2.551   0.748  0.9864 -0.3940 -1.7830
  625MPD2    H3 9315   0.014   2.474   0.815  1.3079  0.0393 -0.8023
  625MPD2     N 9316   0.197   2.900   0.841 -0.4615 -0.1364 -0.2621
  625MPD2    H5 9317   0.166   2.996   0.849  0.1600 -0.0366  0.8488
  625MPD2    N1 9318   4.472   2.821   0.744 -0.4044 -0.7858  0.4111
  625MPD2    H7 9319   4.466   2.922   0.735 -0.7426 -1.1214 -3.2530
  626TMC3    C1 9320   4.244   2.839   0.715  0.0180  0.2885 -0.3101
  626TMC3    C2 9321   4.265   2.957   0.652  0.1921  0.7427 -0.1497
  626TMC3    C3 9322   4.157   3.043   0.638  0.5389  0.1363 -0.0212
  626TMC3    C4 9323   4.121   2.798   0.770 -0.3541 -0.0914 -0.8865
  626TMC3    C5 9324   4.019   2.893   0.763  0.4844  0.7571 -0.2188
  626TMC3    C6 9325   4.035   3.006   0.688 -0.4426  0.1286  0.0482
  626TMC3     C 9326   4.352   2.747   0.733  0.1690 -0.2678  0.5885
  626TMC3     O 9327   4.323   2.628   0.751  0.2570 -0.2789  0.3292
  626TMC3     H 9328   4.349   2.974   0.586  1.9895 -0.7470  1.7860
  626TMC3    H1 9329   4.111   2.697   0.809 -2.1767  0.7175  0.7378
  626TMC3    H2 9330   3.951   3.069   0.664  0.5856  1.1065 -0.9774
  626TMC3    C7 9331   3.897   2.875   0.839 -0.1042  0.6249  0.3914
  626TMC3    C8 9332   4.173   3.156   0.548  0.2672 -0.2662  0.4200
  626TMC3    O1 9333   3.893   2.760   0.873 -0.0520 -0.4299  0.2893
  626TMC3    O2 9334   4.241   3.145   0.453  0.2125 -0.3546  0.5406
  627MPD2     C 9335   2.905   3.215  14.463  0.1663  0.2871  0.0717
  627MPD2    C1 9336   2.983   3.140  14.552  0.6100 -0.0580 -0.3810
  627MPD2    C2 9337   2.929   3.020  14.595  0.3827 -0.2078  0.7604
  627MPD2    C3 9338   2.814   2.973  14.548  0.2680 -0.0983 -0.6286
  627MPD2    C4 9339   2.739   3.046  14.449 -0.8918 -0.4457 -0.0099
  627MPD2    C5 9340   2.787   3.164  14.414 -0.1319 -0.9181 -0.8988
  627MPD2     H 9341   2.981   2.962  14.670 -1.5667 -1.4677  1.1383
  627MPD2    H1 9342   2.641   3.017  14.415 -0.3103  0.1739 -2.2259
  627MPD2    H2 9343   2.936   3.311  14.424  1.8187  0.9093  2.8938
  627MPD2    H3 9344   2.735   3.227  14.342  1.8292  3.5786  1.6300
  627MPD2     N 9345   2.749   2.860  14.609  0.4242 -0.3571  0.3679
  627MPD2    H5 9346   2.649   2.848  14.592  0.5339  0.2250 -0.7126
  627MPD2    N1 9347   3.096   3.194  14.618  0.1172  0.1945  0.2098
  627MPD2    H7 9348   3.140   3.141  14.693  0.9123 -1.4219 -1.3986
  628TMC3    C1 9349   3.280   3.330  14.654  0.0039 -0.0892 -0.3082
  628TMC3    C2 9350   3.359   3.227  14.696 -0.4196  0.1002  0.5024
  628TMC3    C3 9351   3.486   3.248  14.741  0.1573 -0.0941  0.0169
  628TMC3    C4 9352   3.322   3.455  14.682 -1.0862 -0.7141 -0.0057
  628TMC3    C5 9353   3.448   3.475  14.732  0.5400  0.3153  0.0806
  628TMC3    C6 9354   3.535   3.378  14.765 -0.1780 -0.2635 -0.2716
  628TMC3     C 9355   3.149   3.313  14.587  0.5561  0.0946 -0.4906
  628TMC3     O 9356   3.123   3.402  14.510  0.3727  0.3157 -0.0393
  628TMC3     H 9357   3.344   3.124  14.665 -1.1894  0.6092 -0.8228
  628TMC3    H1 9358   3.255   3.539  14.668  0.8711  0.8787  0.2820
  628TMC3    H2 9359   3.638   3.393  14.795 -0.1837  1.3832 -1.0656
  628TMC3    C7 9360   3.481   3.606  14.770 -0.1175 -0.6046  0.0573
  628TMC3    C8 9361   3.526   3.145  14.835 -0.2062  0.1747 -0.6528
  628TMC3    O1 9362   3.547   3.630  14.868  0.2212 -0.1657 -0.1220
  628TMC3    O2 9363   3.436   3.077  14.880 -0.1115 -0.3104 -0.3989
  629MPD2     C 9364   1.547   1.755  16.640  0.5946 -1.1154  0.2462
  629MPD2    C1 9365   1.610   1.696  16.748 -0.1201 -0.1116  0.1834
  629MPD2    C2 9366   1.548   1.592  16.813  0.5638 -0.7995  0.4185
  629MPD2    C3 9367   1.423   1.554  16.783  0.5569 -0.9222 -0.9823
  629MPD2    C4 9368   1.370   1.610  16.666 -0.0073 -1.1635 -0.0757
  629MPD2    C5 9369   1.426   1.706  16.594  0.5791 -0.4353 -0.0804
  629MPD2     H 9370   1.600   1.554  16.901  0.3670 -1.1817  0.3706
  629MPD2    H1 9371   1.276   1.574  16.626 -0.5685  0.4832 -0.2644
  629MPD2    H2 9372   1.597   1.826  16.575 -0.3445 -1.0442 -0.3953
  629MPD2    H3 9373   1.382   1.734  16.499 -0.4576  0.1274  0.5693
  629MPD2     N 9374   1.346   1.456  16.848 -0.1620 -0.4010  0.1625
  629MPD2    H5 9375   1.249   1.447  16.821 -0.2035  0.0987  0.1433
  629MPD2    N1 9376   1.739   1.740  16.780  0.4031 -0.0684  0.0766
  629MPD2    H7 9377   1.778   1.806  16.713 -0.4843  0.5252  0.1473
  630TMC3    C1 9378   1.960   1.767  16.889  0.1249  0.4467 -0.0665
  630TMC3    C2 9379   2.018   1.828  16.781 -0.3877 -0.1360 -0.0806
  630TMC3    C3 9380   2.132   1.896  16.803 -0.2593  0.1066 -0.3477
  630TMC3    C4 9381   2.019   1.766  17.010 -0.3476  0.0561  0.6338
  630TMC3    C5 9382   2.137   1.839  17.030 -0.5107  0.1135 -0.2944
  630TMC3    C6 9383   2.198   1.896  16.925 -0.0367  0.4182 -0.4018
  630TMC3     C 9384   1.828   1.696  16.884  0.0891 -0.3146  0.1251
  630TMC3     O 9385   1.804   1.627  16.982 -0.2892 -0.0998 -0.0239
  630TMC3     H 9386   1.959   1.827  16.690 -0.4466 -0.1599 -0.0419
  630TMC3    H1 9387   1.968   1.719  17.093 -0.4175 -2.1161 -0.6416
  630TMC3    H2 9388   2.298   1.936  16.938  0.6319 -2.0624  2.3656
  630TMC3    C7 9389   2.196   1.826  17.162  0.2873  0.0504  0.5331
  630TMC3    C8 9390   2.193   1.991  16.712  0.1289  0.3225 -1.1672
  630TMC3    O1 9391   2.156   1.735  17.236  0.2851  0.1186  0.2363
  630TMC3    O2 9392   2.293   2.049  16.746  0.4880 -0.1677  0.1458
  631MPD2     C 9393   4.711   1.704  16.013 -0.2752  0.4058  0.4434
  631MPD2    C1 9394   0.049   1.795  15.944 -0.0208  0.3665 -0.1438
  631MPD2    C2 9395   0.191   1.791  15.947  0.0196 -0.4778  0.1902
  631MPD2    C3 9396   0.248   1.678  16.013 -0.0635 -0.0339  0.7468
  631MPD2    C4 9397   0.170   1.595  16.090 -0.2407  0.1625  0.1006
  631MPD2    C5 9398   0.031   1.597  16.085 -0.1679 -0.2579 -0.8499
  631MPD2     H 9399   0.253   1.866  15.899  3.0608 -3.5200 -0.6810
  631MPD2    H1 9400   0.217   1.519  16.151 -1.0660  0.6187  1.3011
  631MPD2    H2 9401   4.602   1.703  16.019 -0.4091 -2.4680 -1.9965
  631MPD2    H3 9402   4.711   1.524  16.141 -0.1429 -0.9975 -1.7968
  631MPD2     N 9403   0.389   1.670  16.015 -0.0843  0.4088 -0.2250
  631MPD2    H5 9404   0.439   1.752  15.981 -0.8972  1.0433  0.1326
  631MPD2    N1 9405   4.710   1.896  15.875 -0.1836  0.1458 -0.1951
  631MPD2    H7 9406   4.610   1.878  15.880 -0.1110 -0.2536 -0.1533
  632TMC3    C1 9407   4.644   2.062  15.723  0.0911 -0.3920  0.2059
  632TMC3    C2 9408   4.523   2.049  15.777 -0.5079 -0.1380  0.1232
  632TMC3    C3 9409   4.408   2.072  15.699 -0.0164 -0.0814 -0.1332
  632TMC3    C4 9410   4.661   2.076  15.590 -0.1770 -0.3709 -0.3277
  632TMC3    C5 9411   4.550   2.103  15.514  0.4584 -0.0341 -0.5062
  632TMC3    C6 9412   4.424   2.109  15.570 -0.3252 -0.5423 -0.3360
  632TMC3     C 9413   0.018   2.006  15.803 -0.7581 -0.3581  0.2699
  632TMC3     O 9414   0.132   2.039  15.784 -0.3728  0.1154 -0.4332
  632TMC3     H 9415   4.520   2.050  15.885  0.7158  0.9042  0.1477
  632TMC3    H1 9416   0.024   2.059  15.553  0.8779 -0.2534  2.4492
  632TMC3    H2 9417   4.340   2.142  15.510 -1.1434  0.7020  1.5178
  632TMC3    C7 9418   4.578   2.157  15.373 -0.5290  0.4236 -0.3411
  632TMC3    C8 9419   4.277   2.072  15.771 -0.2600 -0.9825  0.1104
  632TMC3    O1 9420   4.517   2.118  15.275  0.7536  0.3554 -0.2549
  632TMC3    O2 9421   4.285   2.062  15.890 -0.5590 -0.5904 -0.1248
  633MPD2     C 9422   4.334   4.637  17.554  0.1764 -0.5072 -0.4433
  633MPD2    C1 9423   4.306   4.602  17.426 -0.3564 -0.2857  0.0915
  633MPD2    C2 9424   4.216   4.499  17.399  0.0367  0.0717  0.0534
  633MPD2    C3 9425   4.157   4.426  17.499  0.2138  0.3457  0.3404
  633MPD2    C4 9426   4.200   4.449  17.627  0.1057 -0.5261 -1.2704
  633MPD2    C5 9427   4.276   4.562  17.654 -0.6130  0.4195  0.0623
  633MPD2     H 9428   4.218   4.474  17.293 -1.0942  0.5374 -0.0711
  633MPD2    H1 9429   4.171   4.389  17.713 -0.6960  2.5705  0.6681
  633MPD2    H2 9430   4.400   4.723  17.568  0.4933 -1.1246  1.8287
  633MPD2    H3 9431   4.299   4.580   0.010  1.0139  1.3860 -0.4662
  633MPD2     N 9432   4.069   4.323  17.476  0.6143 -1.1368  0.2508
  633MPD2    H5 9433   4.055   4.263  17.557  0.0844 -1.4497 -0.0760
  633MPD2    N1 9434   4.369   4.670  17.315  0.1317 -0.6215  0.3457
  633MPD2    H7 9435   4.351   4.632  17.223  0.1443  1.2405 -0.4275
  634TMC3    C1 9436   4.485   0.089  17.188 -0.4173 -0.0020 -0.0439
  634TMC3    C2 9437   4.522   4.737  17.094  0.6182 -0.0782  0.3906
  634TMC3    C3 9438   4.552   0.032  16.965  0.0533 -0.1531 -0.0345
  634TMC3    C4 9439   4.479   0.225  17.155  0.1041 -0.4660  0.1771
  634TMC3    C5 9440   4.512   0.253  17.021  0.2275 -1.1612  0.4782
  634TMC3    C6 9441   4.541   0.160  16.926  0.5693  0.3493  0.3278
  634TMC3     C 9442   4.445   0.050  17.317  0.3115 -0.5131  0.1603
  634TMC3     O 9443   4.449   0.122  17.412  0.1290 -0.2782  0.0434
  634TMC3     H 9444   4.547   4.636  17.126 -1.0682 -0.4417  0.5177
  634TMC3    H1 9445   4.447   0.295  17.231 -0.5589 -2.0074  1.3127
  634TMC3    H2 9446   4.559   0.197  16.825  0.9452 -1.2313 -0.1785
  634TMC3    C7 9447   4.477   0.386  16.979 -0.4974  0.2786  0.1790
  634TMC3    C8 9448   4.556   4.666  16.866  0.3798  0.7430  0.1439
  634TMC3    O1 9449   4.506   0.408  16.864 -0.5129 -0.2136  0.2614
  634TMC3    O2 9450   4.511   4.558  16.913 -0.3018 -0.4260  0.0790
  635TMC3    C1 9451   0.064   1.099   0.109  0.2733  0.2066 -0.3167
  635TMC3    C2 9452   0.099   1.079  17.730  0.1984 -0.2909 -0.1266
  635TMC3    C3 9453   0.007   1.110  17.632  0.0760  0.2092  0.6350
  635TMC3    C4 9454   4.684   1.154   0.148  0.3905 -0.0372 -0.1037
  635TMC3    C5 9455   4.603   1.189   0.045  0.8461  0.0288  0.5614
  635TMC3    C6 9456   4.629   1.164  17.664  0.0848 -0.7393 -0.1074
  635TMC3     C 9457   0.178   1.147   0.187  0.5418 -0.1512 -0.2809
  635TMC3     O 9458   0.158   1.242   0.255 -0.2563  0.1311  0.3870
  635TMC3     H 9459   0.199   1.047  17.701 -0.1809 -2.6378  1.1444
  635TMC3    H1 9460   4.658   1.161   0.253 -1.5205  0.4075 -0.5904
  635TMC3    H2 9461   4.560   1.202  17.590 -1.5895 -1.9208  0.8370
  635TMC3    C7 9462   4.514   1.292   0.075  0.0992 -0.3846  0.0720
  635TMC3    C8 9463   0.049   1.081  17.497 -0.2008  0.3578 -0.3947
  635TMC3    O1 9464   4.419   1.313  17.744  0.2354 -0.1661  0.0874
  635TMC3    O2 9465   0.134   0.990  17.492 -0.3407  0.2085  0.1771
  636MPD2     C 9466   1.108   4.388  16.194 -0.3366 -0.4805 -0.6606
  636MPD2    C1 9467   1.082   4.355  16.326  0.2538  0.2511 -0.0310
  636MPD2    C2 9468   1.118   4.225  16.371 -0.5146  0.5584 -0.9595
  636MPD2    C3 9469   1.175   4.130  16.283 -0.0765  1.0465  0.2834
  636MPD2    C4 9470   1.183   4.167  16.151 -0.6064 -0.0521 -0.2230
  636MPD2    C5 9471   1.163   4.295  16.104 -0.3715  0.0682 -0.4337
  636MPD2     H 9472   1.105   4.205  16.477  0.7878 -1.4111 -1.1648
  636MPD2    H1 9473   1.207   4.092  16.076  0.1459  0.4015 -0.4364
  636MPD2    H2 9474   1.088   4.488  16.158  0.6271  0.0230  0.1992
  636MPD2    H3 9475   1.194   4.325  16.004  3.0721 -0.7428  0.3984
  636MPD2     N 9476   1.238   4.014  16.335  0.8307  0.2451  0.0209
  636MPD2    H5 9477   1.230   4.009  16.436 -2.1374 -0.3642 -0.2391
  636MPD2    N1 9478   1.033   4.448  16.422 -0.2972  0.5643 -0.8382
  636MPD2    H7 9479   1.033   4.416  16.519 -0.3052 -1.2017 -1.4230
  637TMC3    C1 9480   1.328   3.815  16.374  0.5747 -0.5863  0.0287
  637TMC3    C2 9481   1.261   3.841  16.495  0.2400 -0.1602 -0.2449
  637TMC3    C3 9482   1.327   3.835  16.611  0.4087  0.0205  0.8105
  637TMC3    C4 9483   1.466   3.787  16.379  0.5445  1.1763  0.1294
  637TMC3    C5 9484   1.532   3.795  16.501  0.4650 -0.2882  0.1463
  637TMC3    C6 9485   1.463   3.805  16.615 -0.3295  0.0218  0.0089
  637TMC3     C 9486   1.300   3.908  16.269  0.0716 -0.4138 -0.2975
  637TMC3     O 9487   1.352   3.897  16.158  0.0641 -0.6586 -0.1997
  637TMC3     H 9488   1.153   3.853  16.502  0.2532  0.0456 -0.4176
  637TMC3    H1 9489   1.518   3.786  16.283  0.1265  0.2925 -0.0921
  637TMC3    H2 9490   1.519   3.820  16.706  1.3532  0.6542 -1.1395
  637TMC3    C7 9491   1.637   3.890  16.516 -0.2942 -0.2276 -0.2906
  637TMC3    C8 9492   1.308   3.954  16.690  0.7073 -0.7701  0.2435
  637TMC3    O1 9493   1.668   3.934  16.626 -0.0502 -0.2883  0.7239
  637TMC3    O2 9494   1.285   4.056  16.623  0.0909  0.0525  0.5104
  638MPD2     C 9495   0.635   3.609  15.381 -0.5635 -0.0917 -0.0802
  638MPD2    C1 9496   0.709   3.501  15.327  0.1639 -0.0135  0.1600
  638MPD2    C2 9497   0.696   3.379  15.389  0.0367  0.0465  0.7642
  638MPD2    C3 9498   0.605   3.367  15.494  0.2530 -0.4292 -0.8913
  638MPD2    C4 9499   0.525   3.468  15.539  0.0597  1.3089 -0.2167
  638MPD2    C5 9500   0.545   3.591  15.481 -0.5599 -0.0023  0.6597
  638MPD2     H 9501   0.742   3.288  15.351 -3.1143 -1.1374 -0.1806
  638MPD2    H1 9502   0.440   3.453  15.605  0.2672 -1.7953 -0.6830
  638MPD2    H2 9503   0.647   3.705  15.332  0.4489 -1.0916 -1.7842
  638MPD2    H3 9504   0.485   3.673  15.518  1.0122  0.7770  1.4897
  638MPD2     N 9505   0.584   3.235  15.535 -0.0478 -0.3945 -0.5834
  638MPD2    H5 9506   0.650   3.164  15.507  0.3772 -0.1425 -0.2246
  638MPD2    N1 9507   0.784   3.532  15.212 -0.7591 -0.2056  0.3457
  638MPD2    H7 9508   0.770   3.628  15.182  0.4043 -0.0497  0.3214
  639TMC3    C1 9509   0.450   3.043  15.556  0.5028  0.4969  0.7765
  639TMC3    C2 9510   0.379   3.007  15.443  1.2652 -0.0824  0.4076
  639TMC3    C3 9511   0.437   2.926  15.346 -0.2828 -0.7093  0.4158
  639TMC3    C4 9512   0.578   2.998  15.574  0.4109  0.0644 -0.0140
  639TMC3    C5 9513   0.634   2.925  15.467  0.7148  0.7533 -0.0577
  639TMC3    C6 9514   0.569   2.889  15.355  0.4799  0.1361  0.1725
  639TMC3     C 9515   0.455   3.186  15.571 -0.2262  0.0243  0.8131
  639TMC3     O 9516   0.355   3.251  15.596  0.2873 -0.3834 -0.1462
  639TMC3     H 9517   0.280   3.046  15.422  1.5437  1.4035  1.8765
  639TMC3    H1 9518   0.629   3.015  15.667 -3.3904 -1.8505  2.4095
  639TMC3    H2 9519   0.621   2.835  15.277  0.3479 -0.0585  0.2193
  639TMC3    C7 9520   0.771   2.891  15.494 -0.1449  0.0561 -1.0860
  639TMC3    C8 9521   0.368   2.860  15.240 -0.4294  0.4732 -0.2816
  639TMC3    O1 9522   0.800   2.865  15.609  0.6725  0.5669 -0.3888
  639TMC3    O2 9523   0.425   2.777  15.177  0.0894 -0.1289  0.5500
  640MPD2     C 9524   1.561   2.165  10.273 -0.5600  0.3425 -0.6516
  640MPD2    C1 9525   1.452   2.085  10.279 -0.2703  0.1332  0.0649
  640MPD2    C2 9526   1.344   2.127  10.354  0.3234 -0.3759 -0.4583
  640MPD2    C3 9527   1.344   2.246  10.426  0.3754  0.3032  0.7465
  640MPD2    C4 9528   1.461   2.329  10.414 -1.4134 -0.0692  0.2206
  640MPD2    C5 9529   1.563   2.288  10.334 -0.4179 -0.0204 -0.1977
  640MPD2     H 9530   1.255   2.066  10.365  1.7220 -2.5168 -0.9084
  640MPD2    H1 9531   1.461   2.423  10.468 -0.7710  0.5839 -0.9126
  640MPD2    H2 9532   1.646   2.131  10.215  1.4672  1.4885  1.6324
  640MPD2    H3 9533   1.650   2.351  10.320  0.0924 -0.1588  2.3872
  640MPD2     N 9534   1.247   2.282  10.523 -0.4945  0.3784 -0.6580
  640MPD2    H5 9535   1.268   2.369  10.570  0.7459 -0.9790  1.2941
  640MPD2    N1 9536   1.463   1.964  10.205  0.1180  0.2814  0.3796
  640MPD2    H7 9537   1.553   1.936  10.169 -0.0704 -2.1682  1.8205
  641TMC3    C1 9538   1.403   1.752  10.138 -0.0833  0.8517 -0.7729
  641TMC3    C2 9539   1.541   1.730  10.110  0.3647  1.1064  0.0494
  641TMC3    C3 9540   1.586   1.604  10.127 -0.5339 -0.2096  0.5388
  641TMC3    C4 9541   1.318   1.645  10.173 -0.0047  0.3943 -0.6605
  641TMC3    C5 9542   1.375   1.521  10.189 -0.0169  0.3607  0.1704
  641TMC3    C6 9543   1.507   1.499  10.166  0.1101 -0.1646 -0.7239
  641TMC3     C 9544   1.357   1.885  10.185 -0.2973 -0.6693  0.4521
  641TMC3     O 9545   1.242   1.900  10.223 -0.4194  0.0182 -0.7114
  641TMC3     H 9546   1.607   1.807  10.071  0.6441  0.2650 -1.1197
  641TMC3    H1 9547   1.218   1.661  10.210 -0.7974 -0.9812 -2.2260
  641TMC3    H2 9548   1.561   1.405  10.174 -2.9480 -1.5954  2.7546
  641TMC3    C7 9549   1.299   1.402  10.200  0.2116  0.5316  0.0019
  641TMC3    C8 9550   1.722   1.568  10.088  0.4098  0.0926  0.3368
  641TMC3    O1 9551   1.354   1.292  10.188 -0.7879  0.6004 -0.2832
  641TMC3    O2 9552   1.747   1.454  10.058  0.1528 -0.3043  0.2207
  642TMC3    C1 9553   2.399   3.324  12.493  0.1073 -0.3525  0.0295
  642TMC3    C2 9554   2.531   3.351  12.514 -0.6453 -0.2605  0.0183
  642TMC3    C3 9555   2.623   3.243  12.496  0.2093  0.2660  0.1219
  642TMC3    C4 9556   2.355   3.198  12.475 -0.4198  0.0376 -0.5886
  642TMC3    C5 9557   2.443   3.095  12.462 -0.2413  0.7410  0.0158
  642TMC3    C6 9558   2.579   3.120  12.470  0.0361 -0.2501  0.0927
  642TMC3     C 9559   2.310   3.436  12.505 -0.3238 -0.2652 -0.0677
  642TMC3     O 9560   2.363   3.547  12.504  0.3835 -0.0474 -0.3762
  642TMC3     H 9561   2.561   3.454  12.525 -0.1020 -0.4875  0.6683
  642TMC3    H1 9562   2.256   3.174  12.439 -1.3973 -0.0950  2.1774
  642TMC3    H2 9563   2.649   3.039  12.455  2.6975  1.7173  1.9750
  642TMC3    C7 9564   2.393   2.959  12.440  0.3490  0.4339 -0.0908
  642TMC3    C8 9565   2.769   3.267  12.506 -0.2524 -0.1278 -0.4709
  642TMC3    O1 9566   2.474   2.882  12.397  0.5542 -1.1310 -0.4793
  642TMC3    O2 9567   2.828   3.184  12.440 -0.1501 -0.2493  0.2391
  643TMC3    C1 9568   1.504   2.760   0.165  0.5144  0.0504 -0.5367
  643TMC3    C2 9569   1.378   2.758   0.117 -0.3899 -0.3769 -0.0657
  643TMC3    C3 9570   1.333   2.651   0.050 -0.3322  0.4082  0.7953
  643TMC3    C4 9571   1.596   2.667   0.123 -0.1104 -0.1115 -0.0567
  643TMC3    C5 9572   1.555   2.559   0.046 -0.5710 -0.6336 -0.0901
  643TMC3    C6 9573   1.422   2.549   0.024  0.1760 -0.1819 -0.0300
  643TMC3     C 9574   1.551   2.886   0.236 -0.2803 -0.4357  0.2492
  643TMC3     O 9575   1.496   2.987   0.193 -0.3167  0.5714 -0.6538
  643TMC3     H 9576   1.314   2.842   0.142  0.6042  0.5895 -0.7708
  643TMC3    H1 9577   1.702   2.681   0.141  0.0639  0.4957 -1.5957
  643TMC3    H2 9578   1.393   2.473  17.701  2.8576  0.5213 -1.9227
  643TMC3    C7 9579   1.640   2.547  17.677  0.3507  0.1743 -0.5167
  643TMC3    C8 9580   1.230   2.673  17.699  0.2607  0.2233  0.1464
  643TMC3    O1 9581   1.727   2.634  17.665  0.6329  0.0494  0.3282
  643TMC3    O2 9582   1.177   2.574  17.652 -0.4314 -0.3562  0.2298
  644MPD2     C 9583   1.430   1.434   9.808  0.0813  0.1049 -0.6352
  644MPD2    C1 9584   1.462   1.567   9.804 -0.3781  0.7359 -0.4064
  644MPD2    C2 9585   1.363   1.665   9.832  0.3867 -0.1046  0.2488
  644MPD2    C3 9586   1.231   1.622   9.851 -0.1354 -0.1847 -0.7812
  644MPD2    C4 9587   1.204   1.486   9.862  0.3229 -0.0542 -0.3479
  644MPD2    C5 9588   1.306   1.395   9.840 -0.1981 -0.0561 -0.4385
  644MPD2     H 9589   1.388   1.769   9.847  2.1968 -0.2209 -1.9265
  644MPD2    H1 9590   1.111   1.432   9.871  1.2496 -1.7689 -1.1035
  644MPD2    H2 9591   1.505   1.359   9.789  0.3750 -0.1426  1.4457
  644MPD2    H3 9592   1.281   1.290   9.847  1.4899 -0.4959 -1.0627
  644MPD2     N 9593   1.142   1.734   9.869 -0.1617  0.0282 -0.2364
  644MPD2    H5 9594   1.168   1.832   9.862 -0.4471  0.3686  3.6059
  644MPD2    N1 9595   1.594   1.600   9.781  0.6573 -0.0945  0.1928
  644MPD2    H7 9596   1.652   1.517   9.784 -0.5639 -1.0343 -2.0092
  645TMC3    C1 9597   0.927   1.830   9.931  0.1134 -0.0180  0.2703
  645TMC3    C2 9598   0.793   1.816   9.905 -0.0971  0.0111 -0.3731
  645TMC3    C3 9599   0.715   1.931   9.909 -0.4862 -0.4967 -0.1887
  645TMC3    C4 9600   0.983   1.953   9.949  0.0566 -0.5902  0.3043
  645TMC3    C5 9601   0.896   2.054   9.972 -0.6045  0.7539  0.3931
  645TMC3    C6 9602   0.764   2.053   9.942 -0.3405  0.9277 -0.7435
  645TMC3     C 9603   1.007   1.707   9.906 -0.1232  0.4770 -0.9580
  645TMC3     O 9604   0.943   1.603   9.918 -0.2993  0.1380  0.6672
  645TMC3     H 9605   0.747   1.718   9.918  1.0897 -0.6221 -0.9915
  645TMC3    H1 9606   1.082   1.966   9.990  0.3139  1.6287 -1.0110
  645TMC3    H2 9607   0.702   2.139   9.968 -0.8391 -0.3417  2.2973
  645TMC3    C7 9608   0.937   2.187  10.020 -0.3060 -1.1210 -0.0901
  645TMC3    C8 9609   0.574   1.909   9.878  0.4821 -0.6465  0.0208
  645TMC3    O1 9610   0.855   2.276  10.035  0.4460  0.2655 -0.0499
  645TMC3    O2 9611   0.539   1.821   9.803 -0.1657  0.1919 -0.2775
  646MPD2     C 9612   0.848   2.169  14.725 -0.7980  0.3931 -0.0803
  646MPD2    C1 9613   0.761   2.188  14.831  0.5616  0.5404  0.0129
  646MPD2    C2 9614   0.649   2.268  14.808 -0.3527 -0.1637  0.3310
  646MPD2    C3 9615   0.614   2.308  14.678  0.4043 -1.0419 -0.2993
  646MPD2    C4 9616   0.706   2.283  14.577 -0.3361  0.6910 -0.4833
  646MPD2    C5 9617   0.820   2.217  14.606  0.3167  0.0978  0.1573
  646MPD2     H 9618   0.580   2.297  14.886  0.3423  2.2097  0.0389
  646MPD2    H1 9619   0.680   2.310  14.475  0.2341  0.0540 -0.7981
  646MPD2    H2 9620   0.936   2.106  14.732 -1.1328 -0.0973 -0.3061
  646MPD2    H3 9621   0.893   2.193  14.529  0.4354  2.0333 -0.3319
  646MPD2     N 9622   0.490   2.368  14.660  0.9998  0.4305  0.1900
  646MPD2    H5 9623   0.427   2.353  14.738 -1.8727 -4.0289 -2.9972
  646MPD2    N1 9624   0.817   2.144  14.955 -0.1266  0.0006 -0.8088
  646MPD2    H7 9625   0.906   2.097  14.947 -0.4053 -1.2349  3.2843
  647TMC3    C1 9626   0.846   2.132  15.190  0.0339  0.8950  0.6513
  647TMC3    C2 9627   0.781   2.098  15.308 -0.0117  0.8654  0.6182
  647TMC3    C3 9628   0.862   2.067  15.416 -0.5243  0.1341 -0.2969
  647TMC3    C4 9629   0.979   2.146  15.181 -0.5396  0.2858 -0.3759
  647TMC3    C5 9630   1.052   2.136  15.296  0.2341 -0.1805  0.9065
  647TMC3    C6 9631   0.996   2.095  15.415  0.4648 -0.0077 -0.7341
  647TMC3     C 9632   0.757   2.161  15.075  0.5428 -0.8296 -0.0697
  647TMC3     O 9633   0.647   2.211  15.104  0.0286  0.0106 -0.4014
  647TMC3     H 9634   0.673   2.083  15.303  0.1305 -0.0409  0.3604
  647TMC3    H1 9635   1.013   2.198  15.092 -2.0462  1.0157 -0.5340
  647TMC3    H2 9636   1.055   2.074  15.503 -1.9052 -2.3383  0.2940
  647TMC3    C7 9637   1.198   2.113  15.293  0.0014 -1.1641 -0.8163
  647TMC3    C8 9638   0.821   1.986  15.534  0.2113  0.6430  0.0954
  647TMC3    O1 9639   1.248   2.077  15.396 -0.1155 -0.2852  0.1058
  647TMC3    O2 9640   0.904   1.968  15.621  0.2876 -0.1369  0.1257
  648TMC3    C1 9641   0.241   0.006  16.363 -0.6186  0.1993 -0.4998
  648TMC3    C2 9642   0.293   4.631  16.307 -0.5609 -0.1357 -0.4096
  648TMC3    C3 9643   0.286   4.610  16.177 -0.0997  0.4666 -0.3571
  648TMC3    C4 9644   0.184   0.106  16.286  0.5780 -0.2485 -0.3446
  648TMC3    C5 9645   0.170   0.085  16.149 -0.0258  0.3058  0.0581
  648TMC3    C6 9646   0.222   4.707  16.097  0.3947 -0.7576  0.8937
  648TMC3     C 9647   0.261   0.029  16.505  0.7149 -0.7547  0.6870
  648TMC3     O 9648   0.256   0.144  16.544 -0.4335 -0.1604  0.4577
  648TMC3     H 9649   0.352   4.565  16.370 -2.1166 -1.3063 -0.1941
  648TMC3    H1 9650   0.137   0.188  16.340  0.7026 -1.0913  1.0353
  648TMC3    H2 9651   0.204   4.676  15.995 -1.5832 -0.7411  1.2399
  648TMC3    C7 9652   0.078   0.164  16.072  0.1461 -0.7671 -0.2417
  648TMC3    C8 9653   0.318   4.478  16.118 -0.7750  0.1140 -0.1984
  648TMC3    O1 9654   0.069   0.135  15.955  0.5088  0.0160  0.2169
  648TMC3    O2 9655   0.328   4.463  15.996 -0.6644  0.1847  0.5332
  649TMC3    C1 9656   4.028   1.439  13.288  0.6141  0.5066  0.5212
  649TMC3    C2 9657   4.141   1.429  13.222 -0.1952 -0.2863 -0.3890
  649TMC3    C3 9658   4.240   1.353  13.267  0.1461 -0.0579 -0.2978
  649TMC3    C4 9659   4.007   1.369  13.406 -0.1492 -0.2441 -0.2663
  649TMC3    C5 9660   4.108   1.285  13.446  0.5144 -0.3053  0.3563
  649TMC3    C6 9661   4.227   1.275  13.383 -0.1023  0.0166 -0.4314
  649TMC3     C 9662   3.921   1.518  13.234 -0.4854  1.3003 -0.0620
  649TMC3     O 9663   3.858   1.578  13.321  0.6560  0.2837  0.5187
  649TMC3     H 9664   4.151   1.471  13.123 -0.9399 -2.1003 -1.2293
  649TMC3    H1 9665   3.916   1.375  13.465  0.8314  0.3513  1.1878
  649TMC3    H2 9666   4.303   1.207  13.417 -0.8092 -0.9180 -0.7144
  649TMC3    C7 9667   4.066   1.168  13.520  0.0009 -0.0515  0.2078
  649TMC3    C8 9668   4.373   1.355  13.202  0.0068 -0.0650  0.1784
  649TMC3    O1 9669   3.950   1.136  13.491 -0.0875 -0.4027  0.2609
  649TMC3    O2 9670   4.440   1.253  13.225  0.0269 -0.5192 -0.8859
  650TMC3    C1 9671   1.673   2.299  12.929 -0.0180 -0.4216 -0.3713
  650TMC3    C2 9672   1.590   2.409  12.949  0.0224  0.3160 -0.8689
  650TMC3    C3 9673   1.514   2.451  12.842  0.2020 -0.0736 -0.3308
  650TMC3    C4 9674   1.681   2.246  12.802 -0.5621 -0.8404 -0.5043
  650TMC3    C5 9675   1.618   2.303  12.699  0.0241 -0.4766  0.4829
  650TMC3    C6 9676   1.530   2.403  12.719 -0.2981 -0.1674  0.3747
  650TMC3     C 9677   1.744   2.240  13.046 -0.1769 -0.3984 -0.4528
  650TMC3     O 9678   1.748   2.310  13.144  0.1198 -0.3601  0.4714
  650TMC3     H 9679   1.584   2.450  13.050  1.8673  0.3424 -0.7811
  650TMC3    H1 9680   1.763   2.176  12.787 -0.7120 -0.8604 -1.2385
  650TMC3    H2 9681   1.475   2.433  12.630  2.6007 -0.2570 -1.4374
  650TMC3    C7 9682   1.693   2.315  12.579  0.6734  0.5661 -0.9487
  650TMC3    C8 9683   1.446   2.582  12.843 -0.5133 -0.4467 -0.5556
  650TMC3    O1 9684   1.754   2.218  12.533  0.0953 -0.0437  0.5128
  650TMC3    O2 9685   1.461   2.651  12.739 -0.9855  0.4053  0.6646
  651MPD2     C 9686   0.760   4.283  10.859  0.1841  0.0185 -0.5395
  651MPD2    C1 9687   0.735   4.413  10.890  0.2144  0.0364  0.1508
  651MPD2    C2 9688   0.840   4.502  10.907  0.2425  0.2681  0.1172
  651MPD2    C3 9689   0.967   4.465  10.885  0.5853 -0.2682  0.5057
  651MPD2    C4 9690   0.991   4.341  10.828 -0.3805  0.3010 -0.1050
  651MPD2    C5 9691   0.884   4.254  10.818 -0.4772 -0.7969 -0.2588
  651MPD2     H 9692   0.829   4.601  10.950  1.5544  0.6561 -0.4375
  651MPD2    H1 9693   1.093   4.307  10.810 -0.7806 -1.3929  0.8531
  651MPD2    H2 9694   0.682   4.209  10.870 -0.0949  0.1818 -1.4120
  651MPD2    H3 9695   0.914   4.151  10.804 -0.6678 -1.0596  1.3045
  651MPD2     N 9696   1.067   4.551  10.937  0.4497 -0.5773  0.0075
  651MPD2    H5 9697   1.043   4.625  11.002 -0.0148  0.6990 -1.5987
  651MPD2    N1 9698   0.599   4.446  10.919 -0.1128  0.4347 -0.3431
  651MPD2    H7 9699   0.534   4.368  10.908 -1.7815  1.8130 -0.2990
  652TMC3    C1 9700   1.445   0.038  11.022  0.7561  0.8808  0.0640
  652TMC3    C2 9701   1.394   4.659  10.969 -0.1087  0.5895 -0.4402
  652TMC3    C3 9702   1.278   4.601  11.012  0.4559 -0.5162  0.2169
  652TMC3    C4 9703   1.379   0.083  11.130 -0.6115 -0.5118 -0.1028
  652TMC3    C5 9704   1.270   0.011  11.179 -0.2528 -0.2693 -0.9105
  652TMC3    C6 9705   1.203   4.648  11.121  0.3625 -0.5405 -0.0421
  652TMC3     C 9706   1.591   0.034  11.042 -0.1435 -0.4439  0.3700
  652TMC3     O 9707   1.628   0.092  11.145 -0.7425  0.0317 -0.9038
  652TMC3     H 9708   1.439   4.611  10.883 -0.6622 -0.4219 -0.1571
  652TMC3    H1 9709   1.418   0.172  11.177 -1.6048  0.8446 -1.8499
  652TMC3    H2 9710   1.139   4.585  11.183  1.5223 -0.1893  1.5092
  652TMC3    C7 9711   1.274   4.735  11.326 -0.6470  0.0522  0.8390
  652TMC3    C8 9712   1.199   4.524  10.928 -0.4317 -0.3146 -0.5597
  652TMC3    O1 9713   1.174   4.702  11.393 -0.5161 -0.4040 -0.1614
  652TMC3    O2 9714   1.258   4.459  10.843 -0.0477  0.0257  0.2642
  653MPD2     C 9715   4.239   0.033   0.346  0.5095 -0.0441 -0.6556
  653MPD2    C1 9716   4.174   0.132   0.270  0.0350  0.0244 -1.1399
  653MPD2    C2 9717   4.089   0.088   0.172  0.0913 -0.2557 -0.7746
  653MPD2    C3 9718   4.058   4.689   0.154  0.2163 -0.3985  0.2515
  653MPD2    C4 9719   4.134   4.596   0.225  0.6261 -0.7750  0.4388
  653MPD2    C5 9720   4.219   4.637   0.324  0.5966 -0.2543  0.4203
  653MPD2     H 9721   4.029   0.163   0.120  2.2221  2.1247  0.1960
  653MPD2    H1 9722   4.132   4.489   0.210 -2.0236 -0.4452 -1.5451
  653MPD2    H2 9723   4.313   0.065   0.419  0.8912 -1.6773 -0.3241
  653MPD2    H3 9724   4.269   4.565   0.388 -0.2261 -0.0654  1.2926
  653MPD2     N 9725   3.954   4.657   0.064 -0.4433  0.5525  0.3967
  653MPD2    H5 9726   3.928   0.000   0.007 -0.6770  1.2169  1.4519
  653MPD2    N1 9727   4.196   0.273   0.276  0.5967 -0.2846 -0.9124
  653MPD2    H7 9728   4.165   0.333   0.200 -1.9628 -0.9769 -0.3836
  654TMC3    C1 9729   3.776   4.524  17.714 -0.4332 -0.3061 -0.4901
  654TMC3    C2 9730   3.717   4.639  17.657 -0.4878  0.3064 -0.0989
  654TMC3    C3 9731   3.595   4.626  17.590 -0.5147 -0.1160 -0.7951
  654TMC3    C4 9732   3.710   4.396  17.699 -0.5962 -0.6545  0.5432
  654TMC3    C5 9733   3.603   4.394  17.612  0.6736  0.0493  0.6585
  654TMC3    C6 9734   3.542   4.505  17.559 -0.1621  0.0763  0.6124
  654TMC3     C 9735   3.891   4.530   0.055 -0.3932  0.1307 -0.2505
  654TMC3     O 9736   3.916   4.428   0.119  0.6521 -0.1582 -0.1950
  654TMC3     H 9737   3.751   0.001  17.683  1.7079 -0.1790 -1.0592
  654TMC3    H1 9738   3.759   4.307  17.738 -0.7348 -1.5826 -1.4384
  654TMC3    H2 9739   3.457   4.494  17.492  0.9262 -0.2209 -0.7270
  654TMC3    C7 9740   3.591   4.286  17.513  0.4957  1.1160 -0.0721
  654TMC3    C8 9741   3.556   4.732  17.496 -0.1105 -0.7642 -0.1205
  654TMC3    O1 9742   3.562   4.317  17.399 -0.2070  0.0755  0.2754
  654TMC3    O2 9743   3.437   4.735  17.476 -0.0558 -0.9594 -0.2715
  655MPD2     C 9744   0.743   4.662  16.137 -0.3843 -0.0479  0.3854
  655MPD2    C1 9745   0.702   0.013  16.037 -0.5890  0.0987 -0.3580
  655MPD2    C2 9746   0.717   4.721  15.901 -0.1040 -0.1331  0.1200
  655MPD2    C3 9747   0.767   4.594  15.872 -0.4992  0.2355  0.1191
  655MPD2    C4 9748   0.796   4.510  15.971 -0.6489  0.1586  0.9760
  655MPD2    C5 9749   0.781   4.538  16.101 -0.0483  0.2211  1.5256
  655MPD2     H 9750   0.670   0.053  15.833  0.4829  0.4974  0.3646
  655MPD2    H1 9751   0.836   4.411  15.949  1.7744  1.2400  0.5678
  655MPD2    H2 9752   0.735   4.692  16.241 -0.0506 -0.8836  0.6476
  655MPD2    H3 9753   0.817   4.469  16.177  2.4668  2.5100  2.4001
  655MPD2     N 9754   0.746   4.536  15.746  0.2270 -0.3180  0.0391
  655MPD2    H5 9755   0.760   4.437  15.731 -1.7986 -0.4127 -1.1518
  655MPD2    N1 9756   0.634   0.133  16.072 -0.5849 -0.0102  0.7312
  655MPD2    H7 9757   0.580   0.178  15.999  0.6032  1.5115  0.8009
  656TMC3    C1 9758   0.558   0.324  16.200  0.1794 -0.0952  0.6616
  656TMC3    C2 9759   0.487   0.360  16.313 -0.0484  0.2796 -0.6228
  656TMC3    C3 9760   0.428   0.479  16.320 -0.0766  0.1552  0.0118
  656TMC3    C4 9761   0.563   0.400  16.090  0.3790 -0.2166 -0.5281
  656TMC3    C5 9762   0.499   0.519  16.092  0.4285  0.3276  0.1229
  656TMC3    C6 9763   0.421   0.555  16.204  0.2213  0.2419  0.2403
  656TMC3     C 9764   0.639   0.204  16.190 -0.4980  0.3763  0.0314
  656TMC3     O 9765   0.680   0.162  16.298 -0.5452  0.0483  0.0263
  656TMC3     H 9766   0.489   0.288  16.394 -0.0074  1.0312  0.0387
  656TMC3    H1 9767   0.631   0.384  16.007 -0.1414  0.2991 -1.0535
  656TMC3    H2 9768   0.360   0.644  16.198 -1.0597 -0.6890 -0.4693
  656TMC3    C7 9769   0.465   0.559  15.961 -0.0485  0.1623 -0.6106
  656TMC3    C8 9770   0.295   0.481  16.369  0.3365  0.3750  0.9357
  656TMC3    O1 9771   0.550   0.556  15.876 -0.8833 -0.5307 -0.4179
  656TMC3    O2 9772   0.220   0.401  16.311 -0.1055  0.1698 -0.0170
  657TMC3    C1 9773   4.107   4.300  15.303 -0.4735  0.1945 -0.9763
  657TMC3    C2 9774   4.115   4.297  15.440  0.3598 -0.7423 -0.6026
  657TMC3    C3 9775   4.175   4.411  15.493 -0.6095 -0.0063 -0.0110
  657TMC3    C4 9776   4.140   4.404  15.219  0.9126 -0.1691 -0.7233
  657TMC3    C5 9777   4.196   4.510  15.281 -0.0787 -0.0292 -0.0927
  657TMC3    C6 9778   4.222   4.510  15.411 -0.4155  0.0033 -0.0273
  657TMC3     C 9779   4.045   4.187  15.238 -0.3372  0.6477  0.2772
  657TMC3     O 9780   3.988   4.207  15.132  0.0079 -0.3540 -0.2118
  657TMC3     H 9781   4.057   4.230  15.501  2.2361 -0.7228  1.1917
  657TMC3    H1 9782   4.130   4.399  15.111 -0.2586 -0.1389 -0.6122
  657TMC3    H2 9783   4.270   4.596  15.458 -1.8010  0.7390  0.0513
  657TMC3    C7 9784   4.200   4.629  15.204  0.3695  0.1675  0.8245
  657TMC3    C8 9785   4.161   4.447  15.628  0.5556  0.0795 -0.2100
  657TMC3    O1 9786   4.269   4.718  15.254  0.1758  0.2309 -0.2019
  657TMC3    O2 9787   4.197   4.561  15.657 -0.2945 -0.4849 -0.0938
  658MPD2     C 9788   1.016   4.456  15.027  0.0009 -0.4654  0.2660
  658MPD2    C1 9789   0.888   4.423  15.041 -0.5635 -0.0752  0.3694
  658MPD2    C2 9790   0.827   4.339  14.947  0.3943  0.3300 -0.3771
  658MPD2    C3 9791   0.901   4.287  14.838  0.1739 -0.7944  0.4289
  658MPD2    C4 9792   1.039   4.315  14.823 -0.5362  0.7179  0.8219
  658MPD2    C5 9793   1.085   4.402  14.923 -0.3086  0.6823  0.5029
  658MPD2     H 9794   0.722   4.312  14.943  0.9113 -1.4895 -1.7214
  658MPD2    H1 9795   1.116   4.275  14.758 -0.3570  1.9229  0.3042
  658MPD2    H2 9796   1.057   4.527  15.098 -2.0701 -0.7451  1.7241
  658MPD2    H3 9797   1.190   4.424  14.907 -0.3022 -0.0399 -0.5165
  658MPD2     N 9798   0.835   4.209  14.739 -0.4366 -0.0312  0.4483
  658MPD2    H5 9799   0.737   4.193  14.757 -0.5122  0.9307  0.9117
  658MPD2    N1 9800   0.817   4.493  15.134 -0.4776  0.3016 -0.2654
  658MPD2    H7 9801   0.868   4.563  15.187 -1.0039  0.5383 -0.0679
  659TMC3    C1 9802   0.642   4.551  15.283  0.0552 -0.0609 -0.7536
  659TMC3    C2 9803   0.733   4.555  15.387 -0.7546 -0.3926 -0.1989
  659TMC3    C3 9804   0.690   4.524  15.520 -0.0225  0.4496  0.2136
  659TMC3    C4 9805   0.510   4.526  15.309 -0.3598 -0.4869  0.2100
  659TMC3    C5 9806   0.477   4.492  15.437  0.5590  0.0751  0.5480
  659TMC3    C6 9807   0.564   4.484  15.544 -0.1590 -0.5092  0.0239
  659TMC3     C 9808   0.681   4.488  15.159 -0.2295 -1.1918  0.0015
  659TMC3     O 9809   0.591   4.448  15.091  0.0621  0.7522 -0.2987
  659TMC3     H 9810   0.838   4.582  15.374 -0.9691  0.7078  0.3270
  659TMC3    H1 9811   0.432   4.548  15.237 -1.9433  0.8484  2.3280
  659TMC3    H2 9812   0.523   4.464  15.642 -0.9686  1.3607  0.0751
  659TMC3    C7 9813   0.333   4.487  15.458 -0.1678  0.2000  0.3845
  659TMC3    C8 9814   0.745   4.604  15.630  1.0673  0.0211 -0.4712
  659TMC3    O1 9815   0.294   4.528  15.568 -0.3310 -0.3747  0.1723
  659TMC3    O2 9816   0.749   4.725  15.605 -0.5223  0.1828  0.2234
  660MPD2     C 9817   3.561   3.746  12.675 -0.1044 -0.2969 -0.7363
  660MPD2    C1 9818   3.448   3.817  12.694 -0.3552  0.3885  0.1171
  660MPD2    C2 9819   3.374   3.795  12.810 -0.5967 -0.0795 -0.2708
  660MPD2    C3 9820   3.405   3.693  12.900 -0.1908  0.2238  0.6022
  660MPD2    C4 9821   3.528   3.627  12.870 -0.5182  0.1563  0.1781
  660MPD2    C5 9822   3.609   3.660  12.764  0.0818  0.3178  0.3019
  660MPD2     H 9823   3.270   3.825  12.814 -0.3436  0.6871  0.3550
  660MPD2    H1 9824   3.569   3.551  12.935 -0.2731 -1.3129 -1.7127
  660MPD2    H2 9825   3.619   3.771  12.587 -1.3355  0.4920 -1.3283
  660MPD2    H3 9826   3.698   3.602  12.744 -0.1968  0.0997 -0.3177
  660MPD2     N 9827   3.317   3.627  12.989  0.0442  0.3805  0.6478
  660MPD2    H5 9828   3.341   3.534  13.023  0.6606  1.2276  2.5331
  660MPD2    N1 9829   3.403   3.899  12.587  0.7014 -0.1111  0.4717
  660MPD2    H7 9830   3.456   3.893  12.500  0.5157  3.0297  0.1140
  661TMC3    C1 9831   3.218   4.002  12.456 -0.1906  0.0919 -0.0710
  661TMC3    C2 9832   3.293   3.988  12.340 -0.5037  0.0528 -0.0847
  661TMC3    C3 9833   3.226   3.989  12.224  0.1396 -0.8601 -0.3520
  661TMC3    C4 9834   3.081   4.012  12.453 -0.2738 -0.9287 -0.1356
  661TMC3    C5 9835   3.018   3.999  12.329 -0.4619  0.5306 -0.3755
  661TMC3    C6 9836   3.092   3.981  12.217 -0.3040 -0.1448  0.0477
  661TMC3     C 9837   3.282   3.971  12.590 -0.8419  0.0759 -0.2639
  661TMC3     O 9838   3.213   4.010  12.686  0.0400  0.2289  0.0534
  661TMC3     H 9839   3.397   4.015  12.342 -0.6341  0.7208 -2.5396
  661TMC3    H1 9840   3.028   4.012  12.547  0.0088  1.1286  0.0164
  661TMC3    H2 9841   3.051   3.983  12.117 -1.2593  0.2829  0.4431
  661TMC3    C7 9842   2.888   3.933  12.337  0.3489  0.1160 -0.4744
  661TMC3    C8 9843   3.299   4.000  12.097 -0.5312  1.0232  0.1452
  661TMC3    O1 9844   2.814   3.963  12.430 -0.1180 -0.6935  0.4390
  661TMC3    O2 9845   3.415   3.966  12.105 -0.6536 -0.0029 -1.0962
  662MPD2     C 9846   3.832   3.411   0.129 -0.3698  0.5608 -0.4126
  662MPD2    C1 9847   3.772   3.367   0.015  0.4981  0.0895 -0.2890
  662MPD2    C2 9848   3.679   3.456  17.700 -0.6902 -0.3220  0.5281
  662MPD2    C3 9849   3.646   3.582   0.009 -0.1292 -0.2903  0.0892
  662MPD2    C4 9850   3.707   3.613   0.126  0.0762 -0.3563  0.0429
  662MPD2    C5 9851   3.801   3.535   0.180 -0.4322 -0.1551 -0.7429
  662MPD2     H 9852   3.627   3.413  17.615  1.3361 -0.5589 -0.6129
  662MPD2    H1 9853   3.689   3.707   0.178 -1.0264 -0.8502  0.5515
  662MPD2    H2 9854   3.915   3.358   0.175  0.6175  2.3512 -0.1279
  662MPD2    H3 9855   3.854   3.576   0.265 -0.3641  0.2470 -0.9805
  662MPD2     N 9856   3.554   3.672  17.694  0.1154 -0.0234  0.2765
  662MPD2    H5 9857   3.532   3.749   0.009 -0.3237 -1.1128  1.4703
  662MPD2    N1 9858   3.797   3.246  17.695  0.7201 -0.1831 -0.0628
  662MPD2    H7 9859   3.744   3.224  17.611 -0.5427  0.5277  0.5400
  663TMC3    C1 9860   3.846   3.029  17.642  0.2464  0.0483 -0.0449
  663TMC3    C2 9861   3.790   3.074  17.522 -0.2672 -0.7049  0.0776
  663TMC3    C3 9862   3.707   2.993  17.441 -0.6729  0.1564 -0.4584
  663TMC3    C4 9863   3.801   2.913  17.695  0.2552  0.8453 -0.3201
  663TMC3    C5 9864   3.717   2.838  17.617  0.9144  0.6926  0.3223
  663TMC3    C6 9865   3.662   2.878  17.495  0.0896 -0.1081  0.0448
  663TMC3     C 9866   3.859   3.134  17.746  0.3664 -0.4973  0.3551
  663TMC3     O 9867   3.905   3.104   0.112 -0.1856  0.2985 -0.7584
  663TMC3     H 9868   3.826   3.160  17.467 -0.3639 -0.9447 -0.3594
  663TMC3    H1 9869   3.851   2.867   0.032  0.4562  0.4347 -0.6606
  663TMC3    H2 9870   3.645   2.807  17.415 -0.0730 -1.0441  0.9122
  663TMC3    C7 9871   3.675   2.705  17.659  1.3997  0.3368  0.0068
  663TMC3    C8 9872   3.595   3.068  17.386 -0.2309 -0.5649 -1.2255
  663TMC3    O1 9873   3.661   2.622  17.570  0.1377 -0.4377  0.0142
  663TMC3    O2 9874   3.619   3.182  17.342  0.5714  0.2420 -0.0426
  664MPD2     C 9875   1.906   1.170  17.710  0.5673 -0.6064  0.9875
  664MPD2    C1 9876   1.934   1.287   0.030 -0.7525  0.7068 -0.1355
  664MPD2    C2 9877   1.907   1.296   0.165 -0.2560  0.0241 -0.4347
  664MPD2    C3 9878   1.853   1.188   0.234 -0.2852  0.1476  0.6486
  664MPD2    C4 9879   1.810   1.078   0.160 -0.2321  0.4049  0.1702
  664MPD2    C5 9880   1.841   1.071   0.025  0.1713 -0.3996  0.2628
  664MPD2     H 9881   1.925   1.388   0.218  2.3468 -0.6446 -0.1855
  664MPD2    H1 9882   1.762   0.996   0.212  1.8546  0.2793  1.9085
  664MPD2    H2 9883   1.928   1.162  17.604  0.4107  0.5215  0.8749
  664MPD2    H3 9884   1.816   0.982  17.716 -0.9736  0.6485 -0.8599
  664MPD2     N 9885   1.818   1.212   0.365  0.6214  0.1255 -0.1105
  664MPD2    H5 9886   1.833   1.300   0.414 -0.5574  0.0811  0.3234
  664MPD2    N1 9887   1.997   1.394  17.715 -0.3505 -0.0658 -0.3109
  664MPD2    H7 9888   2.026   1.470   0.028  0.3882 -1.9330  1.6714
  665TMC3    C1 9889   1.702   1.192   0.570 -0.0636 -0.2584 -0.6823
  665TMC3    C2 9890   1.666   1.111   0.674  0.1243  0.0756  1.1353
  665TMC3    C3 9891   1.619   1.175   0.785 -0.1610 -0.2529 -0.1831
  665TMC3    C4 9892   1.696   1.328   0.581  0.3974  0.5596 -0.1491
  665TMC3    C5 9893   1.660   1.389   0.697  0.7871 -0.4249 -0.6620
  665TMC3    C6 9894   1.613   1.310   0.803  0.2412 -0.7106  0.1695
  665TMC3     C 9895   1.751   1.126   0.450 -0.5269 -0.5998  0.7179
  665TMC3     O 9896   1.706   1.013   0.428  0.1323  0.5340  0.5079
  665TMC3     H 9897   1.655   1.003   0.667  2.3983 -0.0927 -0.0666
  665TMC3    H1 9898   1.719   1.384   0.491 -0.5137 -2.0356 -2.0207
  665TMC3    H2 9899   1.599   1.356   0.900 -0.9212  0.0534 -0.3594
  665TMC3    C7 9900   1.638   1.529   0.679  0.3397  0.0657 -0.3623
  665TMC3    C8 9901   1.569   1.104   0.899  0.3616  1.2685 -0.2854
  665TMC3    O1 9902   1.612   1.571   0.570 -0.3870 -0.1173 -0.8578
  665TMC3    O2 9903   1.575   1.154   1.009  0.0231  0.5622  0.8910
  666TMC3    C1 9904   1.530   0.661  10.671  0.4779 -0.3759  0.0771
  666TMC3    C2 9905   1.644   0.629  10.732 -0.4889  0.6552 -0.2506
  666TMC3    C3 9906   1.726   0.731  10.762 -0.0375 -0.1164  0.0288
  666TMC3    C4 9907   1.509   0.793  10.625  0.4710 -0.4239 -0.5218
  666TMC3    C5 9908   1.597   0.890  10.662 -0.0060  0.1387  0.2923
  666TMC3    C6 9909   1.708   0.855  10.723 -0.1569 -0.8949  0.4871
  666TMC3     C 9910   1.434   0.561  10.627  0.5897  0.0953 -0.3034
  666TMC3     O 9911   1.377   0.579  10.518  0.5833 -0.4553  0.6788
  666TMC3     H 9912   1.651   0.524  10.759  2.4412  0.6155 -1.1803
  666TMC3    H1 9913   1.419   0.824  10.572  1.6105  2.0324 -1.0613
  666TMC3    H2 9914   1.762   0.926  10.785 -1.4467  0.2358  0.3171
  666TMC3    C7 9915   1.587   1.022  10.592 -0.0782 -0.0681 -0.3478
  666TMC3    C8 9916   1.821   0.700  10.858  0.0752  0.5311 -0.0782
  666TMC3    O1 9917   1.475   1.059  10.559  0.1815  0.5091 -0.6877
  666TMC3    O2 9918   1.829   0.586  10.896  0.5509  0.3712  0.1222
  667MPD2     C 9919   2.815   1.207  15.023  1.3775  0.5267  0.3671
  667MPD2    C1 9920   2.682   1.258  15.034  0.4670 -0.2253  0.2302
  667MPD2    C2 9921   2.576   1.166  15.018  0.1621  0.0858 -0.5105
  667MPD2    C3 9922   2.598   1.031  15.014  0.3571  0.4188  0.1830
  667MPD2    C4 9923   2.727   0.986  15.003  0.6103 -0.0027  0.1393
  667MPD2    C5 9924   2.835   1.073  15.010 -0.3114 -0.3829  0.5545
  667MPD2     H 9925   2.472   1.194  15.031 -0.2235 -1.2666 -0.6782
  667MPD2    H1 9926   2.746   0.880  14.994  1.7693  0.2375 -0.2308
  667MPD2    H2 9927   2.902   1.270  15.038  0.3208  1.1789  3.8009
  667MPD2    H3 9928   2.939   1.042  15.003  0.0425  0.4113  2.3119
  667MPD2     N 9929   2.493   0.935  15.013 -0.2405  0.1615  0.2011
  667MPD2    H5 9930   2.528   0.840  15.019 -0.3725  0.2231  1.9460
  667MPD2    N1 9931   2.650   1.398  15.066  0.2875  0.4321 -0.1868
  667MPD2    H7 9932   2.554   1.422  15.087  0.7092  2.1211 -0.2059
  668TMC3    C1 9933   2.674   1.621  15.146 -0.1531  0.1953 -0.3121
  668TMC3    C2 9934   2.732   1.745  15.133  0.2318 -0.0187 -0.7300
  668TMC3    C3 9935   2.702   1.840  15.224 -0.0590 -0.5474 -0.9489
  668TMC3    C4 9936   2.586   1.601  15.246  0.3897 -0.0655  0.7785
  668TMC3    C5 9937   2.552   1.700  15.332 -0.1344 -0.6250 -0.0666
  668TMC3    C6 9938   2.607   1.823  15.321 -0.4705  0.8519  0.1049
  668TMC3     C 9939   2.729   1.506  15.064 -0.3347 -0.8028 -0.2081
  668TMC3     O 9940   2.825   1.533  14.996 -0.3132  0.0918 -0.5192
  668TMC3     H 9941   2.796   1.756  15.046 -1.1757 -1.2473 -1.9166
  668TMC3    H1 9942   2.539   1.503  15.254 -1.8395  0.7777 -2.2902
  668TMC3    H2 9943   2.575   1.909  15.379  0.3187  2.3508 -1.6966
  668TMC3    C7 9944   2.484   1.670  15.452  0.2915 -0.7779  0.7175
  668TMC3    C8 9945   2.749   1.974  15.217 -0.0419 -0.0478  0.5128
  668TMC3    O1 9946   2.510   1.748  15.545  0.1028  0.6141 -0.0218
  668TMC3    O2 9947   2.741   2.042  15.316 -0.2249 -0.3225 -0.1428
  669TMC3    C1 9948   0.748   1.257  15.130  0.2660  0.1948  0.4193
  669TMC3    C2 9949   0.620   1.236  15.075 -0.3778  0.4978 -0.1582
  669TMC3    C3 9950   0.590   1.280  14.950  0.5319  0.1533  0.5801
  669TMC3    C4 9951   0.844   1.333  15.059 -0.4082 -0.2079 -0.3657
  669TMC3    C5 9952   0.797   1.388  14.938 -0.2449  0.1913 -0.9532
  669TMC3    C6 9953   0.681   1.349  14.873 -0.1127 -0.4747  0.5822
  669TMC3     C 9954   0.761   1.201  15.269 -0.7069  0.2116  0.4662
  669TMC3     O 9955   0.679   1.114  15.306  0.3733  0.5459  0.3885
  669TMC3     H 9956   0.555   1.171  15.132 -1.1474 -0.1299 -1.7478
  669TMC3    H1 9957   0.941   1.354  15.103 -0.4758  2.6638 -1.5904
  669TMC3    H2 9958   0.651   1.416  14.793 -1.5651  1.2258  2.5868
  669TMC3    C7 9959   0.909   1.440  14.856 -0.0403 -0.0939  0.0021
  669TMC3    C8 9960   0.461   1.262  14.891 -0.3967  0.5217 -0.1213
  669TMC3    O1 9961   0.997   1.504  14.910 -0.7882  0.1194  0.1497
  669TMC3    O2 9962   0.385   1.190  14.951  0.8153 -0.0033  0.7634
  670MPD2     C 9963   3.573   3.935  13.643 -0.6260 -0.1211 -0.0450
  670MPD2    C1 9964   3.647   3.850  13.718  0.4727  0.3494 -0.5319
  670MPD2    C2 9965   3.574   3.776  13.808 -0.1479 -0.3604 -0.3873
  670MPD2    C3 9966   3.438   3.792  13.823 -0.3578  0.1320 -0.2060
  670MPD2    C4 9967   3.363   3.875  13.740 -0.6820  0.8390  0.5869
  670MPD2    C5 9968   3.436   3.941  13.640  0.0972  0.0575  0.3777
  670MPD2     H 9969   3.619   3.701  13.873 -0.3608  1.3092  1.6873
  670MPD2    H1 9970   3.257   3.890  13.754 -1.5402 -3.5289 -1.3404
  670MPD2    H2 9971   3.623   4.004  13.577 -0.6539 -0.9445 -0.9429
  670MPD2    H3 9972   3.384   4.024  13.594 -2.8050 -1.8081  0.2460
  670MPD2     N 9973   3.379   3.714  13.921 -0.1246  0.1332 -0.0832
  670MPD2    H5 9974   3.441   3.663  13.984 -1.2127 -1.2457 -0.1118
  670MPD2    N1 9975   3.782   3.848  13.718 -0.1534  0.5689 -0.4275
  670MPD2    H7 9976   3.828   3.785  13.782 -2.4130 -0.2554  0.3857
  671TMC3    C1 9977   3.210   3.587  14.030  0.0945  0.5189  0.3192
  671TMC3    C2 9978   3.312   3.536  14.099 -0.3482  0.4407  0.6279
  671TMC3    C3 9979   3.291   3.434  14.181 -0.1502 -0.1201  0.3704
  671TMC3    C4 9980   3.082   3.533  14.038  0.6687  0.0820 -0.6292
  671TMC3    C5 9981   3.060   3.430  14.124  0.3751  0.6923 -0.5126
  671TMC3    C6 9982   3.170   3.382  14.196 -0.0255  0.0220 -0.0294
  671TMC3     C 9983   3.244   3.677  13.925  0.2692  0.6923 -0.0757
  671TMC3     O 9984   3.154   3.725  13.861  0.2947 -0.6607 -0.4263
  671TMC3     H 9985   3.395   3.598  14.130  0.3321 -0.1182 -0.0399
  671TMC3    H1 9986   3.006   3.581  13.977  0.0830  1.5359  1.2309
  671TMC3    H2 9987   3.148   3.299  14.262 -2.8463 -0.0282 -1.0149
  671TMC3    C7 9988   2.979   3.321  14.072  0.0894 -0.8304  0.3013
  671TMC3    C8 9989   3.413   3.359  14.224  0.7640 -0.9554 -0.2661
  671TMC3    O1 9990   3.039   3.232  14.018 -0.0085  0.0759 -0.5113
  671TMC3    O2 9991   3.517   3.395  14.170  0.3332  0.6290  0.4612
  672MPD2     C 9992   4.301   4.592   1.258 -0.7905  0.8959 -0.0315
  672MPD2    C1 9993   4.361   4.477   1.203 -0.5639 -0.1461  1.5037
  672MPD2    C2 9994   4.496   4.469   1.229  0.4647 -0.4389  0.6125
  672MPD2    C3 9995   4.564   4.552   1.320 -0.8869  0.9808 -0.2895
  672MPD2    C4 9996   4.492   4.645   1.383  0.5049 -0.3828  0.0885
  672MPD2    C5 9997   4.366   4.672   1.356  0.1159  0.3541 -1.0513
  672MPD2     H 9998   4.546   4.380   1.194 -1.5303 -0.2149 -2.8046
  672MPD2    H1 9999   4.539   4.700   1.465  1.3290 -0.2888 -0.4521
  672MPD2    H210000   4.196   4.612   1.246 -0.7194  0.1407 -1.8774
  672MPD2    H310001   4.312   0.014   1.407 -0.8522  0.0326 -1.5756
  672MPD2     N10002   4.699   4.545   1.363  0.1494  0.6086  0.5326
  672MPD2    H510003   4.726   4.606   1.439  3.7160  0.0813 -0.3025
  672MPD2    N110004   4.291   4.378   1.127  0.2330  0.4327 -0.2333
  672MPD2    H710005   4.346   4.311   1.074 -0.0970  0.3089 -0.4191
  673TMC3    C110006   4.098   4.279   1.013  0.2074  0.4949 -0.2256
  673TMC3    C210007   4.163   4.163   0.995 -0.0035 -0.3223  0.1799
  673TMC3    C310008   4.098   4.070   0.920  0.1386 -0.3037  0.2452
  673TMC3    C410009   3.975   4.312   0.961  0.6558 -1.1224 -0.2412
  673TMC3    C510010   3.913   4.215   0.884 -0.1604 -0.3415  0.1589
  673TMC3    C610011   3.973   4.090   0.865 -0.3532  0.1871 -0.1288
  673TMC3     C10012   4.157   4.377   1.106 -0.9169  0.2223  1.0819
  673TMC3     O10013   4.081   4.462   1.147  0.3276 -0.4900 -0.1246
  673TMC3     H10014   4.259   4.134   1.036 -0.4804 -1.2103  0.6702
  673TMC3    H110015   3.932   4.409   0.985 -1.5098 -2.1790  0.2257
  673TMC3    H210016   3.929   4.012   0.804 -1.0635 -0.9238  1.7888
  673TMC3    C710017   3.783   4.225   0.826  0.7482  0.1950 -0.2829
  673TMC3    C810018   4.147   3.930   0.891 -0.0301 -0.4063  0.0119
  673TMC3    O110019   3.718   4.126   0.790  0.1225  0.2821  0.0879
  673TMC3    O210020   4.077   3.850   0.831 -0.2501 -0.1663  0.1060
  674MPD2     C10021   3.832   0.090   0.380 -0.1400 -0.2413 -0.3554
  674MPD2    C110022   3.761   4.709   0.354  0.3236 -0.8059 -0.3057
  674MPD2    C210023   3.649   4.709   0.273 -0.1301 -0.0208 -0.4357
  674MPD2    C310024   3.611   0.093   0.218 -0.4876 -0.2208  0.1776
  674MPD2    C410025   3.681   0.210   0.241  0.0289  0.1401 -0.1399
  674MPD2    C510026   3.793   0.200   0.317 -0.2174 -0.5682 -0.1367
  674MPD2     H10027   3.608   4.619   0.227 -2.0378  1.8969 -2.4642
  674MPD2    H110028   3.654   0.304   0.195  0.2176  0.5358  0.5718
  674MPD2    H210029   3.915   0.095   0.449  1.1760  0.1238 -1.9523
  674MPD2    H310030   3.852   0.291   0.318 -0.0869 -0.6431 -1.1424
  674MPD2     N10031   3.489   0.081   0.143  0.5290 -0.0466  0.4373
  674MPD2    H510032   3.441   4.730   0.139 -1.9919  1.3696 -0.3520
  674MPD2    N110033   3.811   4.589   0.421 -0.6020  0.0490 -0.4583
  674MPD2    H710034   3.880   4.606   0.493  0.4556  1.8608 -1.8893
  675TMC3    C110035   3.848   4.364   0.467  0.4044  0.9018 -0.8347
  675TMC3    C210036   3.809   4.238   0.475 -0.5100 -0.1304  0.5017
  675TMC3    C310037   3.897   4.141   0.514 -0.6470  0.0500  0.7902
  675TMC3    C410038   3.977   4.398   0.493 -0.1818  0.5563 -0.4900
  675TMC3    C510039   4.063   4.296   0.516 -0.0359 -0.2429  0.9137
  675TMC3    C610040   4.025   4.168   0.528  0.6414 -0.0177  0.1011
  675TMC3     C10041   3.763   4.460   0.394  0.1148  0.1480 -0.0607
  675TMC3     O10042   3.663   4.422   0.335 -0.0453  0.2933 -0.3089
  675TMC3     H10043   3.708   4.215   0.444 -0.2687  0.6028 -0.8506
  675TMC3    H110044   4.024   4.492   0.464  0.4257 -0.0147 -1.3496
  675TMC3    H210045   4.104   4.093   0.529  1.5371  0.9248  1.0861
  675TMC3    C710046   4.204   4.324   0.533 -0.4920 -0.5782  0.9343
  675TMC3    C810047   3.853   4.007   0.490 -0.0200  0.9617 -0.1550
  675TMC3    O110048   4.279   4.230   0.528 -0.1347 -0.3319  0.0547
  675TMC3    O210049   3.927   3.928   0.427  0.2871 -0.6156 -0.1093
  676MPD2     C10050   2.179   2.491  11.066 -0.1113  0.0089 -0.1813
  676MPD2    C110051   2.165   2.397  11.161 -0.0850 -0.3083  0.7002
  676MPD2    C210052   2.166   2.264  11.130  0.3712 -0.5816  0.4728
  676MPD2    C310053   2.168   2.225  10.994 -0.0572  0.5927  0.4513
  676MPD2    C410054   2.186   2.312  10.898  0.2698 -0.0395 -0.6285
  676MPD2    C510055   2.192   2.442  10.937  0.2030 -0.1791 -0.2597
  676MPD2     H10056   2.159   2.186  11.205  1.5401 -0.3197  0.8494
  676MPD2    H110057   2.196   2.295  10.791 -0.0708  1.4528 -0.9052
  676MPD2    H210058   2.176   2.598  11.083  0.2180 -0.2847  1.6726
  676MPD2    H310059   2.213   2.511  10.857 -1.2438 -1.3290 -1.6282
  676MPD2     N10060   2.142   2.095  10.940  0.5224 -0.1063 -0.0859
  676MPD2    H510061   2.163   2.084  10.842  0.9599 -0.7664  0.0832
  676MPD2    N110062   2.142   2.431  11.300  0.4305 -0.0026  1.3102
  676MPD2    H710063   2.132   2.357  11.369 -1.1193  0.1057  1.1969
  677TMC3    C110064   2.049   2.569  11.474  0.0835  0.3385 -0.4937
  677TMC3    C210065   1.976   2.462  11.524 -0.9396 -0.0620  0.5281
  677TMC3    C310066   1.907   2.479  11.641 -0.4197  0.6120 -0.1711
  677TMC3    C410067   2.058   2.693  11.538 -0.0370 -0.5858 -0.3791
  677TMC3    C510068   1.998   2.700  11.659  0.1114 -0.3696  0.5279
  677TMC3    C610069   1.926   2.593  11.717 -0.5672 -1.0310 -0.0805
  677TMC3     C10070   2.106   2.556  11.344  0.4276 -0.0631 -0.5331
  677TMC3     O10071   2.124   2.663  11.285 -0.4877 -0.3575  0.7095
  677TMC3     H10072   1.963   2.367  11.474 -0.0782 -0.3487  0.8498
  677TMC3    H110073   2.109   2.779  11.496  1.5109 -1.9222 -1.2546
  677TMC3    H210074   1.899   2.598  11.822 -0.3905 -3.5511  0.0819
  677TMC3    C710075   2.012   2.820  11.743 -0.3536  0.5261  0.9363
  677TMC3    C810076   1.833   2.374  11.711  0.2846  0.6188 -0.3573
  677TMC3    O110077   1.926   2.844  11.829  0.0649 -0.0367 -0.1519
  677TMC3    O210078   1.845   2.256  11.673  0.7300  0.3434 -0.3367
  678MPD2     C10079   2.900   2.729   1.492  0.6318  0.8299  0.4024
  678MPD2    C110080   2.840   2.702   1.368  0.3296  0.0852  0.4453
  678MPD2    C210081   2.722   2.768   1.341 -0.3273  0.3650 -0.0100
  678MPD2    C310082   2.663   2.859   1.430 -1.0043 -0.6089  0.5942
  678MPD2    C410083   2.730   2.877   1.552  0.4304  1.0805 -0.0516
  678MPD2    C510084   2.846   2.813   1.586 -0.3488  0.0102  0.7374
  678MPD2     H10085   2.659   2.747   1.255 -2.1900 -0.2089  1.4951
  678MPD2    H110086   2.682   2.935   1.631  0.9092  1.3997  0.0094
  678MPD2    H210087   3.000   2.692   1.513  0.2693 -1.3493 -1.7784
  678MPD2    H310088   2.883   2.821   1.687 -1.1858 -1.5694  1.1539
  678MPD2     N10089   2.548   2.920   1.400 -0.3417 -0.2188 -0.0208
  678MPD2    H510090   2.507   2.885   1.313  1.5610 -2.7979  0.1258
  678MPD2    N110091   2.901   2.620   1.274  0.1189  0.0636  0.2775
  678MPD2    H710092   2.862   2.602   1.182 -0.1049  3.0269 -0.2029
  679TMC3    C110093   3.210   2.324   1.073 -0.3377  0.4574  0.1220
  679TMC3    C210094   3.151   2.370   1.186 -0.1160  0.4100  0.5872
  679TMC3    C310095   3.049   2.466   1.174  0.3215 -0.8563 -0.3456
  679TMC3    C410096   3.165   2.356   0.944 -0.5021 -0.0910 -0.0803
  679TMC3    C510097   3.050   2.437   0.934 -0.5324  0.3943 -0.0474
  679TMC3    C610098   2.989   2.486   1.052  0.4413 -0.2785  0.1783
  679TMC3     C10099   3.297   2.206   1.086 -0.1537 -0.3447 -1.3931
  679TMC3     O10100   3.381   2.202   1.180 -0.4860 -0.5359 -0.0746
  679TMC3     H10101   3.193   2.350   1.284 -0.5754 -1.5378  0.3903
  679TMC3    H110102   3.214   2.332   0.850  0.5797 -1.5512  0.8639
  679TMC3    H210103   2.923   2.571   1.039  1.5434  0.6890  0.9398
  679TMC3    C710104   2.995   2.486   0.807  0.1993  0.7761  0.0366
  679TMC3    C810105   3.016   2.545   1.294 -0.3833  0.6723  0.1494
  679TMC3    O110106   2.947   2.600   0.797 -0.2263  0.3373  0.1011
  679TMC3    O210107   3.082   2.531   1.399  0.1976  0.3371  0.4622
  680MPD2     C10108   3.187   0.782  13.920  0.3087  0.8596 -0.4049
  680MPD2    C110109   3.315   0.813  13.934 -0.1974  0.3302 -0.0054
  680MPD2    C210110   3.363   0.912  14.014  0.3519 -0.2173  1.0066
  680MPD2    C310111   3.275   0.996  14.082  0.1048  0.2118 -0.1171
  680MPD2    C410112   3.140   0.974  14.062 -0.0127  0.6869  0.1116
  680MPD2    C510113   3.101   0.872  13.978 -0.0517 -0.3952 -0.6271
  680MPD2     H10114   3.468   0.935  14.023  0.2741 -0.3382  2.2169
  680MPD2    H110115   3.065   1.029  14.117 -0.3686  0.4115 -0.0998
  680MPD2    H210116   3.156   0.693  13.867 -0.4462  0.9639 -0.1457
  680MPD2    H310117   2.993   0.858  13.973 -0.4087  1.4042  2.0152
  680MPD2     N10118   3.312   1.102  14.167 -0.1233 -0.0190  0.2498
  680MPD2    H510119   3.244   1.159  14.215  0.0976  0.4874 -0.0365
  680MPD2    N110120   3.415   0.738  13.867 -0.1555 -0.3209 -0.0558
  680MPD2    H710121   3.509   0.766  13.890 -0.1651  0.3654 -0.8311
  681TMC3    C110122   3.528   0.564  13.777 -0.9652 -0.3922  0.1095
  681TMC3    C210123   3.504   0.465  13.870 -0.0234  0.7571 -0.9094
  681TMC3    C310124   3.572   0.466  13.987  0.3633 -0.0430  0.3413
  681TMC3    C410125   3.633   0.649  13.793 -0.2433  0.4946  0.0808
  681TMC3    C510126   3.714   0.638  13.906  0.4302 -0.5186  0.8114
  681TMC3    C610127   3.684   0.541  14.004 -0.1690 -0.2018  0.1118
  681TMC3     C10128   3.406   0.640  13.771  0.2751 -0.0293  0.4115
  681TMC3     O10129   3.311   0.579  13.725  0.4919 -0.0841  0.2361
  681TMC3     H10130   3.416   0.402  13.868  0.1791  0.4993 -1.8144
  681TMC3    H110131   3.642   0.734  13.727 -0.9993  0.7314  0.2838
  681TMC3    H210132   3.740   0.537  14.097 -1.5656  1.1371  0.9984
  681TMC3    C710133   3.858   0.669  13.898  0.2033  0.2887 -0.3866
  681TMC3    C810134   3.494   0.504  14.101 -0.1043  1.2705 -0.2142
  681TMC3    O110135   3.929   0.600  13.971 -0.4283 -0.4289 -0.0462
  681TMC3    O210136   3.556   0.546  14.194  0.3106  0.1710 -0.3189
  682MPD2     C10137   1.425   2.189  11.022 -1.1960 -0.4242 -0.3353
  682MPD2    C110138   1.314   2.127  10.969 -0.0198  0.1120  0.3405
  682MPD2    C210139   1.203   2.115  11.047  0.2025  0.3272  0.7058
  682MPD2    C310140   1.195   2.175  11.170  0.0104  0.6554  0.3765
  682MPD2    C410141   1.303   2.228  11.230  0.1163  0.5454  0.5497
  682MPD2    C510142   1.412   2.232  11.150  0.6395  0.6644 -0.4961
  682MPD2     H10143   1.120   2.058  11.008  0.1230  0.9864 -0.0928
  682MPD2    H110144   1.307   2.260  11.333 -1.7842  2.7304 -0.0681
  682MPD2    H210145   1.520   2.191  10.969  0.4459  1.8703  2.7272
  682MPD2    H310146   1.494   2.275  11.207  0.9834 -1.7413  0.8110
  682MPD2     N10147   1.075   2.166  11.242 -0.3059  0.3410  0.2358
  682MPD2    H510148   1.078   2.210  11.334 -1.3428 -0.7098  0.7689
  682MPD2    N110149   1.316   2.057  10.844 -0.1614 -0.2268  0.3882
  682MPD2    H710150   1.245   1.988  10.818 -1.1293  0.1270  2.0600
  683TMC3    C110151   0.771   2.206  11.518 -0.9889 -0.1278 -0.2303
  683TMC3    C210152   0.715   2.085  11.540 -0.0045 -0.1146  0.6363
  683TMC3    C310153   0.726   1.985  11.452 -0.0813 -0.1287 -0.4566
  683TMC3    C410154   0.846   2.213  11.401 -0.1155  0.0907  0.3857
  683TMC3    C510155   0.867   2.103  11.319  0.3358 -0.1948 -0.1223
  683TMC3    C610156   0.790   1.995  11.335  0.3827  0.6155 -0.1639
  683TMC3     C10157   0.809   2.293  11.631  0.3941  0.3376 -0.4967
  683TMC3     O10158   0.839   2.404  11.598  0.6300 -0.4287  0.1143
  683TMC3     H10159   0.652   2.078  11.629 -0.5743 -2.8071  0.0139
  683TMC3    H110160   0.900   2.305  11.382 -0.3019 -0.3048 -2.1133
  683TMC3    H210161   0.802   1.915  11.263  1.9751  0.4742  0.2641
  683TMC3    C710162   0.955   2.106  11.207  0.4408  0.3205 -0.5355
  683TMC3    C810163   0.718   1.862  11.519 -0.4164  0.3445  0.5962
  683TMC3    O110164   0.923   2.039  11.111  0.2250 -0.0240  0.1541
  683TMC3    O210165   0.614   1.830  11.571  0.7223 -0.4998  0.4089
  684MPD2     C10166   3.474   1.646  16.616 -0.0308 -0.4617  0.4801
  684MPD2    C110167   3.459   1.722  16.500 -0.8922 -0.1336  0.4903
  684MPD2    C210168   3.418   1.850  16.511 -0.4125 -0.1260 -0.0919
  684MPD2    C310169   3.392   1.913  16.634 -0.0502  0.1073 -0.5252
  684MPD2    C410170   3.411   1.838  16.747  0.5134 -0.4760  0.1468
  684MPD2    C510171   3.445   1.701  16.735 -0.3050  0.1511  0.9126
  684MPD2     H10172   3.419   1.909  16.420 -0.3724  1.7020  1.0847
  684MPD2    H110173   3.392   1.892  16.839  2.4794 -1.0744  0.8885
  684MPD2    H210174   3.503   1.542  16.616 -2.6100 -1.1668  2.0493
  684MPD2    H310175   3.444   1.633  16.819 -0.1812 -1.7536 -0.6227
  684MPD2     N10176   3.350   2.046  16.646  0.2104 -0.4120 -0.6930
  684MPD2    H510177   3.365   2.092  16.735  1.6562 -1.6563 -0.2838
  684MPD2    N110178   3.490   1.671  16.368 -0.3969  0.4508  0.0116
  684MPD2    H710179   3.491   1.734  16.289  1.2252  2.0510  1.2997
  685TMC3    C110180   3.592   1.533  16.205  0.7817  0.3156  0.0290
  685TMC3    C210181   3.495   1.570  16.118  0.1449  0.0375  0.6750
  685TMC3    C310182   3.531   1.582  15.984  1.1005 -0.0464  0.1455
  685TMC3    C410183   3.712   1.481  16.166  0.3376  0.2268  0.1009
  685TMC3    C510184   3.747   1.493  16.037 -0.3727 -0.1136  0.4888
  685TMC3    C610185   3.654   1.537  15.945  0.5304 -0.0377 -0.4822
  685TMC3     C10186   3.564   1.554  16.348  0.4387  0.7249 -0.3368
  685TMC3     O10187   3.612   1.472  16.427 -0.4852 -0.2606 -0.3343
  685TMC3     H10188   3.395   1.590  16.154  0.2591  1.5344  0.1335
  685TMC3    H110189   3.765   1.413  16.231 -1.5461  0.0435  1.4406
  685TMC3    H210190   3.687   1.532  15.842 -0.7160 -0.8702 -0.8369
  685TMC3    C710191   3.886   1.501  15.992 -0.5491  0.0322  0.3717
  685TMC3    C810192   3.432   1.611  15.877 -0.8564  0.1178  0.5429
  685TMC3    O110193   3.913   1.542  15.877 -0.4768 -0.3688 -0.7175
  685TMC3    O210194   3.453   1.564  15.771 -0.4077 -0.0531  0.1041
  686MPD2     C10195   0.417   2.052  16.005 -0.3918 -0.0494 -0.7592
  686MPD2    C110196   0.469   2.004  16.124  0.7514  0.8914  0.0127
  686MPD2    C210197   0.600   1.978  16.125 -0.7109  0.5281  0.2027
  686MPD2    C310198   0.676   1.993  16.007 -1.0874  0.6073 -0.6781
  686MPD2    C410199   0.626   2.048  15.896  0.3714 -0.5945 -0.4624
  686MPD2    C510200   0.497   2.085  15.899  0.5873 -0.2086  0.6371
  686MPD2     H10201   0.646   1.939  16.215  0.7503 -0.1689 -0.8460
  686MPD2    H110202   0.689   2.056  15.809  1.0778  0.2604  0.1228
  686MPD2    H210203   0.312   2.074  15.996 -0.3587 -0.2577 -1.7464
  686MPD2    H310204   0.452   2.112  15.804  1.5766 -2.8761 -0.5905
  686MPD2     N10205   0.807   1.940  15.996  0.5081  0.6431  0.2961
  686MPD2    H510206   0.874   1.983  15.932 -1.1511  1.5964 -0.8208
  686MPD2    N110207   0.392   1.987  16.238  0.8317  0.4818 -0.7268
  686MPD2    H710208   0.436   1.934  16.313 -2.6985  0.6235  1.4599
  687TMC3    C110209   0.758   1.744  16.133  0.4796 -0.1628 -0.1016
  687TMC3    C210210   0.656   1.691  16.060 -0.1691 -0.2091 -0.0625
  687TMC3    C310211   0.594   1.583  16.114 -0.0340  0.1512  0.0483
  687TMC3    C410212   0.810   1.689  16.245 -0.6236  0.3920 -0.3440
  687TMC3    C510213   0.737   1.589  16.301 -0.4178 -0.5295  0.0677
  687TMC3    C610214   0.637   1.528  16.231  0.3370  0.4591 -0.5138
  687TMC3     C10215   0.855   1.823  16.058  0.1062 -0.0610 -0.9431
  687TMC3     O10216   0.966   1.778  16.058  0.0788 -0.0174  0.5216
  687TMC3     H10217   0.632   1.731  15.963 -2.4867 -0.6579  0.3159
  687TMC3    H110218   0.884   1.741  16.305  0.9186 -0.1457 -1.8125
  687TMC3    H210219   0.575   1.448  16.272 -0.0692  0.6669 -0.7224
  687TMC3    C710220   0.775   1.540  16.426 -0.7878  0.2163  0.8314
  687TMC3    C810221   0.455   1.564  16.079  0.0311  0.6073 -0.3033
  687TMC3    O110222   0.890   1.564  16.464  0.2986  0.5669 -0.1047
  687TMC3    O210223   0.423   1.448  16.102 -0.6647  0.5283 -0.4265
  688MPD2     C10224   4.413   0.850  17.656 -0.5113 -0.5941  0.5750
  688MPD2    C110225   4.476   0.728  17.684 -0.5431  0.4463  0.4624
  688MPD2    C210226   4.540   0.659  17.577  1.1323  0.1212  0.2946
  688MPD2    C310227   4.554   0.719  17.451 -0.5160  0.3364  0.0555
  688MPD2    C410228   4.500   0.838  17.430  0.7191 -0.5104 -0.2554
  688MPD2    C510229   4.430   0.901  17.531 -0.1450 -0.7561 -0.3338
  688MPD2     H10230   4.588   0.566  17.605  1.8758  0.8979  1.6512
  688MPD2    H110231   4.506   0.889  17.335 -1.2060  1.6574  0.7593
  688MPD2    H210232   4.351   0.907  17.725  0.2980 -1.4369  1.9972
  688MPD2    H310233   4.390   0.998  17.505 -0.6978 -0.9185 -0.0958
  688MPD2     N10234   4.621   0.658  17.349 -0.0021  0.0094  0.1118
  688MPD2    H510235   4.656   0.712  17.270  0.2565  0.0010  0.2210
  688MPD2    N110236   4.463   0.668   0.065 -0.4146 -0.0591 -0.5727
  688MPD2    H710237   4.502   0.577   0.087 -1.0614 -0.2951 -0.4274
  689TMC3    C110238   4.398   0.650   0.288 -0.3653 -0.1968 -0.4123
  689TMC3    C210239   4.429   0.709   0.406 -0.4805 -0.3616  0.2514
  689TMC3    C310240   4.390   0.637   0.518 -0.4579  0.4425 -0.3904
  689TMC3    C410241   4.329   0.531   0.276  0.4026  0.2801 -0.1862
  689TMC3    C510242   4.285   0.468   0.391 -0.5348  0.9604  0.4561
  689TMC3    C610243   4.316   0.518   0.514  0.8336 -0.3546  0.5482
  689TMC3     C10244   4.409   0.733   0.171  0.3920  0.8193  0.8174
  689TMC3     O10245   4.389   0.851   0.189  0.2950 -0.3323  0.4335
  689TMC3     H10246   4.488   0.799   0.407 -0.5704 -0.2968 -0.3989
  689TMC3    H110247   4.295   0.487   0.182  1.2885  1.5919 -1.1087
  689TMC3    H210248   4.285   0.467   0.604 -3.3612  3.6326  1.3487
  689TMC3    C710249   4.244   0.331   0.393  0.1720  0.1483  0.4456
  689TMC3    C810250   4.416   0.696   0.648  0.7301  0.5965 -0.5821
  689TMC3    O110251   4.261   0.276   0.502  0.0494 -0.1217  0.1797
  689TMC3    O210252   4.415   0.622   0.747  0.0567 -0.5044 -0.3539
  690MPD2     C10253   2.005   2.528  16.000 -0.6311 -0.0972  0.2041
  690MPD2    C110254   1.908   2.507  15.898 -0.1256  0.7769 -0.5843
  690MPD2    C210255   1.951   2.545  15.772  0.2781  0.2257  0.1097
  690MPD2    C310256   2.087   2.556  15.747  0.6686 -0.0631  0.4455
  690MPD2    C410257   2.179   2.546  15.848  0.7310  0.1542  0.4944
  690MPD2    C510258   2.137   2.551  15.978 -0.0023 -0.7843 -0.6322
  690MPD2     H10259   1.879   2.560  15.693  1.1687  1.6172 -0.4257
  690MPD2    H110260   2.285   2.565  15.837  0.3705  1.8480 -0.0456
  690MPD2    H210261   1.985   2.525  16.106 -0.1932  0.7955  0.3131
  690MPD2    H310262   2.212   2.565  16.055 -2.8914 -0.1256  2.0715
  690MPD2     N10263   2.127   2.599  15.623 -0.5273  0.0630 -0.1414
  690MPD2    H510264   2.048   2.614  15.562 -2.6059 -1.8402  2.0845
  690MPD2    N110265   1.771   2.465  15.924 -0.5559  0.5109 -0.3986
  690MPD2    H710266   1.704   2.466  15.847 -0.5259  0.2631 -0.4290
  691TMC3    C110267   1.622   2.327  16.037  0.1470  0.2198 -0.5174
  691TMC3    C210268   1.536   2.348  15.935  0.6923 -0.4812  0.3729
  691TMC3    C310269   1.480   2.236  15.879  0.3121 -0.4408  0.9612
  691TMC3    C410270   1.651   2.200  16.078 -0.4434 -0.1716 -0.4650
  691TMC3    C510271   1.594   2.092  16.020  0.1012 -0.0013  0.2488
  691TMC3    C610272   1.509   2.104  15.916  0.4170  0.7786 -0.1133
  691TMC3     C10273   1.738   2.408  16.047 -0.2531  0.2410  0.2174
  691TMC3     O10274   1.802   2.393  16.152  0.3175  0.6700  0.2287
  691TMC3     H10275   1.510   2.447  15.899  0.8047 -0.9400 -0.9565
  691TMC3    H110276   1.716   2.173  16.161  0.1717 -2.1375 -1.6037
  691TMC3    H210277   1.468   2.023  15.856 -1.6697  0.7562  1.3346
  691TMC3    C710278   1.604   1.962  16.084  0.0284 -0.4113  0.5995
  691TMC3    C810279   1.374   2.244  15.782 -0.8478  0.1402 -0.1790
  691TMC3    O110280   1.701   1.941  16.156 -0.2544  0.1060 -0.2320
  691TMC3    O210281   1.370   2.160  15.693  0.1639  0.2084 -0.3596
  692TMC3    C110282   3.120   3.276  15.769  0.3884  1.0612  0.3176
  692TMC3    C210283   3.255   3.317  15.774  0.3132  0.3280 -0.1342
  692TMC3    C310284   3.357   3.229  15.797 -0.9464  0.6009  0.2011
  692TMC3    C410285   3.090   3.146  15.787  0.3138 -0.3186 -0.5771
  692TMC3    C510286   3.193   3.063  15.825 -0.1638 -0.4430 -0.3414
  692TMC3    C610287   3.324   3.102  15.843 -0.1600  0.1390  0.1772
  692TMC3     C10288   3.021   3.363  15.801 -0.2134  0.2878  0.9125
  692TMC3     O10289   2.909   3.311  15.793  0.8728  0.6989 -0.5083
  692TMC3     H10290   3.276   3.409  15.720  0.1841  1.1659  1.2696
  692TMC3    H110291   2.993   3.099  15.794  0.4103 -0.3058  0.9882
  692TMC3    H210292   3.407   3.031  15.837  0.7914  1.1989  0.8181
  692TMC3    C710293   3.166   2.918  15.822  0.4519 -0.1116  0.0486
  692TMC3    C810294   3.450   3.278  15.897  0.2264 -0.0351  0.0395
  692TMC3    O110295   3.075   2.885  15.753 -0.5462 -0.0588 -0.4116
  692TMC3    O210296   3.519   3.192  15.955 -0.9759  0.1061  0.3430
  693MPD2     C10297   3.308   1.548  10.874  0.4908  0.0352 -0.2180
  693MPD2    C110298   3.216   1.449  10.878 -0.7438 -0.2496 -0.9349
  693MPD2    C210299   3.246   1.327  10.934 -0.0346 -0.0775 -0.7658
  693MPD2    C310300   3.372   1.294  10.986  0.7063  0.6194 -0.5333
  693MPD2    C410301   3.469   1.391  10.967  0.1012  0.3335 -0.4844
  693MPD2    C510302   3.435   1.520  10.912 -0.5428 -0.4385  0.0817
  693MPD2     H10303   3.164   1.260  10.957  0.3629 -0.9726 -1.8915
  693MPD2    H110304   3.569   1.374  11.005 -0.5215 -1.2760  0.4285
  693MPD2    H210305   3.293   1.634  10.810  2.9983  1.2888  0.8726
  693MPD2    H310306   3.516   1.592  10.911  0.1703 -1.2309  0.6270
  693MPD2     N10307   3.413   1.176  11.053 -0.4154  0.3153  0.1685
  693MPD2    H510308   3.503   1.166  11.100  0.2292 -0.5521 -1.2276
  693MPD2    N110309   3.089   1.474  10.824 -0.1429 -0.2500  0.2077
  693MPD2    H710310   3.062   1.569  10.801  0.0805 -0.4545 -0.9054
  694TMC3    C110311   2.861   1.426  10.751 -0.3897  0.2724 -0.3051
  694TMC3    C210312   2.785   1.333  10.690  0.2947 -0.0319 -0.3387
  694TMC3    C310313   2.652   1.316  10.725 -0.8860  0.3025  0.3370
  694TMC3    C410314   2.797   1.497  10.855 -0.1871 -0.0439 -0.4092
  694TMC3    C510315   2.666   1.476  10.892 -0.0541 -1.3411 -0.1456
  694TMC3    C610316   2.594   1.378  10.825 -0.1389 -0.1886  0.8769
  694TMC3     C10317   2.991   1.378  10.796  0.2573  0.0522 -0.1901
  694TMC3     O10318   2.988   1.260  10.819  0.3916 -0.3650  0.0001
  694TMC3     H10319   2.828   1.271  10.611  1.3416  0.3527 -0.0726
  694TMC3    H110320   2.843   1.585  10.899  1.7440 -0.1160 -2.2664
  694TMC3    H210321   2.492   1.358  10.854 -0.1046 -1.2381  0.2701
  694TMC3    C710322   2.657   1.503  11.036  0.5781 -0.5687 -0.3126
  694TMC3    C810323   2.584   1.205  10.666  0.0904 -0.0403 -0.1552
  694TMC3    O110324   2.706   1.605  11.081  0.2731 -0.1744  0.1060
  694TMC3    O210325   2.475   1.178  10.710  0.5336 -0.6182  0.2432
  695MPD2     C10326   3.989   3.375  13.596  0.6258  0.8900  0.0511
  695MPD2    C110327   3.913   3.368  13.708 -0.0732 -0.3173  0.3739
  695MPD2    C210328   3.783   3.415  13.700  0.0600 -0.2652  0.1510
  695MPD2    C310329   3.730   3.469  13.582  0.2585  0.4867  0.1309
  695MPD2    C410330   3.812   3.472  13.470 -0.5245  0.4425 -0.2741
  695MPD2    C510331   3.938   3.418  13.478  0.4720  0.1223  0.3663
  695MPD2     H10332   3.719   3.413  13.787 -0.2834 -1.1906 -0.1215
  695MPD2    H110333   3.781   3.503  13.371  1.2724  0.0634 -0.9539
  695MPD2    H210334   4.093   3.345  13.600  0.7416  1.2610 -0.1013
  695MPD2    H310335   3.995   3.401  13.388 -0.6428  1.2613 -0.5453
  695MPD2     N10336   3.589   3.498  13.571 -0.4816 -0.2900  0.0287
  695MPD2    H510337   3.533   3.463  13.648 -0.1616 -0.0989  0.3487
  695MPD2    N110338   3.955   3.329  13.828 -0.3175  0.3640  0.1529
  695MPD2    H710339   3.887   3.330  13.904 -0.5035  2.3507 -0.0445
  696TMC3    C110340   3.395   3.591  13.468  0.8943  0.1715  0.1280
  696TMC3    C210341   3.313   3.494  13.515 -0.1612  0.3048  0.1447
  696TMC3    C310342   3.179   3.520  13.523  0.0694  0.3790 -0.6275
  696TMC3    C410343   3.351   3.709  13.418 -0.6357 -0.3412 -0.1724
  696TMC3    C510344   3.218   3.733  13.431 -0.0483 -0.6405  0.4811
  696TMC3    C610345   3.133   3.643  13.492  0.2030  0.1515  0.6843
  696TMC3     C10346   3.538   3.582  13.469  0.8788 -0.5816  0.9967
  696TMC3     O10347   3.589   3.654  13.387 -0.2129  0.0245  0.1741
  696TMC3     H10348   3.350   3.394  13.533  1.7703  0.7006 -1.5616
  696TMC3    H110349   3.417   3.794  13.402  1.6468 -2.1314 -0.1725
  696TMC3    H210350   3.033   3.674  13.519  0.0797 -1.5670  2.1843
  696TMC3    C710351   3.188   3.878  13.418 -0.4200 -0.2086  0.5204
  696TMC3    C810352   3.095   3.426  13.589  0.5348  0.6589  0.0923
  696TMC3    O110353   3.234   3.932  13.318  0.3790  0.5934  0.0028
  696TMC3    O210354   3.159   3.347  13.657 -0.0539 -0.9074 -0.4219
  697MPD2     C10355   3.156   0.014  15.936 -0.1514 -0.4493  0.0546
  697MPD2    C110356   3.166   0.002  15.797  0.0158 -0.2059  0.0028
  697MPD2    C210357   3.241   0.100  15.726 -0.5857  0.2442  0.6844
  697MPD2    C310358   3.304   0.209  15.791  0.3070 -1.0724  0.4709
  697MPD2    C410359   3.279   0.218  15.925  0.1885 -0.1258  0.3907
  697MPD2    C510360   3.217   0.122  15.995  0.0978 -0.3506 -0.5234
  697MPD2     H10361   3.260   0.075  15.622  0.9674 -0.9230  1.2483
  697MPD2    H110362   3.327   0.300  15.977 -0.1337  0.3447 -0.0395
  697MPD2    H210363   3.097   4.684  15.997 -3.4440 -1.0949 -3.7716
  697MPD2    H310364   3.192   0.135  16.100  1.5028  1.2717 -0.3916
  697MPD2     N10365   3.386   0.301  15.714 -0.9152  0.3990  0.6396
  697MPD2    H510366   3.392   0.278  15.616 -3.5683  2.3311  0.0280
  697MPD2    N110367   3.121   4.622  15.728 -0.5315 -0.1373  0.2194
  697MPD2    H710368   3.153   4.617  15.632 -0.4676  0.7898  0.1860
  698TMC3    C110369   3.503   0.500  15.668 -0.0272  0.9438  0.2846
  698TMC3    C210370   3.559   0.610  15.727  0.2207  0.0704  0.0301
  698TMC3    C310371   3.576   0.729  15.658 -0.5734 -0.1737 -0.1765
  698TMC3    C410372   3.452   0.513  15.539 -0.2826  0.2406  0.0453
  698TMC3    C510373   3.463   0.636  15.475 -1.1461 -0.1559 -0.1217
  698TMC3    C610374   3.527   0.743  15.535 -0.6555  0.0781  0.4178
  698TMC3     C10375   3.441   0.414  15.764 -0.1991  0.5632 -0.3663
  698TMC3     O10376   3.428   0.466  15.874  0.0363 -0.1884  0.3721
  698TMC3     H10377   3.584   0.613  15.832 -0.3014 -0.3652  0.1638
  698TMC3    H110378   3.399   0.432  15.491 -0.7192  1.0104 -0.7846
  698TMC3    H210379   3.541   0.835  15.479 -2.6445  0.9082  1.2981
  698TMC3    C710380   3.415   0.640  15.342 -0.2103  0.7902  0.3003
  698TMC3    C810381   3.666   0.826  15.728  0.2574 -0.0248 -0.8666
  698TMC3    O110382   3.316   0.569  15.324  0.2885 -0.4905 -0.1635
  698TMC3    O210383   3.695   0.802  15.844 -0.7498 -0.0253 -0.1957
  699TMC3    C110384   3.107   3.529  13.024 -0.6865  0.9472 -0.3784
  699TMC3    C210385   3.169   3.434  13.098 -0.8374 -1.2184  0.1238
  699TMC3    C310386   3.102   3.318  13.109  0.4019 -0.0836 -0.0073
  699TMC3    C410387   2.983   3.513  12.971 -0.2595  0.7631  0.2339
  699TMC3    C510388   2.927   3.393  12.977 -0.6497  0.0482 -0.9183
  699TMC3    C610389   2.979   3.291  13.048  0.4180  0.9702 -0.2100
  699TMC3     C10390   3.184   3.654  13.002 -0.1763  0.3503 -0.1525
  699TMC3     O10391   3.122   3.755  12.975 -0.8737 -0.3001  0.1174
  699TMC3     H10392   3.256   3.465  13.156 -1.7908  2.1158 -0.2296
  699TMC3    H110393   2.937   3.599  12.922 -0.1742 -0.2707 -1.6388
  699TMC3    H210394   2.925   3.199  13.067  2.4592 -0.0338  0.8850
  699TMC3    C710395   2.795   3.386  12.920 -0.5136  0.1059  0.4870
  699TMC3    C810396   3.134   3.236  13.220  0.0997  0.5414  0.1949
  699TMC3    O110397   2.734   3.487  12.897 -0.0234  0.1678  0.1612
  699TMC3    O210398   3.048   3.165  13.267 -0.5832  0.0602 -0.9009
  700TMC3    C110399   2.168   0.835  17.563  0.0592  0.2677  0.2718
  700TMC3    C210400   2.249   0.748  17.493  0.1501 -0.2432 -0.1462
  700TMC3    C310401   2.364   0.700  17.547  0.7270  0.1663  0.3852
  700TMC3    C410402   2.217   0.888  17.682  0.4554 -0.8517  0.6539
  700TMC3    C510403   2.347   0.855  17.726 -0.1676 -0.1393  0.3628
  700TMC3    C610404   2.414   0.756  17.665  0.5268  0.5004 -0.2075
  700TMC3     C10405   2.111   0.940  17.481 -0.5294  0.5905  0.1110
  700TMC3     O10406   1.989   0.941  17.472 -0.5534  0.2436  0.3116
  700TMC3     H10407   2.224   0.712  17.394 -0.8944 -1.6730  0.6401
  700TMC3    H110408   2.162   0.971  17.723  0.8177 -0.5254  0.4778
  700TMC3    H210409   2.505   0.714  17.705 -0.0464 -3.1355 -2.6392
  700TMC3    C710410   2.419   0.961   0.047  0.4825  0.2264 -0.0287
  700TMC3    C810411   2.447   0.607  17.482  0.8712  0.1281 -0.4383
  700TMC3    O110412   2.542   0.952   0.053 -0.2860  0.4593 -0.3243
  700TMC3    O210413   2.568   0.635  17.462  0.0884  0.2662 -0.3452
  701TMC3    C110414   2.390   4.293  15.647  0.5226  0.3495 -0.3048
  701TMC3    C210415   2.406   4.241  15.517 -0.3913  0.0441  0.4389
  701TMC3    C310416   2.514   4.287  15.447  0.3337  0.7144  0.8000
  701TMC3    C410417   2.476   4.383  15.704 -0.1949 -0.4770 -0.1196
  701TMC3    C510418   2.580   4.428  15.628 -0.4351 -0.6492  1.0385
  701TMC3    C610419   2.598   4.379  15.502  0.0118  0.0462 -0.4812
  701TMC3     C10420   2.265   4.284  15.722 -0.5891 -0.0372 -0.0691
  701TMC3     O10421   2.218   4.390  15.763 -0.4400 -0.1249 -0.5995
  701TMC3     H10422   2.331   4.170  15.485 -0.0857 -0.5614  1.0558
  701TMC3    H110423   2.446   4.429  15.798 -0.8976  1.0557 -1.0954
  701TMC3    H210424   2.679   4.414  15.438 -0.4659 -0.9321 -1.6226
  701TMC3    C710425   2.666   4.534  15.671  0.2322 -0.0637 -0.8231
  701TMC3    C810426   2.525   4.270  15.306  0.1430  0.4002 -0.6826
  701TMC3    O110427   2.726   4.596  15.584  0.0412  0.3730 -0.2757
  701TMC3    O210428   2.625   4.304  15.244 -0.1692 -0.4093 -0.4106
  702MPD2     C10429   2.061   2.018  10.365 -0.5983  0.4209 -0.2606
  702MPD2    C110430   1.968   2.034  10.471  0.6487 -0.3381 -0.4165
  702MPD2    C210431   1.903   2.153  10.497 -0.1753 -0.6317  0.0343
  702MPD2    C310432   1.940   2.263  10.417 -0.1062 -0.7227 -0.2737
  702MPD2    C410433   2.016   2.246  10.297 -0.1130 -0.3209  0.4768
  702MPD2    C510434   2.069   2.121  10.275  0.5710 -0.5335  0.3107
  702MPD2     H10435   1.853   2.182  10.588  2.8803 -2.1870  2.2170
  702MPD2    H110436   2.060   2.319  10.230  0.1924 -0.1651  0.8536
  702MPD2    H210437   2.108   1.923  10.341 -1.6084 -0.3668  0.8516
  702MPD2    H310438   2.137   2.101  10.193 -1.2005 -1.1756 -1.0284
  702MPD2     N10439   1.902   2.395  10.454  0.4425 -0.5934 -0.0441
  702MPD2    H510440   1.841   2.405  10.534  0.0668 -1.1299 -0.2624
  702MPD2    N110441   1.959   1.941  10.577  0.0935  0.2250 -0.2271
  702MPD2    H710442   1.911   1.977  10.660 -0.8685 -3.1555  0.6602
  703TMC3    C110443   1.920   2.623  10.483 -0.7788 -0.0414 -0.2480
  703TMC3    C210444   1.824   2.586  10.579 -0.3911 -1.0998  0.5864
  703TMC3    C310445   1.858   2.606  10.710 -0.2924  0.1769  0.8324
  703TMC3    C410446   2.019   2.711  10.513  0.4118 -0.4852 -0.1542
  703TMC3    C510447   2.041   2.738  10.646  0.3754 -0.8272 -0.2516
  703TMC3    C610448   1.969   2.684  10.745 -0.7430 -0.0549  0.2874
  703TMC3     C10449   1.959   2.515  10.402  0.4489 -0.0977  0.1404
  703TMC3     O10450   2.027   2.535  10.302 -0.5893 -0.2293 -0.2396
  703TMC3     H10451   1.737   2.532  10.543  1.0220 -2.8483 -0.2656
  703TMC3    H110452   2.093   2.735  10.438  1.7802 -3.3687  0.2773
  703TMC3    H210453   2.001   2.697  10.848  1.4381  1.7154 -0.6334
  703TMC3    C710454   2.178   2.781  10.671 -0.5351 -0.1663 -0.3361
  703TMC3    C810455   1.841   2.493  10.791  0.4155  0.1783  0.7009
  703TMC3    O110456   2.225   2.746  10.778 -0.1229  0.0595 -0.6209
  703TMC3    O210457   1.812   2.392  10.731  0.6804  0.0584  0.4829
  704TMC3    C110458   4.570   0.269  12.509  0.0477  0.2509 -0.2817
  704TMC3    C210459   4.644   0.246  12.396 -0.1648  0.2842 -0.3551
  704TMC3    C310460   0.013   0.159  12.391 -0.8298 -0.1233 -0.3178
  704TMC3    C410461   4.599   0.197  12.618 -0.0158  0.6124  0.7892
  704TMC3    C510462   4.702   0.101  12.613 -0.4839 -0.7373  0.3174
  704TMC3    C610463   0.044   0.082  12.504  0.4537  0.2855  0.3425
  704TMC3     C10464   4.437   0.331  12.502  0.2362  0.0450 -0.7717
  704TMC3     O10465   4.356   0.288  12.580  0.3788  0.9354  0.2317
  704TMC3     H10466   4.628   0.304  12.305  1.4646  0.9113 -0.2393
  704TMC3    H110467   4.537   0.210  12.706  0.5135  1.7217  1.0000
  704TMC3    H210468   0.120   0.005  12.502  2.5369  2.2512  2.7377
  704TMC3    C710469   4.698   0.004  12.723  0.5479 -0.4709  0.4500
  704TMC3    C810470   0.040   0.098  12.257  0.1534 -0.4709 -0.1152
  704TMC3    O110471   4.600   4.673  12.738 -0.3904 -0.8234  0.1311
  704TMC3    O210472   4.683   0.106  12.183 -0.0386  0.1297  0.3217
  705MPD2     C10473   3.732   3.168  16.911  0.0289 -0.5643 -0.2001
  705MPD2    C110474   3.696   3.205  16.787 -0.2656 -0.1407 -0.3377
  705MPD2    C210475   3.588   3.291  16.776 -0.9674  0.5170 -0.5694
  705MPD2    C310476   3.512   3.323  16.886 -0.6178  0.9124 -0.5065
  705MPD2    C410477   3.546   3.289  17.010  0.7773 -0.2735 -0.3695
  705MPD2    C510478   3.657   3.209  17.018 -0.1715 -0.0128  0.2632
  705MPD2     H10479   3.579   3.340  16.680 -2.4242  1.2657 -0.0615
  705MPD2    H110480   3.488   3.309  17.099  2.0314 -1.1196  0.6283
  705MPD2    H210481   3.819   3.106  16.927 -0.4315 -1.5136 -1.4284
  705MPD2    H310482   3.704   3.186  17.112 -0.4255 -0.3399  0.3098
  705MPD2     N10483   3.385   3.392  16.866  0.0041 -0.3642  0.1397
  705MPD2    H510484   3.335   3.416  16.950 -0.6631 -2.3079  0.3014
  705MPD2    N110485   3.759   3.166  16.671 -0.2514  0.7120 -0.6480
  705MPD2    H710486   3.733   3.209  16.582 -2.1321  1.2058  0.1508
  706TMC3    C110487   3.929   2.952  16.329  0.2091 -0.5386  0.3877
  706TMC3    C210488   3.920   3.060  16.247  0.3259  0.7884  0.7432
  706TMC3    C310489   3.915   3.176  16.317 -0.0991  0.3670 -0.2815
  706TMC3    C410490   3.911   2.945  16.464  0.2566 -1.1517  0.1769
  706TMC3    C510491   3.884   3.065  16.525 -0.1082 -0.5645 -0.5518
  706TMC3    C610492   3.896   3.187  16.457 -0.0733  0.3934 -0.1619
  706TMC3     C10493   3.958   2.824  16.265  0.0941 -0.6902 -0.0746
  706TMC3     O10494   4.040   2.746  16.312 -0.2087 -0.5160  0.0132
  706TMC3     H10495   3.950   3.055  16.143  0.9254 -0.4001  0.9754
  706TMC3    H110496   3.930   2.853  16.518  1.9228  0.3650  2.1641
  706TMC3    H210497   3.895   3.280  16.513  0.0702 -0.0493  0.5822
  706TMC3    C710498   3.843   3.065  16.659 -0.2590 -0.1223 -0.7817
  706TMC3    C810499   3.901   3.295  16.229  0.0801 -0.4494  0.7344
  706TMC3    O110500   3.885   2.976  16.733 -0.7013  0.3093 -0.7093
  706TMC3    O210501   3.858   3.271  16.120  0.4931  0.3977 -0.2596
  707TMC3    C110502   0.539   1.717   1.211 -0.1008 -0.2245 -0.3894
  707TMC3    C210503   0.599   1.623   1.297  0.3619 -0.4770 -0.5255
  707TMC3    C310504   0.522   1.522   1.353 -0.1273 -0.6260 -0.0934
  707TMC3    C410505   0.406   1.711   1.190 -1.2797  0.1092 -0.1230
  707TMC3    C510506   0.334   1.601   1.232 -0.0082 -0.7917  0.1230
  707TMC3    C610507   0.391   1.508   1.320 -0.8048  0.4831  0.2422
  707TMC3     C10508   0.624   1.802   1.134 -0.0192  0.8036 -0.0658
  707TMC3     O10509   0.743   1.776   1.138  0.0568  0.1171 -0.3283
  707TMC3     H10510   0.706   1.611   1.303  0.1125 -1.3883  2.0211
  707TMC3    H110511   0.368   1.780   1.115 -1.4556 -2.8230 -2.7482
  707TMC3    H210512   0.335   1.419   1.345 -0.1653  0.1254  0.4087
  707TMC3    C710513   0.191   1.602   1.243 -0.1884 -0.3713  0.6198
  707TMC3    C810514   0.592   1.426   1.427 -0.6322  0.3431 -0.0685
  707TMC3    O110515   0.133   1.499   1.273 -0.5034 -0.0110  0.4290
  707TMC3    O210516   0.711   1.399   1.420 -0.2366 -0.0222 -0.9054
  708MPD2     C10517   1.934   1.089  14.393 -0.2098  0.1543  0.3066
  708MPD2    C110518   2.008   1.199  14.429  0.3493 -0.1819 -0.3947
  708MPD2    C210519   2.035   1.221  14.567 -0.3138 -0.1903  0.6249
  708MPD2    C310520   2.008   1.125  14.664  0.1852  0.9133  0.5006
  708MPD2    C410521   1.949   1.015  14.618 -0.1909 -0.1036  0.1487
  708MPD2    C510522   1.917   0.993  14.484 -0.1763 -0.7575 -0.2120
  708MPD2     H10523   2.086   1.311  14.600 -1.2240  0.2034  0.9690
  708MPD2    H110524   1.911   0.950  14.696 -0.6393 -0.5649 -0.4569
  708MPD2    H210525   1.888   1.079  14.295 -2.1487  3.5479  0.8837
  708MPD2    H310526   1.841   0.918  14.461 -0.6923 -0.4297  0.4112
  708MPD2     N10527   2.019   1.148  14.805  0.0330  0.8170  0.5715
  708MPD2    H510528   1.970   1.080  14.862 -1.7944 -0.9062 -2.9792
  708MPD2    N110529   2.022   1.303  14.333  0.1243 -0.0907  0.6069
  708MPD2    H710530   1.967   1.293  14.249  0.0485  0.8762  0.5503
  709TMC3    C110531   2.045   1.527  14.280  1.0154 -0.0702 -0.0250
  709TMC3    C210532   1.970   1.489  14.180  0.4311 -0.3353  0.0989
  709TMC3    C310533   1.842   1.529  14.183 -0.6133  0.2812 -0.1258
  709TMC3    C410534   2.007   1.621  14.368 -0.3767 -0.1611  0.4001
  709TMC3    C510535   1.877   1.658  14.373  0.7770  0.3841 -0.2215
  709TMC3    C610536   1.792   1.610  14.283  0.0168  0.1238  0.0398
  709TMC3     C10537   2.097   1.421  14.359  0.0372  0.6859  0.2118
  709TMC3     O10538   2.185   1.448  14.442  0.5255  0.5002 -0.6799
  709TMC3     H10539   1.999   1.409  14.112 -1.8133 -0.7117 -0.4338
  709TMC3    H110540   2.073   1.651  14.449 -0.2716  1.5781 -0.3267
  709TMC3    H210541   1.692   1.649  14.271  0.0076  0.5206  1.4119
  709TMC3    C710542   1.827   1.663  14.507 -0.0128  0.0105 -0.0564
  709TMC3    C810543   1.744   1.454  14.106 -0.2927 -0.6116  0.4238
  709TMC3    O110544   1.911   1.683  14.594 -0.1701 -0.4728 -0.6767
  709TMC3    O210545   1.636   1.436  14.159 -0.0039  0.1682 -0.4952
  710TMC3    C110546   2.831   3.072   0.198  0.2610  0.1175 -0.2307
  710TMC3    C210547   2.891   3.059   0.076 -0.4936  0.3818  0.3367
  710TMC3    C310548   2.937   2.937   0.038  0.2538 -0.1608 -0.3346
  710TMC3    C410549   2.811   2.972   0.284  0.1808  0.4675  0.6971
  710TMC3    C510550   2.854   2.847   0.240  0.3113 -0.3910 -0.4196
  710TMC3    C610551   2.922   2.829   0.119  0.7877  0.6507  0.8328
  710TMC3     C10552   2.780   3.207   0.224 -0.1831  0.3545 -0.6191
  710TMC3     O10553   2.797   3.294   0.138  0.2798  0.3806 -0.1580
  710TMC3     H10554   2.902   3.145   0.011 -0.1294  0.1959  0.1557
  710TMC3    H110555   2.769   2.988   0.382 -0.0574 -0.7166  0.7902
  710TMC3    H210556   2.936   2.726   0.088 -3.5339 -0.0338  1.1045
  710TMC3    C710557   2.862   2.742   0.339  0.7877  0.2245 -0.3917
  710TMC3    C810558   3.020   2.924  17.662 -0.8811 -0.0179  1.1591
  710TMC3    O110559   2.834   2.767   0.456  0.5247  0.2976  0.3611
  710TMC3    O210560   3.095   2.828  17.663 -0.0230 -0.0576 -0.4399
  711TMC3    C110561   2.658   3.956  14.940  0.3299  0.3827  0.2426
  711TMC3    C210562   2.640   3.939  15.075 -0.7313 -0.0147  0.0057
  711TMC3    C310563   2.729   3.992  15.160 -0.2629 -0.6102 -0.3496
  711TMC3    C410564   2.763   4.035  14.897 -0.3120  0.4209 -0.3144
  711TMC3    C510565   2.854   4.088  14.985  0.6130 -1.1028  0.0722
  711TMC3    C610566   2.825   4.078  15.122 -0.4318  0.4134  0.4987
  711TMC3     C10567   2.645   3.837  14.860  0.5713  0.3645 -0.9947
  711TMC3     O10568   2.617   3.854  14.739  0.0327 -0.1184  0.2622
  711TMC3     H10569   2.549   3.889  15.107 -0.5053  0.3946  1.2939
  711TMC3    H110570   2.769   4.058  14.791 -2.7163  2.8992  0.0596
  711TMC3    H210571   2.887   4.132  15.193  2.1892 -0.6367 -0.9891
  711TMC3    C710572   2.990   4.047  14.969  1.0076  0.4521 -0.3523
  711TMC3    C810573   2.758   3.901  15.274  0.6064  0.0367  0.4792
  711TMC3    O110574   3.055   4.032  15.073 -0.2297  0.4084  0.0145
  711TMC3    O210575   2.678   3.809  15.293 -0.0263 -0.1473 -0.0510
  712MPD2     C10576   4.713   0.075  13.701  0.1521 -0.8455 -0.1141
  712MPD2    C110577   4.580   0.060  13.729  0.2691 -0.6631  0.0584
  712MPD2    C210578   4.515   0.137  13.823 -0.0841 -0.1729 -0.2700
  712MPD2    C310579   4.597   0.223  13.895  0.3845 -0.8509 -0.4180
  712MPD2    C410580   4.734   0.227  13.876  0.4016  0.3495  0.4070
  712MPD2    C510581   0.053   0.159  13.775 -0.1719 -0.4355  0.0431
  712MPD2     H10582   4.407   0.133  13.833  0.0637 -0.9197  1.0114
  712MPD2    H110583   0.056   0.287  13.943 -0.2020  1.4638 -0.0580
  712MPD2    H210584   0.020   0.011  13.626 -3.4108 -0.2785 -2.7016
  712MPD2    H310585   0.158   0.163  13.750 -0.5669  1.5862 -1.2749
  712MPD2     N10586   4.542   0.297  14.001  0.3566 -0.5698  0.1956
  712MPD2    H510587   4.609   0.345  14.060 -0.9715  0.4948  0.8185
  712MPD2    N110588   4.512   4.696  13.661 -0.3545  0.9978  0.7618
  712MPD2    H710589   4.574   4.656  13.591  0.0711  0.6253  1.3477
  713TMC3    C110590   4.392   0.348  14.156 -0.5388  0.0339  0.1908
  713TMC3    C210591   4.469   0.284  14.241  0.2126 -0.2187 -0.4973
  713TMC3    C310592   4.521   0.359  14.339  0.1520 -0.4977  0.2483
  713TMC3    C410593   4.337   0.475  14.178  0.2002 -0.0102  0.1010
  713TMC3    C510594   4.389   0.542  14.290  0.7328 -0.1865  0.3346
  713TMC3    C610595   4.494   0.488  14.360 -0.4484 -0.2248  0.5969
  713TMC3     C10596   4.410   0.318  14.022  0.3157 -0.6602  0.0410
  713TMC3     O10597   4.304   0.306  13.956 -0.4145  0.1582 -0.2096
  713TMC3     H10598   4.503   0.186  14.209 -0.6884  0.1999 -2.7310
  713TMC3    H110599   4.274   0.513  14.098 -0.4459  0.6553  0.9249
  713TMC3    H210600   4.544   0.552  14.432  0.1845 -0.5977  0.4841
  713TMC3    C710601   4.389   0.689  14.283  0.4186 -0.1279 -0.5776
  713TMC3    C810602   4.638   0.305  14.415 -0.3610  0.0132  0.1022
  713TMC3    O110603   4.492   0.737  14.331 -0.1670  0.0700 -0.5013
  713TMC3    O210604   4.703   0.378  14.481  0.3529  0.0189 -0.1111
  714MPD2     C10605   1.602   4.073   1.781 -0.5430 -0.2243  0.0971
  714MPD2    C110606   1.624   3.984   1.675 -0.2814  0.1838  0.1364
  714MPD2    C210607   1.512   3.935   1.605  0.3550  1.0364  0.5249
  714MPD2    C310608   1.390   3.975   1.644 -0.3705  0.2097 -0.5927
  714MPD2    C410609   1.366   4.061   1.748  0.5397 -0.0363 -0.0889
  714MPD2    C510610   1.474   4.109   1.813 -0.7674  1.0113 -0.2966
  714MPD2     H10611   1.526   3.875   1.516 -1.1847  1.7616 -0.2157
  714MPD2    H110612   1.267   4.090   1.783 -0.3478 -0.9140 -1.8678
  714MPD2    H210613   1.680   4.115   1.843  1.0330  0.2038 -2.1622
  714MPD2    H310614   1.453   4.185   1.886  3.1430  2.2104 -0.4656
  714MPD2     N10615   1.276   3.928   1.579  0.3167 -0.2800 -0.3770
  714MPD2    H510616   1.187   3.944   1.626  0.7452 -0.3726  0.4586
  714MPD2    N110617   1.758   3.961   1.641  0.6963  0.2722  0.0652
  714MPD2    H710618   1.821   4.030   1.680 -1.0539  0.7841  2.0443
  715TMC3    C110619   1.944   3.868   1.523 -0.4518  0.3758  0.3811
  715TMC3    C210620   1.999   3.763   1.451  0.2513  0.2044 -0.1581
  715TMC3    C310621   2.135   3.761   1.438 -0.1408 -1.0081 -0.1716
  715TMC3    C410622   2.016   3.969   1.573 -0.8704  0.7890  0.2284
  715TMC3    C510623   2.152   3.965   1.543 -0.4314  0.6464 -0.2562
  715TMC3    C610624   2.214   3.866   1.466 -0.1266  0.6253 -0.2500
  715TMC3     C10625   1.801   3.868   1.544 -0.5417 -0.2263 -0.5625
  715TMC3     O10626   1.732   3.780   1.488  0.5320 -0.3703  0.2057
  715TMC3     H10627   1.933   3.681   1.426 -1.8101  1.5700  0.8607
  715TMC3    H110628   1.975   4.054   1.627  0.7699  1.1697  0.8709
  715TMC3    H210629   2.316   3.870   1.428 -0.8518  0.5315 -2.1954
  715TMC3    C710630   2.237   4.081   1.583  0.2878  0.1393 -0.2725
  715TMC3    C810631   2.182   3.656   1.351 -0.7194 -0.1327 -0.9281
  715TMC3    O110632   2.344   4.084   1.516  0.3931  0.0926 -0.4654
  715TMC3    O210633   2.093   3.605   1.281 -0.6386 -0.0636 -0.1090
  716MPD2     C10634   2.028   1.769  10.115 -0.1953 -0.2269  0.4021
  716MPD2    C110635   1.957   1.648  10.104 -0.1558 -0.6421 -0.1561
  716MPD2    C210636   2.016   1.527  10.084 -0.7050  0.3935 -0.3820
  716MPD2    C310637   2.151   1.522  10.079 -0.2168  0.7507 -0.1379
  716MPD2    C410638   2.226   1.639  10.102 -0.1205 -0.1415 -0.4647
  716MPD2    C510639   2.167   1.762  10.131 -0.1366 -0.9022  0.3195
  716MPD2     H10640   1.964   1.432  10.073 -0.0333  0.0696 -0.6971
  716MPD2    H110641   2.335   1.635  10.105 -0.2134  0.1032  2.7332
  716MPD2    H210642   1.974   1.862  10.127 -0.4541 -0.4646  1.0414
  716MPD2    H310643   2.228   1.844  10.166 -1.0996 -0.7744  1.6912
  716MPD2     N10644   2.209   1.401  10.048  0.0613 -0.4945  0.2472
  716MPD2    H510645   2.138   1.333  10.022 -0.8854  0.0336  1.4129
  716MPD2    N110646   1.812   1.665  10.113 -0.5679 -0.3489  0.4483
  716MPD2    H710647   1.769   1.753  10.139 -0.7211 -0.6325  1.1276
  717TMC3    C110648   2.373   1.228  10.023  0.5273 -0.7524 -0.1435
  717TMC3    C210649   2.295   1.130  10.081 -0.1399 -0.2176 -0.0172
  717TMC3    C310650   2.320   1.003  10.037  0.3436 -0.3924  0.6477
  717TMC3    C410651   2.486   1.206   9.953  0.0692  0.5740 -0.3639
  717TMC3    C510652   2.509   1.079   9.915 -0.1818 -0.8157  0.8620
  717TMC3    C610653   2.427   0.973   9.954  0.3807 -1.0753  0.0344
  717TMC3     C10654   2.341   1.369  10.045  0.4813 -0.7126  0.5114
  717TMC3     O10655   2.437   1.449  10.044  0.1747  0.1254 -0.0836
  717TMC3     H10656   2.211   1.150  10.146 -0.4041 -0.0847 -0.4016
  717TMC3    H110657   2.547   1.286   9.913 -1.3859  2.4695  1.1756
  717TMC3    H210658   2.437   0.870   9.923  0.0390 -1.0310 -0.2246
  717TMC3    C710659   2.598   1.068   9.792  0.0946 -0.1651  0.2162
  717TMC3    C810660   2.239   0.892  10.088 -0.2233  0.6334 -0.2718
  717TMC3    O110661   2.614   1.167   9.722 -0.0811 -0.4564 -0.0790
  717TMC3    O210662   2.217   0.790  10.023  0.3782  0.7439 -0.2624
  718MPD2     C10663   1.017   0.894  13.051 -0.1585 -0.3727  0.0378
  718MPD2    C110664   1.010   0.784  12.962 -0.2998  0.1272 -0.2512
  718MPD2    C210665   1.096   0.671  12.981  0.1149 -0.5155  0.4473
  718MPD2    C310666   1.182   0.665  13.085 -0.2444  0.4118  0.5061
  718MPD2    C410667   1.183   0.771  13.176  0.3919  0.5641 -0.4888
  718MPD2    C510668   1.103   0.882  13.159 -1.0714 -0.0221 -0.0267
  718MPD2     H10669   1.089   0.585  12.915  1.4283 -2.1076  2.3765
  718MPD2    H110670   1.246   0.773  13.264  0.6403  0.9686 -0.6795
  718MPD2    H210671   0.942   0.971  13.042 -0.4061 -0.9196 -2.5976
  718MPD2    H310672   1.108   0.962  13.233 -0.4132 -0.1943  0.1082
  718MPD2     N10673   1.260   0.549  13.098  0.1813  0.2971 -0.5881
  718MPD2    H510674   1.255   0.479  13.024  0.2313 -0.8554  0.4981
  718MPD2    N110675   0.940   0.804  12.844  0.4190 -0.2766 -0.5437
  718MPD2    H710676   0.900   0.896  12.832  1.2381 -0.0306 -1.3985
  719TMC3    C110677   0.860   0.751  12.639 -0.3469 -0.1957 -0.4437
  719TMC3    C210678   0.838   0.639  12.558  0.1875 -1.0583  0.1613
  719TMC3    C310679   0.909   0.625  12.441  0.1781  0.5884  0.0102
  719TMC3    C410680   0.950   0.845  12.590  0.1107  0.2868  0.6878
  719TMC3    C510681   1.017   0.829  12.474  0.0113  0.1046  0.0996
  719TMC3    C610682   1.002   0.717  12.396 -0.1852  0.4560  0.4238
  719TMC3     C10683   0.904   0.702  12.764 -0.1875  0.2765  0.2594
  719TMC3     O10684   0.926   0.579  12.756  0.0778  0.4360  0.2480
  719TMC3     H10685   0.788   0.554  12.602 -0.5032 -0.2430  0.9506
  719TMC3    H110686   0.977   0.930  12.653 -4.4026  2.6732 -0.6132
  719TMC3    H210687   1.073   0.683  12.322 -2.3511  0.5824 -1.7075
  719TMC3    C710688   1.163   0.857  12.486 -0.1281 -0.0969 -0.7052
  719TMC3    C810689   0.949   0.484  12.410 -0.0471 -0.2566 -0.4272
  719TMC3    O110690   1.228   0.873  12.383  0.4217 -0.0406 -0.4612
  719TMC3    O210691   0.990   0.460  12.298 -0.3400  0.1745  0.0715
  720MPD2     C10692   4.305   1.926  14.186 -0.1238 -0.0808 -0.5985
  720MPD2    C110693   4.411   1.973  14.107  0.7624 -0.2696  0.3467
  720MPD2    C210694   4.532   2.010  14.167  0.2074  0.1198  0.0456
  720MPD2    C310695   4.553   1.991  14.305 -0.5805  0.1822  0.3364
  720MPD2    C410696   4.453   1.918  14.368  0.3454 -0.1865 -0.7008
  720MPD2    C510697   4.333   1.893  14.309  0.3217  0.3651 -0.1365
  720MPD2     H10698   4.601   2.064  14.104  0.5956 -1.1503 -0.6189
  720MPD2    H110699   4.467   1.872  14.465 -1.2630  0.7739 -0.0327
  720MPD2    H210700   4.202   1.902  14.160 -0.2772  0.0911 -0.1536
  720MPD2    H310701   4.262   1.841  14.373 -0.3249  3.2229  1.4332
  720MPD2     N10702   4.673   2.024  14.370  0.5422 -0.5780 -0.7658
  720MPD2    H510703   0.004   2.077  14.318  1.2175  0.1521  0.8708
  720MPD2    N110704   4.396   1.990  13.965 -0.2902 -0.0352 -0.1729
  720MPD2    H710705   4.483   1.999  13.913  0.4548  0.2931  1.1252
  721TMC3    C110706   0.076   2.050  14.550 -0.1302  0.3674 -0.6989
  721TMC3    C210707   0.085   2.070  14.684  1.2386 -0.2008 -0.0536
  721TMC3    C310708   0.209   2.092  14.738  0.0276 -0.8870  0.5493
  721TMC3    C410709   0.183   2.047  14.466 -0.3514 -0.0754 -0.2127
  721TMC3    C510710   0.299   2.069  14.526  0.3865  0.2014  0.0287
  721TMC3    C610711   0.319   2.085  14.661 -0.2377 -0.5501  0.1701
  721TMC3     C10712   4.684   2.023  14.504 -0.3230  0.1311  0.3565
  721TMC3     O10713   4.602   1.991  14.588 -0.2758  0.0432  0.8383
  721TMC3     H10714   4.729   2.080  14.739  0.0573 -3.2803 -1.4899
  721TMC3    H110715   0.172   2.025  14.361  0.1470  0.1444 -0.3102
  721TMC3    H210716   0.421   2.099  14.696 -0.0325 -0.0937 -0.5931
  721TMC3    C710717   0.418   2.045  14.440  0.3241 -0.5085 -0.1464
  721TMC3    C810718   0.230   2.175  14.859  0.8166  0.1574  0.5992
  721TMC3    O110719   0.423   2.104  14.333 -0.0147  0.6219  0.7715
  721TMC3    O210720   0.325   2.246  14.858  0.2053 -0.2700  0.1110
  722MPD2     C10721   3.502   0.861  13.504 -0.9776  0.6664 -0.3246
  722MPD2    C110722   3.433   0.942  13.591  0.9382 -0.7893 -0.1627
  722MPD2    C210723   3.293   0.930  13.594 -0.4836 -0.8170  0.2053
  722MPD2    C310724   3.231   0.836  13.516 -0.4852 -0.7728 -0.6163
  722MPD2    C410725   3.302   0.773  13.411 -0.0695 -0.4132  0.4250
  722MPD2    C510726   3.434   0.798  13.408  0.2100  0.8225 -0.0509
  722MPD2     H10727   3.247   0.978  13.679 -1.4032 -2.0232  0.3768
  722MPD2    H110728   3.255   0.722  13.328 -0.4939 -1.5309  1.3526
  722MPD2    H210729   3.608   0.878  13.494 -1.1879  1.8791 -0.4242
  722MPD2    H310730   3.492   0.749  13.332  0.6682  0.7435  0.3490
  722MPD2     N10731   3.104   0.813  13.543  0.4628 -0.7072  0.3912
  722MPD2    H510732   3.058   0.860  13.620  1.7209 -1.8664  1.8609
  722MPD2    N110733   3.491   1.025  13.689 -0.2878 -0.0013 -0.3351
  722MPD2    H710734   3.422   1.077  13.742 -1.2869 -0.3017 -1.3547
  723TMC3    C110735   2.893   0.713  13.536 -0.3489  0.1860 -0.0813
  723TMC3    C210736   2.806   0.623  13.470 -0.5042 -0.2052  0.8657
  723TMC3    C310737   2.668   0.620  13.509  0.4284  0.3953  0.2949
  723TMC3    C410738   2.859   0.791  13.641 -0.2941 -0.4310 -0.6235
  723TMC3    C510739   2.722   0.802  13.658 -0.6458  0.4138  0.1111
  723TMC3    C610740   2.629   0.712  13.605 -0.3431  0.4503  0.2104
  723TMC3     C10741   3.024   0.721  13.478 -0.5131  0.4485 -0.2850
  723TMC3     O10742   3.033   0.640  13.387 -0.3069 -0.8771  0.0709
  723TMC3     H10743   2.832   0.560  13.385 -0.1931 -0.6364  1.2867
  723TMC3    H110744   2.924   0.852  13.703  1.6703 -0.3778 -2.7450
  723TMC3    H210745   2.525   0.724  13.634 -0.8848 -0.7838 -1.1928
  723TMC3    C710746   2.669   0.893  13.753 -0.1286 -0.0586  0.0621
  723TMC3    C810747   2.564   0.603  13.412  0.4271 -0.1562 -0.1408
  723TMC3    O110748   2.558   0.876  13.801 -0.1167  0.2259  0.0632
  723TMC3    O210749   2.460   0.669  13.415 -0.2986 -0.1467 -0.7014
  724TMC3    C110750   3.519   3.177  10.633  0.2227  0.5213 -0.5475
  724TMC3    C210751   3.428   3.256  10.569 -0.4776 -0.0885 -0.2043
  724TMC3    C310752   3.446   3.388  10.570 -0.2692 -0.3122 -0.3061
  724TMC3    C410753   3.632   3.225  10.699  0.4810 -0.7960 -0.2055
  724TMC3    C510754   3.645   3.367  10.692  0.6794  0.0332 -0.1679
  724TMC3    C610755   3.548   3.446  10.632 -0.6896 -0.2482  0.5809
  724TMC3     C10756   3.497   3.039  10.661 -0.2981 -0.4448  0.6084
  724TMC3     O10757   3.579   2.984  10.735  0.5259 -0.5254  0.1440
  724TMC3     H10758   3.357   3.216  10.498  0.7892 -1.9099 -0.4299
  724TMC3    H110759   3.692   3.163  10.764 -1.5442  0.6378  3.0634
  724TMC3    H210760   3.561   3.552  10.654  1.4668  0.0307 -2.0095
  724TMC3    C710761   3.778   3.418  10.702  0.5590  0.2995 -0.5642
  724TMC3    C810762   3.370   3.464  10.474 -0.4377  0.5405 -0.2118
  724TMC3    O110763   3.780   3.526  10.646 -0.3244 -0.5776  0.1688
  724TMC3    O210764   3.249   3.439  10.451 -0.2431  0.7126  0.2580
  725TMC3    C110765   0.816   2.250  12.807 -0.1427  0.3405 -0.7735
  725TMC3    C210766   0.776   2.250  12.678 -0.2034 -0.2552 -0.7872
  725TMC3    C310767   0.802   2.139  12.596  0.0352  0.9516 -0.5661
  725TMC3    C410768   0.880   2.144  12.856 -0.2576 -0.2102  0.4216
  725TMC3    C510769   0.911   2.036  12.775 -0.0044 -0.4874  0.1182
  725TMC3    C610770   0.876   2.032  12.644  0.0697 -0.1297  0.7418
  725TMC3     C10771   0.778   2.352  12.912 -0.1774  0.5409 -0.2311
  725TMC3     O10772   0.857   2.360  13.008  0.7644  0.3582 -0.3335
  725TMC3     H10773   0.722   2.333  12.635  0.7049 -0.1172 -1.6497
  725TMC3    H110774   0.889   2.139  12.964  2.1563 -0.7707  0.1875
  725TMC3    H210775   0.895   1.946  12.581 -1.5941  0.1232 -0.1092
  725TMC3    C710776   0.981   1.913  12.816 -0.3337  0.2715  0.8112
  725TMC3    C810777   0.734   2.116  12.468  0.4086  0.3315  0.1666
  725TMC3    O110778   1.013   1.827  12.736  0.2951  0.6632 -0.0234
  725TMC3    O210779   0.752   2.007  12.421  0.1774  0.0195 -0.4936
  726MPD2     C10780   3.175   4.183  10.873  0.4888 -0.3840 -0.5177
  726MPD2    C110781   3.122   4.264  10.773  1.0384 -0.2386  0.3448
  726MPD2    C210782   2.993   4.245  10.728  0.3584 -0.5846 -0.3086
  726MPD2    C310783   2.917   4.140  10.777  0.5494 -0.1258  0.6512
  726MPD2    C410784   2.960   4.077  10.894  0.6777  0.3700  0.7036
  726MPD2    C510785   3.089   4.099  10.935  0.6018 -0.1971 -1.0994
  726MPD2     H10786   2.962   4.290  10.635 -1.3908 -1.6839 -0.2700
  726MPD2    H110787   2.900   4.007  10.950 -2.6153  0.4542 -2.7175
  726MPD2    H210788   3.274   4.194  10.916  0.2189 -0.0355  0.0077
  726MPD2    H310789   3.120   4.026  11.010 -0.8757  0.4962  0.1874
  726MPD2     N10790   2.787   4.099  10.744 -0.5692  0.3559 -0.0735
  726MPD2    H510791   2.752   4.024  10.804  0.1975 -2.0952 -2.7324
  726MPD2    N110792   3.200   4.364  10.708 -0.4539  0.1976 -0.8934
  726MPD2    H710793   3.154   4.425  10.641  0.7658  0.4131 -1.5407
  727TMC3    C110794   3.406   4.479  10.632  0.4018 -0.7223 -0.0595
  727TMC3    C210795   3.542   4.478  10.639  0.3850  0.0395  0.1719
  727TMC3    C310796   3.613   4.577  10.582  0.0345 -0.4258  0.4053
  727TMC3    C410797   3.336   4.581  10.567 -0.5512 -0.2311 -0.5067
  727TMC3    C510798   3.410   4.687  10.533  0.2464  0.8577 -0.3567
  727TMC3    C610799   3.548   4.685  10.535 -0.8133  0.2590 -0.1772
  727TMC3     C10800   3.338   4.382  10.722 -0.0371 -0.4926  0.4667
  727TMC3     O10801   3.418   4.337  10.807  0.2188  0.6896 -0.3492
  727TMC3     H10802   3.590   4.400  10.696  0.1828  0.7552  1.3378
  727TMC3    H110803   3.231   4.598  10.587  0.1581  1.4783  1.8294
  727TMC3    H210804   3.603   0.037  10.507 -1.0040  0.1252 -0.9690
  727TMC3    C710805   3.350   0.075  10.506 -0.0871  0.3208 -0.2587
  727TMC3    C810806   3.758   4.575  10.587  0.4249 -0.2706  0.1712
  727TMC3    O110807   3.422   0.172  10.498 -0.1931  0.9352  0.4100
  727TMC3    O210808   3.797   4.476  10.649 -0.4330  0.1182 -0.0324
  728TMC3    C110809   2.258   2.697  15.449 -0.0916  0.7356 -0.0292
  728TMC3    C210810   2.350   2.790  15.419 -0.8453  0.0938  0.5053
  728TMC3    C310811   2.343   2.846  15.300  0.0104 -0.0101  0.0531
  728TMC3    C410812   2.164   2.657  15.356  0.3128  0.1370  0.5296
  728TMC3    C510813   2.161   2.718  15.235 -0.1595 -0.3203 -0.1576
  728TMC3    C610814   2.247   2.821  15.206 -0.1295 -0.0769 -0.0161
  728TMC3     C10815   2.256   2.641  15.583 -0.1538  0.5581 -0.7775
  728TMC3     O10816   2.363   2.655  15.646  0.9996  0.3583 -0.2953
  728TMC3     H10817   2.420   2.824  15.495 -0.3265  4.2503 -1.7876
  728TMC3    H110818   2.099   2.572  15.375  0.2433  0.2137  0.6334
  728TMC3    H210819   2.248   2.874  15.112  1.1716 -1.5353 -0.8202
  728TMC3    C710820   2.039   2.699  15.152 -0.1725 -0.4388  0.1365
  728TMC3    C810821   2.464   2.922  15.260  0.7764  0.0176  0.1592
  728TMC3    O110822   1.928   2.672  15.202  0.2380  0.2925 -0.5474
  728TMC3    O210823   2.452   3.007  15.179 -0.1149 -0.1235 -0.4769
  729MPD2     C10824   4.037   3.906  16.538 -0.0953  0.4623 -0.1312
  729MPD2    C110825   4.145   3.901  16.624  0.4231  1.1434 -0.2067
  729MPD2    C210826   4.119   3.914  16.760 -0.0193  0.0184 -0.1439
  729MPD2    C310827   3.988   3.938  16.798 -0.3062  0.4513 -0.3040
  729MPD2    C410828   3.881   3.943  16.712 -0.1496  0.5512 -0.0958
  729MPD2    C510829   3.912   3.919  16.576 -0.4251 -0.2935  0.2569
  729MPD2     H10830   4.192   3.930  16.837  1.3838  3.9526 -2.3057
  729MPD2    H110831   3.777   3.959  16.741 -0.2393  1.4347 -0.9203
  729MPD2    H210832   4.049   3.897  16.431  0.2438  1.5163 -0.1834
  729MPD2    H310833   3.826   3.907  16.511  1.0114 -0.8620 -1.5506
  729MPD2     N10834   3.986   3.963  16.936 -0.2083 -0.1976 -0.1792
  729MPD2    H510835   4.067   3.945  16.994  2.3424  0.5317 -3.5528
  729MPD2    N110836   4.276   3.906  16.576 -0.0500  0.7530  0.1058
  729MPD2    H710837   4.291   3.920  16.477 -0.8383  0.5695 -0.0442
  730TMC3    C110838   3.918   4.031  17.149  0.3065  0.1168 -0.3664
  730TMC3    C210839   4.011   3.938  17.197  0.0197 -0.4969 -0.6125
  730TMC3    C310840   4.070   3.967  17.312  0.3963  0.0032  0.4605
  730TMC3    C410841   3.890   4.141  17.221  0.0722 -0.7058 -0.5792
  730TMC3    C510842   3.945   4.160  17.346 -0.3581  0.1358 -0.7535
  730TMC3    C610843   4.032   4.069  17.399 -0.5057 -0.8508  0.3132
  730TMC3     C10844   3.891   4.035  17.001 -0.4366 -0.3207 -0.2205
  730TMC3     O10845   3.787   4.089  16.963 -0.2625  0.0274 -0.0102
  730TMC3     H10846   4.031   3.846  17.145  2.1553  0.1046 -0.8646
  730TMC3    H110847   3.826   4.217  17.178 -1.8280 -1.8239  0.2477
  730TMC3    H210848   4.069   4.066  17.501  2.1675  0.4980 -0.6404
  730TMC3    C710849   3.990   4.302  17.369  1.1604  0.1614  0.3392
  730TMC3    C810850   4.208   3.997  17.267 -0.8317  0.0561 -0.0085
  730TMC3    O110851   3.990   4.377  17.272 -0.0455 -0.1460  0.0023
  730TMC3    O210852   4.235   3.954  17.154  0.2660  0.0885  0.0061
  731MPD2     C10853   0.406   1.645  13.026 -0.6612  0.8082 -0.1090
  731MPD2    C110854   0.386   1.512  13.024  0.5209  0.0843  0.3731
  731MPD2    C210855   0.403   1.435  13.136  0.0422  0.7464 -0.2175
  731MPD2    C310856   0.438   1.498  13.248 -0.6642  0.6953  0.8543
  731MPD2    C410857   0.456   1.636  13.249  0.1105  0.0577  0.1480
  731MPD2    C510858   0.434   1.710  13.138 -0.2614 -0.2933  0.8193
  731MPD2     H10859   0.386   1.328  13.139 -2.0191  1.0795 -0.1527
  731MPD2    H110860   0.470   1.684  13.346 -0.7450 -2.1270  1.3530
  731MPD2    H210861   0.385   1.698  12.934 -1.9917 -1.4639 -1.1072
  731MPD2    H310862   0.434   1.818  13.142  0.0046 -0.2853  0.6044
  731MPD2     N10863   0.423   1.426  13.371 -0.3813 -0.3526  0.1762
  731MPD2    H510864   0.374   1.337  13.365 -0.3864 -0.2964 -0.6325
  731MPD2    N110865   0.338   1.465  12.908 -0.3547  0.7939 -0.1562
  731MPD2    H710866   0.328   1.532  12.833  0.1012 -2.4142 -3.0969
  732TMC3    C110867   0.300   1.298  12.743 -0.4333  0.5500 -0.3083
  732TMC3    C210868   0.191   1.350  12.679  0.6211  0.1488 -0.1316
  732TMC3    C310869   0.181   1.323  12.550  0.0681 -0.0602 -0.4026
  732TMC3    C410870   0.394   1.210  12.680 -0.4927 -0.1447  0.4192
  732TMC3    C510871   0.367   1.182  12.550 -0.3807  0.1832  0.4982
  732TMC3    C610872   0.268   1.243  12.479  0.2774  0.4228 -0.2823
  732TMC3     C10873   0.312   1.328  12.886 -0.4903  0.6771 -0.6272
  732TMC3     O10874   0.328   1.231  12.958 -0.0043  0.3730  0.3814
  732TMC3     H10875   0.127   1.413  12.740 -0.2613 -1.0564  0.1736
  732TMC3    H110876   0.467   1.168  12.748  1.7774  3.2401  0.0741
  732TMC3    H210877   0.252   1.228  12.373  1.4693  0.0045 -0.3967
  732TMC3    C710878   0.475   1.136  12.466  0.5913 -0.1662 -0.1126
  732TMC3    C810879   0.073   1.375  12.459 -0.8730 -0.3977  0.8860
  732TMC3    O110880   0.439   1.130  12.348  0.4797 -0.2131  0.0483
  732TMC3    O210881   0.085   1.377  12.335  0.2887 -0.0442 -0.0834
  733TMC3    C110882   1.184   0.173  13.258  0.4268 -0.2303 -0.6151
  733TMC3    C210883   1.234   0.293  13.298 -0.1320 -0.1143 -0.3550
  733TMC3    C310884   1.316   0.357  13.214  0.0321  0.7482 -0.3885
  733TMC3    C410885   1.205   0.128  13.133 -0.0802  0.1634 -0.3848
  733TMC3    C510886   1.303   0.192  13.060  0.0689  0.2136 -0.1329
  733TMC3    C610887   1.353   0.312  13.087 -0.6174  0.0304 -0.6849
  733TMC3     C10888   1.063   0.125  13.325  0.0944  0.4775  0.0735
  733TMC3     O10889   1.024   0.179  13.430 -0.0030  0.1385 -0.2292
  733TMC3     H10890   1.209   0.334  13.395 -2.3486 -3.9203  0.7082
  733TMC3    H110891   1.167   0.034  13.093 -0.5610 -0.8555  2.4898
  733TMC3    H210892   1.433   0.346  13.023  0.2566 -1.8019 -0.5794
  733TMC3    C710893   1.308   0.154  12.918 -1.2628  0.1145  0.2512
  733TMC3    C810894   1.310   0.502  13.219  0.0525  0.4741 -0.6603
  733TMC3    O110895   1.416   0.149  12.865  0.6014  0.4041 -0.8549
  733TMC3    O210896   1.301   0.547  13.332 -0.0420  0.4134 -0.1913
  734MPD2     C10897   2.933   2.505  13.000 -0.1986 -0.1184 -0.2204
  734MPD2    C110898   2.879   2.423  12.908  0.1733  0.5898 -0.4308
  734MPD2    C210899   2.859   2.479  12.781 -0.2290 -0.2228 -0.8322
  734MPD2    C310900   2.875   2.609  12.752  0.6770  0.2690  0.5346
  734MPD2    C410901   2.905   2.695  12.852  0.1920  0.6741 -0.8069
  734MPD2    C510902   2.940   2.639  12.974 -0.2384  0.2698 -0.2389
  734MPD2     H10903   2.826   2.409  12.705 -1.7388 -1.1987  0.7077
  734MPD2    H110904   2.927   2.801  12.842  0.4257  0.7862  1.0225
  734MPD2    H210905   2.975   2.468  13.093  0.1735  0.9852  0.0538
  734MPD2    H310906   2.975   2.708  13.049  0.7078 -1.5323  0.9665
  734MPD2     N10907   2.872   2.648  12.618  0.1283 -0.1291 -0.1443
  734MPD2    H510908   2.856   2.574  12.550 -0.6336 -1.0336  1.0156
  734MPD2    N110909   2.864   2.286  12.927  0.3401 -1.0434 -0.0066
  734MPD2    H710910   2.923   2.244  12.998 -1.0597 -1.6563  0.7933
  735TMC3    C110911   2.788   2.067  12.865  0.9040 -0.2326  0.2310
  735TMC3    C210912   2.680   1.996  12.817 -0.0182  0.1247  0.5566
  735TMC3    C310913   2.706   1.883  12.739  0.0792  0.3670 -0.1861
  735TMC3    C410914   2.917   2.019  12.850  0.3913  0.4125  0.2687
  735TMC3    C510915   2.933   1.904  12.785  0.0060 -0.4161  0.0867
  735TMC3    C610916   2.830   1.833  12.733  0.5462  0.3689 -0.3091
  735TMC3     C10917   2.781   2.214  12.852 -0.3967 -0.1401 -0.1002
  735TMC3     O10918   2.689   2.253  12.782  0.0142  0.0098 -0.1846
  735TMC3     H10919   2.582   2.038  12.837 -1.3401 -1.9481 -1.5980
  735TMC3    H110920   3.006   2.076  12.873  0.0365  0.9144  0.4175
  735TMC3    H210921   2.851   1.761  12.655  1.2155 -1.1070  1.2371
  735TMC3    C710922   3.065   1.865  12.737  0.0747  0.6076 -0.2140
  735TMC3    C810923   2.646   1.885  12.608 -0.2716  0.3231 -0.1516
  735TMC3    O110924   3.149   1.952  12.722  0.2310 -0.1878  0.4949
  735TMC3    O210925   2.629   1.783  12.542 -0.4023  0.0630  0.3083
  736MPD2     C10926   3.175   1.518  12.683 -0.4697  0.5263 -0.0038
  736MPD2    C110927   3.189   1.654  12.682 -0.9411  0.0953  0.1877
  736MPD2    C210928   3.310   1.710  12.639  0.0536  0.4807  0.4120
  736MPD2    C310929   3.407   1.626  12.590 -0.0621 -0.0437  0.0383
  736MPD2    C410930   3.383   1.490  12.583  0.3172  0.1513 -0.0379
  736MPD2    C510931   3.269   1.433  12.631  0.5611  0.5435  0.0222
  736MPD2     H10932   3.333   1.816  12.641  2.7354 -0.1109 -0.1409
  736MPD2    H110933   3.454   1.423  12.536 -0.9448 -1.8305  0.9132
  736MPD2    H210934   3.095   1.467  12.736  1.9200 -2.9663  0.2304
  736MPD2    H310935   3.247   1.327  12.637  1.9769  0.2506 -0.0491
  736MPD2     N10936   3.518   1.678  12.525 -0.1030 -0.4123  0.5129
  736MPD2    H510937   3.571   1.617  12.464  1.3069  1.2625  0.0604
  736MPD2    N110938   3.080   1.727  12.735 -0.4089  0.2424 -0.2165
  736MPD2    H710939   3.000   1.675  12.768 -1.6416  0.9202 -2.1136
  737TMC3    C110940   3.650   1.835  12.408  0.3269 -0.2421 -0.0399
  737TMC3    C210941   3.666   1.966  12.376 -0.2952  0.0370 -0.7303
  737TMC3    C310942   3.719   2.002  12.254 -0.2500  0.1949  0.9267
  737TMC3    C410943   3.674   1.729  12.319  0.3093 -0.8772  0.3161
  737TMC3    C510944   3.706   1.770  12.195  0.4850 -0.7677  0.6142
  737TMC3    C610945   3.730   1.902  12.162 -0.6443 -0.3520  0.3168
  737TMC3     C10946   3.565   1.808  12.523  0.7637  0.4456  0.0470
  737TMC3     O10947   3.525   1.902  12.590 -0.2372  0.3481 -0.3499
  737TMC3     H10948   3.649   2.038  12.455  0.3132 -2.3844  1.6187
  737TMC3    H110949   3.673   1.623  12.342  3.0742 -0.8752  0.3835
  737TMC3    H210950   3.748   1.933  12.060 -3.2627  0.3493  0.0681
  737TMC3    C710951   3.739   1.666  12.105  0.3028 -0.3216 -0.1113
  737TMC3    C810952   3.762   2.140  12.230 -0.3616  0.1632  0.3004
  737TMC3    O110953   3.702   1.551  12.129  0.1893 -0.0174 -0.3894
  737TMC3    O210954   3.746   2.224  12.314  0.5370  0.1429 -0.2827
  738MPD2     C10955   3.835   1.061  15.823  0.7897 -0.4207  0.3191
  738MPD2    C110956   3.810   1.030  15.689  0.1780 -0.2402  0.1065
  738MPD2    C210957   3.869   1.101  15.588  0.4087 -0.2949  0.1243
  738MPD2    C310958   3.964   1.197  15.619  0.0440  0.6234  0.5754
  738MPD2    C410959   3.997   1.224  15.747 -0.4764 -0.0315  0.3326
  738MPD2    C510960   3.923   1.161  15.850 -0.1980 -0.1392 -0.2078
  738MPD2     H10961   3.852   1.075  15.484  2.8022 -0.4737 -0.2303
  738MPD2    H110962   4.088   1.277  15.774 -0.0984 -0.6088  0.1983
  738MPD2    H210963   3.793   1.008  15.908  2.3525 -1.0285  0.7169
  738MPD2    H310964   3.924   1.198  15.951 -2.1071  1.0349 -0.6011
  738MPD2     N10965   4.038   1.269  15.528 -0.0819 -0.5446  0.1461
  738MPD2    H510966   4.129   1.306  15.554 -0.3178 -0.0665  0.2906
  738MPD2    N110967   3.721   0.925  15.650 -0.1292  0.5165 -0.0137
  738MPD2    H710968   3.707   0.922  15.550  2.4666  0.6576 -0.3836
  739TMC3    C110969   4.111   1.342  15.312  0.4115  0.5384 -0.0244
  739TMC3    C210970   4.056   1.381  15.193 -0.0845  0.1966 -0.0453
  739TMC3    C310971   4.132   1.372  15.082  0.6035  0.4780  0.3161
  739TMC3    C410972   4.227   1.273  15.305 -0.2302  0.3455 -1.1044
  739TMC3    C510973   4.300   1.255  15.190 -0.4760 -0.4772 -0.3016
  739TMC3    C610974   4.252   1.312  15.076  0.4709  0.2305 -0.4277
  739TMC3     C10975   4.009   1.271  15.392 -0.4628 -0.0986 -0.2492
  739TMC3     O10976   3.902   1.252  15.335 -0.0222  0.1827 -0.1029
  739TMC3     H10977   3.952   1.410  15.189 -0.5285 -1.1197  1.9804
  739TMC3    H110978   4.253   1.231  15.402 -0.2085  3.3165  0.1797
  739TMC3    H210979   4.299   1.296  14.980 -0.4699 -1.3059 -0.6199
  739TMC3    C710980   4.438   1.228  15.201 -0.5391  0.1707 -0.0700
  739TMC3    C810981   4.054   1.359  14.967  0.8671 -0.3416 -0.0404
  739TMC3    O110982   4.512   1.263  15.107 -0.2960 -0.2091  0.0401
  739TMC3    O210983   3.940   1.319  14.986  0.3446  0.0237  0.4272
  740TMC3    C110984   3.836   2.643  14.768  0.3619  0.0802  0.2505
  740TMC3    C210985   3.894   2.634  14.891  0.0016 -0.5239 -0.6578
  740TMC3    C310986   4.032   2.626  14.883 -0.0167  0.7036  0.0322
  740TMC3    C410987   3.904   2.618  14.651 -0.0059  0.0181 -0.1195
  740TMC3    C510988   4.043   2.596  14.661  0.4184  0.2281  0.4173
  740TMC3    C610989   4.113   2.611  14.776 -0.2918 -0.3894  0.5095
  740TMC3     C10990   3.700   2.685  14.758 -0.1116 -0.7824 -0.7391
  740TMC3     O10991   3.670   2.758  14.664 -0.3502  0.3467  0.1499
  740TMC3     H10992   3.847   2.643  14.988  1.2664  1.2546 -0.1909
  740TMC3    H110993   3.830   2.610  14.572  2.6353 -0.6140 -2.5237
  740TMC3    H210994   4.221   2.605  14.776 -0.3177 -0.8803  0.9269
  740TMC3    C710995   4.112   2.518  14.565  0.0072  0.5134  0.1469
  740TMC3    C810996   4.103   2.638  15.013 -0.0005  0.8129  0.0913
  740TMC3    O110997   4.214   2.462  14.610 -0.8120  0.5132 -0.0101
  740TMC3    O210998   4.032   2.663  15.114 -0.3127 -0.0052 -0.2517
  741TMC3    C110999   3.853   1.813  14.628 -0.0074  0.4600 -0.2072
  741TMC3    C211000   3.718   1.800  14.658  0.0485 -0.5706 -0.4118
  741TMC3    C311001   3.680   1.753  14.779 -0.4291  0.4703  0.7935
  741TMC3    C411002   3.946   1.782  14.727 -0.4330  0.2663 -0.9558
  741TMC3    C511003   3.904   1.743  14.850 -0.8190 -0.2400 -0.0495
  741TMC3    C611004   3.774   1.720  14.869  0.7419  0.3640  0.2969
  741TMC3     C11005   3.894   1.888  14.512 -0.6318 -0.1612  0.2367
  741TMC3     O11006   4.012   1.879  14.490 -0.1515 -0.0202  0.1908
  741TMC3     H11007   3.656   1.795  14.569 -1.0158 -1.8536  0.3978
  741TMC3    H111008   4.052   1.769  14.709 -0.5725  0.5888 -2.0013
  741TMC3    H211009   3.738   1.674  14.961  0.0261  1.1934  0.4361
  741TMC3    C711010   3.999   1.721  14.955  0.1785  0.3352  0.6167
  741TMC3    C811011   3.542   1.712  14.792 -0.2552 -0.0886  0.4714
  741TMC3    O111012   3.958   1.687  15.064  0.8951 -0.1529 -0.6035
  741TMC3    O211013   3.467   1.745  14.700  0.4573  0.2267 -0.2999
  742TMC3    C111014   3.588   4.696  15.791 -0.5604 -0.3936 -0.4783
  742TMC3    C211015   3.602   0.016  15.669  0.0319 -0.4278  0.3348
  742TMC3    C311016   3.699   0.111  15.657  0.4326 -0.4582  0.4641
  742TMC3    C411017   3.674   4.724  15.891 -0.0951 -0.0842 -0.5595
  742TMC3    C511018   3.773   0.083  15.876  0.1512 -1.1310  0.4490
  742TMC3    C611019   3.790   0.145  15.755  0.1438  0.0115 -0.0432
  742TMC3     C11020   3.494   4.592  15.824 -0.1041  1.0482 -0.3090
  742TMC3     O11021   3.449   4.584  15.934 -0.3514 -0.2303 -0.3931
  742TMC3     H11022   3.516   0.018  15.602  1.6079  2.2848 -1.5938
  742TMC3    H111023   3.664   4.676  15.988 -1.7155 -1.7942 -1.5715
  742TMC3    H211024   3.873   0.212  15.736  0.7217 -0.8343 -0.4966
  742TMC3    C711025   3.876   0.097  15.975 -0.1768  0.6159  0.0154
  742TMC3    C811026   3.693   0.212  15.553  0.3227 -0.2245 -0.0866
  742TMC3    O111027   3.836   0.072  16.088  0.1032  0.1365  0.2504
  742TMC3    O211028   3.719   0.329  15.580  0.0580  0.2640  0.8664
  743MPD2     C11029   1.477   0.897   2.068 -0.2667 -0.6483 -0.3166
  743MPD2    C111030   1.519   0.982   1.969  0.7017 -0.2274 -0.3204
  743MPD2    C211031   1.649   1.025   1.970  0.4243  0.0183  0.0095
  743MPD2    C311032   1.739   0.985   2.061 -0.0916  0.0432  0.0001
  743MPD2    C411033   1.705   0.894   2.159  0.7530 -0.8570 -0.1165
  743MPD2    C511034   1.570   0.854   2.157 -0.5318 -0.1410  0.5077
  743MPD2     H11035   1.677   1.103   1.900 -2.6000  1.0927 -0.0034
  743MPD2    H111036   1.767   0.866   2.243  0.7608 -0.1583  0.1162
  743MPD2    H211037   1.378   0.853   2.076 -0.2227 -1.0665 -1.9110
  743MPD2    H311038   1.546   0.777   2.229 -0.7823 -0.3602  0.1881
  743MPD2     N11039   1.862   1.052   2.055 -0.4725  0.8541 -0.7433
  743MPD2    H511040   1.875   1.127   1.989 -1.3330  1.3498 -0.3554
  743MPD2    N111041   1.426   1.019   1.866  0.2982 -0.5158  0.0340
  743MPD2    H711042   1.462   1.070   1.786 -0.2650  1.2656  0.8947
  744TMC3    C111043   1.239   1.002   1.723 -0.0346  0.3423 -0.4155
  744TMC3    C211044   1.102   0.984   1.722 -0.4177  0.1192  0.2769
  744TMC3    C311045   1.046   0.961   1.595  0.6329  0.2168 -0.2674
  744TMC3    C411046   1.319   0.989   1.619 -0.2759 -0.0460 -0.3373
  744TMC3    C511047   1.261   0.961   1.497  1.2166  0.0596 -0.3299
  744TMC3    C611048   1.127   0.949   1.485 -0.3090  0.1202 -0.4897
  744TMC3     C11049   1.296   0.984   1.856 -0.4892 -0.5711 -0.8080
  744TMC3     O11050   1.218   0.931   1.937 -0.3140  0.3670  0.1873
  744TMC3     H11051   1.041   1.016   1.806 -1.0030  0.9374 -0.4636
  744TMC3    H111052   1.427   0.990   1.627 -0.4516 -1.5893  2.3683
  744TMC3    H211053   1.081   0.932   1.388  1.8525 -1.9891 -1.1600
  744TMC3    C711054   1.344   0.950   1.375  0.2644  0.4724  0.2060
  744TMC3    C811055   0.916   1.021   1.570  0.6086 -0.3605  0.6844
  744TMC3    O111056   1.441   1.024   1.369 -0.1527  0.8151 -0.1790
  744TMC3    O211057   0.910   1.092   1.469 -0.0453 -0.5022  0.4381
  745TMC3    C111058   4.330   4.549  13.616  0.2257  0.2008  0.3466
  745TMC3    C211059   4.197   4.547  13.654  0.0233 -0.1261 -1.2125
  745TMC3    C311060   4.112   4.610  13.575 -0.5566  0.5493  0.5931
  745TMC3    C411061   4.362   4.578  13.485  0.2338 -0.3758 -0.5391
  745TMC3    C511062   4.265   4.624  13.401  0.1442 -0.6033 -0.3095
  745TMC3    C611063   4.140   4.640  13.442 -1.2604 -0.0015  0.3135
  745TMC3     C11064   4.411   4.621  13.713  0.0102  0.2003  0.4525
  745TMC3     O11065   4.352   4.642  13.816  0.1858 -0.3061  0.1197
  745TMC3     H11066   4.176   4.539  13.760  1.1191  0.0406 -0.9826
  745TMC3    H111067   4.467   4.575  13.461  0.7842 -0.8546  1.9832
  745TMC3    H211068   4.066   4.671  13.369 -0.9384  0.4218  0.1639
  745TMC3    C711069   4.306   4.708  13.298 -0.4070 -0.4273 -0.0241
  745TMC3    C811070   4.010   4.697  13.645  0.4936  0.0077  0.1539
  745TMC3    O111071   4.246   4.729  13.197  0.0940 -0.0776 -0.6268
  745TMC3    O211072   3.913   4.718  13.577  0.0399 -0.1706 -0.3236
  746TMC3    C111073   2.041   1.882  10.935 -0.2587 -0.4006  0.1829
  746TMC3    C211074   2.092   1.862  10.807  0.5148  0.7581 -0.5090
  746TMC3    C311075   2.028   1.775  10.724 -0.3644  0.3248 -0.3164
  746TMC3    C411076   1.926   1.818  10.978  0.1964 -0.1101 -0.5545
  746TMC3    C511077   1.867   1.726  10.887 -0.0239 -0.0087  0.3620
  746TMC3    C611078   1.912   1.714  10.758  0.7994 -0.3470  0.1164
  746TMC3     C11079   2.093   1.993  11.015  0.2774 -0.0177 -0.0868
  746TMC3     O11080   2.069   1.987  11.131 -0.1249  0.1076 -0.3197
  746TMC3     H11081   2.185   1.903  10.768 -0.3550  2.1063 -1.1530
  746TMC3    H111082   1.896   1.829  11.081 -0.4051  1.6227 -0.9225
  746TMC3    H211083   1.874   1.642  10.686  1.1613 -1.0810  0.6600
  746TMC3    C711084   1.726   1.676  10.903  0.0237 -0.2682 -0.2565
  746TMC3    C811085   2.033   1.827  10.592  0.6459  0.7227 -0.4633
  746TMC3    O111086   1.692   1.580  10.832  0.1519 -0.2136  0.0071
  746TMC3    O211087   2.121   1.771  10.526  0.3846  0.5278  0.4569
  747TMC3    C111088   4.564   1.537  11.413  0.0052 -0.0134 -0.3980
  747TMC3    C211089   4.436   1.506  11.448  0.3535 -0.0995  0.5762
  747TMC3    C311090   4.387   1.582  11.554 -0.3001  1.0040  0.1559
  747TMC3    C411091   4.641   1.631  11.476 -0.2708  0.3744  0.1836
  747TMC3    C511092   4.592   1.679  11.594  0.4448 -0.6615 -0.5094
  747TMC3    C611093   4.462   1.657  11.635 -0.0265 -0.6368  0.4519
  747TMC3     C11094   4.642   1.436  11.336  0.2466  0.0665 -0.1035
  747TMC3     O11095   0.026   1.433  11.357 -0.0511  0.3474  0.2488
  747TMC3     H11096   4.381   1.423  11.406  2.0973 -1.1636  0.3841
  747TMC3    H111097   4.737   1.648  11.430 -1.1211  0.2942 -1.6210
  747TMC3    H211098   4.417   1.713  11.716 -0.4534  1.0326 -0.9307
  747TMC3    C711099   4.693   1.728  11.693  0.0425  0.4648  0.0519
  747TMC3    C811100   4.249   1.565  11.582  0.0124  0.3673 -0.0784
  747TMC3    O111101   4.651   1.794  11.787  0.1131 -0.4350 -0.5319
  747TMC3    O211102   4.189   1.512  11.492 -0.3873  0.2034 -0.1531
  748MPD2     C11103   1.002   2.658   0.633 -0.5484  0.2987  0.1797
  748MPD2    C111104   0.957   2.669   0.762  0.1894 -0.2034 -0.2836
  748MPD2    C211105   1.027   2.755   0.844  0.4061 -0.1511  0.5504
  748MPD2    C311106   1.146   2.818   0.795 -0.4729 -0.2191 -0.1836
  748MPD2    C411107   1.189   2.796   0.666  0.3617  0.1789 -1.1546
  748MPD2    C511108   1.114   2.719   0.587 -0.3686 -0.7674 -0.0295
  748MPD2     H11109   0.998   2.774   0.946  1.9842  0.0382  0.9628
  748MPD2    H111110   1.283   2.829   0.624  1.2877  0.6850  1.2852
  748MPD2    H211111   0.940   2.604   0.563  2.2425 -1.4882 -0.8783
  748MPD2    H311112   1.138   2.714   0.481 -1.5669  1.8160 -0.4393
  748MPD2     N11113   1.222   2.891   0.887 -0.7590  0.3103 -0.0857
  748MPD2    H511114   1.197   2.886   0.985 -0.4586  0.3027 -0.0087
  748MPD2    N111115   0.838   2.600   0.797  0.3836  0.4902 -0.1927
  748MPD2    H711116   0.790   2.554   0.720  0.0513 -0.1205  0.3824
  749TMC3    C111117   1.354   3.064   0.961  0.1960  0.2977 -0.1034
  749TMC3    C211118   1.382   2.996   1.074  1.1824 -0.1823  0.1360
  749TMC3    C311119   1.388   3.069   1.193  0.5142  0.2006  1.3529
  749TMC3    C411120   1.338   3.200   0.952 -0.4233  0.8046  0.2093
  749TMC3    C511121   1.342   3.268   1.073  0.3158  0.3974  0.1525
  749TMC3    C611122   1.369   3.206   1.193 -0.7458  0.2120 -0.5760
  749TMC3     C11123   1.311   2.986   0.844  0.0346  0.3597 -0.0445
  749TMC3     O11124   1.338   3.023   0.731 -0.0758  0.1927 -0.0028
  749TMC3     H11125   1.393   2.889   1.056 -0.7865 -0.2162 -0.8553
  749TMC3    H111126   1.341   3.238   0.851 -0.7672  0.3613  0.0292
  749TMC3    H211127   1.370   3.262   1.286 -1.0525 -0.2270 -0.3088
  749TMC3    C711128   1.338   3.414   1.085 -0.3076 -0.7712  0.0856
  749TMC3    C811129   1.440   3.008   1.325  0.0586  0.0659  0.6319
  749TMC3    O111130   1.362   3.466   1.191 -0.0477 -0.6185 -0.0967
  749TMC3    O211131   1.434   3.085   1.418  0.5888 -0.1904 -1.0827
  750MPD2     C11132   1.770   4.167  12.129 -0.6007 -0.3521  0.4100
  750MPD2    C111133   1.680   4.072  12.151  0.3084 -0.6117 -0.0172
  750MPD2    C211134   1.704   3.951  12.087 -0.1923 -0.5762  0.9403
  750MPD2    C311135   1.810   3.930  11.996 -0.0087 -0.3852 -0.0490
  750MPD2    C411136   1.901   4.024  11.983 -0.3393  0.3219 -0.7040
  750MPD2    C511137   1.883   4.141  12.048 -0.5525 -0.1398  0.5478
  750MPD2     H11138   1.631   3.874  12.108 -2.4202  1.6622  1.4565
  750MPD2    H111139   1.988   4.026  11.918 -0.0979  0.3641 -0.3790
  750MPD2    H211140   1.753   4.266  12.169 -0.2286 -0.0367 -0.2157
  750MPD2    H311141   1.958   4.217  12.031  1.9714 -2.6124  0.6878
  750MPD2     N11142   1.827   3.803  11.931 -0.1608  0.1425 -0.8251
  750MPD2    H511143   1.924   3.773  11.922  0.1404  0.2149  2.2095
  750MPD2    N111144   1.567   4.103  12.226 -0.6764  0.2541  0.4169
  750MPD2    H711145   1.554   4.198  12.258  0.3156  0.2570  0.8120
  751TMC3    C111146   1.778   3.569  11.912  0.1659 -0.2600  0.4879
  751TMC3    C211147   1.727   3.478  11.995 -0.1642 -0.7578 -0.4661
  751TMC3    C311148   1.797   3.362  12.014  0.7882 -0.2889 -0.1605
  751TMC3    C411149   1.900   3.556  11.849 -0.6064 -0.6222 -0.0511
  751TMC3    C511150   1.961   3.433  11.858  0.4185  0.3222 -0.6835
  751TMC3    C611151   1.908   3.340  11.939  0.2130 -0.2614 -0.6674
  751TMC3     C11152   1.729   3.703  11.943  0.9606  0.1378  0.6454
  751TMC3     O11153   1.608   3.721  11.959 -0.2940  0.5052 -0.5303
  751TMC3     H11154   1.637   3.503  12.051  0.0067 -1.4410  0.1085
  751TMC3    H111155   1.930   3.628  11.774  2.4266  0.0053  1.7485
  751TMC3    H211156   1.970   3.256  11.967  1.2266  0.0060 -2.1066
  751TMC3    C711157   1.992   3.376  11.723  0.2928  0.2744 -0.4733
  751TMC3    C811158   1.714   3.248  11.994 -0.3486 -0.3975  0.0523
  751TMC3    O111159   2.041   3.445  11.632 -0.2528 -0.0023  0.1080
  751TMC3    O211160   1.763   3.164  11.913  0.0802  0.0499 -0.7999
  752TMC3    C111161   0.117   3.541  17.470  0.5412  0.0198  0.2393
  752TMC3    C211162   0.176   3.491  17.585 -0.3565  0.3162 -0.6591
  752TMC3    C311163   0.125   3.506  17.711  0.6898  0.3185  0.2033
  752TMC3    C411164   0.002   3.615  17.488 -0.1417 -0.1408 -0.4075
  752TMC3    C511165   4.703   3.649  17.615 -0.2429 -0.3286  0.2024
  752TMC3    C611166   0.025   3.603  17.724 -0.2661 -0.2630  0.1012
  752TMC3     C11167   0.208   3.545  17.356 -0.0127 -0.5323 -0.6138
  752TMC3     O11168   0.318   3.493  17.361  0.0490  0.1886  0.6162
  752TMC3     H11169   0.260   3.425  17.569 -0.1394  0.1799  1.0583
  752TMC3    H111170   4.684   3.662  17.407 -0.4912 -0.6596 -0.4663
  752TMC3    H211171   4.718   3.615   0.074  1.0904 -2.4628  0.9711
  752TMC3    C711172   4.582   3.726  17.629 -0.2331  0.0676  0.0125
  752TMC3    C811173   0.185   3.428   0.069  0.2932  0.4476 -0.0138
  752TMC3    O111174   4.505   3.735  17.533 -0.2701  0.1616  0.2950
  752TMC3    O211175   0.251   3.333   0.032  0.9489  0.1753  0.7198
  753TMC3    C111176   2.823   0.162  13.712  0.5531 -0.1887 -0.0987
  753TMC3    C211177   2.891   0.111  13.821  0.2207  0.0869  0.5655
  753TMC3    C311178   2.928   4.711  13.830  0.0843  0.0623 -0.2544
  753TMC3    C411179   2.787   0.076  13.612  0.5388  0.0465  0.7185
  753TMC3    C511180   2.829   4.680  13.608  0.0554  0.6294 -0.1261
  753TMC3    C611181   2.905   4.627  13.715 -0.4046  0.4223  0.1806
  753TMC3     C11182   2.762   0.295  13.711 -1.0221  0.0263  0.0123
  753TMC3     O11183   2.658   0.305  13.650  0.0235  0.4190  0.6642
  753TMC3     H11184   2.912   0.174  13.906 -1.9630  0.6730  0.6812
  753TMC3    H111185   2.714   0.102  13.536 -1.9656 -1.6003  2.5214
  753TMC3    H211186   2.932   4.522  13.722 -1.5918  0.1794  1.2362
  753TMC3    C711187   2.792   4.600  13.491  0.0498  0.3937 -0.0247
  753TMC3    C811188   2.998   4.652  13.938  0.4516  0.1373 -0.1224
  753TMC3    O111189   2.721   4.657  13.405 -0.6222  0.5782 -0.2152
  753TMC3    O211190   3.075   4.561  13.917 -0.5191  0.0990  0.1478
  754MPD2     C11191   1.658   2.749  13.445  0.6759  0.6625 -0.2728
  754MPD2    C111192   1.601   2.826  13.548 -0.4294  0.3257  0.3183
  754MPD2    C211193   1.465   2.821  13.577  0.0413  0.2172  0.0699
  754MPD2    C311194   1.379   2.734  13.513 -0.6336  0.1115  0.0142
  754MPD2    C411195   1.442   2.647  13.422  0.4700  0.2862 -0.1210
  754MPD2    C511196   1.576   2.653  13.392  0.2458  0.3740 -0.1951
  754MPD2     H11197   1.433   2.901  13.642  0.0922 -0.3346  0.7682
  754MPD2    H111198   1.375   2.573  13.378  0.0432  2.1435 -2.6225
  754MPD2    H211199   1.764   2.759  13.425  0.9185 -1.5024 -0.0848
  754MPD2    H311200   1.625   2.593  13.316  1.2347  0.7250  0.1657
  754MPD2     N11201   1.236   2.745  13.516 -0.9999 -0.2552  0.3323
  754MPD2    H511202   1.198   2.668  13.461  0.2855 -0.6801  0.0340
  754MPD2    N111203   1.689   2.913  13.615  0.3418  0.3988  0.5007
  754MPD2    H711204   1.771   2.938  13.560  0.6652 -2.6958 -0.4095
  755MPD2     C11205   0.710   3.533  13.791  0.3380  0.3648 -0.8183
  755MPD2    C111206   0.618   3.444  13.747  0.4757  0.2134 -0.1050
  755MPD2    C211207   0.651   3.312  13.727  0.3812 -0.2498 -0.0251
  755MPD2    C311208   0.776   3.266  13.757 -0.2919 -0.4688  0.0916
  755MPD2    C411209   0.874   3.356  13.797 -0.9100 -0.2942 -0.6211
  755MPD2    C511210   0.840   3.484  13.808  0.5274  0.2166  0.6844
  755MPD2     H11211   0.574   3.250  13.684  0.9330 -0.8857 -0.1022
  755MPD2    H111212   0.981   3.341  13.809 -0.7673 -0.1279 -1.6956
  755MPD2    H211213   0.701   3.640  13.805 -1.9998  0.2231 -1.3756
  755MPD2    H311214   0.920   3.553  13.836  1.9724 -0.5894 -1.4649
  755MPD2     N11215   0.821   3.137  13.721 -0.0796  0.0029  0.1276
  755MPD2    H511216   0.919   3.117  13.737  0.3532  1.7304 -0.4145
  755MPD2    N111217   0.480   3.477  13.725 -0.0633  0.1424 -0.0548
  755MPD2    H711218   0.418   3.399  13.708  1.0467 -1.1821  1.7970
  756MPD2     C11219   1.259   3.824   9.991  0.3150  0.0058  0.3308
  756MPD2    C111220   1.192   3.792  10.107 -0.3604  0.4888  0.4367
  756MPD2    C211221   1.051   3.790  10.106  0.7661 -0.2381 -0.1484
  756MPD2    C311222   0.979   3.832  10.000 -0.6211 -0.8260  0.0394
  756MPD2    C411223   1.039   3.876   9.882 -0.4784  0.6558 -0.5104
  756MPD2    C511224   1.178   3.869   9.886 -0.0442  0.9741  0.0804
  756MPD2     H11225   1.005   3.757  10.199 -0.0434 -1.7334 -1.0684
  756MPD2    H111226   0.991   3.880   9.786 -0.5697  1.6784 -0.4153
  756MPD2    H211227   1.365   3.837   9.980  0.0521  0.7520 -1.1680
  756MPD2    H311228   1.228   3.887   9.791  0.4017  0.1048  0.1541
  756MPD2     N11229   0.837   3.823  10.006 -0.3585 -0.1772  0.0141
  756MPD2    H511230   0.793   3.795  10.093 -1.1236  3.4786  0.7872
  756MPD2    N111231   1.253   3.764  10.230 -0.3411 -0.1378 -0.3523
  756MPD2    H711232   1.194   3.749  10.311  1.3484 -0.2631  0.8538
  757MPD2     C11233   0.584   3.173  10.345  0.1166  0.4677 -0.6472
  757MPD2    C111234   0.650   3.285  10.393  0.1039  0.3866  0.2550
  757MPD2    C211235   0.628   3.406  10.332  0.4305  0.0264 -0.2760
  757MPD2    C311236   0.538   3.415  10.227  0.2116  0.2832 -0.2984
  757MPD2    C411237   0.472   3.303  10.180 -0.1407  0.3350 -0.1936
  757MPD2    C511238   0.490   3.186  10.249  0.5532 -0.3512  0.0995
  757MPD2     H11239   0.692   3.489  10.359  1.9960 -1.1328 -0.4257
  757MPD2    H111240   0.405   3.291  10.096  1.0965 -0.7666 -1.0364
  757MPD2    H211241   0.599   3.078  10.396 -0.2985 -0.4500 -2.2339
  757MPD2    H311242   0.447   3.092  10.216 -1.4312  0.7907 -0.5752
  757MPD2     N11243   0.525   3.540  10.161  0.4726 -0.1062 -0.1796
  757MPD2    H511244   0.590   3.616  10.180  1.0418 -1.0428  1.6696
  757MPD2    N111245   0.743   3.260  10.497  0.0332 -0.3689 -0.2784
  757MPD2    H711246   0.773   3.163  10.510 -1.1127 -0.8342 -1.0629
  758MPD2     C11247   1.179   3.186  15.949  0.4768  0.1981  0.0788
  758MPD2    C111248   1.220   3.094  16.040  0.1182 -0.0708 -0.4876
  758MPD2    C211249   1.149   3.073  16.156 -0.2684 -0.0422  0.5246
  758MPD2    C311250   1.056   3.168  16.188  0.2268 -0.3388  0.4591
  758MPD2    C411251   1.026   3.274  16.103  0.3268 -0.4810  0.1804
  758MPD2    C511252   1.080   3.282  15.976  0.1746 -0.8042 -0.0818
  758MPD2     H11253   1.167   2.987  16.220 -0.9044 -2.5328 -2.6365
  758MPD2    H111254   0.951   3.349  16.127 -0.3228 -1.4969  1.2924
  758MPD2    H211255   1.223   3.183  15.850 -0.7955 -1.2100 -0.4484
  758MPD2    H311256   1.047   3.355  15.903  0.4781 -3.1432 -2.5681
  758MPD2     N11257   0.973   3.167  16.304  0.2182 -0.0276  0.0302
  758MPD2    H511258   0.907   3.244  16.313  0.2433  0.1173 -0.9875
  758MPD2    N111259   1.328   3.009  16.006 -0.1867  0.1702 -0.2098
  758MPD2    H711260   1.363   3.006  15.911  1.1433 -1.2720  0.3321
  759MPD2     C11261   4.734   0.791  10.521  0.5080  0.0835 -0.3736
  759MPD2    C111262   0.035   0.664  10.505  0.4002 -1.5010  0.2421
  759MPD2    C211263   0.169   0.635  10.527 -0.0996  0.6668  0.3872
  759MPD2    C311264   0.253   0.740  10.560 -0.1015  0.9592 -0.5890
  759MPD2    C411265   0.202   0.866  10.590 -0.2364 -0.4099 -0.2964
  759MPD2    C511266   0.081   0.895  10.550 -0.2795  0.5068  0.1418
  759MPD2     H11267   0.203   0.533  10.512  0.5374  0.9637 -0.2208
  759MPD2    H111268   0.271   0.946  10.614 -1.0339 -0.1078  0.9851
  759MPD2    H211269   4.632   0.809  10.488  0.1550 -0.8483  0.2019
  759MPD2    H311270   0.034   0.993  10.557  1.0093  1.0576  0.9976
  759MPD2     N11271   0.390   0.710  10.575 -0.3553 -0.4475  0.2184
  759MPD2    H511272   0.421   0.615  10.557  1.5328  1.1440 -4.6032
  759MPD2    N111273   4.688   0.560  10.466  0.1413 -0.7690  0.5571
  759MPD2    H711274   4.731   0.468  10.472  0.9596 -0.3165  1.6060
  760MPD2     C11275   4.557   3.086  12.175  0.1869 -0.4980 -0.1777
  760MPD2    C111276   4.643   3.166  12.110 -0.8537 -0.4038  0.0463
  760MPD2    C211277   0.003   3.109  12.026  0.1922  0.4277 -0.0957
  760MPD2    C311278   0.006   2.970  12.009  0.5701  0.4649  0.3594
  760MPD2    C411279   4.643   2.893  12.065  0.6296  0.1992 -0.2842
  760MPD2    C511280   4.546   2.955  12.148 -0.7288 -0.1506  0.4407
  760MPD2     H11281   0.073   3.178  11.983  0.4192  0.4903  0.3713
  760MPD2    H111282   4.639   2.786  12.046 -4.3940  0.3321 -0.0274
  760MPD2    H211283   4.492   3.128  12.251 -1.2121 -0.2054 -1.5512
  760MPD2    H311284   4.462   2.901  12.190 -1.1673  0.6437  0.5815
  760MPD2     N11285   0.110   2.895  11.956 -0.5546 -0.3762  1.3249
  760MPD2    H511286   0.094   2.795  11.946 -3.8488  0.2223  0.6964
  760MPD2    N111287   4.659   3.304  12.133 -0.0287  0.7634  0.5660
  760MPD2    H711288   4.718   3.356  12.068  0.4973 -0.0546  0.3809
  761MPD2     C11289   1.255   3.028  11.972 -0.6191  0.0540 -0.9286
  761MPD2    C111290   1.375   2.981  11.933  0.3102 -0.0935 -0.4747
  761MPD2    C211291   1.482   3.059  11.958  0.0169  0.4907  0.5770
  761MPD2    C311292   1.477   3.176  12.022 -0.2607 -0.3717 -0.4690
  761MPD2    C411293   1.355   3.217  12.073  0.1442  0.3964 -0.0965
  761MPD2    C511294   1.248   3.138  12.050 -0.1895 -0.0709  0.3557
  761MPD2     H11295   1.577   3.030  11.914 -1.0240  1.1778 -2.1340
  761MPD2    H111296   1.331   3.299  12.139  1.7709  0.8487 -0.0558
  761MPD2    H211297   1.160   2.977  11.955 -1.2508  0.4326  1.4493
  761MPD2    H311298   1.158   3.174  12.099 -1.6500 -3.2001 -0.0338
  761MPD2     N11299   1.590   3.263  12.043  0.3521  0.2799 -0.1611
  761MPD2    H511300   1.575   3.344  12.102  2.7524  2.2981 -2.2994
  761MPD2    N111301   1.380   2.871  11.841 -0.1187 -0.0085 -0.3032
  761MPD2    H711302   1.295   2.817  11.838 -2.0726  2.8387  4.2092
  762MPD2     C11303   1.744   2.244  11.231  0.6067 -0.2386  0.9473
  762MPD2    C111304   1.713   2.380  11.251  0.0145 -0.1175 -0.4453
  762MPD2    C211305   1.732   2.468  11.145  0.2184  0.0312 -0.6009
  762MPD2    C311306   1.792   2.427  11.028  0.3224 -0.1293  0.6647
  762MPD2    C411307   1.827   2.297  11.013 -0.3920  0.0501 -0.2103
  762MPD2    C511308   1.809   2.205  11.111 -0.3701 -0.2026  0.3893
  762MPD2     H11309   1.701   2.570  11.163 -0.2621  0.0713 -1.6786
  762MPD2    H111310   1.869   2.261  10.919 -0.5030 -1.0927  0.1779
  762MPD2    H211311   1.713   2.171  11.304 -3.2919 -0.4437 -0.9034
  762MPD2    H311312   1.834   2.101  11.094 -1.1461 -0.3788  0.3443
  762MPD2     N11313   1.812   2.521  10.929 -0.9066 -0.3116 -0.1296
  762MPD2    H511314   1.821   2.619  10.956  1.0092 -0.2912 -0.7882
  762MPD2    N111315   1.652   2.412  11.377 -0.4823  0.0176  0.4993
  762MPD2    H711316   1.624   2.331  11.431  2.2861 -2.5816 -1.9474
  763MPD2     C11317   3.144   3.254  16.249 -0.5669  0.1442  0.1202
  763MPD2    C111318   3.022   3.310  16.213  0.3586 -0.6006 -0.2615
  763MPD2    C211319   3.004   3.446  16.247 -0.4883 -0.5130  0.0197
  763MPD2    C311320   3.105   3.517  16.322  0.2476 -0.3540  0.2083
  763MPD2    C411321   3.218   3.450  16.362 -0.6598 -0.1702  0.6479
  763MPD2    C511322   3.225   3.323  16.337  0.0692 -0.0974 -0.1265
  763MPD2     H11323   2.914   3.489  16.205  0.5407  1.6706  0.0577
  763MPD2    H111324   3.304   3.502  16.403  0.0948  1.1035 -2.5013
  763MPD2    H211325   3.180   3.154  16.227  0.3489  0.8411 -1.4897
  763MPD2    H311326   3.321   3.277  16.359  0.2541  0.2637 -0.1788
  763MPD2     N11327   3.094   3.654  16.352  0.3991 -0.4431 -0.5108
  763MPD2    H511328   3.179   3.696  16.388 -0.5204  1.1859 -0.2429
  763MPD2    N111329   2.926   3.232  16.143 -0.1966  0.7992  0.6444
  763MPD2    H711330   2.860   3.278  16.081  1.7195 -1.0299 -2.7390
  764MPD2     C11331   0.836   4.291  17.622 -0.2634  0.7208 -0.3712
  764MPD2    C111332   0.793   4.423  17.624 -0.4664 -0.1202  0.3974
  764MPD2    C211333   0.771   4.480   0.002 -0.7421 -0.4321  0.2044
  764MPD2    C311334   0.775   4.410   0.118 -0.5972 -0.2409 -0.8641
  764MPD2    C411335   0.811   4.275   0.119 -0.0457 -0.0160  0.6148
  764MPD2    C511336   0.843   4.223  17.744  0.2662 -0.1006 -0.3927
  764MPD2     H11337   0.743   4.585  17.747  0.5871 -0.0762  0.0194
  764MPD2    H111338   0.809   4.210   0.206  2.4793 -1.4737 -0.4091
  764MPD2    H211339   0.851   4.232  17.532  0.2737 -0.0531  0.2276
  764MPD2    H311340   0.881   4.122  17.741 -1.3366 -0.7317  0.6060
  764MPD2     N11341   0.721   4.471   0.236 -0.1101  0.0785 -0.4218
  764MPD2    H511342   0.668   4.557   0.221 -2.2081 -1.0241  0.7178
  764MPD2    N111343   0.764   4.489  17.505 -0.6552  0.5417  0.4423
  764MPD2    H711344   0.739   4.586  17.515 -0.8201  0.5784 -0.3223
  765MPD2     C11345   0.939   2.479  15.682  0.1148  0.7617  0.1964
  765MPD2    C111346   0.990   2.530  15.797 -0.7118 -0.2003  0.8515
  765MPD2    C211347   1.112   2.485  15.844  0.8003 -0.6433  0.8761
  765MPD2    C311348   1.175   2.390  15.772  0.2991  0.9557  0.2791
  765MPD2    C411349   1.122   2.336  15.653 -0.5768  0.4849  0.9427
  765MPD2    C511350   1.005   2.387  15.607 -0.3354 -0.1586  0.0889
  765MPD2     H11351   1.152   2.520  15.938 -0.7258 -0.5332  1.4810
  765MPD2    H111352   1.171   2.264  15.589  0.4855  1.8190  0.2438
  765MPD2    H211353   0.842   2.520  15.655 -0.0277 -1.1139 -2.1869
  765MPD2    H311354   0.963   2.352  15.513 -0.6066 -2.9353  1.2350
  765MPD2     N11355   1.294   2.350  15.825  0.2906  0.4785 -0.5890
  765MPD2    H511356   1.322   2.398  15.910  0.3358 -1.0104  0.2370
  765MPD2    N111357   0.922   2.638  15.861  0.2100  0.4521  0.0447
  765MPD2    H711358   0.822   2.643  15.847 -0.2911 -0.0120  3.4646
  766MPD2     C11359   0.271   2.755  15.694 -0.2278  0.6339  0.3147
  766MPD2    C111360   0.405   2.720  15.717  0.2375 -0.5173  0.5394
  766MPD2    C211361   0.468   2.643  15.621 -0.1406 -0.3553  0.2914
  766MPD2    C311362   0.404   2.625  15.501  0.1797 -0.7991 -0.1577
  766MPD2    C411363   0.278   2.663  15.474 -0.8881 -1.0048  0.5052
  766MPD2    C511364   0.217   2.735  15.573  0.2443 -0.3275 -0.4419
  766MPD2     H11365   0.573   2.618  15.631  0.2442  1.0489 -0.1705
  766MPD2    H111366   0.222   2.639  15.385 -0.0398 -2.3598  0.3311
  766MPD2    H211367   0.202   2.792  15.769 -1.1952 -0.0007 -0.2474
  766MPD2    H311368   0.111   2.759  15.564  0.3465  0.7731  1.4228
  766MPD2     N11369   0.474   2.577  15.388 -0.1371 -0.4356 -0.3003
  766MPD2    H511370   0.431   2.596  15.298 -0.2646  1.2661  0.1215
  766MPD2    N111371   0.460   2.748  15.839 -0.3550  0.0959  0.0384
  766MPD2    H711372   0.410   2.812  15.899  0.4435 -0.1133  0.9141
  767MPD2     C11373   0.008   2.844  15.190 -0.5499 -0.2572 -0.2101
  767MPD2    C111374   0.139   2.821  15.159  0.0204  0.1303 -0.5004
  767MPD2    C211375   0.173   2.744  15.048  0.1880  0.5571 -0.2112
  767MPD2    C311376   0.072   2.685  14.970 -0.2451  0.0774  0.8053
  767MPD2    C411377   4.678   2.706  14.996  0.1579  0.0722  0.2548
  767MPD2    C511378   4.645   2.783  15.107  0.2188 -0.0121 -0.1827
  767MPD2     H11379   0.277   2.729  15.020  0.4627  0.6120  0.7916
  767MPD2    H111380   4.594   2.664  14.943  0.1851 -0.3550  0.5527
  767MPD2    H211381   4.723   2.918  15.266  1.0035  1.1556 -1.1203
  767MPD2    H311382   4.539   2.803  15.122  0.6191  1.1953  1.0951
  767MPD2     N11383   0.110   2.608  14.859 -0.2920 -0.8057 -0.2143
  767MPD2    H511384   0.208   2.599  14.835 -0.1004 -0.6377  0.4911
  767MPD2    N111385   0.230   2.878  15.251 -0.6105  0.8462 -0.2621
  767MPD2    H711386   0.190   2.938  15.323 -2.0925  0.3244 -0.6509
  768MPD2     C11387   1.239   0.853  10.828 -0.3253 -0.1183  1.0733
  768MPD2    C111388   1.299   0.975  10.840  0.0325  0.7750  0.2641
  768MPD2    C211389   1.411   0.991  10.926  0.7072 -0.2603 -0.4895
  768MPD2    C311390   1.456   0.878  10.993  0.0106  0.0455 -0.0854
  768MPD2    C411391   1.386   0.761  10.990 -0.1386  0.0846 -0.0107
  768MPD2    C511392   1.277   0.751  10.907  0.9443  0.1675 -0.6351
  768MPD2     H11393   1.452   1.089  10.950 -1.2571  0.8530 -1.6582
  768MPD2    H111394   1.413   0.667  11.037  0.4345  1.2362  1.9568
  768MPD2    H211395   1.149   0.841  10.767  1.2507  0.4691 -1.3691
  768MPD2    H311396   1.220   0.661  10.890  2.2781 -0.9031  0.6010
  768MPD2     N11397   1.559   0.884  11.094  0.1802 -0.2742 -0.0836
  768MPD2    H511398   1.569   0.797  11.145 -0.6121 -0.2727  0.0772
  768MPD2    N111399   1.242   1.096  10.790  0.1880  0.9236  0.4227
  768MPD2    H711400   1.289   1.186  10.802 -0.4880  1.3509 -0.0910
  769MPD2     C11401   2.293   4.172  14.860 -0.0665 -0.6691 -0.1039
  769MPD2    C111402   2.198   4.164  14.958 -0.4201 -1.1815  0.2895
  769MPD2    C211403   2.241   4.185  15.090  0.5031  0.8643  1.0277
  769MPD2    C311404   2.376   4.222  15.121 -0.1494 -0.3864  0.0813
  769MPD2    C411405   2.468   4.215  15.018  0.6141 -0.1592  1.3693
  769MPD2    C511406   2.428   4.196  14.890  0.1629 -0.1865  0.6591
  769MPD2     H11407   2.177   4.187  15.178 -0.3747 -0.1758  0.4152
  769MPD2    H111408   2.570   4.247  15.033  1.0247 -1.3633  1.1730
  769MPD2    H211409   2.265   4.161  14.756 -1.3196  0.0978  0.1620
  769MPD2    H311410   2.499   4.197  14.808 -1.3605 -0.2920 -0.6469
  769MPD2     N11411   2.396   4.260  15.252 -0.2913 -0.3711 -0.6622
  769MPD2    H511412   2.321   4.271  15.320 -0.3412 -0.2438 -0.7394
  769MPD2    N111413   2.063   4.145  14.919 -0.5016  0.0242 -0.3935
  769MPD2    H711414   2.033   4.144  14.822  0.6463 -1.5553 -0.7204
  770MPD2     C11415   1.305   3.596  15.219 -0.1730  0.7675  0.4415
  770MPD2    C111416   1.409   3.572  15.138 -0.0055  0.5134  0.0970
  770MPD2    C211417   1.480   3.672  15.083  0.6781 -0.0602  0.5667
  770MPD2    C311418   1.454   3.802  15.122  0.0625 -0.2419 -0.8826
  770MPD2    C411419   1.357   3.830  15.219 -0.8364 -0.4620 -0.7489
  770MPD2    C511420   1.288   3.720  15.268 -0.2729 -0.9569 -0.3807
  770MPD2     H11421   1.553   3.650  15.005 -0.6242 -0.4390 -0.5386
  770MPD2    H111422   1.336   3.928  15.259  0.1053 -0.4465 -0.2786
  770MPD2    H211423   1.241   3.516  15.254  0.1843  0.8158  1.1843
  770MPD2    H311424   1.218   3.732  15.349  1.9069  1.5070  1.1228
  770MPD2     N11425   1.512   3.905  15.046 -0.1647 -0.2338 -0.0957
  770MPD2    H511426   1.587   3.869  14.987 -0.3387  1.0345 -1.0839
  770MPD2    N111427   1.436   3.442  15.097  0.1153  0.2136  0.0462
  770MPD2    H711428   1.385   3.370  15.146  0.6206  0.4661  0.9519
  771MPD2     C11429   2.932   2.383  14.288  0.3664 -0.6909  0.0530
  771MPD2    C111430   2.993   2.403  14.164 -0.0772  0.3849  0.2047
  771MPD2    C211431   3.012   2.290  14.083 -0.5939  0.4652  0.7116
  771MPD2    C311432   2.970   2.164  14.129 -0.1163  0.5816  0.5518
  771MPD2    C411433   2.915   2.146  14.250  0.0128  0.2182 -0.6302
  771MPD2    C511434   2.912   2.256  14.335  0.5372  0.4231 -0.8448
  771MPD2     H11435   3.054   2.300  13.984  0.0117  0.9080  1.0161
  771MPD2    H111436   2.875   2.050  14.280  1.4136  0.0025  0.5425
  771MPD2    H211437   2.923   2.463  14.360  3.7812 -1.0166  0.8399
  771MPD2    H311438   2.879   2.248  14.438 -1.6578  3.0084 -1.3648
  771MPD2     N11439   2.971   2.046  14.047  0.4232 -0.2104  0.4426
  771MPD2    H511440   2.939   1.959  14.088 -0.1039  0.0338  0.5468
  771MPD2    N111441   3.036   2.531  14.129  0.2868  0.5423 -0.3544
  771MPD2    H711442   2.995   2.613  14.173 -0.1799 -0.0632  0.3502
  772MPD2     C11443   2.621   3.077  13.991 -1.1692  0.5011 -1.0132
  772MPD2    C111444   2.678   2.968  14.058 -0.1899 -1.0261  0.2207
  772MPD2    C211445   2.599   2.909  14.154  0.4372 -0.6387 -0.7967
  772MPD2    C311446   2.469   2.948  14.174 -0.5031 -0.1504 -0.2703
  772MPD2    C411447   2.410   3.044  14.094  0.3360  0.1341 -0.4007
  772MPD2    C511448   2.485   3.104  14.000 -0.1484 -0.1208 -0.2549
  772MPD2     H11449   2.643   2.829  14.212 -0.3338 -1.2675 -1.0794
  772MPD2    H111450   2.312   3.081  14.121  0.5372 -0.2879  0.9001
  772MPD2    H211451   2.688   3.136  13.931  0.7738 -1.1959 -0.4869
  772MPD2    H311452   2.449   3.181  13.933 -1.5297 -0.6764 -0.1547
  772MPD2     N11453   2.380   2.873  14.246 -0.2243 -0.7375  0.0925
  772MPD2    H511454   2.285   2.891  14.214  0.5551  2.9668 -0.1912
  772MPD2    N111455   2.807   2.923  14.043  0.2199 -0.1517  0.2695
  772MPD2    H711456   2.839   2.866  14.121 -0.7478 -0.6606  0.3011
  773MPD2     C11457   1.611   3.704  17.513  0.0985 -0.5434  0.2331
  773MPD2    C111458   1.542   3.585  17.530  0.2346 -0.3155 -0.8295
  773MPD2    C211459   1.602   3.496  17.621  0.0576  0.0906  0.9006
  773MPD2    C311460   1.719   3.519  17.688 -0.0746 -0.3970 -0.2883
  773MPD2    C411461   1.786   3.638  17.664  0.7045  0.4240 -0.8212
  773MPD2    C511462   1.729   3.728  17.589  0.9168  0.1662  0.2157
  773MPD2     H11463   1.563   3.395  17.633  2.3396 -0.8275  0.5278
  773MPD2    H111464   1.886   3.657  17.700 -0.0868  1.7250  0.7108
  773MPD2    H211465   1.576   3.792  17.461 -1.0498 -1.0318  0.1726
  773MPD2    H311466   1.792   3.812  17.565  1.7029  0.0476  1.8437
  773MPD2     N11467   1.770   3.424   0.031  0.5727  0.1228 -0.6473
  773MPD2    H511468   1.730   3.331   0.028 -0.7703  0.7127 -1.2403
  773MPD2    N111469   1.434   3.555  17.448  0.7329 -1.0228 -0.6498
  773MPD2    H711470   1.392   3.464  17.463 -1.8654  0.0198 -1.6234
  774MPD2     C11471   1.190   2.214  13.694 -0.2742 -0.6026 -1.1028
  774MPD2    C111472   1.146   2.321  13.766 -0.0903 -0.0271 -0.0998
  774MPD2    C211473   1.232   2.420  13.787 -0.4732 -0.3485 -0.4577
  774MPD2    C311474   1.364   2.415  13.738 -0.8172  0.0050 -1.1281
  774MPD2    C411475   1.412   2.313  13.658  0.0545 -0.3650  0.5707
  774MPD2    C511476   1.320   2.215  13.634  0.4317 -0.0615 -0.2409
  774MPD2     H11477   1.208   2.503  13.853  0.6109  0.7563 -1.4689
  774MPD2    H111478   1.506   2.302  13.606 -0.3638 -0.4280 -0.1731
  774MPD2    H211479   1.121   2.136  13.665 -0.5299 -0.5683 -0.5854
  774MPD2    H311480   1.352   2.137  13.565 -0.2606 -0.2655 -0.3319
  774MPD2     N11481   1.449   2.509  13.803  0.2366 -0.2369 -0.0651
  774MPD2    H511482   1.402   2.572  13.868 -2.9064 -1.1092 -1.4629
  774MPD2    N111483   1.020   2.311  13.834 -0.7101 -0.7596 -0.0263
  774MPD2    H711484   0.980   2.218  13.823  1.3844 -1.7337  0.7711
  775MPD2     C11485   2.440   3.757  15.785  0.4180 -0.6202 -0.6538
  775MPD2    C111486   2.444   3.880  15.853 -0.2182 -0.8545  0.3730
  775MPD2    C211487   2.541   3.972  15.812 -0.0013  0.3104 -0.3521
  775MPD2    C311488   2.629   3.944  15.711  0.4676  0.2338 -0.0731
  775MPD2    C411489   2.621   3.823  15.640 -0.6846  0.0496  0.1348
  775MPD2    C511490   2.529   3.728  15.682  0.5128 -0.5725  0.3229
  775MPD2     H11491   2.547   4.068  15.862  0.8569  0.0382  0.0702
  775MPD2    H111492   2.685   3.791  15.558 -1.3175 -1.2788  0.1525
  775MPD2    H211493   2.376   3.674  15.814  0.1659 -0.4450 -0.7037
  775MPD2    H311494   2.529   3.629  15.638  0.1268 -0.4932  0.1408
  775MPD2     N11495   2.733   4.024  15.669 -0.1824  0.7152  0.1669
  775MPD2    H511496   2.794   3.998  15.592  0.9484  0.2567  1.1995
  775MPD2    N111497   2.354   3.907  15.955 -0.1098 -0.1987  0.4415
  775MPD2    H711498   2.297   3.831  15.992  1.1485 -1.2557  0.2001
  776MPD2     C11499   0.999   4.276  11.849 -0.2708 -0.2896 -0.4699
  776MPD2    C111500   1.130   4.268  11.879 -0.5198 -0.4141 -0.7049
  776MPD2    C211501   1.228   4.297  11.780 -0.2538  0.5357  0.8766
  776MPD2    C311502   1.194   4.338  11.656 -0.3794 -0.1736 -0.1405
  776MPD2    C411503   1.059   4.331  11.621  0.4509  0.5628 -0.2770
  776MPD2    C511504   0.964   4.308  11.721 -1.0701 -0.3874 -0.0164
  776MPD2     H11505   1.334   4.281  11.798  0.3669  2.5738 -0.8931
  776MPD2    H111506   1.020   4.347  11.521 -0.9912  1.2716  0.4057
  776MPD2    H211507   0.917   4.261  11.920  0.2510 -0.5875  0.0701
  776MPD2    H311508   0.862   4.319  11.688 -1.3763  0.7439  1.3357
  776MPD2     N11509   1.281   4.378  11.550 -0.2834  0.1760 -0.4278
  776MPD2    H511510   1.240   4.402  11.460 -0.8874 -0.2997 -0.2811
  776MPD2    N111511   1.173   4.215  12.004 -0.3007  0.0245  1.0601
  776MPD2    H711512   1.272   4.194  12.014 -0.9597 -2.5623  1.9758
  777MPD2     C11513   1.628   2.011   0.840  0.5428 -0.0722  0.4697
  777MPD2    C111514   1.696   1.939   0.930 -0.4234 -0.0367 -0.4881
  777MPD2    C211515   1.714   1.802   0.911  0.1066  0.6075 -0.4667
  777MPD2    C311516   1.661   1.742   0.801  0.0646 -0.1008  0.2888
  777MPD2    C411517   1.593   1.823   0.707  0.2256 -0.1860  0.6509
  777MPD2    C511518   1.572   1.962   0.731 -0.0044  0.1499  0.1631
  777MPD2     H11519   1.760   1.743   0.989 -0.5755  0.2059 -0.3769
  777MPD2    H111520   1.550   1.778   0.618  1.9575  1.1563 -0.8529
  777MPD2    H211521   1.623   2.117   0.862 -1.7662  0.3407 -2.0469
  777MPD2    H311522   1.508   2.017   0.662  0.0939  1.3077  1.0033
  777MPD2     N11523   1.667   1.599   0.792  0.5287  0.2588  0.1043
  777MPD2    H511524   1.715   1.546   0.864  0.7624  0.5989  0.2025
  777MPD2    N111525   1.737   2.008   1.046  0.7321 -0.5820 -0.0143
  777MPD2    H711526   1.723   2.109   1.047 -1.6411 -0.8885 -2.6942
  778MPD2     C11527   2.793   2.233  15.097 -0.4564  0.2339 -0.4073
  778MPD2    C111528   2.855   2.117  15.051 -0.3640 -0.4682 -0.7197
  778MPD2    C211529   2.938   2.121  14.943 -0.8453  0.2075 -0.1483
  778MPD2    C311530   2.968   2.240  14.886 -0.1084 -0.0370  0.6000
  778MPD2    C411531   2.900   2.355  14.923 -0.1188  0.1710 -0.5221
  778MPD2    C511532   2.815   2.349  15.026  0.0976  0.6434  0.1160
  778MPD2     H11533   2.985   2.030  14.909  1.0336  0.9872  0.3346
  778MPD2    H111534   2.920   2.454  14.883  1.3147  0.1803  0.2399
  778MPD2    H211535   2.726   2.234  15.183 -0.0409  0.4493 -0.0854
  778MPD2    H311536   2.774   2.444  15.060 -1.5984 -0.1744  0.3633
  778MPD2     N11537   3.067   2.249  14.786 -0.2007  0.0563 -0.9835
  778MPD2    H511538   3.130   2.171  14.774 -0.8506 -0.7717  1.0722
  778MPD2    N111539   2.835   1.989  15.114 -0.4997  0.7584  0.3580
  778MPD2    H711540   2.879   1.906  15.075  1.1099  2.6862 -1.9632
  779MPD2     C11541   2.572   0.838  14.671  0.0232  0.3898 -0.3132
  779MPD2    C111542   2.707   0.852  14.667 -0.2531 -0.0512 -0.3114
  779MPD2    C211543   2.759   0.972  14.652  0.0071  0.1625 -0.6629
  779MPD2    C311544   2.674   1.091  14.631 -0.1041  0.5944 -0.3609
  779MPD2    C411545   2.537   1.066  14.636 -0.6814 -0.2053  0.0528
  779MPD2    C511546   2.493   0.944  14.657  0.1793  0.5728  0.3777
  779MPD2     H11547   2.866   0.987  14.647 -0.0265  0.7487  0.3659
  779MPD2    H111548   2.464   1.146  14.632  1.6271  2.0584  4.3088
  779MPD2    H211549   2.529   0.738  14.676  2.1878 -0.4692  1.2758
  779MPD2    H311550   2.386   0.933  14.674  0.3766  1.6581  2.3774
  779MPD2     N11551   2.731   1.222  14.617 -0.1564 -0.2400 -0.3410
  779MPD2    H511552   2.832   1.233  14.625 -0.2315 -1.8529  2.7046
  779MPD2    N111553   2.798   0.738  14.680  0.0199  0.5903 -0.4871
  779MPD2    H711554   2.897   0.755  14.668  0.2499 -0.4898 -0.0805
  780MPD2     C11555   2.841   0.634   1.204 -0.2317  0.4973 -0.2391
  780MPD2    C111556   2.714   0.683   1.176  0.6902  0.3993  0.0751
  780MPD2    C211557   2.705   0.763   1.069  0.2364  0.0967  0.2174
  780MPD2    C311558   2.805   0.808   0.988  0.6834  0.6130  0.3146
  780MPD2    C411559   2.929   0.762   1.012 -0.5583 -0.3183 -0.5279
  780MPD2    C511560   2.938   0.672   1.112  0.3002  0.0695  0.4938
  780MPD2     H11561   2.606   0.805   1.054  0.5383  1.0313  0.9127
  780MPD2    H111562   3.006   0.778   0.938 -2.0075  2.1044 -1.4876
  780MPD2    H211563   2.871   0.565   1.282  1.1623  0.9079 -0.4127
  780MPD2    H311564   3.033   0.621   1.122  0.7974  1.0331  0.7292
  780MPD2     N11565   2.769   0.877   0.869 -0.0213  0.2238  0.0058
  780MPD2    H511566   2.668   0.882   0.858 -0.0664 -2.5865 -0.9395
  780MPD2    N111567   2.606   0.654   1.258  0.1462  0.1549  0.4961
  780MPD2    H711568   2.625   0.585   1.330  0.2916 -0.4613 -0.1269
  781MPD2     C11569   0.052   2.555  12.286  0.5855  0.0986 -0.2908
  781MPD2    C111570   0.005   2.486  12.397 -0.3908 -0.2661 -0.0942
  781MPD2    C211571   0.045   2.358  12.417 -0.4303 -0.6597  0.7008
  781MPD2    C311572   0.120   2.290  12.328 -0.8515  0.0590 -0.4433
  781MPD2    C411573   0.168   2.361  12.225  0.2659  0.3189  0.1890
  781MPD2    C511574   0.138   2.492  12.200  0.0690  0.2920 -0.2391
  781MPD2     H11575   0.013   2.317  12.512  1.0846  0.9293  1.9121
  781MPD2    H111576   0.241   2.312  12.162 -0.0876 -1.4824  1.1572
  781MPD2    H211577   0.027   2.657  12.258 -0.0755  0.1111  0.3287
  781MPD2    H311578   0.187   2.549  12.122 -0.4164  0.4216 -0.4481
  781MPD2     N11579   0.174   2.161  12.338 -0.0577 -0.0885  0.3042
  781MPD2    H511580   0.232   2.135  12.259 -1.7754 -0.8918 -0.7026
  781MPD2    N111581   4.643   2.541  12.477 -0.0776  0.1009 -0.1662
  781MPD2    H711582   4.608   2.479  12.549  3.0541 -0.9194  0.4820
  782MPD2     C11583   2.120   3.407  10.501 -0.1358  0.0931 -0.3251
  782MPD2    C111584   2.217   3.399  10.599 -0.0688 -0.0510  0.2709
  782MPD2    C211585   2.288   3.515  10.622  0.2744  0.3940 -0.1878
  782MPD2    C311586   2.263   3.625  10.547  0.1124 -0.7330  0.4253
  782MPD2    C411587   2.174   3.628  10.444  0.6636 -0.5592 -0.3773
  782MPD2    C511588   2.101   3.522  10.426  0.1316 -0.3489 -0.2942
  782MPD2     H11589   2.366   3.512  10.698 -0.3331  0.6241  0.4483
  782MPD2    H111590   2.142   3.715  10.387  0.4595 -0.4122 -0.0355
  782MPD2    H211591   2.057   3.325  10.468  1.2011  0.2860 -3.3145
  782MPD2    H311592   2.047   3.529  10.332  1.1504 -0.8304 -0.9091
  782MPD2     N11593   2.317   3.742  10.591  0.1517  0.6821  0.6393
  782MPD2    H511594   2.364   3.736  10.680  2.0757 -1.4351 -0.5398
  782MPD2    N111595   2.246   3.294  10.688 -0.2666 -0.3163  0.0856
  782MPD2    H711596   2.320   3.308  10.756 -1.7235 -0.0627  1.6265
  783MPD2     C11597   1.843   3.066  11.599  0.5802 -0.1761  0.3763
  783MPD2    C111598   1.935   3.171  11.601 -0.9906 -0.0014  0.5469
  783MPD2    C211599   2.030   3.177  11.494  0.1853  0.1433  0.8744
  783MPD2    C311600   2.013   3.092  11.385 -0.1192  0.4024 -0.0330
  783MPD2    C411601   1.913   2.993  11.389 -0.1458  0.7927  0.1134
  783MPD2    C511602   1.827   2.987  11.493  0.5439  0.0074 -0.1717
  783MPD2     H11603   2.106   3.253  11.480 -0.2752  0.8978  2.5113
  783MPD2    H111604   1.902   2.915  11.314  1.6384 -1.2446  1.9720
  783MPD2    H211605   1.767   3.047  11.674  0.2503  0.1627  0.1270
  783MPD2    H311606   1.759   2.903  11.503 -1.5794  1.8363  0.7093
  783MPD2     N11607   2.090   3.115  11.268 -0.2290 -0.6164  0.1441
  783MPD2    H511608   2.170   3.176  11.280 -0.3486 -1.0867  3.2950
  783MPD2    N111609   1.934   3.256  11.708 -0.0591 -0.2515  0.6449
  783MPD2    H711610   1.882   3.220  11.787 -0.9724  2.2780  1.2070
  784MPD2     C11611   4.482   3.543   0.869 -0.2291  0.2899 -0.2719
  784MPD2    C111612   4.532   3.639   0.958 -0.4584 -0.0244  0.3051
  784MPD2    C211613   4.457   3.753   0.985  0.9437 -0.6351  0.0349
  784MPD2    C311614   4.337   3.778   0.919 -0.0686  0.3584  0.0845
  784MPD2    C411615   4.295   3.690   0.825  0.3650  0.5936  0.2437
  784MPD2    C511616   4.362   3.573   0.798  0.0998  0.2257 -0.6448
  784MPD2     H11617   4.497   3.816   1.064 -0.6512  3.1301 -2.1387
  784MPD2    H111618   4.226   3.722   0.748 -0.9713 -2.9347 -0.0480
  784MPD2    H211619   4.522   3.444   0.851 -0.9767  0.1046 -0.9409
  784MPD2    H311620   4.340   3.503   0.718 -1.0277 -0.0497 -0.0952
  784MPD2     N11621   4.268   3.899   0.945  0.6515  0.0366  0.1683
  784MPD2    H511622   4.312   3.964   1.008  1.6270 -1.0181  0.5766
  784MPD2    N111623   4.644   3.616   1.038  0.3719  0.4151  0.1378
  784MPD2    H711624   4.664   3.695   1.098  1.8637  0.3167 -0.2280
  785MPD2     C11625   0.214   1.958  11.429  0.1297 -0.2347 -0.8844
  785MPD2    C111626   0.111   1.999  11.355  0.1422  0.7382  0.2443
  785MPD2    C211627   0.069   1.924  11.250 -0.6098  0.1340 -0.2642
  785MPD2    C311628   0.122   1.799  11.222 -0.8680 -0.5496  0.5083
  785MPD2    C411629   0.233   1.757  11.302  0.0908 -0.4260 -0.4819
  785MPD2    C511630   0.277   1.845  11.400  0.1575  0.3385 -0.1757
  785MPD2     H11631   4.728   1.952  11.180  1.5375  6.3134 -0.1509
  785MPD2    H111632   0.281   1.662  11.283  1.1267  0.1232 -0.6189
  785MPD2    H211633   0.258   2.023  11.504  2.5616 -2.7304 -0.1404
  785MPD2    H311634   0.362   1.820  11.462 -0.5739  0.3052  0.8071
  785MPD2     N11635   0.071   1.735  11.108 -0.2047 -0.0866 -0.4034
  785MPD2    H511636   4.726   1.768  11.060  0.3134  0.4866 -0.8962
  785MPD2    N111637   0.056   2.135  11.358 -0.0254  0.2452  0.0741
  785MPD2    H711638   4.710   2.151  11.303  0.5632 -1.6630 -1.3968
  786MPD2     C11639   3.644   0.365  15.072  0.2216 -0.2579 -0.4255
  786MPD2    C111640   3.614   0.232  15.075 -0.4280 -0.4457 -0.2647
  786MPD2    C211641   3.611   0.172  15.195  0.7217  0.1151  0.2536
  786MPD2    C311642   3.638   0.236  15.313 -0.3416 -0.7971 -0.4690
  786MPD2    C411643   3.665   0.374  15.307 -0.3631 -0.0986 -0.2027
  786MPD2    C511644   3.667   0.436  15.189 -0.2861  0.4097 -0.1589
  786MPD2     H11645   3.579   0.068  15.192 -1.9784  0.9053  1.1283
  786MPD2    H111646   3.690   0.442  15.388  1.8660 -1.4300  0.2304
  786MPD2    H211647   3.635   0.426  14.983  1.5289 -0.1633 -0.4970
  786MPD2    H311648   3.696   0.540  15.181  1.2600 -0.1249 -1.3704
  786MPD2     N11649   3.643   0.166  15.437 -0.2990 -0.3077  0.0242
  786MPD2    H511650   3.625   0.066  15.428 -1.6066 -0.1056  0.4452
  786MPD2    N111651   3.604   0.144  14.958  0.1278 -0.4271 -0.1944
  786MPD2    H711652   3.586   0.046  14.977 -1.4799 -0.1990 -0.5274
  787MPD2     C11653   3.640   4.270  14.945 -0.2988  0.2104 -0.1331
  787MPD2    C111654   3.636   4.302  14.808  0.3567 -0.3588  0.2137
  787MPD2    C211655   3.677   4.206  14.719 -0.4508  0.1692 -0.1095
  787MPD2    C311656   3.721   4.080  14.759 -0.6026 -0.1618 -0.0761
  787MPD2    C411657   3.734   4.056  14.893 -0.0502 -0.5590  1.0746
  787MPD2    C511658   3.688   4.148  14.985 -0.5609 -0.3343  0.2384
  787MPD2     H11659   3.663   4.226  14.613  1.5243  1.2281 -0.1632
  787MPD2    H111660   3.773   3.961  14.927 -1.2541 -1.0902  0.9617
  787MPD2    H211661   3.599   4.330  15.025 -2.0627  0.4106 -1.1766
  787MPD2    H311662   3.685   4.126  15.091 -0.5616  2.1130  0.7501
  787MPD2     N11663   3.764   4.000  14.650 -0.3851  0.0500 -0.1179
  787MPD2    H511664   3.753   4.046  14.560 -3.8767  2.3467  1.4571
  787MPD2    N111665   3.595   4.434  14.778 -0.1948  0.6527  0.1860
  787MPD2    H711666   3.580   4.492  14.860  1.2332 -0.6216  1.3515
  788MPD2     C11667   0.567   3.599   1.180 -0.5193  0.0777 -0.3281
  788MPD2    C111668   0.482   3.545   1.082 -0.5785  0.7254 -0.7020
  788MPD2    C211669   0.402   3.635   1.014  0.5663  0.2632  0.1364
  788MPD2    C311670   0.398   3.767   1.042 -0.7558  0.4810 -0.1337
  788MPD2    C411671   0.473   3.811   1.146 -0.5319 -0.2766  0.0488
  788MPD2    C511672   0.554   3.729   1.218  0.3042 -0.1790  0.1689
  788MPD2     H11673   0.338   3.590   0.939 -3.8576  2.8031  2.4034
  788MPD2    H111674   0.489   3.917   1.163  2.9792 -0.6824 -0.6907
  788MPD2    H211675   0.634   3.531   1.232 -0.7698 -1.0975 -1.5699
  788MPD2    H311676   0.631   3.760   1.287  1.3066 -1.3906 -0.3820
  788MPD2     N11677   0.324   3.858   0.968 -0.0070 -0.0117  0.6246
  788MPD2    H511678   0.340   3.956   0.987  0.7181  0.5073 -2.7154
  788MPD2    N111679   0.489   3.407   1.049  0.2243 -0.1318  0.3856
  788MPD2    H711680   0.567   3.357   1.092 -0.1416  0.6336  1.9441
  789MPD2     C11681   0.639   2.962  16.336  0.5516 -0.1243 -0.3440
  789MPD2    C111682   0.615   2.920  16.461  0.8803  0.2152 -0.2507
  789MPD2    C211683   0.537   3.007  16.537 -0.5998 -0.1193 -0.4772
  789MPD2    C311684   0.492   3.129  16.488  0.0954  0.1546 -0.6993
  789MPD2    C411685   0.516   3.165  16.355  0.1047 -0.1127  0.4405
  789MPD2    C511686   0.589   3.078  16.282  0.4251 -0.4825  0.6303
  789MPD2     H11687   0.517   2.974  16.639  1.8864  1.4131  0.5035
  789MPD2    H111688   0.477   3.257  16.314  0.3046 -0.4028 -0.3897
  789MPD2    H211689   0.689   2.897  16.265  1.4618  2.7984 -2.3578
  789MPD2    H311690   0.606   3.108  16.180 -2.5848  0.2005  0.3178
  789MPD2     N11691   0.424   3.225  16.565  0.9038 -0.5915  0.0059
  789MPD2    H511692   0.394   3.309  16.517  0.2354 -0.3546  0.8519
  789MPD2    N111693   0.660   2.801  16.513 -0.3234 -0.2035  0.6378
  789MPD2    H711694   0.628   2.770  16.605 -0.7917 -2.0467 -0.1580
  790MPD2     C11695   1.776   4.672  13.651  0.3946  0.2194  0.4127
  790MPD2    C111696   1.862   4.624  13.561 -0.2900 -0.1888 -0.4355
  790MPD2    C211697   1.829   4.523  13.471 -0.2387 -0.1427 -0.1211
  790MPD2    C311698   1.695   4.482  13.463 -0.6468  0.8001  0.6053
  790MPD2    C411699   1.600   4.540  13.554 -0.1162  0.5509  0.5197
  790MPD2    C511700   1.647   4.638  13.643  0.6116 -0.0300 -0.1450
  790MPD2     H11701   1.890   4.486  13.389  0.2020 -0.9563  0.5774
  790MPD2    H111702   1.496   4.508  13.558 -0.5181  1.9809  1.6867
  790MPD2    H211703   1.811   0.000  13.730  1.9792 -2.0644  1.6047
  790MPD2    H311704   1.574   4.676  13.713 -0.8819 -0.6386 -1.3742
  790MPD2     N11705   1.668   4.393  13.356 -0.3107  0.2908  1.1374
  790MPD2    H511706   1.748   4.369  13.299 -1.0734  0.4456 -0.0151
  790MPD2    N111707   1.989   4.688  13.560  0.9111  0.0972 -0.3425
  790MPD2    H711708   2.001   0.018  13.635  1.3884 -1.0676  0.6180
  791MPD2     C11709   0.974   4.129  13.164 -0.6337  0.7576 -0.3235
  791MPD2    C111710   1.067   4.034  13.165 -0.5815 -0.0642  0.2480
  791MPD2    C211711   1.034   3.908  13.209  0.7283  0.6658 -0.0784
  791MPD2    C311712   0.910   3.881  13.263  0.4002 -0.9255  0.0930
  791MPD2    C411713   0.820   3.984  13.265 -0.6447  0.7638 -0.2156
  791MPD2    C511714   0.850   4.108  13.215 -0.1462  0.5962 -0.9301
  791MPD2     H11715   1.117   3.838  13.208 -1.8601 -2.3789  0.9707
  791MPD2    H111716   0.720   3.970  13.305 -0.6874 -1.6799 -1.1469
  791MPD2    H211717   0.999   4.227  13.126  0.6358  0.3088 -0.6427
  791MPD2    H311718   0.772   4.183  13.216 -0.9137 -0.2361  1.3077
  791MPD2     N11719   0.899   3.754  13.333 -0.8332 -0.2402 -0.5298
  791MPD2    H511720   0.966   3.679  13.320 -2.2134 -1.2432 -1.9624
  791MPD2    N111721   1.196   4.075  13.120 -0.0890 -0.1270  0.1760
  791MPD2    H711722   1.192   4.172  13.092 -0.0142 -0.0788  0.3291
  792MPD2     C11723   2.219   4.161  11.655  0.4374  0.3285 -0.4526
  792MPD2    C111724   2.130   4.235  11.576  0.6437 -0.6346  0.5541
  792MPD2    C211725   2.008   4.180  11.547  0.2919 -0.3406 -0.3336
  792MPD2    C311726   1.971   4.058  11.597  0.3356 -0.0468 -0.4085
  792MPD2    C411727   2.060   3.982  11.670  0.6928 -0.2589  0.0827
  792MPD2    C511728   2.183   4.037  11.696 -0.0492 -0.4038  0.2213
  792MPD2     H11729   1.947   4.237  11.478  0.6242  0.0749 -0.2809
  792MPD2    H111730   2.036   3.883  11.705 -1.2415  0.5127  0.9140
  792MPD2    H211731   2.313   4.187  11.702  0.1004  0.5139  0.1182
  792MPD2    H311732   2.256   3.983  11.754  0.9850 -0.3687 -1.0580
  792MPD2     N11733   1.839   4.000  11.579 -1.1930  0.2912 -0.4106
  792MPD2    H511734   1.828   3.913  11.631  0.5609  1.0067  1.1487
  792MPD2    N111735   2.167   4.357  11.524 -0.2621  0.6741 -0.1734
  792MPD2    H711736   2.109   4.401  11.453 -1.8285 -1.1190 -0.0161
  793MPD2     C11737   1.096   4.003  10.949  0.1926  0.1879  0.0740
  793MPD2    C111738   1.231   3.999  10.942  0.1617 -0.1285  0.3577
  793MPD2    C211739   1.302   4.032  11.057  0.1947  0.2424 -0.4440
  793MPD2    C311740   1.239   4.053  11.176 -0.2141 -0.1000 -0.0883
  793MPD2    C411741   1.101   4.052  11.184 -0.4901 -0.0552  0.5592
  793MPD2    C511742   1.030   4.032  11.070  0.9108 -0.0609  0.6388
  793MPD2     H11743   1.410   4.024  11.057  0.1515 -0.1199  2.0517
  793MPD2    H111744   1.042   4.061  11.275 -0.6208 -1.8456  0.6405
  793MPD2    H211745   1.028   3.979  10.869  1.6497 -1.9479 -0.5254
  793MPD2    H311746   0.924   4.024  11.086  0.7203  1.3709  0.0835
  793MPD2     N11747   1.322   4.047  11.288 -0.0665  0.0217  0.7314
  793MPD2    H511748   1.422   4.032  11.275 -0.5077 -1.8227 -0.6155
  793MPD2    N111749   1.310   3.951  10.827 -0.1627  0.0419 -0.0045
  793MPD2    H711750   1.408   3.930  10.840 -0.4146 -1.0095  0.1972
  794MPD2     C11751   1.254   3.390  16.575 -0.1342  0.6291 -0.5689
  794MPD2    C111752   1.211   3.487  16.663 -0.0759  0.1597  0.2662
  794MPD2    C211753   1.113   3.574  16.613 -0.8730  0.0475  0.4404
  794MPD2    C311754   1.074   3.575  16.478  0.0600 -0.1799 -0.2611
  794MPD2    C411755   1.130   3.488  16.396 -0.0448  0.4876 -0.8027
  794MPD2    C511756   1.221   3.392  16.445  0.2928  0.2454  0.3563
  794MPD2     H11757   1.060   3.635  16.686 -2.7191 -0.2778 -0.6458
  794MPD2    H111758   1.104   3.475  16.292 -0.5830  0.0181 -0.6080
  794MPD2    H211759   1.327   3.316  16.607 -2.8705 -1.2525  1.3924
  794MPD2    H311760   1.266   3.313  16.386  1.6429  0.5068  1.0285
  794MPD2     N11761   0.974   3.665  16.421  0.0929 -0.1701  0.3641
  794MPD2    H511762   0.954   3.646  16.323  0.4704 -0.5808  0.3655
  794MPD2    N111763   1.242   3.474  16.806  0.0590  0.1850 -0.1453
  794MPD2    H711764   1.290   3.393  16.841  3.6444  1.6050 -1.8092
  795MPD2     C11765   4.196   1.138  14.169 -0.3041  0.8268  0.8457
  795MPD2    C111766   4.094   1.052  14.141  0.1753 -0.5751  0.2205
  795MPD2    C211767   4.120   0.916  14.170  0.3064 -0.0464  0.8053
  795MPD2    C311768   4.253   0.874  14.199 -0.2475  0.6852 -0.1330
  795MPD2    C411769   4.355   0.967  14.213  0.2207 -0.0769  0.2696
  795MPD2    C511770   4.321   1.100  14.209  0.4836  1.1092 -0.0115
  795MPD2     H11771   4.041   0.843  14.159  1.4849 -1.1756 -0.2120
  795MPD2    H111772   4.461   0.951  14.230  0.2624  1.2462  1.2821
  795MPD2    H211773   4.183   1.246  14.172 -0.4785  0.7951  1.3580
  795MPD2    H311774   4.395   1.170  14.246  0.8800 -0.1892  1.6431
  795MPD2     N11775   4.271   0.740  14.236 -0.1701 -0.4509  0.3458
  795MPD2    H511776   4.195   0.672  14.237  1.0239 -1.7981 -1.0590
  795MPD2    N111777   3.972   1.088  14.089  0.5134 -0.4917  0.1443
  795MPD2    H711778   3.903   1.013  14.087  0.7307 -0.6976  0.4132
  796MPD2     C11779   3.177   2.455  16.010 -0.0083 -0.1195  0.7858
  796MPD2    C111780   3.211   2.538  16.108  0.1612 -0.1214 -0.8160
  796MPD2    C211781   3.216   2.676  16.083  0.5254 -0.8058  0.0617
  796MPD2    C311782   3.188   2.720  15.953 -0.9014  0.0791 -0.7347
  796MPD2    C411783   3.162   2.629  15.853 -0.4632  0.6280 -0.1575
  796MPD2    C511784   3.147   2.498  15.886  0.6437 -0.2849 -0.4949
  796MPD2     H11785   3.250   2.748  16.157  0.6711  1.7263 -2.4558
  796MPD2    H111786   3.146   2.664  15.752 -1.1080  1.0139  0.0758
  796MPD2    H211787   3.154   2.351  16.028 -1.5755  0.6974  3.5395
  796MPD2    H311788   3.110   2.436  15.805 -2.8906 -2.4282  2.7744
  796MPD2     N11789   3.216   2.849  15.926  0.0431 -0.3776  0.6379
  796MPD2    H511790   3.272   2.899  15.994  1.3124 -0.7200 -0.1651
  796MPD2    N111791   3.234   2.483  16.235  0.0944 -0.3274 -0.7392
  796MPD2    H711792   3.233   2.382  16.246  0.5629 -0.2719 -0.1977
  797MPD2     C11793   4.579   2.102  17.322  0.2652  0.2045 -0.2792
  797MPD2    C111794   4.616   2.236  17.350  0.2165  0.0447  0.2235
  797MPD2    C211795   4.556   2.336  17.272 -0.4041  0.3582  0.0620
  797MPD2    C311796   4.448   2.310  17.191 -0.5980  0.3015 -0.1752
  797MPD2    C411797   4.401   2.184  17.180 -0.2259 -0.2020 -0.6236
  797MPD2    C511798   4.473   2.083  17.242  0.2284 -0.2879  0.6648
  797MPD2     H11799   4.588   2.437  17.296 -0.5836 -0.3275  3.1798
  797MPD2    H111800   4.301   2.156  17.146 -0.8013  1.0330  0.0590
  797MPD2    H211801   4.613   2.012  17.372 -0.1109 -0.1810 -0.7287
  797MPD2    H311802   4.434   1.982  17.245 -0.4830  0.0152  1.7429
  797MPD2     N11803   4.373   2.418  17.143 -0.4793 -0.0877 -0.0113
  797MPD2    H511804   4.413   2.508  17.167  1.4705 -1.3085  1.3027
  797MPD2    N111805   4.711   2.283  17.443 -0.3075  0.0364 -0.0967
  797MPD2    H711806   0.004   2.380  17.440  1.4171 -0.5433 -1.3552
  798MPD2     C11807   4.429   2.959  17.526 -0.0643 -0.1638  0.0664
  798MPD2    C111808   4.457   2.857  17.442 -0.1239  0.6356 -0.0067
  798MPD2    C211809   4.571   2.776  17.469  1.0463 -0.2077  0.0998
  798MPD2    C311810   4.637   2.797  17.587 -0.3604 -0.1101 -0.4724
  798MPD2    C411811   4.604   2.893  17.676  0.0067 -0.2139 -0.4770
  798MPD2    C511812   4.498   2.976  17.641 -0.1290 -0.1744  0.7456
  798MPD2     H11813   4.597   2.689  17.410  0.6430  1.4397 -2.4609
  798MPD2    H111814   4.646   2.911   0.026  0.2719 -0.1462 -0.6033
  798MPD2    H211815   4.342   3.019  17.503 -1.2318 -1.0641  2.1113
  798MPD2    H311816   4.476   3.060  17.706 -0.3770  0.4954 -0.2047
  798MPD2     N11817   4.730   2.693  17.620 -0.4587 -0.0827  0.1993
  798MPD2    H511818   0.014   2.622  17.552 -1.8383 -0.7658  0.4734
  798MPD2    N111819   4.373   2.847  17.329  0.2111  0.3700  0.2706
  798MPD2    H711820   4.312   2.926  17.313 -2.2287 -1.1190  2.2515
  799MPD2     C11821   3.425   3.899  14.829  0.4538 -0.0409  0.0052
  799MPD2    C111822   3.406   3.840  14.704  0.3780 -0.3712 -0.6392
  799MPD2    C211823   3.368   3.918  14.590 -0.7135  0.0875  0.1123
  799MPD2    C311824   3.342   4.053  14.607  0.1595  0.7049  0.4779
  799MPD2    C411825   3.360   4.108  14.732  0.2630 -0.0471  0.1389
  799MPD2    C511826   3.391   4.029  14.840  0.0483 -0.2704 -0.5413
  799MPD2     H11827   3.366   3.875  14.491 -0.1047 -0.9278  0.5348
  799MPD2    H111828   3.331   4.211  14.750 -0.4690 -0.2056 -0.1628
  799MPD2    H211829   3.455   3.846  14.918 -2.8565 -2.6528 -0.4268
  799MPD2    H311830   3.387   4.083  14.934 -1.9359  0.5559 -1.1068
  799MPD2     N11831   3.311   4.138  14.499  0.6080  0.5075  0.3228
  799MPD2    H511832   3.298   4.237  14.515  1.4067  1.0412 -2.4680
  799MPD2    N111833   3.427   3.703  14.684  0.3965  0.0738 -0.3834
  799MPD2    H711834   3.393   3.678  14.592  1.9622 -0.4823 -0.8134
  800MPD2     C11835   3.828   0.225  14.046 -0.1817  1.0208  0.3623
  800MPD2    C111836   3.950   0.177  14.082  0.2603 -0.1725 -0.0186
  800MPD2    C211837   4.029   0.102  13.993  0.1457  0.4976 -0.5189
  800MPD2    C311838   3.972   0.080  13.865 -0.0873 -0.5268  0.0409
  800MPD2    C411839   3.850   0.129  13.830 -0.0193 -0.4087 -0.8430
  800MPD2    C511840   3.779   0.201  13.920  0.0665 -0.2474  0.5159
  800MPD2     H11841   4.123   0.061  14.028 -0.0092  0.7232  0.1825
  800MPD2    H111842   3.805   0.118  13.732 -0.7241  1.9847 -0.7893
  800MPD2    H211843   3.771   0.288  14.113 -1.1065  1.6466 -1.0045
  800MPD2    H311844   3.697   0.258  13.877  0.4458 -1.7080 -2.1379
  800MPD2     N11845   4.043   0.000  13.776  0.0982  0.6118  0.0140
  800MPD2    H511846   4.134   4.705  13.805 -0.1272  0.2763  0.3426
  800MPD2    N111847   3.994   0.220  14.210 -0.7462 -0.0069 -0.0349
  800MPD2    H711848   3.932   0.289  14.251  0.1194  0.5069  0.4040
  801MPD2     C11849   4.074   0.850  14.562  0.0014  0.4577  0.4862
  801MPD2    C111850   3.970   0.760  14.574  0.5109 -0.1409  0.1033
  801MPD2    C211851   3.840   0.809  14.605 -0.6957  0.3550  0.3846
  801MPD2    C311852   3.814   0.944  14.623  0.2247  0.3451 -0.1336
  801MPD2    C411853   3.920   1.028  14.608 -0.5277  0.1703 -0.1979
  801MPD2    C511854   4.044   0.984  14.576 -0.3472  0.2330  0.5801
  801MPD2     H11855   3.769   0.734  14.637  1.7521 -2.3641 -0.5679
  801MPD2    H111856   3.913   1.136  14.607  0.1899  0.2222  0.9164
  801MPD2    H211857   4.171   0.815  14.528 -1.5412 -5.2570  2.0054
  801MPD2    H311858   4.121   1.053  14.545 -0.9623  0.4839 -0.3759
  801MPD2     N11859   3.692   0.995  14.667 -0.3135  0.3519  0.0853
  801MPD2    H511860   3.679   1.078  14.723 -1.7968  0.1738  0.0026
  801MPD2    N111861   3.995   0.616  14.567  0.0314  0.0016  0.2428
  801MPD2    H711862   3.908   0.564  14.564  0.2619 -0.3192 -0.9469
  802MPD2     C11863   3.924   1.568   0.378  0.1107 -0.3783  0.2349
  802MPD2    C111864   3.796   1.571   0.335 -0.2164 -0.6973  0.4157
  802MPD2    C211865   3.764   1.524   0.220 -0.0761  0.2004  0.5088
  802MPD2    C311866   3.850   1.452   0.138  0.0859  0.0682  0.3714
  802MPD2    C411867   3.981   1.438   0.190  0.0350 -0.7672 -0.2951
  802MPD2    C511868   4.014   1.496   0.310  0.3439  1.1193 -0.5672
  802MPD2     H11869   3.662   1.522   0.183  0.0739 -1.9910  0.2120
  802MPD2    H111870   4.060   1.391   0.132  1.3159  1.6873 -0.5619
  802MPD2    H211871   3.970   1.605   0.468  1.3851 -1.6488  0.0911
  802MPD2    H311872   4.111   1.485   0.356  0.8473  1.4629 -1.5322
  802MPD2     N11873   3.809   1.402   0.006 -0.2675 -0.0407  0.5167
  802MPD2    H511874   3.711   1.417  17.733 -0.3008 -1.5129 -0.4027
  802MPD2    N111875   3.695   1.631   0.414  0.9876 -0.3040  0.7055
  802MPD2    H711876   3.604   1.613   0.373  1.3502  1.2651 -0.7665
  803MPD2     C11877   4.360   3.756  12.234 -0.3232 -0.1533  0.6167
  803MPD2    C111878   4.422   3.877  12.258  0.7486 -0.1648  0.0836
  803MPD2    C211879   4.484   3.904  12.381  0.2913  0.0503 -0.3793
  803MPD2    C311880   4.462   3.815  12.484  0.2964  0.2745 -0.7220
  803MPD2    C411881   4.387   3.701  12.470 -0.6083  0.5328  0.0321
  803MPD2    C511882   4.336   3.670  12.346  0.6954  0.2479  0.4842
  803MPD2     H11883   4.548   3.991  12.394  0.2537 -0.3710  2.5242
  803MPD2    H111884   4.357   3.638  12.553 -1.1057  2.6775  1.4691
  803MPD2    H211885   4.305   3.729  12.145 -0.5885  0.5480  0.5673
  803MPD2    H311886   4.278   3.580  12.326  0.2392  0.5452  0.4612
  803MPD2     N11887   4.507   3.845  12.614  0.1282  0.0651 -0.1288
  803MPD2    H511888   4.470   3.788  12.690 -0.0494  1.1891  0.6220
  803MPD2    N111889   4.429   3.978  12.158 -0.1539 -0.1047  0.4059
  803MPD2    H711890   4.496   4.054  12.168  1.3931 -1.7218  2.3719
  804MPD2     C11891   3.940   1.238  17.234  0.3987  0.5461  0.0313
  804MPD2    C111892   4.033   1.230  17.337  0.1354  0.2653 -0.1766
  804MPD2    C211893   4.080   1.348  17.385 -0.1021 -0.0295  0.2221
  804MPD2    C311894   4.047   1.466  17.325  0.1788 -0.5018 -0.0921
  804MPD2    C411895   3.956   1.472  17.215  1.1379  0.4557 -0.6275
  804MPD2    C511896   3.904   1.354  17.170  0.1738  0.1816  0.0962
  804MPD2     H11897   4.152   1.345  17.466 -0.1619 -1.9582  0.1998
  804MPD2    H111898   3.916   1.562  17.169  1.1365  0.5371 -0.4677
  804MPD2    H211899   3.889   1.151  17.195 -1.5868  2.2860 -1.2879
  804MPD2    H311900   3.827   1.345  17.093  1.0452 -2.2296 -0.4900
  804MPD2     N11901   4.098   1.586  17.377  0.3162  0.5770 -0.5219
  804MPD2    H511902   4.163   1.575  17.454 -1.7507 -0.8600  1.0283
  804MPD2    N111903   4.073   1.110  17.406  0.1287 -0.1155 -0.4253
  804MPD2    H711904   4.144   1.124  17.476  0.2111 -1.3417 -0.2713
  805MPD2     C11905   2.904   3.704  15.440  0.3676  0.1474 -0.0850
  805MPD2    C111906   2.960   3.826  15.399 -0.2227 -0.0779  0.1979
  805MPD2    C211907   3.087   3.861  15.447  0.1928 -0.7267 -0.6374
  805MPD2    C311908   3.154   3.767  15.521  0.4997 -0.6264 -0.2300
  805MPD2    C411909   3.100   3.643  15.545 -0.1390 -0.3101 -0.3502
  805MPD2    C511910   2.975   3.610  15.507  0.2097 -0.1372 -0.3924
  805MPD2     H11911   3.131   3.959  15.430 -2.5350  0.6990  0.4624
  805MPD2    H111912   3.152   3.567  15.603  1.3426  1.4930  0.6967
  805MPD2    H211913   2.806   3.681  15.400  0.6521 -1.2593  0.0523
  805MPD2    H311914   2.944   3.508  15.524  1.7174 -0.7200 -1.0949
  805MPD2     N11915   3.286   3.802  15.568 -0.5271 -0.1150 -0.0780
  805MPD2    H511916   3.323   3.893  15.544  1.5955 -0.5736  1.4222
  805MPD2    N111917   2.888   3.915  15.320 -0.8845  0.4802  0.0393
  805MPD2    H711918   2.943   3.993  15.286  0.0018  0.5095  1.5371
  806MPD2     C11919   3.526   3.601   0.552 -0.5608  0.4811 -0.2505
  806MPD2    C111920   3.518   3.689   0.663 -0.2936 -0.3301  0.4272
  806MPD2    C211921   3.579   3.818   0.656  0.4579 -0.0491 -0.3018
  806MPD2    C311922   3.666   3.851   0.554 -0.5482 -0.2683 -0.0938
  806MPD2    C411923   3.669   3.766   0.444  0.1792 -0.0051  1.0256
  806MPD2    C511924   3.599   3.647   0.447  0.9028 -0.6375 -0.2673
  806MPD2     H11925   3.561   3.887   0.737  1.9423 -1.3832  1.1645
  806MPD2    H111926   3.728   3.791   0.357  1.2362  1.1356  2.0589
  806MPD2    H211927   3.474   3.506   0.548  0.9174 -0.3319 -0.3199
  806MPD2    H311928   3.601   3.581   0.360  1.0572 -1.8630  0.6728
  806MPD2     N11929   3.738   3.972   0.565  0.5616  0.7462  0.0162
  806MPD2    H511930   3.705   4.025   0.644  0.9376  2.3976 -0.9404
  806MPD2    N111931   3.440   3.645   0.779 -0.0480  0.7887 -0.3741
  806MPD2    H711932   3.414   3.547   0.783  1.9883  0.2812  0.4225
  807MPD2     C11933   2.968   3.752   1.539 -0.3201  0.5602  0.3412
  807MPD2    C111934   2.962   3.635   1.465  0.5063  0.1764 -0.2942
  807MPD2    C211935   2.881   3.532   1.510  0.1950 -0.1346  0.3700
  807MPD2    C311936   2.807   3.540   1.632  0.1104  0.0252  0.2147
  807MPD2    C411937   2.815   3.661   1.705  0.0869  0.4005  0.4062
  807MPD2    C511938   2.894   3.761   1.655  0.4474 -0.0534  0.4150
  807MPD2     H11939   2.876   3.437   1.459  1.0883  0.1861 -0.3101
  807MPD2    H111940   2.774   3.676   1.804 -0.6097  1.2686 -0.0116
  807MPD2    H211941   3.023   3.837   1.500  0.7677  0.6298  2.0013
  807MPD2    H311942   2.903   3.856   1.707 -0.4434  0.9263 -1.2200
  807MPD2     N11943   2.744   3.425   1.682 -0.3654  0.6920 -0.3542
  807MPD2    H511944   2.747   3.336   1.634 -0.4670  1.1305 -1.1725
  807MPD2    N111945   3.044   3.608   1.349 -0.2374 -0.9212  0.2458
  807MPD2    H711946   3.022   3.522   1.300 -3.1113  0.8474 -1.5297
  808MPD2     C11947   3.825   4.476   9.686 -0.0729  0.0458 -0.4518
  808MPD2    C111948   3.942   4.423   9.730  0.0109 -0.2936  0.9611
  808MPD2    C211949   4.063   4.440   9.666  0.7063 -0.1839 -0.2838
  808MPD2    C311950   4.075   4.521   9.554 -0.2337  0.3395 -0.6444
  808MPD2    C411951   3.958   4.582   9.512  0.5880 -0.0549  0.6042
  808MPD2    C511952   3.836   4.565   9.578  0.0183 -0.0962 -0.1584
  808MPD2     H11953   4.145   4.393   9.718 -1.2125 -1.9512  1.1471
  808MPD2    H111954   3.955   4.646   9.425 -0.3224 -0.5641  0.2679
  808MPD2    H211955   3.725   4.467   9.727  0.9636  1.0634  2.2852
  808MPD2    H311956   3.745   4.608   9.537 -0.4622 -1.5612 -0.6454
  808MPD2     N11957   4.194   4.543   9.486 -0.6293 -0.5802  0.0238
  808MPD2    H511958   4.185   4.601   9.403  1.0374  1.0960  1.0012
  808MPD2    N111959   3.948   4.352   9.851  0.0587  0.1678 -1.2440
  808MPD2    H711960   4.038   4.328   9.892 -0.1372  0.9532 -0.3650
  809MPD2     C11961   0.314   4.113   9.154 -0.5680 -0.4111  0.9797
  809MPD2    C111962   0.351   4.230   9.216  0.4201 -0.5048  0.6567
  809MPD2    C211963   0.258   4.306   9.283 -0.0223  1.0423  0.2035
  809MPD2    C311964   0.120   4.274   9.270 -0.3601  0.3010 -0.0701
  809MPD2    C411965   0.086   4.169   9.191 -0.3453 -0.5991 -0.3258
  809MPD2    C511966   0.178   4.085   9.138 -0.2553  0.2432  0.5956
  809MPD2     H11967   0.292   4.381   9.352 -2.3527  1.9300  0.3977
  809MPD2    H111968   4.721   4.136   9.180 -0.5646  0.4744 -1.5144
  809MPD2    H211969   0.381   4.037   9.117 -0.3174  0.8634 -1.1907
  809MPD2    H311970   0.145   3.992   9.094 -1.6592  0.9040  0.2602
  809MPD2     N11971   0.016   4.344   9.337 -0.0070 -0.4435 -0.1534
  809MPD2    H511972   4.661   4.304   9.326 -0.4998  0.4397  0.8172
  809MPD2    N111973   0.487   4.253   9.251  0.2254  0.1356  0.3076
  809MPD2    H711974   0.500   4.330   9.316 -0.1286  1.1277 -0.7957
  810MPD2     C11975   3.985   3.703  10.928  0.0643  0.1388  0.1608
  810MPD2    C111976   3.954   3.802  10.838 -0.3176  0.8607 -0.3209
  810MPD2    C211977   4.061   3.886  10.800  0.0175 -0.5103  0.3881
  810MPD2    C311978   4.194   3.873  10.847 -0.6166 -1.0908  0.5952
  810MPD2    C411979   4.218   3.771  10.929  0.0827  0.2359 -0.3824
  810MPD2    C511980   4.112   3.693  10.978 -0.3094  0.3725  0.1973
  810MPD2     H11981   4.046   3.953  10.716  0.8411  0.5199  1.0672
  810MPD2    H111982   4.313   3.730  10.959  1.0559  0.9779 -2.4784
  810MPD2    H211983   3.908   3.630  10.950 -1.8411  1.7584 -1.0067
  810MPD2    H311984   4.141   3.606  11.036  1.7170  1.6096  1.0351
  810MPD2     N11985   4.303   3.957  10.816  0.3091  0.6469 -0.2306
  810MPD2    H511986   4.397   3.919  10.816 -0.3267 -0.9374  2.3136
  810MPD2    N111987   3.818   3.818  10.792  0.0928 -0.3254  0.2246
  810MPD2    H711988   3.753   3.769  10.853 -1.5461 -0.6216 -1.7677
  811MPD2     C11989   3.096   4.249  10.358 -0.6585 -0.3963  0.3510
  811MPD2    C111990   3.230   4.254  10.383 -0.4826 -0.4238  0.4370
  811MPD2    C211991   3.298   4.360  10.316 -0.5788 -0.0549 -0.3494
  811MPD2    C311992   3.229   4.471  10.259 -0.4294  0.1418  0.1321
  811MPD2    C411993   3.092   4.468  10.249 -0.4471 -0.1156  0.4093
  811MPD2    C511994   3.028   4.353  10.297  0.2012  0.3046 -0.6598
  811MPD2     H11995   3.405   4.370  10.323 -0.6130 -0.0820  0.2360
  811MPD2    H111996   3.040   4.551  10.203 -1.1397 -0.2263  0.9973
  811MPD2    H211997   3.032   4.164  10.379 -0.3699 -0.6234  0.3049
  811MPD2    H311998   2.924   4.329  10.279 -0.8372  2.4012  2.6013
  811MPD2     N11999   3.313   4.581  10.212 -0.1384  0.4359  0.4107
  811MPD2    H512000   3.412   4.558  10.204 -0.2584 -0.3276  1.1556
  811MPD2    N112001   3.280   4.152  10.458  0.3050 -0.2504 -0.2248
  811MPD2    H712002   3.210   4.081  10.476 -0.3624  0.0692 -1.5461
  812MPD2     C12003   2.268   4.064  12.373  0.4451 -0.2929 -0.4052
  812MPD2    C112004   2.347   4.163  12.412 -0.8277 -0.0722  0.7232
  812MPD2    C212005   2.447   4.134  12.508 -0.2795 -0.0235  0.0607
  812MPD2    C312006   2.467   4.004  12.554 -0.0147 -0.1392  0.4193
  812MPD2    C412007   2.390   3.904  12.504 -0.8725 -0.3794  0.5609
  812MPD2    C512008   2.285   3.933  12.417  0.9542 -0.4340 -0.0480
  812MPD2     H12009   2.510   4.211  12.549 -0.1549  0.0262 -0.2220
  812MPD2    H112010   2.398   3.799  12.531  1.1724 -0.0522  1.2660
  812MPD2    H212011   2.185   4.080  12.306 -1.4165  1.5654  2.3479
  812MPD2    H312012   2.215   3.852  12.401 -0.3922  0.0325  3.4658
  812MPD2     N12013   2.581   3.993  12.637  0.3368 -0.3528  0.9466
  812MPD2    H512014   2.622   4.080  12.671  0.0217 -0.3872  1.4110
  812MPD2    N112015   2.332   4.288  12.357 -0.1602  0.4381  0.1804
  812MPD2    H712016   2.283   4.282  12.268 -0.1038  0.6170  0.1358
  813MPD2     C12017   1.481   1.009  13.326  0.5369  0.1012  0.3545
  813MPD2    C112018   1.482   1.149  13.313  0.2947  0.1250  0.4701
  813MPD2    C212019   1.392   1.224  13.391 -0.4017  0.0441  0.0596
  813MPD2    C312020   1.314   1.161  13.484 -0.4952  0.6607  0.0821
  813MPD2    C412021   1.307   1.021  13.486 -0.2829 -0.6014 -1.2139
  813MPD2    C512022   1.392   0.952  13.409 -0.4289 -1.2847  0.6307
  813MPD2     H12023   1.393   1.332  13.378  0.6908 -0.0593 -0.7676
  813MPD2    H112024   1.247   0.965  13.557 -1.2527  0.1352 -1.4439
  813MPD2    H212025   1.540   0.947  13.258  0.5310 -0.6132  1.0006
  813MPD2    H312026   1.386   0.844  13.409  1.6790 -1.4270  2.3511
  813MPD2     N12027   1.238   1.237  13.576  0.9553 -0.5830  0.3323
  813MPD2    H512028   1.253   1.337  13.577 -2.1346 -0.0994 -1.3110
  813MPD2    N112029   1.583   1.216  13.242 -0.3935 -0.2641  0.3083
  813MPD2    H712030   1.585   1.315  13.262  2.8791 -0.1262 -0.5998
  814MPD2     C12031   2.106   2.556  12.532  0.3460 -0.0197  0.4020
  814MPD2    C112032   2.191   2.584  12.420  0.0433 -0.2089  0.4559
  814MPD2    C212033   2.241   2.710  12.402 -0.6808 -0.6624  0.4409
  814MPD2    C312034   2.203   2.809  12.494  0.4610 -0.0704  0.2033
  814MPD2    C412035   2.125   2.782  12.605 -0.2005  0.7564 -0.0606
  814MPD2    C512036   2.078   2.654  12.616  0.0718 -0.5492  0.0294
  814MPD2     H12037   2.316   2.733  12.327 -0.3372 -1.4777  0.5343
  814MPD2    H112038   2.092   2.855  12.678 -2.9438 -0.1779 -0.3610
  814MPD2    H212039   2.050   2.465  12.550 -1.2157  0.4898 -1.7896
  814MPD2    H312040   2.001   2.638  12.691 -0.5355  0.2940 -0.4072
  814MPD2     N12041   2.268   2.938  12.494 -0.5470 -0.2722  0.9980
  814MPD2    H512042   2.230   3.017  12.546 -0.9952 -0.7501  1.3971
  814MPD2    N112043   2.200   2.491  12.317 -0.4938  0.1542  0.4544
  814MPD2    H712044   2.229   2.523  12.225  1.0673 -2.7506 -0.0468
  815MPD2     C12045   2.786   0.875  12.432  0.4120  0.1644  0.9995
  815MPD2    C112046   2.727   0.907  12.311 -0.0856  0.4996  0.3923
  815MPD2    C212047   2.590   0.926  12.301 -0.3183  0.4503 -0.2358
  815MPD2    C312048   2.509   0.897  12.411  1.0201  0.4609 -0.2473
  815MPD2    C412049   2.571   0.870  12.532 -0.9281  0.1513 -0.5315
  815MPD2    C512050   2.704   0.861  12.546 -0.5654 -0.0904 -0.1644
  815MPD2     H12051   2.542   0.943  12.205 -1.4242 -1.3036  0.0002
  815MPD2    H112052   2.508   0.850  12.618  1.6835 -0.7495  1.1787
  815MPD2    H212053   2.893   0.855  12.436  0.7257  1.8160  0.9311
  815MPD2    H312054   2.751   0.831  12.639 -2.6056  0.1349  0.9495
  815MPD2     N12055   2.365   0.904  12.393 -0.1903 -0.5626 -0.0615
  815MPD2    H512056   2.336   0.953  12.309 -1.6954 -0.4727  0.5093
  815MPD2    N112057   2.806   0.919  12.197  1.0042 -0.0944 -0.1483
  815MPD2    H712058   2.900   0.890  12.221  0.9475  1.3041  1.6896
  816MPD2     C12059   2.381   0.273  17.326  0.4789  0.2102  0.9270
  816MPD2    C112060   2.448   0.394  17.350 -0.7742  0.2294 -0.8133
  816MPD2    C212061   2.574   0.407  17.285 -0.2839 -0.3249 -0.1327
  816MPD2    C312062   2.626   0.296  17.216 -0.1581  0.1847  0.2356
  816MPD2    C412063   2.564   0.179  17.200 -0.5725 -0.4501  0.3958
  816MPD2    C512064   2.438   0.166  17.255 -0.5048  0.5426 -0.5078
  816MPD2     H12065   2.631   0.498  17.291 -0.8416  0.0443 -0.3877
  816MPD2    H112066   2.611   0.097  17.148 -0.6842 -1.0475  1.2336
  816MPD2    H212067   2.281   0.256  17.367 -0.0050 -0.7553 -0.6601
  816MPD2    H312068   2.384   0.074  17.241  0.2068  0.5122 -3.0487
  816MPD2     N12069   2.759   0.312  17.165 -0.5323 -0.6054  0.0848
  816MPD2    H512070   2.790   0.409  17.164  1.1434 -1.1524 -1.9950
  816MPD2    N112071   2.383   0.494  17.426 -0.0541 -0.4233 -0.0022
  816MPD2    H712072   2.289   0.465  17.452  0.3111 -0.4793  1.2808
  817MPD2     C12073   2.349   2.277  10.099 -0.0742 -0.2853 -0.6150
  817MPD2    C112074   2.393   2.152  10.115  0.6810 -0.2473 -0.3791
  817MPD2    C212075   2.336   2.051  10.037  0.5997  0.4944 -0.0313
  817MPD2    C312076   2.239   2.075   9.941  0.4464 -0.0384 -0.3898
  817MPD2    C412077   2.193   2.203   9.938 -0.1514  0.5745 -0.1625
  817MPD2    C512078   2.248   2.312  10.003  0.5483 -0.3442 -0.1833
  817MPD2     H12079   2.370   1.952  10.065 -1.1374  0.3204  1.4963
  817MPD2    H112080   2.120   2.230   9.862  1.3900  0.9362 -1.5277
  817MPD2    H212081   2.393   2.364  10.148 -1.9990  0.5486 -0.3451
  817MPD2    H312082   2.208   2.412   9.995  0.5002 -0.4114 -0.7687
  817MPD2     N12083   2.172   1.967   9.876  0.8109  0.3081  0.2132
  817MPD2    H512084   2.219   1.877   9.882  3.8545  1.9583  1.3913
  817MPD2    N112085   2.490   2.116  10.214  0.7837 -0.6334  0.0254
  817MPD2    H712086   2.527   2.021  10.215  0.1014 -0.8848  1.3550
  818MPD2     C12087   1.803   1.452  10.411 -0.2013  0.0810  0.4757
  818MPD2    C112088   1.677   1.428  10.474 -0.2604  0.0751  0.1798
  818MPD2    C212089   1.646   1.298  10.512 -0.0152  0.9150  0.2717
  818MPD2    C312090   1.740   1.199  10.501  1.0977 -0.1047 -0.0346
  818MPD2    C412091   1.867   1.223  10.452 -1.5814 -0.0113 -0.2880
  818MPD2    C512092   1.895   1.351  10.404 -0.0314 -0.0609  0.0449
  818MPD2     H12093   1.540   1.280  10.530 -0.0580 -0.1202 -1.0115
  818MPD2    H112094   1.940   1.142  10.451  0.5382  1.8881  0.7673
  818MPD2    H212095   1.822   1.555  10.382  0.7994 -1.0960 -2.9934
  818MPD2    H312096   1.993   1.371  10.362  0.3618  3.0419  2.4254
  818MPD2     N12097   1.717   1.065  10.549 -0.3566 -0.0056 -0.4583
  818MPD2    H512098   1.804   1.015  10.564 -0.6819 -0.4505 -0.0623
  818MPD2    N112099   1.584   1.532  10.499  0.6077  0.2531 -0.1042
  818MPD2    H712100   1.493   1.499  10.530 -0.7131  2.9881 -0.9925
  819MPD2     C12101   3.819   3.660  15.437  0.6231  0.1447  0.2237
  819MPD2    C112102   3.739   3.568  15.496  0.7461  0.2666  0.3978
  819MPD2    C212103   3.799   3.493  15.601 -0.0042  0.5818  0.4754
  819MPD2    C312104   3.929   3.519  15.646 -0.2509 -0.8329  0.2455
  819MPD2    C412105   4.001   3.616  15.580 -0.2350 -0.3559 -0.9164
  819MPD2    C512106   3.944   3.687  15.483  0.0120 -0.5091 -0.1582
  819MPD2     H12107   3.739   3.414  15.646 -0.9901  0.8902 -0.3135
  819MPD2    H112108   4.101   3.646  15.608 -0.9120  2.0942 -1.1533
  819MPD2    H212109   3.782   3.721  15.356  0.6590 -1.0308 -0.6743
  819MPD2    H312110   3.992   3.777  15.447 -1.2412 -0.1712 -1.0026
  819MPD2     N12111   3.970   3.450  15.760 -0.1427  0.0552  0.2704
  819MPD2    H512112   3.911   3.372  15.790  0.8366 -0.2367  1.4432
  819MPD2    N112113   3.608   3.537  15.443 -0.6519 -0.5846 -0.7301
  819MPD2    H712114   3.586   3.579  15.353  1.5810 -0.5168 -1.2448
  820MPD2     C12115   3.006   3.778  14.727  0.8570  0.1198  0.3791
  820MPD2    C112116   3.040   3.854  14.836  0.0828 -0.0279  0.2350
  820MPD2    C212117   3.103   3.786  14.939 -0.5015  0.1967 -0.1517
  820MPD2    C312118   3.121   3.647  14.937 -0.7463  0.4585 -0.7113
  820MPD2    C412119   3.070   3.575  14.837 -0.0386  0.0885  0.8268
  820MPD2    C512120   3.020   3.640  14.728  0.5192 -0.0161  0.2432
  820MPD2     H12121   3.155   3.840  15.017  1.1491  0.0104 -1.1267
  820MPD2    H112122   3.071   3.466  14.837 -0.3382  0.0902  0.2981
  820MPD2    H212123   2.955   3.815  14.639  0.8765 -1.6677 -0.3903
  820MPD2    H312124   2.996   3.600  14.630 -0.9408 -0.1502  0.6534
  820MPD2     N12125   3.179   3.575  15.045  0.8365  0.1136 -0.2133
  820MPD2    H512126   3.179   3.473  15.041 -1.1899  0.0714  0.6447
  820MPD2    N112127   2.993   3.982  14.847  0.9717 -0.3680 -0.9091
  820MPD2    H712128   2.926   4.018  14.779  0.5831  0.0318 -0.3050
  821MPD2     C12129   4.519   0.101  13.121 -0.0388 -0.2875  0.2187
  821MPD2    C112130   4.526   0.083  13.258 -0.1336  0.2809 -0.4697
  821MPD2    C212131   4.636   0.128  13.324  0.4103 -0.2316  0.0090
  821MPD2    C312132   0.009   0.174  13.256  0.2394 -0.0998  0.2013
  821MPD2    C412133   0.012   0.170  13.115 -0.5297 -0.3856  0.2896
  821MPD2    C512134   4.632   0.136  13.047 -0.8130 -0.8420 -0.2826
  821MPD2     H12135   4.633   0.132  13.432  0.1125  1.9395 -0.0747
  821MPD2    H112136   0.106   0.192  13.066  1.1542 -0.6244  3.4327
  821MPD2    H212137   4.429   0.073  13.068 -0.1569  2.2010 -0.8774
  821MPD2    H312138   4.632   0.137  12.939 -2.2921 -1.7099 -0.2879
  821MPD2     N12139   0.114   0.220  13.330  0.1946  0.9623 -0.0612
  821MPD2    H512140   0.203   0.216  13.282 -0.1427 -1.0133 -0.5320
  821MPD2    N112141   4.421   0.033  13.335  0.0613  0.0634 -0.0645
  821MPD2    H712142   4.441   0.026  13.435  1.4003  0.5795 -0.2948
  822MPD2     C12143   4.579   0.304  15.984 -0.4047  0.1980  0.4367
  822MPD2    C112144   4.664   0.345  16.091  0.2220  0.6127 -0.2503
  822MPD2    C212145   4.626   0.461  16.162 -0.3580 -0.3174 -0.4931
  822MPD2    C312146   4.516   0.535  16.129 -0.1929 -0.0325  0.1555
  822MPD2    C412147   4.441   0.490  16.022  0.3360  0.1929 -0.0384
  822MPD2    C512148   4.465   0.374  15.959  1.0810  0.0744  0.1137
  822MPD2     H12149   4.696   0.492  16.238 -2.1249  0.8905  0.6466
  822MPD2    H112150   4.354   0.539  15.981 -1.0429 -0.7601  1.7958
  822MPD2    H212151   4.594   0.217  15.922 -0.8403 -0.1374  0.8061
  822MPD2    H312152   4.412   0.331  15.875 -0.2377  2.1928 -0.1059
  822MPD2     N12153   4.486   0.654  16.197 -0.3889  0.1724 -0.4262
  822MPD2    H512154   4.560   0.690  16.257 -0.6702  0.5070 -0.2818
  822MPD2    N112155   0.035   0.271  16.141 -0.1177 -0.0548  0.5349
  822MPD2    H712156   0.084   0.294  16.226  1.8973  0.2668 -0.7267
  823MPD2     C12157   4.270   0.860  17.003  0.2396  0.1353 -0.0291
  823MPD2    C112158   4.323   0.789  16.900  0.4660  0.3958  0.4589
  823MPD2    C212159   4.378   0.661  16.920 -0.0141 -0.7737  0.1294
  823MPD2    C312160   4.393   0.608  17.051 -0.2624 -0.1070  0.7369
  823MPD2    C412161   4.363   0.695  17.155  0.7608 -0.2406  0.6937
  823MPD2    C512162   4.301   0.815  17.131 -0.1647 -0.0443 -0.0687
  823MPD2     H12163   4.412   0.605  16.834  0.4863 -0.7165  0.2913
  823MPD2    H112164   4.376   0.648  17.252 -1.0575 -2.2531 -0.0359
  823MPD2    H212165   4.207   0.949  16.995 -1.3890 -0.9125  0.9094
  823MPD2    H312166   4.265   0.872  17.217  0.1806 -1.4334  1.0028
  823MPD2     N12167   4.439   0.476  17.082 -0.5354 -0.3677 -0.0930
  823MPD2    H512168   4.439   0.455  17.181 -0.1157  0.2135  0.0353
  823MPD2    N112169   4.301   0.836  16.766 -0.0367 -0.1874 -0.2968
  823MPD2    H712170   4.275   0.934  16.756 -2.1796 -0.4958  2.1742
  824MPD2     C12171   0.382   4.163  16.283  0.1900 -0.7421 -0.3782
  824MPD2    C112172   0.397   4.254  16.187  0.7362 -0.0492 -0.0818
  824MPD2    C212173   0.448   4.207  16.061  0.2724  0.5296  0.1196
  824MPD2    C312174   0.485   4.074  16.035  0.1462  0.5400 -0.4081
  824MPD2    C412175   0.466   3.987  16.139  0.5526  0.9413 -0.1133
  824MPD2    C512176   0.412   4.026  16.262  0.0474  0.5547  0.1892
  824MPD2     H12177   0.457   4.285  15.986  2.8184  1.9164  1.8607
  824MPD2    H112178   0.486   3.881  16.129 -0.9067  0.5641  0.8902
  824MPD2    H212179   0.330   4.187  16.375  2.2338  0.4040  0.4804
  824MPD2    H312180   0.378   3.948  16.329  0.1692  1.2217  1.0265
  824MPD2     N12181   0.543   4.046  15.914  0.4203 -0.6732 -0.1680
  824MPD2    H512182   0.543   4.122  15.848  0.2038  0.3111  0.9769
  824MPD2    N112183   0.354   4.386  16.219 -0.2034  0.0876  0.0010
  824MPD2    H712184   0.345   4.405  16.318 -0.4342  0.7254 -0.1445
  825MPD2     C12185   1.105   4.330  15.369 -0.3137 -0.2620 -0.3271
  825MPD2    C112186   1.032   4.326  15.485  0.2976  0.1040  0.1533
  825MPD2    C212187   1.052   4.423  15.583  0.7949 -0.0328 -0.1584
  825MPD2    C312188   1.138   4.529  15.554 -0.1500 -0.0275 -0.0205
  825MPD2    C412189   1.201   4.533  15.434  0.1043  0.1444  0.1753
  825MPD2    C512190   1.186   4.436  15.344  0.1541 -0.3384  0.6470
  825MPD2     H12191   1.005   4.406  15.679 -0.7143  2.4067 -0.4570
  825MPD2    H112192   1.267   4.618  15.417 -0.0078  0.1941 -0.0205
  825MPD2    H212193   1.093   4.255  15.291  0.2953  1.6206 -2.2327
  825MPD2    H312194   1.240   4.448  15.251  1.2723 -2.2718  1.0411
  825MPD2     N12195   1.152   4.643  15.638  0.8798  0.7110 -0.5925
  825MPD2    H512196   1.184   4.732  15.601  1.0217  2.0062  2.6414
  825MPD2    N112197   0.940   4.220  15.493 -0.1490  0.0785  0.0529
  825MPD2    H712198   0.945   4.147  15.422 -3.8701  0.6319 -0.7923
  826MPD2     C12199   0.422   3.420  14.074  0.1526  0.0657 -0.2350
  826MPD2    C112200   0.478   3.543  14.098  0.2816 -0.4695 -0.2173
  826MPD2    C212201   0.395   3.654  14.113 -0.5067  0.1263 -0.3427
  826MPD2    C312202   0.256   3.643  14.119 -0.1380 -0.4993  0.6645
  826MPD2    C412203   0.203   3.517  14.116 -0.2953  0.4458  0.0764
  826MPD2    C512204   0.283   3.411  14.079  0.0557 -0.4013 -0.8561
  826MPD2     H12205   0.439   3.752  14.128 -0.6330  0.2363 -0.7127
  826MPD2    H112206   0.097   3.505  14.136 -0.0545 -1.0367  0.4308
  826MPD2    H212207   0.484   3.339  14.038  2.6651  1.2039  1.5428
  826MPD2    H312208   0.240   3.316  14.051 -0.8646  0.2370 -1.6188
  826MPD2     N12209   0.173   3.753  14.158  0.1481 -0.2358  0.7005
  826MPD2    H512210   0.073   3.737  14.169 -0.1817  0.0782 -1.8360
  826MPD2    N112211   0.618   3.547  14.094 -0.4871  0.2587  0.9890
  826MPD2    H712212   0.660   3.457  14.074 -2.3365 -0.1246 -1.1837
  827MPD2     C12213   2.136   0.369  10.037 -0.8117  0.4497 -0.6703
  827MPD2    C112214   2.059   0.347  10.146 -0.0370 -0.4793 -0.4864
  827MPD2    C212215   1.963   0.253  10.133  0.0218  0.7576 -0.4212
  827MPD2    C312216   1.937   0.188  10.019  0.1650  0.1042  0.1348
  827MPD2    C412217   2.013   0.209   9.905  0.2268 -0.4229 -0.2015
  827MPD2    C512218   2.114   0.302   9.918  0.2950  0.3314 -0.0598
  827MPD2     H12219   1.898   0.227  10.216  0.6789 -0.5472 -0.3167
  827MPD2    H112220   1.987   0.179   9.804 -0.8693 -2.2518  0.6278
  827MPD2    H212221   2.225   0.431  10.033 -1.7154  1.7390 -0.4529
  827MPD2    H312222   2.176   0.335   9.835 -2.6642 -0.3543 -2.5559
  827MPD2     N12223   1.826   0.102  10.020 -0.9536  0.0294 -0.2313
  827MPD2    H512224   1.763   0.098  10.099 -0.9040 -0.1077 -0.1990
  827MPD2    N112225   2.108   0.407  10.265  0.1021 -0.0525  0.0092
  827MPD2    H712226   2.188   0.470  10.261 -0.9578  1.3514  0.7915
  828MPD2     C12227   0.366   0.238  12.105 -0.5302  0.1852  0.2444
  828MPD2    C112228   0.256   0.315  12.062  0.6009 -0.0233 -0.4345
  828MPD2    C212229   0.240   0.332  11.932  0.7038  1.0089 -0.5265
  828MPD2    C312230   0.314   0.275  11.836  0.0032  0.2223 -0.2373
  828MPD2    C412231   0.421   0.201  11.876  0.0370  0.2620  0.4539
  828MPD2    C512232   0.441   0.185  12.008 -0.2939  0.0648 -0.0297
  828MPD2     H12233   0.157   0.396  11.904 -1.5861 -0.6748  2.3330
  828MPD2    H112234   0.496   0.153  11.813  0.2858 -0.2567  1.1532
  828MPD2    H212235   0.390   0.222  12.209 -0.4701  3.7855  0.8021
  828MPD2    H312236   0.526   0.128  12.044  0.1691  0.0420 -1.1406
  828MPD2     N12237   0.292   0.282  11.697  0.0690 -0.8352 -0.2615
  828MPD2    H512238   0.363   0.253  11.631  0.3564 -2.0443  0.5686
  828MPD2    N112239   0.190   0.401  12.149 -0.1440 -0.2599 -0.0901
  828MPD2    H712240   0.120   0.461  12.106 -0.6144  0.2502  1.4007
  829MPD2     C12241   4.378   1.032  11.903  0.8843 -0.5845  0.4040
  829MPD2    C112242   4.350   1.019  12.033  0.5834  0.4118  0.0546
  829MPD2    C212243   4.419   0.931  12.114 -0.1957  0.0109 -0.3894
  829MPD2    C312244   4.517   0.853  12.069 -0.2091 -0.5258 -0.2405
  829MPD2    C412245   4.544   0.858  11.938  0.0814 -0.5068  0.0883
  829MPD2    C512246   4.473   0.939  11.855 -0.7402 -0.2246 -0.6813
  829MPD2     H12247   4.394   0.926  12.220  0.5075 -0.2187 -0.2331
  829MPD2    H112248   4.611   0.783  11.897  0.3170  0.8726 -2.0101
  829MPD2    H212249   4.325   1.089  11.828  0.1234 -1.3152  0.3888
  829MPD2    H312250   4.497   0.932  11.750  2.4523  0.8264 -0.0594
  829MPD2     N12251   4.598   0.763  12.144 -0.0676  0.9543  0.1847
  829MPD2    H512252   4.672   0.718  12.091  0.2153  1.5946  0.0350
  829MPD2    N112253   4.239   1.096  12.079 -0.0539  0.0480 -0.1856
  829MPD2    H712254   4.189   1.135  11.999  1.9513  0.5647 -1.1891
  830MPD2     C12255   4.040   2.938  15.596 -0.5597  0.1221  0.5903
  830MPD2    C112256   4.110   2.978  15.701  0.8980 -0.0622  0.2981
  830MPD2    C212257   4.224   3.046  15.666  0.4870 -0.2884  0.5511
  830MPD2    C312258   4.243   3.104  15.539  0.7166 -0.2213  1.2061
  830MPD2    C412259   4.165   3.052  15.429 -0.3005 -0.9548  0.0219
  830MPD2    C512260   4.067   2.964  15.465 -0.3740 -0.2557  0.2856
  830MPD2     H12261   4.287   3.083  15.746  1.6587 -0.3098 -0.3550
  830MPD2    H112262   4.172   3.097  15.331  1.1125  1.0849  1.0663
  830MPD2    H212263   3.950   2.881  15.615 -0.8428 -0.2194 -1.7280
  830MPD2    H312264   3.999   2.939  15.383 -1.5928  0.2534  1.1383
  830MPD2     N12265   4.344   3.195  15.508  0.7066  0.0476  0.2116
  830MPD2    H512266   4.360   3.219  15.411 -0.1949 -0.8529 -0.1596
  830MPD2    N112267   4.069   2.954  15.824 -0.2010 -0.1689 -0.3128
  830MPD2    H712268   3.999   2.881  15.826 -0.7551  0.3066 -1.9332
  831MPD2     C12269   0.120   0.754  16.544  0.2754  0.0340 -0.3402
  831MPD2    C112270   0.133   0.629  16.492  0.1134 -0.3393 -0.2138
  831MPD2    C212271   0.019   0.549  16.485 -0.2151  0.6260 -0.2958
  831MPD2    C312272   4.636   0.590  16.537 -0.0339  0.5240 -0.5294
  831MPD2    C412273   4.631   0.714  16.607 -0.1207  0.4341  0.6294
  831MPD2    C512274   0.007   0.796  16.604  0.5749  0.3830 -0.0051
  831MPD2     H12275   0.032   0.444  16.461 -1.4126  0.2979  0.4798
  831MPD2    H112276   4.547   0.746  16.667 -0.6027  1.5478 -0.6407
  831MPD2    H212277   0.195   0.832  16.547 -1.1444  1.3160  1.4269
  831MPD2    H312278   0.005   0.891  16.656  0.5260  1.1743 -1.4484
  831MPD2     N12279   4.522   0.504  16.537 -0.2335 -0.1850 -0.7935
  831MPD2    H512280   4.433   0.539  16.572  1.4588  2.4705  0.8738
  831MPD2    N112281   0.262   0.585  16.448 -0.4197  0.5153 -0.2171
  831MPD2    H712282   0.341   0.643  16.476 -1.3275  1.8108 -0.3393
  832MPD2     C12283   3.278   1.454  17.464  0.4425 -0.8504  0.1585
  832MPD2    C112284   3.245   1.589  17.460 -0.1474 -0.2096  0.0176
  832MPD2    C212285   3.120   1.627  17.418 -0.0927 -0.2758 -0.5736
  832MPD2    C312286   3.033   1.529  17.374 -0.3101 -0.2575  0.5611
  832MPD2    C412287   3.062   1.396  17.392 -0.1185  0.0642  0.7344
  832MPD2    C512288   3.184   1.360  17.431 -0.9160  0.2680 -1.0382
  832MPD2     H12289   3.093   1.731  17.404  0.2844  0.2039  2.3011
  832MPD2    H112290   3.001   1.318  17.347  0.0557 -0.6256  1.7132
  832MPD2    H212291   3.378   1.415  17.478 -0.0856 -2.2496  0.1058
  832MPD2    H312292   3.218   1.257  17.439 -2.9904 -0.2394  1.3144
  832MPD2     N12293   2.903   1.567  17.334  0.1757 -0.2347  0.3465
  832MPD2    H512294   2.832   1.496  17.347 -0.6999  0.5485 -0.2415
  832MPD2    N112295   3.343   1.682  17.512  0.4348 -0.1398 -1.0948
  832MPD2    H712296   3.435   1.656  17.544 -0.1738 -3.0684 -1.7848
  833MPD2     C12297   0.875   2.912  12.980 -0.8649 -0.2505 -0.3254
  833MPD2    C112298   0.818   2.995  12.891  0.8385 -0.5916  0.0875
  833MPD2    C212299   0.856   2.997  12.752 -0.3147 -0.2551  0.0588
  833MPD2    C312300   0.957   2.916  12.708 -0.3040 -0.0781  0.5258
  833MPD2    C412301   1.021   2.834  12.804  0.0634 -0.2931 -0.2028
  833MPD2    C512302   0.980   2.836  12.932 -0.2655 -0.7150 -0.6364
  833MPD2     H12303   0.793   3.061  12.691  0.6645  0.0213 -0.6599
  833MPD2    H112304   1.108   2.777  12.775 -0.2208  0.2038 -2.0549
  833MPD2    H212305   0.854   2.908  13.086  3.2235 -0.6704  0.4480
  833MPD2    H312306   1.032   2.777  13.007 -0.6204 -0.9211 -0.5521
  833MPD2     N12307   1.008   2.911  12.573  0.0183 -0.4719 -0.0620
  833MPD2    H512308   1.083   2.849  12.545 -1.4896 -1.7507 -1.1958
  833MPD2    N112309   0.707   3.077  12.919  0.3844 -0.2193  0.0258
  833MPD2    H712310   0.678   3.129  12.836  0.7046 -0.1977 -0.0752
  834MPD2     C12311   0.864   2.185  11.966 -0.0882  0.3234 -0.4421
  834MPD2    C112312   0.838   2.275  11.873 -0.0927  0.0020  0.2565
  834MPD2    C212313   0.842   2.419  11.899 -0.3654 -0.2299 -0.2347
  834MPD2    C312314   0.864   2.454  12.036  0.4641  0.4384 -0.4888
  834MPD2    C412315   0.888   2.359  12.127  0.2601  0.2856 -0.5114
  834MPD2    C512316   0.888   2.222  12.096  0.3787 -1.1460 -0.5015
  834MPD2     H12317   0.838   2.490  11.817  1.7142 -0.5749 -0.6428
  834MPD2    H112318   0.933   2.381  12.224 -0.9891  3.5034 -0.6718
  834MPD2    H212319   0.869   2.077  11.953  3.8793  0.5287 -0.5111
  834MPD2    H312320   0.905   2.152  12.177  0.8238 -1.9027 -1.2473
  834MPD2     N12321   0.876   2.594  12.071 -0.2519 -0.3250 -0.6215
  834MPD2    H512322   0.845   2.657  11.997  1.1811  1.5219  0.3475
  834MPD2    N112323   0.807   2.223  11.749 -0.3278  0.3266  0.2654
  834MPD2    H712324   0.789   2.123  11.748  1.2821  0.0241  2.3793
  835MPD2     C12325   0.442   0.755  11.089 -0.0896 -0.0718  0.5100
  835MPD2    C112326   0.340   0.781  11.172 -1.0728 -0.5145 -0.7585
  835MPD2    C212327   0.352   0.766  11.309 -0.1887  0.3306  0.0317
  835MPD2    C312328   0.472   0.718  11.366  0.6676  0.2038  0.3488
  835MPD2    C412329   0.578   0.714  11.275 -0.6813  0.1489  0.9746
  835MPD2    C512330   0.570   0.737  11.139 -0.1376  0.4159 -0.7808
  835MPD2     H12331   0.265   0.777  11.372 -0.4517 -0.1059 -0.2614
  835MPD2    H112332   0.679   0.688  11.304  0.5054  3.1994 -0.4595
  835MPD2    H212333   0.438   0.783  10.985 -0.7180  0.8316  0.7671
  835MPD2    H312334   0.664   0.737  11.084 -0.2938  2.5046 -1.0328
  835MPD2     N12335   0.484   0.694  11.506 -0.4325 -0.0614 -1.1507
  835MPD2    H512336   0.579   0.679  11.537 -0.4536 -3.9205 -2.8674
  835MPD2    N112337   0.206   0.817  11.123 -0.3959  0.4241  0.4165
  835MPD2    H712338   0.133   0.830  11.192 -2.0196 -0.0643 -1.2347
  836MPD2     C12339   0.088   0.994  12.053 -0.4750 -1.2426 -0.3171
  836MPD2    C112340   0.164   0.900  12.124  0.4186 -0.4020  0.6369
  836MPD2    C212341   0.173   0.907  12.264  0.7926 -0.4014 -0.2917
  836MPD2    C312342   0.081   0.986  12.332  0.1420 -0.3612  0.0401
  836MPD2    C412343   4.733   1.071  12.257  0.4804  0.4537  0.4819
  836MPD2    C512344   0.002   1.076  12.120  0.2172 -0.3234 -0.8703
  836MPD2     H12345   0.228   0.833  12.321 -2.1757 -1.6119  0.9711
  836MPD2    H112346   4.667   1.142  12.305  0.3510 -0.8187  2.1937
  836MPD2    H212347   0.081   1.009  11.946 -1.1265  1.6811  0.1388
  836MPD2    H312348   4.676   1.140  12.061 -0.5635 -0.3447 -0.0590
  836MPD2     N12349   0.072   0.982  12.468  0.4380 -0.3493 -0.0204
  836MPD2    H512350   4.732   1.041  12.496  1.9597  1.7415 -0.2433
  836MPD2    N112351   0.229   0.811  12.040  0.2444  0.7961 -0.3064
  836MPD2    H712352   0.215   0.823  11.940 -0.1006  1.3374 -0.1940
  837MPD2     C12353   3.818   0.348  10.436 -0.2680 -0.2579  0.4863
  837MPD2    C112354   3.787   0.401  10.315 -0.4087 -0.1284  0.2392
  837MPD2    C212355   3.801   0.536  10.299  0.0768  0.6842 -0.0046
  837MPD2    C312356   3.834   0.616  10.406 -0.4116  0.7445 -0.0714
  837MPD2    C412357   3.864   0.563  10.533  0.3280 -0.3468  0.2251
  837MPD2    C512358   3.863   0.428  10.542  0.1581 -0.4917  0.9538
  837MPD2     H12359   3.776   0.588  10.207  0.8941  1.7624  0.3802
  837MPD2    H112360   3.883   0.626  10.619  1.1346  0.1176 -0.2877
  837MPD2    H212361   3.812   0.241  10.453  0.4772 -0.6573 -1.6338
  837MPD2    H312362   3.887   0.380  10.637 -2.7627 -1.2506  1.3167
  837MPD2     N12363   3.809   0.752  10.387  0.5822 -0.6643 -0.2647
  837MPD2    H512364   3.780   0.779  10.293 -2.0208  2.0935  1.3207
  837MPD2    N112365   3.721   0.333  10.205  0.7164  0.2865 -0.7606
  837MPD2    H712366   3.706   0.376  10.114  0.7116 -0.8141 -1.2730
  838MPD2     C12367   2.153   3.775  12.116 -0.1759  0.3535  0.2336
  838MPD2    C112368   2.210   3.649  12.095  0.8144 -0.2466  0.2419
  838MPD2    C212369   2.145   3.536  12.154  0.1882  0.2869  0.1553
  838MPD2    C312370   2.028   3.556  12.229  0.4352 -0.8690  0.7545
  838MPD2    C412371   1.987   3.685  12.255  0.3324  0.5354 -0.0484
  838MPD2    C512372   2.046   3.791  12.200  0.1725 -0.0170  0.2547
  838MPD2     H12373   2.180   3.434  12.143 -0.9523  0.1083 -1.9666
  838MPD2    H112374   1.893   3.703  12.305  1.0326  2.0467  0.6984
  838MPD2    H212375   2.194   3.868  12.079 -0.7750 -0.0875 -1.5397
  838MPD2    H312376   2.004   3.891  12.209  0.5338  0.3155 -1.9312
  838MPD2     N12377   1.947   3.455  12.288 -0.4796  0.4385 -0.4826
  838MPD2    H512378   1.864   3.483  12.339 -0.0009 -0.1741  0.6216
  838MPD2    N112379   2.314   3.632  12.005 -0.4647  0.1394  0.1680
  838MPD2    H712380   2.333   3.536  11.981  0.7946  0.1441  1.1688
  839MPD2     C12381   2.132   2.989  11.947  0.2941 -0.1641 -0.1378
  839MPD2    C112382   2.157   3.000  11.812  0.1691 -0.4823 -0.3135
  839MPD2    C212383   2.236   3.102  11.763  0.3530  0.1455  0.4679
  839MPD2    C312384   2.281   3.198  11.857 -0.0727  0.9725  0.4566
  839MPD2    C412385   2.253   3.192  11.990 -0.2569  0.1844  0.3414
  839MPD2    C512386   2.188   3.083  12.039  0.5075 -0.5682 -0.2626
  839MPD2     H12387   2.258   3.102  11.657  0.2974 -0.0408  0.4577
  839MPD2    H112388   2.296   3.265  12.058  0.2055 -0.8632  1.1706
  839MPD2    H212389   2.079   2.905  11.991  2.5056 -1.1301  0.6983
  839MPD2    H312390   2.183   3.061  12.145  2.5828  1.8639  0.3291
  839MPD2     N12391   2.359   3.307  11.819 -0.0747  0.4517 -0.5310
  839MPD2    H512392   2.389   3.371  11.892  0.4877 -0.8613  0.3936
  839MPD2    N112393   2.123   2.897  11.722 -0.2411  0.7460  0.5756
  839MPD2    H712394   2.173   2.885  11.634 -2.4352 -2.6636 -0.1774
  840MPD2     C12395   2.525   0.858  10.296  0.5010 -0.2379 -0.1158
  840MPD2    C112396   2.472   0.865  10.424  0.4097 -0.4879 -0.2273
  840MPD2    C212397   2.492   0.976  10.501  0.5406  0.5689  0.3408
  840MPD2    C312398   2.593   1.064  10.463 -0.1077  0.2892  0.2300
  840MPD2    C412399   2.658   1.048  10.340 -0.2293  1.0708  0.3264
  840MPD2    C512400   2.630   0.944  10.253  0.1777 -0.3520 -0.4675
  840MPD2     H12401   2.444   0.984  10.598  2.6164 -0.4937  1.4707
  840MPD2    H112402   2.737   1.118  10.314  0.0763  0.7279  0.3290
  840MPD2    H212403   2.492   0.781  10.227  0.6129  0.2893 -0.7572
  840MPD2    H312404   2.684   0.920  10.163 -1.6891 -0.5245 -1.5446
  840MPD2     N12405   2.627   1.179  10.539  0.2065 -0.0701 -0.1028
  840MPD2    H512406   2.705   1.230  10.499 -0.3102 -0.5640 -1.7281
  840MPD2    N112407   2.382   0.760  10.453 -0.0139 -0.1886  0.4242
  840MPD2    H712408   2.356   0.692  10.382  1.6162 -1.9157  1.4729
  841MPD2     C12409   1.408   0.770  14.949  0.6157  0.2264  0.3226
  841MPD2    C112410   1.471   0.654  15.004  0.7979 -0.4730 -0.7429
  841MPD2    C212411   1.605   0.660  15.020 -0.3160 -1.1837 -0.5845
  841MPD2    C312412   1.686   0.773  15.000  0.4527 -0.3378  0.0127
  841MPD2    C412413   1.629   0.887  14.954  0.2337  0.1897  0.3168
  841MPD2    C512414   1.487   0.883  14.931 -0.0528  0.3269 -0.3034
  841MPD2     H12415   1.645   0.568  15.061  2.4392  0.0659 -0.4774
  841MPD2    H112416   1.685   0.979  14.941  1.7744 -1.0177 -1.6692
  841MPD2    H212417   1.306   0.781  14.914  0.2974  4.2837  2.5501
  841MPD2    H312418   1.440   0.976  14.904 -1.4670 -0.4135 -0.3936
  841MPD2     N12419   1.822   0.757  15.028 -0.4727 -0.3679 -0.1941
  841MPD2    H512420   1.851   0.667  15.064 -1.5089 -0.8536 -0.5940
  841MPD2    N112421   1.401   0.537  15.046  0.4648 -0.3644 -0.2572
  841MPD2    H712422   1.461   0.459  15.070  0.5082 -0.3175 -0.2131
  842MPD2     C12423   2.470   2.024  17.305 -0.4156  0.4264 -0.0564
  842MPD2    C112424   2.374   1.926  17.298  0.3709 -0.2481 -0.6915
  842MPD2    C212425   2.345   1.853  17.413 -0.1999  0.3978 -0.4850
  842MPD2    C312426   2.416   1.890  17.529 -0.3878 -0.4146  0.0568
  842MPD2    C412427   2.509   1.985  17.527  0.4978 -0.0133  0.1509
  842MPD2    C512428   2.544   2.050  17.414 -0.1532  0.1635 -0.1975
  842MPD2     H12429   2.260   1.785  17.413 -0.6005  0.8966 -1.6963
  842MPD2    H112430   2.565   2.017  17.613  0.0599  0.0066  0.4287
  842MPD2    H212431   2.489   2.072  17.209 -0.6055 -0.5059 -0.5611
  842MPD2    H312432   2.621   2.126  17.411 -1.0575  1.0582 -0.8134
  842MPD2     N12433   2.395   1.831  17.659  0.3307 -1.0484 -0.5316
  842MPD2    H512434   2.478   1.842  17.716  1.3959 -0.7467 -2.1519
  842MPD2    N112435   2.298   1.919  17.181 -0.3966  0.1552  0.2049
  842MPD2    H712436   2.305   1.994  17.113  1.4802 -1.5977 -1.5627
  843MPD2     C12437   4.027   2.692   0.228  0.1189 -0.0734 -0.1840
  843MPD2    C112438   4.147   2.627   0.259  0.5818 -0.0272  0.6736
  843MPD2    C212439   4.259   2.691   0.305  0.4684  0.8693  0.5923
  843MPD2    C312440   4.256   2.826   0.316  0.6781 -0.3434 -0.7814
  843MPD2    C412441   4.141   2.897   0.274 -0.2382  0.1571 -0.3348
  843MPD2    C512442   4.032   2.828   0.234  0.2920  0.2604 -0.1978
  843MPD2     H12443   4.345   2.628   0.326  0.9723  0.9949 -1.1813
  843MPD2    H112444   4.138   3.005   0.279 -1.1285  0.0956  0.3699
  843MPD2    H212445   3.932   2.645   0.203  0.5559 -0.4500 -1.1242
  843MPD2    H312446   3.946   2.889   0.210  0.9445  2.5076  3.2311
  843MPD2     N12447   4.369   2.898   0.352  0.2018  0.3921  0.0970
  843MPD2    H512448   4.357   2.999   0.359 -0.1501  0.2550  1.4811
  843MPD2    N112449   4.153   2.489   0.260 -0.1656  0.8912  0.3334
  843MPD2    H712450   4.217   2.438   0.320 -0.9459 -2.1540 -1.3860
  844MPD2     C12451   2.595   1.134  16.648 -0.0816 -0.3229  0.2982
  844MPD2    C112452   2.681   1.178  16.543 -0.5441  0.0076 -0.2255
  844MPD2    C212453   2.736   1.304  16.566 -0.5100  0.3867  0.2909
  844MPD2    C312454   2.717   1.383  16.674 -0.1080  0.7692 -0.5585
  844MPD2    C412455   2.618   1.352  16.764  0.9437  0.2562 -0.6826
  844MPD2    C512456   2.555   1.232  16.740  0.8806 -0.5082  0.2561
  844MPD2     H12457   2.815   1.327  16.494  0.2611 -0.7022  0.7943
  844MPD2    H112458   2.593   1.412  16.851 -2.4265 -1.4267 -0.4806
  844MPD2    H212459   2.552   1.035  16.660  0.3656 -0.5213  0.2636
  844MPD2    H312460   2.497   1.187  16.819  0.4435 -1.6100 -0.6940
  844MPD2     N12461   2.810   1.495  16.689 -0.5842 -0.3305  0.4520
  844MPD2    H512462   2.866   1.517  16.606  2.7551 -1.4670  2.4102
  844MPD2    N112463   2.725   1.103  16.434  0.4123  0.3234 -0.4575
  844MPD2    H712464   2.800   1.136  16.374  0.9502 -1.5816 -0.8582
  845MPD2     C12465   3.058   2.513  16.850  0.0201  0.0394  0.3877
  845MPD2    C112466   3.039   2.449  16.966 -0.3579  0.2633 -0.2236
  845MPD2    C212467   3.013   2.312  16.969  0.2140  0.7118  0.8886
  845MPD2    C312468   3.014   2.244  16.848 -0.3394  0.3486 -0.5663
  845MPD2    C412469   3.032   2.306  16.729  0.2004  0.1707 -0.3264
  845MPD2    C512470   3.052   2.443  16.727 -0.4110 -0.4095  0.4913
  845MPD2     H12471   3.017   2.260  17.065  2.7244  0.3931  0.6273
  845MPD2    H112472   3.044   2.255  16.635 -0.2187  0.9055 -0.7839
  845MPD2    H212473   3.073   2.620  16.842  0.5065 -0.0120  0.6227
  845MPD2    H312474   3.082   2.483  16.631  1.4626  0.2418  1.3426
  845MPD2     N12475   2.996   2.106  16.857 -0.3512  0.0242 -0.0353
  845MPD2    H512476   2.980   2.063  16.947  1.8684  0.3284  0.4996
  845MPD2    N112477   3.043   2.530  17.089  0.7123 -0.2848  0.0479
  845MPD2    H712478   3.066   2.626  17.067 -1.8394  0.4398  0.5771
  846MPD2     C12479   4.264   2.342  14.113  0.0442 -0.1398  0.2413
  846MPD2    C112480   4.168   2.438  14.090 -0.0423 -0.4671 -0.0705
  846MPD2    C212481   4.097   2.495  14.197 -0.3715 -0.2189 -0.1235
  846MPD2    C312482   4.129   2.453  14.326  0.2562 -0.0394 -2.0045
  846MPD2    C412483   4.228   2.362  14.347 -0.0810  0.1668  0.6547
  846MPD2    C512484   4.291   2.304  14.241 -0.2822  0.3103 -0.5770
  846MPD2     H12485   4.018   2.568  14.185  1.8625  1.6598 -3.2940
  846MPD2    H112486   4.272   2.332  14.441 -1.6229 -3.3250  0.2760
  846MPD2    H212487   4.312   2.288  14.033  0.1565  1.5964 -0.8511
  846MPD2    H312488   4.364   2.224  14.250  1.0277  1.5833  0.2063
  846MPD2     N12489   4.061   2.518  14.434  0.5469 -0.1662  0.5410
  846MPD2    H512490   3.986   2.583  14.416  1.0361  0.5641  1.1418
  846MPD2    N112491   4.129   2.480  13.964  0.0617  0.6528 -0.1048
  846MPD2    H712492   4.033   2.513  13.962 -0.1035  0.2204  0.6621
  847MPD2     C12493   4.403   3.481  14.779 -0.3214  0.2484  0.3567
  847MPD2    C112494   4.465   3.592  14.838 -0.1939 -0.0666  0.4297
  847MPD2    C212495   4.583   3.582  14.906 -0.3134 -0.4155  0.5676
  847MPD2    C312496   4.648   3.462  14.903 -0.2188 -0.1125  0.1338
  847MPD2    C412497   4.592   3.356  14.836 -0.3202 -0.0517 -0.0309
  847MPD2    C512498   4.471   3.360  14.778 -0.0943 -0.1198  0.1514
  847MPD2     H12499   4.629   3.674  14.942 -1.9648  0.7217 -0.2401
  847MPD2    H112500   4.651   3.266  14.824  0.3916  0.2707  1.0571
  847MPD2    H212501   4.314   3.488  14.718  0.6043  1.6467 -0.8232
  847MPD2    H312502   4.426   3.284  14.715 -0.0461  0.2496 -0.3324
  847MPD2     N12503   0.042   3.440  14.958 -0.1573  0.3898  0.2385
  847MPD2    H512504   0.070   3.343  14.954 -1.5672 -0.0303  0.7384
  847MPD2    N112505   4.412   3.723  14.831  0.6308  0.1079  0.1516
  847MPD2    H712506   4.471   3.797  14.866  0.3661  0.9662 -1.2219
  848MPD2     C12507   2.536   1.766  16.669 -0.4812  0.2677  1.1907
  848MPD2    C112508   2.562   1.869  16.760 -0.4042  0.7972 -0.3955
  848MPD2    C212509   2.614   1.988  16.712  0.0095 -0.3372 -0.0907
  848MPD2    C312510   2.621   2.018  16.580  0.3978  0.0145 -0.3961
  848MPD2    C412511   2.575   1.921  16.496 -0.4197  0.2956  0.1282
  848MPD2    C512512   2.537   1.793  16.535 -0.1080 -0.2606 -0.2087
  848MPD2     H12513   2.652   2.057  16.787 -0.0479 -1.0548  0.5900
  848MPD2    H112514   2.561   1.951  16.393 -2.9942  0.7776  0.5968
  848MPD2    H212515   2.507   1.667  16.701  2.9464 -0.7255  1.2985
  848MPD2    H312516   2.500   1.715  16.468 -2.9823  2.6421 -2.0195
  848MPD2     N12517   2.673   2.137  16.526  0.2651 -0.0141  0.5295
  848MPD2    H512518   2.692   2.146  16.427 -3.1502  0.4519 -0.0816
  848MPD2    N112519   2.572   1.842  16.897  0.3237 -0.2831 -0.5452
  848MPD2    H712520   2.617   1.911  16.956  2.0586 -1.5936 -0.3252
  849MPD2     C12521   1.525   1.479  14.609  0.2105 -0.7577 -0.9081
  849MPD2    C112522   1.644   1.550  14.626  0.3072  0.8987 -0.5894
  849MPD2    C212523   1.704   1.542  14.748  0.3532 -0.7369 -0.1916
  849MPD2    C312524   1.650   1.457  14.843 -0.6564 -0.1316 -1.1789
  849MPD2    C412525   1.549   1.368  14.813 -0.9852 -0.0950 -0.9019
  849MPD2    C512526   1.474   1.397  14.705  0.1151  0.6263 -0.0232
  849MPD2     H12527   1.801   1.588  14.761  0.1779 -0.5262  0.3605
  849MPD2    H112528   1.498   1.309  14.888  0.5057 -1.9457 -1.3252
  849MPD2    H212529   1.476   1.494  14.513  1.8731 -1.0345 -1.8049
  849MPD2    H312530   1.382   1.341  14.691  0.3981 -0.3625  1.9760
  849MPD2     N12531   1.725   1.436  14.965  0.0578 -0.4970 -0.0406
  849MPD2    H512532   1.714   1.344  15.006 -2.4734 -0.1115  0.1301
  849MPD2    N112533   1.701   1.614  14.515  0.3722  0.0139 -0.1218
  849MPD2    H712534   1.642   1.609  14.432  2.3942  0.9787 -1.6252
  850MPD2     C12535   4.613   4.439  15.209 -0.1634  0.0150  0.9844
  850MPD2    C112536   4.644   4.495  15.332 -0.3927  0.6184 -0.1801
  850MPD2    C212537   0.037   4.488  15.389  1.0270  0.0221  0.4009
  850MPD2    C312538   0.134   4.412  15.318 -0.0411  0.6608 -0.3905
  850MPD2    C412539   0.104   4.344  15.202 -0.0653 -0.3911  0.3427
  850MPD2    C512540   4.711   4.362  15.153  0.6899  0.1834 -0.0625
  850MPD2     H12541   0.063   4.533  15.485 -0.1954  0.4089  0.5498
  850MPD2    H112542   0.172   4.280  15.148 -1.3887  0.9849 -2.9790
  850MPD2    H212543   4.510   4.428  15.175 -0.0954 -0.2232  0.8570
  850MPD2    H312544   4.693   4.308  15.061 -2.4812  1.3254 -0.1219
  850MPD2     N12545   0.269   4.422  15.352 -0.2984  0.3384 -0.1353
  850MPD2    H512546   0.330   4.379  15.284 -2.0735 -1.8064 -0.3681
  850MPD2    N112547   4.542   4.576  15.393  0.2549  0.7709 -0.0713
  850MPD2    H712548   4.474   4.604  15.323  0.4780  2.3149  0.3256
  851MPD2     C12549   0.138   4.020  15.944  0.5677 -0.6503  0.5181
  851MPD2    C112550   0.030   4.051  15.858  1.3568  0.1404 -0.0821
  851MPD2    C212551   4.709   3.949  15.788  0.6453  0.4158 -0.3320
  851MPD2    C312552   0.018   3.816  15.799  0.2759  0.0936  0.5402
  851MPD2    C412553   0.128   3.790  15.889 -0.0819 -0.5542  0.7955
  851MPD2    C512554   0.179   3.896  15.953  0.7418 -0.0997 -0.5186
  851MPD2     H12555   4.647   3.965  15.701 -0.9341  1.5787  1.0156
  851MPD2    H112556   0.187   3.699  15.882  0.2116 -0.1624 -1.7856
  851MPD2    H212557   0.192   4.093  16.003 -0.4073 -0.6064  1.3471
  851MPD2    H312558   0.263   3.876  16.019  1.3241  0.2383 -1.1489
  851MPD2     N12559   4.697   3.725  15.714  0.2386  0.0906  0.2763
  851MPD2    H512560   4.607   3.755  15.676 -0.6606 -0.9739  1.5669
  851MPD2    N112561   4.725   4.182  15.843 -0.2818 -0.3859 -0.2523
  851MPD2    H712562   0.047   4.254  15.883 -0.4992 -0.8556  0.9179
  852MPD2     C12563   0.233   1.688  10.359  0.8008 -0.3224 -0.4895
  852MPD2    C112564   0.223   1.760  10.478  0.2848  0.1785 -0.4071
  852MPD2    C212565   0.296   1.880  10.486  0.0885 -0.2587  0.2836
  852MPD2    C312566   0.376   1.916  10.383 -0.0636 -0.4400  0.3724
  852MPD2    C412567   0.389   1.839  10.270 -0.2200 -0.4346 -0.4368
  852MPD2    C512568   0.314   1.725  10.257  0.2363 -0.1067 -0.4450
  852MPD2     H12569   0.301   1.944  10.574 -0.9924 -0.6296  0.6163
  852MPD2    H112570   0.462   1.861  10.193 -2.7999 -1.2426 -3.1226
  852MPD2    H212571   0.177   1.596  10.345  2.8214 -1.5521 -0.6279
  852MPD2    H312572   0.311   1.670  10.163 -2.6558 -0.2994 -0.2316
  852MPD2     N12573   0.450   2.035  10.411  0.4555  0.3988  0.0460
  852MPD2    H512574   0.424   2.073  10.502  2.1042  0.2360  0.5735
  852MPD2    N112575   0.136   1.729  10.587 -0.3218 -0.2708  0.2011
  852MPD2    H712576   0.148   1.795  10.663  1.0377  1.1205 -1.2125
  853MPD2     C12577   1.899   1.566  12.749  0.2529 -0.5498 -0.3385
  853MPD2    C112578   1.777   1.584  12.697 -0.1245 -1.0951  0.3884
  853MPD2    C212579   1.758   1.573  12.560 -0.8498 -0.0768  0.4974
  853MPD2    C312580   1.858   1.527  12.478  0.1191 -0.5528 -0.4470
  853MPD2    C412581   1.985   1.512  12.529  0.7773  0.4210  0.2083
  853MPD2    C512582   2.003   1.528  12.666 -0.6257 -0.7263 -0.2012
  853MPD2     H12583   1.664   1.601  12.514 -0.1301 -0.0770 -0.9786
  853MPD2    H112584   2.064   1.482  12.462 -0.6508  0.1026 -1.3404
  853MPD2    H212585   1.931   1.586  12.851 -3.6339  2.2268  0.3595
  853MPD2    H312586   2.101   1.505  12.707 -0.8972  1.2494  1.5295
  853MPD2     N12587   1.840   1.526  12.340  0.0549  0.5396 -0.2720
  853MPD2    H512588   1.918   1.519  12.276 -0.2520 -2.8995 -0.2752
  853MPD2    N112589   1.685   1.642  12.798  0.1444 -0.7867 -0.6452
  853MPD2    H712590   1.726   1.653  12.891  0.2626 -0.5204 -0.7292
  854MPD2     C12591   3.299   2.651  13.542 -0.0431  0.5820 -0.0446
  854MPD2    C112592   3.435   2.640  13.541  0.0577 -0.0482 -0.0663
  854MPD2    C212593   3.489   2.532  13.596 -0.2659 -0.4132 -0.2852
  854MPD2    C312594   3.409   2.437  13.664 -0.6685  0.0883 -0.5838
  854MPD2    C412595   3.272   2.458  13.675 -0.1883  0.6977 -0.4144
  854MPD2    C512596   3.215   2.560  13.602 -0.2025 -0.8118  0.0539
  854MPD2     H12597   3.594   2.517  13.574  0.3045  2.2197  0.6215
  854MPD2    H112598   3.206   2.386  13.722  1.6753 -0.6366  0.1722
  854MPD2    H212599   3.244   2.730  13.492 -0.1946  0.4749 -0.0480
  854MPD2    H312600   3.110   2.581  13.620  0.1620  0.4144  0.7738
  854MPD2     N12601   3.463   2.317  13.716 -0.4032 -0.2473  0.1925
  854MPD2    H512602   3.396   2.260  13.766  0.1739 -2.3801 -1.4883
  854MPD2    N112603   3.502   2.739  13.463  0.1263 -0.2008 -0.1367
  854MPD2    H712604   3.439   2.801  13.413  1.1498  0.1171 -1.0189
  855MPD2     C12605   3.234   1.810  14.365  0.4308 -0.1864  0.3668
  855MPD2    C112606   3.345   1.742  14.322  0.4236 -0.1906  0.4511
  855MPD2    C212607   3.420   1.808  14.228 -0.0487 -0.2521 -1.1466
  855MPD2    C312608   3.396   1.934  14.185 -0.3234  0.5783 -0.6368
  855MPD2    C412609   3.280   1.996  14.227 -0.0199 -0.4294 -0.1086
  855MPD2    C512610   3.205   1.935  14.327  0.3296  0.3305  0.2759
  855MPD2     H12611   3.502   1.746  14.195 -0.4300 -1.1622 -0.3884
  855MPD2    H112612   3.256   2.098  14.200 -1.0347 -0.2763  1.3540
  855MPD2    H212613   3.164   1.769  14.437 -0.6183 -0.1517 -0.6536
  855MPD2    H312614   3.113   1.981  14.360 -0.1359 -0.2572 -0.2047
  855MPD2     N12615   3.486   2.001  14.099  0.1233 -0.2321 -0.0387
  855MPD2    H512616   3.451   2.088  14.061 -1.5066 -2.4872 -3.8368
  855MPD2    N112617   3.371   1.605  14.351 -0.1795  0.3027 -0.5277
  855MPD2    H712618   3.449   1.559  14.305  0.1682 -0.7924  1.1902
  856MPD2     C12619   0.780   2.473  14.257  0.1806 -0.0262 -0.4696
  856MPD2    C112620   0.788   2.610  14.270 -0.4558 -0.2659 -0.6832
  856MPD2    C212621   0.697   2.695  14.216 -0.3908 -0.3342 -0.4699
  856MPD2    C312622   0.588   2.636  14.153 -0.2647  0.1635 -0.1052
  856MPD2    C412623   0.577   2.501  14.130 -0.5931  0.1984  0.0567
  856MPD2    C512624   0.678   2.424  14.182  0.0642 -0.0837 -0.5847
  856MPD2     H12625   0.705   2.803  14.224  1.2802 -0.5782  1.1432
  856MPD2    H112626   0.487   2.460  14.087  1.3823 -0.7968 -3.1419
  856MPD2    H212627   0.845   2.405  14.311 -1.2399 -1.3028 -0.3761
  856MPD2    H312628   0.670   2.317  14.163  1.7276 -0.4171  0.5332
  856MPD2     N12629   0.474   2.712  14.118  0.5787  0.5672 -0.7571
  856MPD2    H512630   0.397   2.666  14.070 -0.4689 -0.1368  1.5916
  856MPD2    N112631   0.901   2.674  14.326  0.2421  0.3396  0.4943
  856MPD2    H712632   0.901   2.775  14.321 -0.6887  0.2863 -0.5457
  857MPD2     C12633   2.342   0.243  13.117  0.1106 -0.1860 -1.0488
  857MPD2    C112634   2.463   0.204  13.160 -0.1419  0.7019  0.3963
  857MPD2    C212635   2.550   0.295  13.229  0.2301  0.3341  0.0097
  857MPD2    C312636   2.506   0.422  13.251 -0.4568 -0.7100 -0.8763
  857MPD2    C412637   2.387   0.471  13.206 -0.2616  0.0597  0.0705
  857MPD2    C512638   2.309   0.381  13.135  0.3228  0.0637 -0.6230
  857MPD2     H12639   2.647   0.257  13.260  0.4717  0.5985 -0.4242
  857MPD2    H112640   2.359   0.575  13.218 -0.0623  0.2860 -1.4491
  857MPD2    H212641   2.268   0.180  13.069 -0.9343  0.4162 -0.2233
  857MPD2    H312642   2.217   0.420  13.092 -0.2917  0.2287  0.8323
  857MPD2     N12643   2.592   0.493  13.332  0.0599 -0.0585  0.4916
  857MPD2    H512644   2.672   0.435  13.358 -1.5970 -3.0221 -1.0269
  857MPD2    N112645   2.510   0.074  13.139 -0.2970  0.4554  0.8320
  857MPD2    H712646   2.609   0.061  13.160 -0.5081 -2.2933  0.1922
  858MPD2     C12647   3.343   4.422  16.527 -0.3179 -0.6032 -0.3235
  858MPD2    C112648   3.300   4.306  16.581 -0.3006  0.1437 -0.3615
  858MPD2    C212649   3.281   4.306  16.724 -0.8673 -0.4183 -0.5078
  858MPD2    C312650   3.307   4.419  16.802 -0.2322  0.3985 -0.2425
  858MPD2    C412651   3.355   4.532  16.747  0.5639  0.3268  1.1851
  858MPD2    C512652   3.374   4.533  16.610  0.3492  0.5361 -0.3120
  858MPD2     H12653   3.242   4.216  16.768  1.3265 -1.1267  0.0107
  858MPD2    H112654   3.375   4.604  16.826 -0.3541  0.8551  0.9360
  858MPD2    H212655   3.354   4.433  16.420 -2.0121  0.0584 -0.4362
  858MPD2    H312656   3.417   4.615  16.554  3.9443 -1.7256 -0.8807
  858MPD2     N12657   3.310   4.410  16.946 -0.1184  0.6242  0.0346
  858MPD2    H512658   3.363   4.485  16.990 -1.2062  2.3678 -1.6369
  858MPD2    N112659   3.277   4.199  16.486 -0.1746  0.1079  0.3104
  858MPD2    H712660   3.293   4.223  16.389  0.5605 -1.4843  0.0335
  859MPD2     C12661   1.643   1.462  15.870  0.0499 -0.6467 -0.4262
  859MPD2    C112662   1.774   1.436  15.833  0.1082 -0.7061  0.2021
  859MPD2    C212663   1.836   1.325  15.881 -0.4528  0.5350  0.5251
  859MPD2    C312664   1.770   1.248  15.970 -0.6669  0.9310 -0.1212
  859MPD2    C412665   1.638   1.278  16.015  0.1118 -0.3999 -0.6462
  859MPD2    C512666   1.575   1.384  15.956 -1.0344  0.3547  0.1830
  859MPD2     H12667   1.936   1.304  15.846 -1.7564 -2.0971 -1.5685
  859MPD2    H112668   1.579   1.209  16.075 -0.2848 -0.2937 -0.9163
  859MPD2    H212669   1.585   1.547  15.836 -0.8571 -1.3220 -0.5809
  859MPD2    H312670   1.473   1.410  15.985 -0.6171  0.4704  1.5582
  859MPD2     N12671   1.825   1.123  16.008  0.0208  0.2146  0.1901
  859MPD2    H512672   1.779   1.075  16.086  1.1732 -0.7744  0.2591
  859MPD2    N112673   1.841   1.527  15.740  0.2385  0.0761  0.4818
  859MPD2    H712674   1.940   1.513  15.722 -0.0175  0.3248 -1.1695
  860MPD2     C12675   4.544   1.415  12.344  0.1728 -0.1932  0.2991
  860MPD2    C112676   4.580   1.448  12.477 -0.1311  0.4629 -0.1434
  860MPD2    C212677   4.481   1.504  12.554 -0.6024  0.3281 -1.1641
  860MPD2    C312678   4.355   1.533  12.504  0.2027  0.6193 -0.6252
  860MPD2    C412679   4.328   1.503  12.373  0.3394  0.2032  0.3860
  860MPD2    C512680   4.428   1.451  12.295 -0.4313 -0.2203  0.2227
  860MPD2     H12681   4.499   1.520  12.659  1.1259 -3.2345 -0.9412
  860MPD2    H112682   4.243   1.539  12.317 -0.0883  0.0153  0.9141
  860MPD2    H212683   4.611   1.368  12.273 -1.7686 -0.3137 -1.4495
  860MPD2    H312684   4.405   1.428  12.191 -2.5426  1.2872  0.3633
  860MPD2     N12685   4.260   1.593  12.587  0.0316 -0.6133 -0.0108
  860MPD2    H512686   4.295   1.609  12.681  1.1009  0.9893 -0.6776
  860MPD2    N112687   4.705   1.415  12.535 -0.9637 -0.2421 -0.6775
  860MPD2    H712688   4.706   1.396  12.635  0.9349  2.0351 -0.2492
  861MPD2     C12689   3.371   4.724  11.012  0.1101  0.0848  0.0985
  861MPD2    C112690   3.284   0.019  11.114 -0.3154 -0.2118  0.1017
  861MPD2    C212691   3.176   0.102  11.083  0.0891 -0.6782 -0.0996
  861MPD2    C312692   3.162   0.152  10.953  0.6279 -0.0842 -0.3308
  861MPD2    C412693   3.260   0.133  10.857 -0.0750  0.3524  0.2315
  861MPD2    C512694   3.361   0.041  10.883  0.5760 -0.2160 -0.1199
  861MPD2     H12695   3.107   0.123  11.163  1.5010  2.0210  0.4012
  861MPD2    H112696   3.263   0.190  10.765  1.1837  0.1758  0.1602
  861MPD2    H212697   3.457   4.661  11.028  0.0237 -0.3850 -1.2375
  861MPD2    H312698   3.439   0.028  10.809 -1.0614 -0.5457 -1.7703
  861MPD2     N12699   3.061   0.246  10.907  0.3508  0.0300  0.3921
  861MPD2    H512700   3.079   0.283  10.815  1.4001 -0.2569  0.4730
  861MPD2    N112701   3.307   4.729  11.253  0.4040  0.0137  0.2834
  861MPD2    H712702   3.231   0.009  11.318 -0.4847  2.0134 -1.2957
  862MPD2     C12703   2.619   0.483  10.452  0.3041  0.2537 -0.1650
  862MPD2    C112704   2.630   0.443  10.581 -0.5056 -0.5324 -0.2171
  862MPD2    C212705   2.557   0.329  10.621 -0.8406  0.6084  1.0428
  862MPD2    C312706   2.482   0.258  10.526 -0.4158 -0.5146  0.7053
  862MPD2    C412707   2.465   0.305  10.394  0.0517  0.4581  0.4398
  862MPD2    C512708   2.539   0.416  10.360 -0.1424  0.1058  0.1357
  862MPD2     H12709   2.553   0.293  10.723  0.8172 -1.2446  0.4615
  862MPD2    H112710   2.408   0.254  10.318 -1.1708 -1.3383  2.5354
  862MPD2    H212711   2.668   0.573  10.416  1.0533  0.4511  1.3414
  862MPD2    H312712   2.537   0.445  10.256 -0.3527 -2.0929 -0.4885
  862MPD2     N12713   2.417   0.135  10.577  0.0055  0.5608  0.1778
  862MPD2    H512714   2.418   0.114  10.676  0.6774 -0.9748 -0.1686
  862MPD2    N112715   2.718   0.493  10.681 -0.6491 -0.1457 -0.0652
  862MPD2    H712716   2.707   0.458  10.775 -0.4684 -1.8510 -0.6754
  863MPD2     C12717   1.316   2.820  16.514  0.4136 -0.3533 -0.5361
  863MPD2    C112718   1.304   2.894  16.632  0.2668 -0.1089 -0.5054
  863MPD2    C212719   1.416   2.907  16.724 -0.0144 -1.0581  0.2389
  863MPD2    C312720   1.535   2.834  16.698 -0.4170 -0.1044 -0.0515
  863MPD2    C412721   1.542   2.753  16.585  0.4788 -0.1163  0.2862
  863MPD2    C512722   1.436   2.758  16.499 -0.8485 -0.4126 -0.2182
  863MPD2     H12723   1.399   2.969  16.811 -0.2701  1.9688 -1.9611
  863MPD2    H112724   1.630   2.696  16.556  0.8291  1.4571 -1.6991
  863MPD2    H212725   1.243   2.828  16.434 -0.7342 -1.5498  0.4000
  863MPD2    H312726   1.435   2.712  16.401 -1.9023 -1.4019  0.2631
  863MPD2     N12727   1.651   2.844  16.777 -0.0701  0.6169  0.2190
  863MPD2    H512728   1.724   2.775  16.763 -1.8623 -1.1110 -0.4348
  863MPD2    N112729   1.182   2.968  16.649  0.6445  0.8204  0.1636
  863MPD2    H712730   1.124   2.951  16.567  2.0103  0.2351 -0.6799
  864MPD2     C12731   1.633   4.049  17.324 -0.0285  0.3145 -0.0524
  864MPD2    C112732   1.720   3.968  17.258  0.8445  0.6792 -0.4318
  864MPD2    C212733   1.840   4.024  17.218  0.3133  0.3366  0.1508
  864MPD2    C312734   1.870   4.155  17.253 -0.3157  0.0229 -1.0849
  864MPD2    C412735   1.776   4.234  17.314 -0.3252 -0.2007 -0.6790
  864MPD2    C512736   1.650   4.180  17.338 -0.0768  0.2733  0.3329
  864MPD2     H12737   1.897   3.954  17.158  0.0851  0.3431 -0.0757
  864MPD2    H112738   1.792   4.339  17.337 -1.2252 -0.2277  0.0694
  864MPD2    H212739   1.535   4.014  17.354 -0.8116  4.5458  2.3265
  864MPD2    H312740   1.564   4.236  17.373  0.3355  2.1864 -1.7456
  864MPD2     N12741   1.987   4.219  17.206  1.2722 -0.0889 -0.2691
  864MPD2    H512742   1.990   4.317  17.234 -4.1761  0.3288 -1.1269
  864MPD2    N112743   1.681   3.828  17.241  0.0987  0.2159 -0.0877
  864MPD2    H712744   1.591   3.799  17.278 -0.8852 -2.9813 -4.9009
  865MPD2     C12745   2.308   4.558  16.396 -0.0260  0.1832  0.0997
  865MPD2    C112746   2.249   4.451  16.456 -0.3406  0.2707  0.4803
  865MPD2    C212747   2.225   4.467  16.593 -0.0804  0.1164  0.9407
  865MPD2    C312748   2.268   4.572  16.670  0.4884 -0.0135  0.9620
  865MPD2    C412749   2.336   4.675  16.605  0.4744 -0.5314 -0.5092
  865MPD2    C512750   2.349   4.666  16.470  0.1383  0.3764 -0.6523
  865MPD2     H12751   2.161   4.395  16.643 -1.4926  1.2695  0.7921
  865MPD2    H112752   2.381   0.026  16.648 -0.2490 -1.0155  1.2326
  865MPD2    H212753   2.341   4.554  16.292 -0.2198 -0.6303  0.0700
  865MPD2    H312754   2.396   0.016  16.427  1.3835 -0.7346 -1.5525
  865MPD2     N12755   2.271   4.568  16.809  0.1822  0.2666 -0.0438
  865MPD2    H512756   2.343   4.624  16.854 -1.2901  2.1140  0.0028
  865MPD2    N112757   2.224   4.333  16.385  0.2500 -0.5435  0.7122
  865MPD2    H712758   2.243   4.332  16.285 -1.5865 -0.1902  0.3533
  866MPD2     C12759   4.080   0.265  11.338  0.1892  0.3187 -0.6241
  866MPD2    C112760   4.017   0.169  11.259  0.0083  0.0492  0.6353
  866MPD2    C212761   3.887   0.187  11.233  0.1218  0.0802 -0.1050
  866MPD2    C312762   3.815   0.285  11.297  0.2335  0.1138  0.5086
  866MPD2    C412763   3.879   0.367  11.389 -0.3930 -0.1800 -0.2253
  866MPD2    C512764   4.016   0.364  11.404 -0.2717 -0.1286 -0.2161
  866MPD2     H12765   3.839   0.111  11.171 -0.5621  0.1158  0.3788
  866MPD2    H112766   3.822   0.441  11.444 -1.9584 -1.6492  0.1059
  866MPD2    H212767   4.184   0.249  11.364 -0.9288 -2.6224  2.1187
  866MPD2    H312768   4.064   0.429  11.477  2.6622 -1.7101 -0.7312
  866MPD2     N12769   3.676   0.294  11.291 -0.0215  0.2548  0.6013
  866MPD2    H512770   3.630   0.365  11.346  0.7420  2.0442 -1.0446
  866MPD2    N112771   4.094   0.062  11.208 -0.0417 -0.0911 -0.0348
  866MPD2    H712772   4.193   0.082  11.219  0.3933 -2.2316 -0.0506
  867MPD2     C12773   0.624   4.526  16.421 -0.4184 -0.0704  0.2495
  867MPD2    C112774   0.675   4.428  16.499 -0.5905  0.5041  0.1118
  867MPD2    C212775   0.714   4.457  16.630  0.2056 -0.1953 -0.1077
  867MPD2    C312776   0.683   4.580  16.680  0.3429  1.2561  0.1805
  867MPD2    C412777   0.636   4.679  16.593  0.4422  0.0429 -0.2171
  867MPD2    C512778   0.609   4.649  16.465 -0.1205  0.3284 -0.1035
  867MPD2     H12779   0.758   4.371  16.679  1.6228  0.2343 -0.6151
  867MPD2    H112780   0.620   0.042  16.631  1.6518  0.8109 -1.7376
  867MPD2    H212781   0.604   4.510  16.315 -0.8856 -0.6159  0.4184
  867MPD2    H312782   0.580   4.725  16.392 -1.2679  1.4105  1.4749
  867MPD2     N12783   0.697   4.615  16.815 -0.7027 -0.2347  0.2095
  867MPD2    H512784   0.669   4.709  16.839  1.1049  0.7396 -1.5392
  867MPD2    N112785   0.696   4.301  16.435 -0.2020 -0.4701 -0.0889
  867MPD2    H712786   0.678   4.309  16.335  3.4868  0.2471 -0.6923
  868MPD2     C12787   2.600   3.087  12.814  0.3520  0.5503  0.5792
  868MPD2    C112788   2.621   3.219  12.859 -0.0293  0.0491 -0.1208
  868MPD2    C212789   2.515   3.294  12.880  0.0686  0.6193 -0.1923
  868MPD2    C312790   2.386   3.254  12.846 -0.7805 -0.5144  0.4484
  868MPD2    C412791   2.363   3.123  12.808 -0.6260  0.4377  0.0144
  868MPD2    C512792   2.471   3.040  12.796 -0.0744 -0.2082  0.2647
  868MPD2     H12793   2.525   3.387  12.935  0.5182  0.8651 -0.6922
  868MPD2    H112794   2.266   3.087  12.775  0.0848 -2.0899  0.6715
  868MPD2    H212795   2.684   3.020  12.800  0.2172  0.6972 -0.8936
  868MPD2    H312796   2.460   2.937  12.763 -1.9444  0.6321 -1.7604
  868MPD2     N12797   2.281   3.340  12.882 -0.6410  0.4597  0.4106
  868MPD2    H512798   2.311   3.427  12.925  1.3566  0.9034 -1.8455
  868MPD2    N112799   2.749   3.255  12.901 -0.2542  0.6095 -0.3757
  868MPD2    H712800   2.823   3.186  12.903 -0.6802  0.0766 -3.0639
  869MPD2     C12801   4.213   1.354   0.568  0.0105 -0.5664 -0.0695
  869MPD2    C112802   4.092   1.315   0.619  0.2156 -0.1499 -0.2970
  869MPD2    C212803   4.060   1.357   0.747 -0.0724 -0.1729  0.0620
  869MPD2    C312804   4.151   1.444   0.815  0.3673  0.5411  0.4489
  869MPD2    C412805   4.273   1.472   0.766 -0.1692  0.3903  0.1774
  869MPD2    C512806   4.304   1.424   0.642 -0.1975  0.1787 -0.6037
  869MPD2     H12807   3.954   1.362   0.767  0.4515  0.3037  2.6386
  869MPD2    H112808   4.345   1.531   0.821 -0.0088 -2.3055  2.9098
  869MPD2    H212809   4.242   1.313   0.472 -1.0685 -1.3084 -0.0771
  869MPD2    H312810   4.403   1.442   0.602 -0.0745  0.3321 -0.2283
  869MPD2     N12811   4.117   1.515   0.933  0.4374  0.0969  0.5565
  869MPD2    H512812   4.194   1.572   0.967  0.3861  1.0860 -0.9854
  869MPD2    N112813   4.005   1.227   0.546 -0.3565  0.1570  0.3792
  869MPD2    H712814   4.032   1.201   0.452 -1.1945  0.8046 -0.0423
  870MPD2     C12815   4.210   0.058   1.832 -0.4457  1.2696 -0.0401
  870MPD2    C112816   4.103   0.023   1.751  0.0651 -0.8814 -0.2131
  870MPD2    C212817   3.983   0.091   1.744 -0.3740  0.1709 -0.2843
  870MPD2    C312818   3.971   0.202   1.822  0.1785 -0.1192 -0.8661
  870MPD2    C412819   4.074   0.233   1.911  0.2597  0.3215 -0.8512
  870MPD2    C512820   4.189   0.157   1.917 -0.3968  0.4189 -0.1528
  870MPD2     H12821   3.903   0.057   1.680 -1.3931  0.4306  0.8632
  870MPD2    H112822   4.069   0.319   1.977 -2.1438 -1.1639  0.9034
  870MPD2    H212823   4.305   0.007   1.833 -2.1494 -1.8414  1.5056
  870MPD2    H312824   4.274   0.172   1.982 -1.0475 -0.4256  0.9091
  870MPD2     N12825   3.853   0.271   1.805  0.2068 -0.3153 -0.7104
  870MPD2    H512826   3.796   0.237   1.728 -0.7970  2.9535 -1.4173
  870MPD2    N112827   4.134   4.651   1.658  0.0088 -0.8052 -0.2911
  870MPD2    H712828   4.211   4.588   1.677  0.7280  0.2597  0.3252
  871MPD2     C12829   4.676   4.670  16.517 -0.0001  0.0310 -0.5733
  871MPD2    C112830   4.637   4.615  16.633 -0.0100  0.0053 -0.1527
  871MPD2    C212831   4.634   4.479  16.643  0.4249  0.2893 -0.1387
  871MPD2    C312832   4.652   4.407  16.528  1.3194  0.1032  0.1866
  871MPD2    C412833   4.677   4.460  16.410 -0.1970  0.7788 -0.0502
  871MPD2    C512834   4.688   4.601  16.397  0.0850  0.1106 -0.3310
  871MPD2     H12835   4.618   4.429  16.737 -0.3092  1.3008  0.2794
  871MPD2    H112836   4.687   4.398  16.322  0.8006 -0.0204  0.6435
  871MPD2    H212837   4.679   0.040  16.507 -1.8487  0.0634 -0.6400
  871MPD2    H312838   4.709   4.651  16.303 -1.4560 -0.7364 -1.1350
  871MPD2     N12839   4.638   4.270  16.531 -0.4440 -0.4580  0.1494
  871MPD2    H512840   4.588   4.226  16.608 -0.6089 -0.8815 -0.1983
  871MPD2    N112841   4.612   4.702  16.739  0.0184  0.0800  0.6491
  871MPD2    H712842   4.646   0.059  16.726 -2.4943  0.9674  0.6053
  872MPD2     C12843   0.882   1.840  14.392  0.2574 -0.7299  0.4112
  872MPD2    C112844   0.829   1.945  14.325  0.0191 -0.4299  0.0326
  872MPD2    C212845   0.701   1.979  14.354 -0.0682  0.4046 -0.0588
  872MPD2    C312846   0.630   1.919  14.460 -0.0845 -1.0405 -0.1016
  872MPD2    C412847   0.686   1.824  14.531  1.3987 -0.6222 -0.5012
  872MPD2    C512848   0.812   1.778  14.497 -0.5903 -0.4263  0.1124
  872MPD2     H12849   0.657   2.050  14.284  0.5860  0.8816  0.0113
  872MPD2    H112850   0.638   1.774  14.615  0.2135  2.6140  0.7684
  872MPD2    H212851   0.979   1.795  14.371  0.1948 -0.4745 -0.4243
  872MPD2    H312852   0.849   1.694  14.555  0.2579  1.6798  2.6381
  872MPD2     N12853   0.502   1.956  14.498 -0.1677 -0.0798 -0.6442
  872MPD2    H512854   0.466   1.919  14.586 -1.1056  3.0305  0.2856
  872MPD2    N112855   0.901   2.027  14.233 -0.3906 -0.1860  0.2484
  872MPD2    H712856   0.853   2.112  14.206 -0.3413 -1.4696 -3.8755
  873MPD2     C12857   1.997   2.613   1.125  0.0936 -0.0609  0.0722
  873MPD2    C112858   2.066   2.625   1.244  0.4025  0.0788 -0.1671
  873MPD2    C212859   2.121   2.506   1.290  0.0617  0.9559 -0.4249
  873MPD2    C312860   2.115   2.387   1.226  0.8227  0.4832 -0.3853
  873MPD2    C412861   2.043   2.380   1.113 -0.7335 -0.7623 -0.2411
  873MPD2    C512862   1.983   2.493   1.062  0.0096  0.6979  0.4270
  873MPD2     H12863   2.172   2.508   1.386 -0.9486  0.7890  0.1153
  873MPD2    H112864   2.035   2.288   1.055 -0.1126 -0.7568 -0.3414
  873MPD2    H212865   1.954   2.703   1.082  0.0683 -0.6392 -1.1101
  873MPD2    H312866   1.920   2.483   0.975  1.6384 -1.0306 -0.5470
  873MPD2     N12867   2.195   2.273   1.261 -0.1482 -0.8612 -0.3222
  873MPD2    H512868   2.187   2.191   1.202  0.7214  0.2236 -1.9626
  873MPD2    N112869   2.079   2.745   1.318  0.5575 -0.0269  0.2316
  873MPD2    H712870   2.125   2.738   1.409  0.9286 -0.1046  0.0400
  874MPD2     C12871   2.042   2.126  16.412 -0.4184 -0.4244 -0.0115
  874MPD2    C112872   2.143   2.089  16.494  0.0070 -0.3496  0.1330
  874MPD2    C212873   2.267   2.152  16.479 -0.0340 -0.0537 -0.0276
  874MPD2    C312874   2.292   2.249  16.387  0.5906 -0.2458 -0.0261
  874MPD2    C412875   2.186   2.291  16.311  0.2993  0.3778  0.2364
  874MPD2    C512876   2.060   2.232  16.325 -0.4639 -0.4262 -0.3592
  874MPD2     H12877   2.349   2.123  16.543  0.0239  0.6057  0.1982
  874MPD2    H112878   2.194   2.365  16.232  1.0239  0.2702  0.2068
  874MPD2    H212879   1.947   2.074  16.411 -0.0881 -1.0451  0.6413
  874MPD2    H312880   1.981   2.252  16.253 -0.1783 -0.3311 -0.6408
  874MPD2     N12881   2.422   2.317  16.387 -0.6684 -0.2468  0.4749
  874MPD2    H512882   2.497   2.293  16.452 -1.3351 -2.2352  0.5099
  874MPD2    N112883   2.117   2.009  16.604 -0.1634 -0.0876  0.2658
  874MPD2    H712884   2.024   1.969  16.607 -0.9637  1.8000  0.1098
  875MPD2     C12885   3.480   0.688  14.847 -0.0620 -0.0055  0.5091
  875MPD2    C112886   3.368   0.650  14.917 -0.7339 -0.5532 -0.5787
  875MPD2    C212887   3.372   0.654  15.053 -0.4481  0.2902  0.1019
  875MPD2    C312888   3.482   0.713  15.119 -0.3911 -0.2233  0.0615
  875MPD2    C412889   3.583   0.763  15.047 -0.2416  0.0164 -0.3100
  875MPD2    C512890   3.580   0.747  14.918 -0.1468  0.1786  0.4751
  875MPD2     H12891   3.283   0.632  15.111 -0.0870  2.4316  1.4885
  875MPD2    H112892   3.662   0.826  15.088  0.6746 -1.5671  0.3288
  875MPD2    H212893   3.486   0.690  14.739 -3.0705  2.0818  0.3874
  875MPD2    H312894   3.674   0.765  14.868 -0.3907 -0.0633 -0.0640
  875MPD2     N12895   3.503   0.712  15.258  0.2496 -0.3097 -0.2216
  875MPD2    H512896   3.585   0.760  15.291 -0.4595  0.9664 -0.3152
  875MPD2    N112897   3.245   0.613  14.854 -0.1408 -0.7748 -0.1854
  875MPD2    H712898   3.179   0.570  14.917  0.1146  0.9682  1.2927
  876MPD2     C12899   1.890   1.734  16.379  0.1499 -0.1778 -0.2043
  876MPD2    C112900   2.019   1.718  16.327 -0.4531 -0.6095  0.0255
  876MPD2    C212901   2.081   1.600  16.357  0.0191  0.5004 -0.0755
  876MPD2    C312902   2.026   1.494  16.426 -1.1882 -0.3940  0.2361
  876MPD2    C412903   1.897   1.511  16.469 -0.3457  0.5123  0.4574
  876MPD2    C512904   1.829   1.630  16.449 -0.4529  0.4692  1.1011
  876MPD2     H12905   2.185   1.590  16.330  0.3968  1.2551  1.1335
  876MPD2    H112906   1.835   1.447  16.530 -0.4737 -1.7477 -2.0719
  876MPD2    H212907   1.844   1.829  16.354  1.8367 -0.4484 -4.3464
  876MPD2    H312908   1.726   1.633  16.483 -1.2657  1.6678 -1.5148
  876MPD2     N12909   2.104   1.375  16.446  0.5328  0.1502  0.4459
  876MPD2    H512910   2.198   1.368  16.409  0.7121 -0.5624  1.0392
  876MPD2    N112911   2.073   1.828  16.253  0.8685  0.4372  0.3380
  876MPD2    H712912   2.009   1.906  16.241 -2.9663 -2.5052  1.8355
  877MPD2     C12913   1.863   2.250  15.646  0.4448  0.3949 -0.3936
  877MPD2    C112914   2.004   2.238  15.645 -0.2436  0.6279 -0.0885
  877MPD2    C212915   2.069   2.266  15.525  0.5339 -0.6132  0.5264
  877MPD2    C312916   1.999   2.288  15.407 -0.3266 -0.0072 -0.1812
  877MPD2    C412917   1.857   2.281  15.407 -0.1359  0.0867  0.1893
  877MPD2    C512918   1.795   2.266  15.526 -1.1440  0.0056 -0.3073
  877MPD2     H12919   2.177   2.273  15.512  0.3531  0.8285 -0.1962
  877MPD2    H112920   1.809   2.288  15.310  1.4147 -2.0390 -0.7350
  877MPD2    H212921   1.798   2.247  15.732  1.1727  1.7508  0.2000
  877MPD2    H312922   1.688   2.264  15.537 -1.1703  1.2540 -0.2690
  877MPD2     N12923   2.064   2.296  15.285 -0.0499 -0.7943 -0.4216
  877MPD2    H512924   2.001   2.300  15.205  0.4944 -1.7276 -0.9041
  877MPD2    N112925   2.079   2.211  15.764  0.7154  0.4530  0.8025
  877MPD2    H712926   2.179   2.205  15.747  0.3904 -1.4970 -0.4342
  878MPD2     C12927   1.621   1.181  13.688 -0.4068  0.7986  0.6742
  878MPD2    C112928   1.735   1.253  13.662  0.0041 -0.3359  0.4438
  878MPD2    C212929   1.780   1.341  13.757  0.1186 -0.9208  0.0626
  878MPD2    C312930   1.721   1.360  13.880  0.0130  0.4252 -0.3328
  878MPD2    C412931   1.601   1.291  13.903  0.4666  0.0150 -0.4065
  878MPD2    C512932   1.552   1.204  13.802 -0.4848  0.1801  0.5681
  878MPD2     H12933   1.869   1.400  13.738 -1.7414  1.9231  0.2845
  878MPD2    H112934   1.551   1.282  13.999  0.9027 -2.9989 -0.4466
  878MPD2    H212935   1.592   1.099  13.625  0.8495 -0.8704  2.2569
  878MPD2    H312936   1.464   1.146  13.827  0.9612 -2.6361 -0.9088
  878MPD2     N12937   1.791   1.432  13.983  0.3925 -0.0472 -0.5086
  878MPD2    H512938   1.882   1.469  13.958 -1.0862  1.9186 -2.8319
  878MPD2    N112939   1.800   1.231  13.537  0.3419 -0.5461  1.0197
  878MPD2    H712940   1.752   1.192  13.457  1.6553  1.9288 -0.9483
  879MPD2     C12941   2.425   2.585  17.517 -0.1937  0.4220  0.7616
  879MPD2    C112942   2.383   2.674  17.420 -0.6426  0.4526 -0.3586
  879MPD2    C212943   2.357   2.620  17.294 -1.3594 -0.5218  0.4176
  879MPD2    C312944   2.369   2.486  17.261  0.5741 -0.1210 -0.2196
  879MPD2    C412945   2.402   2.401  17.363 -0.5706 -0.3363 -1.1644
  879MPD2    C512946   2.433   2.450  17.489  0.2282  0.1552  0.7398
  879MPD2     H12947   2.330   2.691  17.217 -1.3664 -1.0857 -0.0931
  879MPD2    H112948   2.400   2.294  17.346  0.0624 -0.8047  1.6347
  879MPD2    H212949   2.438   2.618  17.619  3.0501  2.4529 -0.3289
  879MPD2    H312950   2.461   2.387  17.573  0.7570  0.1093  0.5266
  879MPD2     N12951   2.321   2.435  17.139  0.0537  0.4082 -0.7433
  879MPD2    H512952   2.302   2.336  17.126  1.2147  0.0987 -0.0379
  879MPD2    N112953   2.351   2.802  17.469  0.4991 -0.6330 -0.4940
  879MPD2    H712954   2.391   2.833  17.557  1.3423  1.8518 -1.7607
  880MPD2     C12955   3.415   4.509   0.615  0.7815 -0.0605 -0.1271
  880MPD2    C112956   3.516   4.590   0.656 -0.3308 -0.0175  0.5628
  880MPD2    C212957   3.630   4.537   0.710  0.3110  0.5653 -0.2624
  880MPD2    C312958   3.636   4.404   0.732  0.0650  0.7177  0.1405
  880MPD2    C412959   3.537   4.317   0.684  0.4875  0.2548  0.1636
  880MPD2    C512960   3.435   4.375   0.610 -0.5001 -0.3980  0.1004
  880MPD2     H12961   3.701   4.607   0.754 -0.2855 -0.1104  1.7895
  880MPD2    H112962   3.526   4.210   0.692 -2.4661  0.4606 -1.1976
  880MPD2    H212963   3.330   4.554   0.566  0.3023 -0.7868  0.0449
  880MPD2    H312964   3.360   4.304   0.576 -1.3366  0.4034  0.2616
  880MPD2     N12965   3.753   4.358   0.799  0.4353  0.0199  0.3234
  880MPD2    H512966   3.821   4.426   0.830  0.8287 -1.1599  2.0338
  880MPD2    N112967   3.486   4.732   0.647 -0.6023 -0.5202 -0.3298
  880MPD2    H712968   3.394   0.020   0.614 -1.0592  0.9003  1.9698
  881MPD2     C12969   4.066   0.777   0.368  0.2540 -0.2150  0.5752
  881MPD2    C112970   3.979   0.705   0.290  0.2348 -1.4481 -0.2313
  881MPD2    C212971   3.899   0.611   0.357  0.5279  0.4154 -0.1856
  881MPD2    C312972   3.883   0.609   0.493 -0.3838 -0.4013 -0.0261
  881MPD2    C412973   3.951   0.708   0.562  0.2202 -0.4725  0.1068
  881MPD2    C512974   4.043   0.785   0.498  0.2594 -0.7488  0.6055
  881MPD2     H12975   3.845   0.542   0.294 -0.7046  1.7916 -0.6436
  881MPD2    H112976   3.926   0.723   0.667  1.3131  1.5202  0.0767
  881MPD2    H212977   4.146   0.838   0.328 -0.3089  0.8161  1.0338
  881MPD2    H312978   4.089   0.862   0.559 -0.9243 -0.2855  0.9189
  881MPD2     N12979   3.783   0.525   0.552 -0.0712 -0.4989 -0.8707
  881MPD2    H512980   3.734   0.456   0.496  1.3296 -1.6388 -0.7035
  881MPD2    N112981   3.998   0.697   0.148 -0.4272  0.1262 -0.4473
  881MPD2    H712982   3.962   0.616   0.098 -0.2300 -1.7437  2.4194
  882MPD2     C12983   2.194   2.122  14.440  0.6823  0.5680 -0.1947
  882MPD2    C112984   2.117   2.144  14.549  0.1264 -0.4459  0.4680
  882MPD2    C212985   1.984   2.123  14.542  0.9310  0.0297 -0.1270
  882MPD2    C312986   1.927   2.061  14.433  0.4261  0.4770  0.3549
  882MPD2    C412987   2.012   2.018  14.334  0.4657  0.0784 -0.7503
  882MPD2    C512988   2.142   2.061  14.335 -0.3776 -0.5955  0.6955
  882MPD2     H12989   1.921   2.152  14.625  2.0094  2.2226 -0.0712
  882MPD2    H112990   1.972   1.967  14.247  0.1713  0.1360 -0.6495
  882MPD2    H212991   2.300   2.143  14.432  0.6020  1.4815  1.0693
  882MPD2    H312992   2.201   2.047  14.244  1.0747 -1.2964  1.7443
  882MPD2     N12993   1.790   2.033  14.421 -0.4858  0.2317  0.4219
  882MPD2    H512994   1.764   1.987  14.335 -0.3688 -1.2832  1.1984
  882MPD2    N112995   2.175   2.189  14.673 -0.1453 -0.1520  1.0270
  882MPD2    H712996   2.270   2.221  14.657 -0.5602 -0.6662 -2.5145
  883MPD2     C12997   4.057   2.017  16.882  0.2867  0.2158 -0.6875
  883MPD2    C112998   4.141   2.026  16.774  0.1155  0.0615  0.5448
  883MPD2    C212999   4.268   1.964  16.782 -0.3188  0.0099  0.4753
  883MPD2    C313000   4.306   1.905  16.900  1.1083  0.3438  0.5773
  883MPD2    C413001   4.216   1.900  17.002  0.3065 -0.6712 -0.7937
  883MPD2    C513002   4.098   1.959  16.994 -0.0012  1.0627 -0.4430
  883MPD2     H13003   4.330   1.965  16.693 -2.9586 -2.5378 -1.3722
  883MPD2    H113004   4.240   1.861  17.101  3.6383  1.3027 -0.8192
  883MPD2    H213005   3.959   2.064  16.889  0.3861  0.0514  1.9455
  883MPD2    H313006   4.036   1.952  17.083  2.1635 -1.6579  0.8462
  883MPD2     N13007   4.438   1.856  16.905 -0.2449 -0.7190 -0.0221
  883MPD2    H513008   4.498   1.888  16.830 -0.2322  1.0837  0.7431
  883MPD2    N113009   4.104   2.105  16.653  0.5200 -0.4974  0.3569
  883MPD2    H713010   4.172   2.121  16.580  1.2690  0.3071  1.2384
  884MPD2     C13011   1.266   2.808  15.413 -0.3966 -0.0865  0.3494
  884MPD2    C113012   1.220   2.864  15.302  0.1877  0.2100 -0.0240
  884MPD2    C213013   1.083   2.881  15.297  0.4972 -0.0554 -0.4058
  884MPD2    C313014   0.993   2.841  15.398 -0.8862  0.1160  0.3788
  884MPD2    C413015   1.041   2.755  15.489 -0.1603 -0.8023  0.6645
  884MPD2    C513016   1.178   2.740  15.491  0.3326 -0.0756 -0.1965
  884MPD2     H13017   1.031   2.933  15.218 -0.7594 -1.1343 -0.2930
  884MPD2    H113018   0.985   2.716  15.573  0.9834  0.1963  1.9147
  884MPD2    H213019   1.371   2.785  15.426  0.3827  3.2889  0.1603
  884MPD2    H313020   1.225   2.678  15.567  1.2441 -0.9361 -1.4510
  884MPD2     N13021   0.857   2.888  15.385  0.2895  0.0010  0.6486
  884MPD2    H513022   0.835   2.926  15.294  0.4852  1.3115  1.1479
  884MPD2    N113023   1.297   2.927  15.205 -0.2405 -0.1658  0.7423
  884MPD2    H713024   1.249   2.975  15.130 -0.1464  0.6403  1.1893
  885MPD2     C13025   4.056   3.498   0.571 -0.3763 -0.3111  0.1583
  885MPD2    C113026   4.104   3.388   0.508 -0.2464 -0.1602 -0.5620
  885MPD2    C213027   4.157   3.410   0.384 -0.2016  0.3504  0.3341
  885MPD2    C313028   4.132   3.526   0.316 -1.0127  0.6920 -0.1349
  885MPD2    C413029   4.091   3.636   0.381  0.0909 -0.0147 -0.0587
  885MPD2    C513030   4.061   3.623   0.514 -0.1826  0.1854  1.0508
  885MPD2     H13031   4.200   3.328   0.326  1.1509  1.0431  0.3528
  885MPD2    H113032   4.091   3.738   0.343 -2.0698 -0.0883 -0.2638
  885MPD2    H213033   4.017   3.499   0.672  0.9865  1.3060  0.6703
  885MPD2    H313034   4.027   3.714   0.561  0.3554  0.8612  0.1365
  885MPD2     N13035   4.158   3.524   0.176 -0.2107 -0.0145 -0.2323
  885MPD2    H513036   4.182   3.435   0.134 -1.0087 -0.8509  1.0905
  885MPD2    N113037   4.113   3.271   0.586 -0.3184 -0.2036 -0.6337
  885MPD2    H713038   4.069   3.270   0.677 -0.6572  1.9119 -0.7753
  886MPD2     C13039   0.563   1.573  15.708  0.5417  0.1246  0.7081
  886MPD2    C113040   0.689   1.624  15.732 -0.7048 -0.2842 -0.1175
  886MPD2    C213041   0.735   1.745  15.685 -0.0497  0.4619  0.2801
  886MPD2    C313042   0.647   1.821  15.602  0.1705 -0.5560  0.4591
  886MPD2    C413043   0.516   1.780  15.592  0.1401 -0.5275  0.4162
  886MPD2    C513044   0.473   1.661  15.650 -0.1578  0.4280  0.0001
  886MPD2     H13045   0.834   1.778  15.713  0.3280 -1.2662  0.9976
  886MPD2    H113046   0.446   1.834  15.529 -0.4204 -1.3208  0.3537
  886MPD2    H213047   0.513   1.486  15.749 -2.7101  1.6673  0.0361
  886MPD2    H313048   0.367   1.642  15.647 -0.4712  2.1736 -0.1603
  886MPD2     N13049   0.693   1.934  15.527 -0.0719  0.0527  0.3952
  886MPD2    H513050   0.636   1.978  15.456 -1.1968  1.9280  2.4577
  886MPD2    N113051   0.784   1.547  15.803  0.1570 -0.5690 -0.2292
  886MPD2    H713052   0.878   1.583  15.820  0.1882 -0.0636 -1.4840
  887MPD2     C13053   1.370   1.539  16.238  0.9912  0.2509  0.1133
  887MPD2    C113054   1.279   1.606  16.161 -0.2876 -0.2661  0.2057
  887MPD2    C213055   1.317   1.719  16.099 -0.4231  0.1313  0.1651
  887MPD2    C313056   1.444   1.774  16.124  0.5104  0.2960 -0.1510
  887MPD2    C413057   1.536   1.706  16.200 -0.6668  0.1912 -0.7479
  887MPD2    C513058   1.500   1.583  16.241  0.2283  0.7097 -0.2178
  887MPD2     H13059   1.246   1.770  16.036 -0.7296  0.4862  0.7924
  887MPD2    H113060   1.634   1.745  16.224 -0.5065 -0.1289 -0.8875
  887MPD2    H213061   1.358   1.435  16.269 -0.8507  0.1114 -1.0647
  887MPD2    H313062   1.558   1.505  16.289 -0.4339 -0.8183 -1.8867
  887MPD2     N13063   1.485   1.895  16.060 -0.4041  0.5583 -0.3191
  887MPD2    H513064   1.424   1.940  15.993 -0.9513 -0.9886 -0.8707
  887MPD2    N113065   1.148   1.559  16.122 -0.0688 -0.0991  0.2389
  887MPD2    H713066   1.094   1.611  16.053 -0.6756 -0.3069  0.5543
  888MPD2     C13067   3.243   1.421  15.458  0.3456  0.7245  0.2742
  888MPD2    C113068   3.112   1.468  15.423 -0.9433  0.7688  0.0916
  888MPD2    C213069   3.090   1.600  15.395 -0.1796 -0.3416 -0.5318
  888MPD2    C313070   3.195   1.690  15.376  0.6030 -0.0227 -0.4912
  888MPD2    C413071   3.322   1.648  15.411 -0.3271 -0.1617 -0.1142
  888MPD2    C513072   3.348   1.513  15.440  0.2919  0.3308 -0.7657
  888MPD2     H13073   2.992   1.629  15.358 -0.5535  0.5221  1.1429
  888MPD2    H113074   3.411   1.710  15.403 -1.5746  1.6396  0.1352
  888MPD2    H213075   3.257   1.318  15.488  1.5606  0.6865 -0.4143
  888MPD2    H313076   3.448   1.479  15.465 -0.0288  1.2083  1.7602
  888MPD2     N13077   3.167   1.822  15.342  0.3265  0.1571 -0.8110
  888MPD2    H513078   3.071   1.840  15.315 -0.0778 -0.1292  0.4222
  888MPD2    N113079   3.012   1.368  15.422  0.1868 -0.5289  0.5988
  888MPD2    H713080   3.038   1.274  15.452  2.6748  0.0305  0.2094
  889MPD2     C13081   2.692   1.095  13.975  0.4769  1.0039  0.3477
  889MPD2    C113082   2.717   1.123  13.843  0.2145 -0.0234 -0.3272
  889MPD2    C213083   2.796   1.239  13.826  0.4861  0.4160 -0.0325
  889MPD2    C313084   2.817   1.340  13.914  0.5677  0.9376 -0.0497
  889MPD2    C413085   2.775   1.313  14.044  0.0355 -0.0762 -0.5613
  889MPD2    C513086   2.715   1.193  14.069  0.2676 -0.0348  0.2014
  889MPD2     H13087   2.818   1.263  13.723 -1.3579  1.0563 -0.2791
  889MPD2    H113088   2.777   1.383  14.127  0.0952 -0.4593 -0.2385
  889MPD2    H213089   2.644   1.001  13.999  0.7253  0.8144  0.0968
  889MPD2    H313090   2.669   1.189  14.167 -0.7600 -1.2170 -0.3294
  889MPD2     N13091   2.873   1.457  13.876  0.4184 -0.3815 -0.4014
  889MPD2    H513092   2.886   1.466  13.775  0.6761  0.4101 -0.2960
  889MPD2    N113093   2.734   1.015  13.749  0.5974  0.0520  0.8507
  889MPD2    H713094   2.804   1.033  13.677  0.3914 -1.7663  0.1923
  890MPD2     C13095   1.846   2.828  14.693  0.5611 -0.4412 -1.0536
  890MPD2    C113096   1.973   2.870  14.703  0.3291  0.6546  0.5020
  890MPD2    C213097   2.044   2.822  14.810  0.8720  0.2953 -1.0669
  890MPD2    C313098   1.987   2.768  14.921 -0.2320  0.0192 -0.2442
  890MPD2    C413099   1.853   2.735  14.913 -0.5530  0.5866 -0.4916
  890MPD2    C513100   1.785   2.767  14.798 -0.4689  0.1205  0.0892
  890MPD2     H13101   2.149   2.847  14.822  0.6967  1.0744 -1.1635
  890MPD2    H113102   1.804   2.682  14.994 -0.2504  0.9938 -0.0405
  890MPD2    H213103   1.781   2.836  14.607  1.2472 -0.1151 -1.5399
  890MPD2    H313104   1.679   2.748  14.792 -0.7232  0.1129  4.3872
  890MPD2     N13105   2.076   2.733  15.026  0.3109 -0.0934 -0.0038
  890MPD2    H513106   2.172   2.758  15.007  1.2487 -3.6066  0.0118
  890MPD2    N113107   2.028   2.952  14.603 -0.4163  0.0932  0.3877
  890MPD2    H713108   1.960   2.983  14.534 -0.3675 -0.6315  0.0123
  891MPD2     C13109   0.132   1.104  16.701  0.7413 -0.9623 -0.1713
  891MPD2    C113110   0.069   1.190  16.793 -0.3600  0.4739 -0.3818
  891MPD2    C213111   0.133   1.218  16.916 -0.7622  0.5140 -0.4600
  891MPD2    C313112   0.250   1.149  16.943 -0.3020 -0.2585 -0.2953
  891MPD2    C413113   0.309   1.067  16.850  0.1794 -0.2405 -0.3551
  891MPD2    C513114   0.249   1.046  16.727  0.2058  0.2858  0.1488
  891MPD2     H13115   0.090   1.280  16.993  0.1305 -1.4261  1.6290
  891MPD2    H113116   0.407   1.022  16.860  1.9474  4.0758  1.7518
  891MPD2    H213117   0.083   1.074  16.609 -1.3456 -1.3065  1.0394
  891MPD2    H313118   0.301   0.986  16.654  1.4166 -1.7394  2.6594
  891MPD2     N13119   0.306   1.163  17.066  0.5265  0.0930  0.8338
  891MPD2    H513120   0.248   1.222  17.124 -0.6950  2.4702 -2.8060
  891MPD2    N113121   4.686   1.250  16.750  0.7224  0.1244  0.4047
  891MPD2    H713122   4.651   1.234  16.656 -0.2609  1.0522  0.6092
  892MPD2     C13123   1.258   2.537  14.989 -0.1849 -0.7101 -0.4046
  892MPD2    C113124   1.157   2.474  14.920  0.0946 -0.5053  0.0653
  892MPD2    C213125   1.190   2.387  14.821 -0.6026  0.4706  0.1903
  892MPD2    C313126   1.317   2.360  14.786 -0.0743 -0.1623  0.2868
  892MPD2    C413127   1.420   2.427  14.848 -0.2932 -0.0364 -0.1066
  892MPD2    C513128   1.388   2.516  14.947 -0.3184  0.1104  0.1829
  892MPD2     H13129   1.100   2.345  14.777 -0.2946 -0.4491  0.4399
  892MPD2    H113130   1.522   2.414  14.815  0.1497  0.9481  0.8605
  892MPD2    H213131   1.250   2.609  15.070  1.3859 -0.3872 -0.5448
  892MPD2    H313132   1.463   2.568  15.004  0.6360 -1.3029  0.2110
  892MPD2     N13133   1.351   2.274  14.677 -0.3440  0.0826  0.2297
  892MPD2    H513134   1.447   2.251  14.655  0.5558  2.7857  1.2832
  892MPD2    N113135   1.024   2.484  14.958  0.2691 -0.0758 -0.2710
  892MPD2    H713136   0.952   2.449  14.895  0.9449 -0.2008 -0.9717
  893MPD2     C13137   2.988   0.812   1.859  0.3147  0.7131 -0.3463
  893MPD2    C113138   2.976   0.825   1.723  0.3395 -0.0526  0.9333
  893MPD2    C213139   2.851   0.864   1.667  0.0614  0.4602  0.0347
  893MPD2    C313140   2.740   0.886   1.751 -0.0264  0.0053 -0.0877
  893MPD2    C413141   2.759   0.866   1.883 -1.1529 -0.0772 -0.4885
  893MPD2    C513142   2.878   0.839   1.939 -0.0378  0.3888  0.2245
  893MPD2     H13143   2.836   0.860   1.560 -1.4496 -0.0229  0.2635
  893MPD2    H113144   2.677   0.878   1.953  1.1108 -0.4836  2.2587
  893MPD2    H213145   3.077   0.787   1.916  0.7203 -0.7680 -1.6394
  893MPD2    H313146   2.876   0.808   2.043 -1.8263 -1.7885 -0.4535
  893MPD2     N13147   2.611   0.918   1.707 -0.3623 -0.3230 -0.0058
  893MPD2    H513148   2.536   0.928   1.775 -2.7150 -1.0344 -2.5249
  893MPD2    N113149   3.091   0.794   1.651  0.4215 -0.3097  0.0370
  893MPD2    H713150   3.171   0.759   1.703  0.6475  2.9522  1.8850
  894MPD2     C13151   0.980   3.108   1.023 -0.0796 -0.1069 -0.1527
  894MPD2    C113152   0.994   3.130   1.161 -0.7350  0.3195 -0.0058
  894MPD2    C213153   1.005   3.253   1.225  0.1734  0.4610 -0.7536
  894MPD2    C313154   0.980   3.371   1.157  0.2365  0.3401  0.5057
  894MPD2    C413155   0.967   3.357   1.022  0.9561 -0.7257 -0.1409
  894MPD2    C513156   0.961   3.235   0.960  0.2568  0.5382 -0.1841
  894MPD2     H13157   1.034   3.248   1.329 -0.4034  0.3676 -0.5973
  894MPD2    H113158   0.972   3.439   0.950 -0.9537 -2.8539 -2.7033
  894MPD2    H213159   0.988   3.022   0.958 -0.9030  0.4683 -1.0076
  894MPD2    H313160   0.968   3.243   0.852 -1.9196  0.3149 -0.3362
  894MPD2     N13161   0.984   3.499   1.222  0.2087 -0.1949 -0.0935
  894MPD2    H513162   1.003   3.492   1.321 -1.5333 -1.0996  0.1813
  894MPD2    N113163   0.999   3.019   1.245  0.0120  0.0490 -0.3763
  894MPD2    H713164   0.968   3.039   1.339 -0.5048 -2.5240  0.0183
  895MPD2     C13165   1.101   0.678  14.302  0.5718 -0.3494 -0.3721
  895MPD2    C113166   0.991   0.641  14.373 -0.4133 -0.0566 -0.7153
  895MPD2    C213167   0.966   0.507  14.379  0.2814 -0.2974  0.4915
  895MPD2    C313168   1.037   0.420  14.297 -0.2444 -0.3078  0.8947
  895MPD2    C413169   1.145   0.458  14.226 -0.3730 -0.1179 -0.7993
  895MPD2    C513170   1.177   0.589  14.227  0.7938 -0.6775 -0.4535
  895MPD2     H13171   0.878   0.479  14.435  0.7234  1.0780  1.8944
  895MPD2    H113172   1.195   0.396  14.153  0.2522  0.4517 -0.8513
  895MPD2    H213173   1.121   0.781  14.274 -0.8275  0.4284  1.5592
  895MPD2    H313174   1.252   0.643  14.171 -1.0546  0.5027 -1.8040
  895MPD2     N13175   0.999   0.278  14.294 -0.5413  0.7158  0.6982
  895MPD2    H513176   1.035   0.215  14.223  0.2107  3.5261 -1.4098
  895MPD2    N113177   0.899   0.729  14.442  0.2799 -0.4950  0.1544
  895MPD2    H713178   0.812   0.689  14.476 -1.4532  2.1228 -1.1963
  896MPD2     C13179   2.947   0.143   1.581 -0.8109 -0.5210  1.0823
  896MPD2    C113180   2.898   0.067   1.478  0.2485  0.0745 -0.3755
  896MPD2    C213181   2.766   0.024   1.491 -0.2124 -0.4781  0.5609
  896MPD2    C313182   2.700   0.044   1.608  0.4695  0.3954  0.4741
  896MPD2    C413183   2.744   0.118   1.710  0.0209 -0.4315  0.0691
  896MPD2    C513184   2.872   0.166   1.696 -0.0271  0.1211 -0.2174
  896MPD2     H13185   2.705   4.708   1.419 -0.2039 -0.9944  0.9392
  896MPD2    H113186   2.700   0.125   1.809 -0.7870  0.8619 -0.3819
  896MPD2    H213187   3.048   0.183   1.580 -0.1866 -2.1371  0.4683
  896MPD2    H313188   2.919   0.221   1.777 -1.0558  1.2906 -0.4069
  896MPD2     N13189   2.565   4.729   1.616  0.2184 -0.1079  0.2007
  896MPD2    H513190   2.529   4.667   1.544  1.2660 -1.0634  0.4974
  896MPD2    N113191   2.978   0.045   1.358 -0.4507  0.0990 -0.8806
  896MPD2    H713192   3.073   0.080   1.349 -0.3306 -0.0805 -0.3183
  897MPD2     C13193   4.014   0.551  10.939  0.1357 -0.7088  0.6875
  897MPD2    C113194   4.027   0.683  10.914  0.1715  0.3520  0.3590
  897MPD2    C213195   3.926   0.760  10.980 -0.4261 -0.1769  0.4933
  897MPD2    C313196   3.834   0.710  11.069  0.2204 -0.0923 -0.6729
  897MPD2    C413197   3.830   0.576  11.102 -0.0493  0.9333  0.8318
  897MPD2    C513198   3.923   0.498  11.027  0.3440  0.1567  0.1000
  897MPD2     H13199   3.925   0.868  10.978  1.0886 -0.2205 -2.2007
  897MPD2    H113200   3.766   0.535  11.179 -0.6477 -0.9250 -0.6536
  897MPD2    H213201   4.080   0.477  10.896 -1.3556 -1.2292 -0.7141
  897MPD2    H313202   3.908   0.391  11.022 -0.2166  0.3435 -2.4081
  897MPD2     N13203   3.758   0.802  11.138 -0.1471  0.2787  0.3929
  897MPD2    H513204   3.751   0.890  11.089 -0.1099 -1.3415 -2.5623
  897MPD2    N113205   4.123   0.742  10.832 -0.2074 -0.3618  0.2032
  897MPD2    H713206   4.192   0.682  10.788  0.8208  0.7742  0.2380
  898MPD2     C13207   0.366   1.736   0.036  0.1296  0.6311  0.1960
  898MPD2    C113208   0.495   1.754   0.069 -0.0848  0.0225 -0.1819
  898MPD2    C213209   0.552   1.875   0.039 -0.1572  0.1188  0.4777
  898MPD2    C313210   0.490   1.968  17.709 -0.5399 -1.1257 -0.9080
  898MPD2    C413211   0.363   1.942  17.675  0.0454  0.0462 -0.8585
  898MPD2    C513212   0.297   1.836  17.720 -0.6085 -0.2694 -0.1124
  898MPD2     H13213   0.655   1.899   0.065  0.5550 -1.8619 -0.4392
  898MPD2    H113214   0.307   2.011  17.613 -1.9437 -0.4368  0.3972
  898MPD2    H213215   0.304   1.647   0.043 -0.0550  0.8366  1.2931
  898MPD2    H313216   0.192   1.825  17.698 -0.7193  0.1072  0.2283
  898MPD2     N13217   0.555   2.096  17.692  0.1060  0.1430  0.4744
  898MPD2    H513218   0.651   2.108  17.722  0.5899 -2.8622  0.1694
  898MPD2    N113219   0.572   1.657   0.126  0.2530 -0.0567  0.0800
  898MPD2    H713220   0.670   1.682   0.137  0.3400 -0.4502  0.1855
  899MPD2     C13221   1.723   2.357  17.213  0.2109  0.8818  0.1607
  899MPD2    C113222   1.755   2.479  17.260  0.3383  0.1297 -0.1086
  899MPD2    C213223   1.733   2.501  17.394  0.2904  0.1256  0.1612
  899MPD2    C313224   1.675   2.409  17.475 -0.0429 -0.3860  0.4139
  899MPD2    C413225   1.648   2.285  17.429 -0.0043 -0.1462 -0.2397
  899MPD2    C513226   1.673   2.263  17.298 -0.2290 -0.1770 -0.3502
  899MPD2     H13227   1.748   2.603  17.428 -2.0220  0.8423 -1.0174
  899MPD2    H113228   1.600   2.210  17.492 -1.1422 -0.1023 -1.0481
  899MPD2    H213229   1.721   2.331  17.108 -0.5734  1.1810  0.1079
  899MPD2    H313230   1.633   2.175  17.250  0.7611  0.1950 -1.8598
  899MPD2     N13231   1.621   2.436  17.597  0.8622 -0.0218 -0.9433
  899MPD2    H513232   1.556   2.365  17.629  2.3977 -0.7750  0.5217
  899MPD2    N113233   1.797   2.577  17.172  0.0282 -0.9249  0.1130
  899MPD2    H713234   1.787   2.565  17.072 -0.3746  0.1179  0.0352
  900MPD2     C13235   1.406   3.987  12.750 -0.5253 -0.4435  0.3184
  900MPD2    C113236   1.302   3.887  12.762 -0.0474  0.2024 -1.0214
  900MPD2    C213237   1.174   3.918  12.771  0.1133  0.0336  0.2973
  900MPD2    C313238   1.135   4.050  12.786  0.2666 -0.1955  0.5795
  900MPD2    C413239   1.232   4.150  12.778  0.4354 -0.6316  0.0916
  900MPD2    C513240   1.366   4.120  12.765  0.0491  0.8466  0.4211
  900MPD2     H13241   1.096   3.843  12.769  0.6352 -0.4494 -2.2578
  900MPD2    H113242   1.211   4.256  12.784  1.2616 -0.4900  0.4504
  900MPD2    H213243   1.513   3.970  12.747 -0.6849 -1.6285  1.2141
  900MPD2    H313244   1.441   4.197  12.779  0.3930  0.6834 -0.4873
  900MPD2     N13245   0.998   4.071  12.816 -0.0793  0.6787 -0.2728
  900MPD2    H513246   0.945   3.984  12.819  0.4029  0.4327  0.8270
  900MPD2    N113247   1.344   3.749  12.748 -0.4641 -0.1485  0.1906
  900MPD2    H713248   1.444   3.741  12.730 -0.5088  0.4219 -0.3185
  901MPD2     C13249   1.287   2.739  13.135 -0.3239 -0.1806  0.3462
  901MPD2    C113250   1.342   2.733  13.007 -0.4077  0.3273  0.2925
  901MPD2    C213251   1.350   2.850  12.936  0.2109  0.5080  0.0679
  901MPD2    C313252   1.326   2.971  12.991  0.5756  0.0435 -0.3997
  901MPD2    C413253   1.280   2.978  13.118 -0.0820  0.0731  0.9164
  901MPD2    C513254   1.259   2.857  13.192  0.1702  0.3559  0.1104
  901MPD2     H13255   1.397   2.842  12.839 -0.6356 -0.1384 -0.2915
  901MPD2    H113256   1.239   3.069  13.159 -0.5119  0.7393 -0.9711
  901MPD2    H213257   1.272   2.645  13.187  2.9541 -0.4481  0.8281
  901MPD2    H313258   1.213   2.862  13.290 -3.0965  0.4597 -1.4185
  901MPD2     N13259   1.350   3.083  12.908  0.0251 -0.4614 -0.4764
  901MPD2    H513260   1.393   3.058  12.820  2.4666  0.5610  0.4059
  901MPD2    N113261   1.388   2.612  12.963  0.9933 -0.1252  0.5405
  901MPD2    H713262   1.380   2.539  13.033 -1.5961 -1.0020 -0.6840
  902MPD2     C13263   1.102   1.836  13.160 -0.4288 -0.2429 -0.3645
  902MPD2    C113264   1.067   1.818  13.027  0.2790  0.0074 -0.1942
  902MPD2    C213265   1.105   1.695  12.977 -0.3830 -0.2810  0.2709
  902MPD2    C313266   1.189   1.618  13.038  0.1328 -0.4715  0.2691
  902MPD2    C413267   1.232   1.641  13.166  0.3924  0.0291  0.1601
  902MPD2    C513268   1.179   1.749  13.233  0.3250 -0.7236 -0.0895
  902MPD2     H13269   1.083   1.672  12.873 -1.2659  2.0775 -0.0645
  902MPD2    H113270   1.313   1.584  13.211  0.4073  0.7352  1.0294
  902MPD2    H213271   1.069   1.924  13.214 -3.2769 -1.0783 -0.7727
  902MPD2    H313272   1.205   1.760  13.338  2.1050 -0.7611 -0.5277
  902MPD2     N13273   1.234   1.504  12.965  0.0401  0.3554 -0.2669
  902MPD2    H513274   1.187   1.476  12.880  1.4692  1.3097 -1.3805
  902MPD2    N113275   1.006   1.918  12.953  0.3042  0.6012  0.1672
  902MPD2    H713276   0.996   2.009  12.998 -3.2039  0.9689 -1.4103
  903MPD2     C13277   0.969   1.146  12.334 -0.4767 -0.2438 -0.3487
  903MPD2    C113278   0.957   1.183  12.470 -0.2879  1.1648 -0.4539
  903MPD2    C213279   0.834   1.184  12.533 -0.2047  0.1576 -0.8882
  903MPD2    C313280   0.722   1.149  12.465  0.2033  0.2775  0.0505
  903MPD2    C413281   0.742   1.111  12.332 -0.1140 -0.8911 -0.4893
  903MPD2    C513282   0.860   1.104  12.268 -0.2777  0.1686  0.1268
  903MPD2     H13283   0.813   1.197  12.638 -2.5307  2.4149 -1.6348
  903MPD2    H113284   0.660   1.076  12.270 -2.0633 -1.3199  2.3528
  903MPD2    H213285   1.059   1.139  12.275 -1.0188 -0.3269 -1.1592
  903MPD2    H313286   0.868   1.064  12.167 -0.4802 -0.2295  0.2677
  903MPD2     N13287   0.597   1.150  12.529 -0.3383 -0.5992 -0.5864
  903MPD2    H513288   0.599   1.187  12.624 -0.6836 -0.8798 -0.4687
  903MPD2    N113289   1.075   1.212  12.541 -0.0447  0.6148  0.0475
  903MPD2    H713290   1.153   1.234  12.479 -0.3598  1.6653  0.0097
  904MPD2     C13291   0.470   0.860  14.903  0.8366 -0.3444 -0.4098
  904MPD2    C113292   0.461   0.744  14.825  0.2635 -0.0171  0.3386
  904MPD2    C213293   0.581   0.680  14.800 -0.7526 -0.4362  0.1189
  904MPD2    C313294   0.707   0.722  14.841 -0.3840  0.4162  0.1430
  904MPD2    C413295   0.699   0.833  14.930  0.0366 -0.8616 -0.4855
  904MPD2    C513296   0.583   0.899  14.958  0.1907 -0.6414 -0.5566
  904MPD2     H13297   0.580   0.596  14.731  2.4888  0.1954 -0.6766
  904MPD2    H113298   0.786   0.885  14.970  0.0155 -1.4190  0.2842
  904MPD2    H213299   0.382   0.918  14.928  0.4135 -0.8348 -0.7712
  904MPD2    H313300   0.595   0.992  15.014 -3.2735 -1.1488  0.9965
  904MPD2     N13301   0.826   0.659  14.793  0.3668 -0.0865 -0.6390
  904MPD2    H513302   0.808   0.577  14.737  1.8703  1.3458 -3.2087
  904MPD2    N113303   0.337   0.704  14.760  0.4412 -0.7826  0.2940
  904MPD2    H713304   0.344   0.611  14.720  1.0887 -0.0321 -1.3444
  905MPD2     C13305   0.177   0.570  13.988 -0.3501  0.6670 -0.5750
  905MPD2    C113306   0.230   0.548  14.110  0.1726 -0.4285  0.0554
  905MPD2    C213307   0.336   0.458  14.117 -0.3718  0.8737  0.2589
  905MPD2    C313308   0.384   0.392  14.010 -0.0269 -0.1503 -0.2203
  905MPD2    C413309   0.313   0.402  13.894  0.1515 -0.0973 -0.7199
  905MPD2    C513310   0.217   0.495  13.887 -0.1203 -0.1757  0.8137
  905MPD2     H13311   0.388   0.448  14.212  0.3519  0.4249 -0.1794
  905MPD2    H113312   0.326   0.331  13.812  1.7378  0.6852 -1.1468
  905MPD2    H213313   0.090   0.634  13.979  1.0490  2.9040  1.7172
  905MPD2    H313314   0.162   0.509  13.795 -1.2874  0.9550  1.6822
  905MPD2     N13315   0.487   0.294  14.017  0.0388  0.5935  0.7230
  905MPD2    H513316   0.487   0.223  13.945  0.0870  1.2165  0.1144
  905MPD2    N113317   0.177   0.609  14.227  0.4364 -0.1797 -0.1006
  905MPD2    H713318   0.087   0.654  14.216 -0.0840 -1.4160 -0.9178
  906MPD2     C13319   2.582   1.502  11.333  0.2867  0.3618  0.0545
  906MPD2    C113320   2.584   1.395  11.246  0.6919  0.2342  0.3248
  906MPD2    C213321   2.578   1.266  11.302 -0.4576 -0.5639  0.1710
  906MPD2    C313322   2.588   1.240  11.436 -0.0744  1.1567 -0.7217
  906MPD2    C413323   2.591   1.350  11.521 -0.2843  0.9333  0.7673
  906MPD2    C513324   2.590   1.477  11.469 -0.0028  0.8358  0.0854
  906MPD2     H13325   2.609   1.189  11.233 -0.5455 -2.0949  1.8428
  906MPD2    H113326   2.587   1.331  11.628 -0.9554  4.7520  1.4204
  906MPD2    H213327   2.596   1.601  11.292  2.3039  0.3268  0.6628
  906MPD2    H313328   2.595   1.556  11.543 -0.3785 -0.2361  1.2636
  906MPD2     N13329   2.611   1.112  11.497  0.6659  0.1706  0.6766
  906MPD2    H513330   2.628   1.109  11.597 -0.7152 -1.2890  0.8687
  906MPD2    N113331   2.610   1.400  11.104 -0.4749  0.1286  0.6194
  906MPD2    H713332   2.600   1.312  11.054  1.2634 -0.4555  1.2707
  907MPD2     C13333   1.140   0.345  16.378  0.0916 -0.3246  0.3813
  907MPD2    C113334   1.165   0.220  16.306  0.0172  0.1968  0.1854
  907MPD2    C213335   1.265   0.139  16.360  0.2463  0.1458  0.0208
  907MPD2    C313336   1.319   0.168  16.491  0.0365 -0.5742  0.3341
  907MPD2    C413337   1.291   0.289  16.547 -0.6281 -0.1405  0.1988
  907MPD2    C513338   1.201   0.375  16.495  1.1934  0.1009 -0.3655
  907MPD2     H13339   1.283   0.045  16.309  0.3118 -0.6890  1.5782
  907MPD2    H113340   1.322   0.325  16.645  1.7791  0.0568 -0.6421
  907MPD2    H213341   1.080   0.423  16.331 -0.8431 -0.3587  1.5142
  907MPD2    H313342   1.185   0.473  16.540  0.9214  0.9194 -2.2090
  907MPD2     N13343   1.405   0.068  16.558 -0.8181 -0.0335 -0.3078
  907MPD2    H513344   1.435   4.727  16.502  0.5641 -0.3509  0.8684
  907MPD2    N113345   1.118   0.187  16.174 -0.8838 -1.3571 -0.2965
  907MPD2    H713346   1.157   0.104  16.131 -0.1979 -1.3659  0.3240
  908MPD2     C13347   4.064   0.626   9.961 -0.5218 -0.8578 -0.1004
  908MPD2    C113348   4.096   0.540  10.066 -0.8420 -0.9770  0.2866
  908MPD2    C213349   4.145   0.593  10.186  0.3380  0.5187  0.1706
  908MPD2    C313350   4.172   0.728  10.199  0.7379  0.3355 -0.0551
  908MPD2    C413351   4.135   0.811  10.095  0.2130 -0.3279 -0.4832
  908MPD2    C513352   4.084   0.763   9.977 -0.0441 -0.6620  0.1081
  908MPD2     H13353   4.177   0.532  10.270  0.1186  0.9986  0.6032
  908MPD2    H113354   4.162   0.916  10.104 -2.1317  0.3313 -1.1248
  908MPD2    H213355   4.010   0.594   9.873  0.9470  2.1205 -2.1085
  908MPD2    H313356   4.075   0.828   9.890 -0.5741 -0.3842  0.3725
  908MPD2     N13357   4.226   0.781  10.315  0.7071 -0.0767  1.1707
  908MPD2    H513358   4.256   0.720  10.391 -1.0667 -2.7093 -0.2586
  908MPD2    N113359   4.071   0.405  10.031 -0.4983 -0.4753 -0.2367
  908MPD2    H713360   4.021   0.382   9.946 -0.7171  0.8686 -0.4596
  909MPD2     C13361   4.375   3.358  11.924  0.1854  0.0128  0.2945
  909MPD2    C113362   4.344   3.481  11.869  0.3237  0.4121 -0.1493
  909MPD2    C213363   4.246   3.561  11.926 -0.5713 -0.0977 -0.4788
  909MPD2    C313364   4.171   3.521  12.035 -0.3737  0.4380 -0.5984
  909MPD2    C413365   4.212   3.397  12.099  0.4562  0.3622  0.1014
  909MPD2    C513366   4.308   3.323  12.040 -0.2633 -0.4852  0.1057
  909MPD2     H13367   4.242   3.665  11.895 -0.1978 -0.1133 -0.5875
  909MPD2    H113368   4.155   3.365  12.185 -0.5928  0.3488 -0.6022
  909MPD2    H213369   4.454   3.290  11.896 -1.3579 -1.6871  0.0531
  909MPD2    H313370   4.329   3.225  12.082 -3.5887 -1.8972 -1.5561
  909MPD2     N13371   4.075   3.614  12.073  0.6740 -0.5657  0.0457
  909MPD2    H513372   4.054   3.698  12.021  0.2166 -1.5042 -1.2862
  909MPD2    N113373   4.416   3.541  11.760  0.2786 -0.4337 -0.4288
  909MPD2    H713374   4.390   3.636  11.734 -1.3669 -0.5294  0.8779
  910MPD2     C13375   0.850   0.545  16.623 -0.4983 -0.0563 -0.2304
  910MPD2    C113376   0.832   0.462  16.511  0.7138  0.0460 -0.1687
  910MPD2    C213377   0.797   0.517  16.391 -0.7182 -0.3194 -0.4910
  910MPD2    C313378   0.770   0.657  16.386  0.6662  0.2713 -0.1726
  910MPD2    C413379   0.779   0.736  16.501 -1.2788  0.0605  0.0401
  910MPD2    C513380   0.815   0.677  16.617  0.4528  0.2034  0.3865
  910MPD2     H13381   0.799   0.457  16.301  1.4828 -1.3041  0.1980
  910MPD2    H113382   0.749   0.840  16.509 -2.2909 -0.4286  2.5445
  910MPD2    H213383   0.876   0.510  16.722 -0.3663  2.2738  0.5708
  910MPD2    H313384   0.813   0.738  16.707 -0.8796  0.5403  0.1143
  910MPD2     N13385   0.744   0.716  16.255 -0.2407  0.1323  1.1420
  910MPD2    H513386   0.767   0.664  16.171  0.6133 -0.4186  1.7187
  910MPD2    N113387   0.848   0.323  16.514 -0.0476 -0.1904  0.7309
  910MPD2    H713388   0.872   0.277  16.426  1.1029  1.8760 -0.0231
  911MPD2     C13389   3.207   1.283  16.048  0.1884  0.4592  0.3194
  911MPD2    C113390   3.231   1.337  16.177  0.1564 -0.1271  0.0212
  911MPD2    C213391   3.147   1.430  16.231 -0.0944  0.5792  0.1856
  911MPD2    C313392   3.047   1.488  16.155 -0.1273 -0.1645  0.0541
  911MPD2    C413393   3.033   1.446  16.024  0.1602 -0.0098 -0.0635
  911MPD2    C513394   3.109   1.347  15.973  0.6259 -0.4723  0.3727
  911MPD2     H13395   3.154   1.468  16.333  4.0272 -1.1154  0.5263
  911MPD2    H113396   2.955   1.486  15.959 -0.7440  0.2421  1.1842
  911MPD2    H213397   3.253   1.191  16.015 -1.5352 -0.5296  0.6655
  911MPD2    H313398   3.072   1.301  15.882  0.4377  2.8322 -1.2251
  911MPD2     N13399   2.968   1.600  16.202  0.4438  0.4704  1.1860
  911MPD2    H513400   2.913   1.649  16.133  0.1872 -0.1777  0.9307
  911MPD2    N113401   3.332   1.274  16.255  0.2726 -0.3539 -0.0562
  911MPD2    H713402   3.381   1.198  16.208  1.5838  0.6961 -0.3657
  912MPD2     C13403   2.680   1.553  15.799  0.1806  0.2627 -1.1028
  912MPD2    C113404   2.663   1.544  15.933  0.2889 -0.3390 -0.1887
  912MPD2    C213405   2.683   1.419  15.995  0.2997 -0.3623 -0.9582
  912MPD2    C313406   2.728   1.302  15.935  0.9366  0.6579 -0.8192
  912MPD2    C413407   2.738   1.314  15.797  0.4626  0.5065 -0.4153
  912MPD2    C513408   2.715   1.437  15.735 -0.7335 -0.4394 -0.6877
  912MPD2     H13409   2.668   1.413  16.103  1.6516  1.0189 -0.6922
  912MPD2    H113410   2.747   1.222  15.740  2.3908  0.5356 -0.1557
  912MPD2    H213411   2.677   1.643  15.739 -1.7496  0.8167 -0.1922
  912MPD2    H313412   2.744   1.448  15.631  2.0465 -0.6397  0.0605
  912MPD2     N13413   2.725   1.181  16.004  0.7981 -0.0925  0.5446
  912MPD2    H513414   2.695   1.196  16.100 -2.3374  0.7809 -0.5937
  912MPD2    N113415   2.639   1.659  16.012  0.4040 -0.4061 -0.1027
  912MPD2    H713416   2.651   1.746  15.961  1.1042 -1.3681 -1.5964
  913MPD2     C13417   3.819   1.873  10.542 -0.5345  0.0978  0.1369
  913MPD2    C113418   3.821   2.000  10.597 -0.7169 -0.0739 -0.1171
  913MPD2    C213419   3.750   2.107  10.544  0.1642 -0.2126  0.6231
  913MPD2    C313420   3.666   2.081  10.433 -0.0735  0.5762  0.3104
  913MPD2    C413421   3.657   1.953  10.382 -0.0298 -0.4324  0.5325
  913MPD2    C513422   3.733   1.852  10.440 -0.6205 -0.1379 -0.5583
  913MPD2     H13423   3.767   2.209  10.577 -1.7061  0.5734 -0.8020
  913MPD2    H113424   3.591   1.927  10.300 -0.3597  0.9766  0.3520
  913MPD2    H213425   3.866   1.785  10.585 -1.1703 -0.7855 -0.9857
  913MPD2    H313426   3.726   1.752  10.400  2.9969 -0.9698  0.9337
  913MPD2     N13427   3.585   2.179  10.366 -0.2932 -0.1497  0.2475
  913MPD2    H513428   3.525   2.137  10.295  1.1073 -0.9882 -0.4258
  913MPD2    N113429   3.915   2.009  10.702 -0.0608  0.0840  0.1796
  913MPD2    H713430   3.966   1.923  10.721  1.0759  0.5181 -0.8908
  914MPD2     C13431   1.869   2.640  12.209  0.1476 -0.6054 -0.1820
  914MPD2    C113432   1.814   2.711  12.311 -0.3742  0.6624  0.2727
  914MPD2    C213433   1.756   2.636  12.419  0.3071 -0.8986 -0.7494
  914MPD2    C313434   1.761   2.497  12.426  0.4512 -0.5486 -0.0500
  914MPD2    C413435   1.815   2.426  12.320  0.2800 -0.2286  0.2224
  914MPD2    C513436   1.863   2.500  12.211  0.3645  0.1946 -0.0567
  914MPD2     H13437   1.710   2.689  12.502  0.8273  0.9659 -1.6492
  914MPD2    H113438   1.814   2.318  12.315  0.1394 -0.1649 -1.0682
  914MPD2    H213439   1.907   2.687  12.118  0.5097  0.0996  0.3295
  914MPD2    H313440   1.913   2.441  12.135  0.4849 -0.0444  0.2078
  914MPD2     N13441   1.699   2.450  12.547 -0.7192 -0.3073  0.0490
  914MPD2    H513442   1.657   2.519  12.607 -1.7336 -0.3976 -0.5570
  914MPD2    N113443   1.796   2.848  12.296 -0.4868  0.7027  0.6948
  914MPD2    H713444   1.829   2.880  12.206  0.6952 -2.5443 -0.0217
  915MPD2     C13445   3.909   2.582  15.802  0.6234  1.2499 -0.3792
  915MPD2    C113446   3.811   2.679  15.811  0.3878  0.4128 -0.2871
  915MPD2    C213447   3.810   2.752  15.932 -0.1796 -0.1762  0.0769
  915MPD2    C313448   3.897   2.732  16.035 -0.0957 -0.3571 -0.3917
  915MPD2    C413449   4.011   2.650  16.021  0.2975 -0.1387  0.0881
  915MPD2    C513450   4.011   2.576  15.902 -0.1598  0.8522  0.2732
  915MPD2     H13451   3.736   2.830  15.946  0.3248  0.4293 -0.5993
  915MPD2    H113452   4.089   2.645  16.096  0.5066  1.4586 -0.0177
  915MPD2    H213453   3.928   2.518  15.716  0.2787 -1.7936  1.8205
  915MPD2    H313454   4.087   2.504  15.875 -2.1443 -0.8182 -0.8573
  915MPD2     N13455   3.886   2.819  16.145 -0.4250  0.2299  0.2807
  915MPD2    H513456   3.804   2.878  16.149  1.1765  2.4039  1.3624
  915MPD2    N113457   3.715   2.696  15.707  0.0889  0.6991 -0.1348
  915MPD2    H713458   3.713   2.637  15.625 -0.1835  0.1370  0.2781
  916MPD2     C13459   2.368   1.171  15.933  0.4156 -0.1215 -0.5789
  916MPD2    C113460   2.383   1.063  16.019 -0.3997  0.3635 -0.1843
  916MPD2    C213461   2.422   0.945  15.957 -0.0001  0.4196  0.2030
  916MPD2    C313462   2.472   0.945  15.827 -0.0456 -0.2229 -0.3118
  916MPD2    C413463   2.479   1.063  15.752  0.5845 -0.0853  1.0767
  916MPD2    C513464   2.410   1.166  15.806  0.3393  0.5637  0.0644
  916MPD2     H13465   2.412   0.850  16.008  0.4873  0.1868 -0.1350
  916MPD2    H113466   2.512   1.062  15.648 -1.2136 -2.6082  0.5382
  916MPD2    H213467   2.323   1.264  15.965  0.0547  0.0133 -1.4909
  916MPD2    H313468   2.388   1.255  15.747  1.4107 -0.3342 -1.6978
  916MPD2     N13469   2.523   0.825  15.773 -0.3086  0.3456  0.3975
  916MPD2    H513470   2.539   0.752  15.840 -0.3778  0.6054  0.6988
  916MPD2    N113471   2.338   1.076  16.150  0.1080 -0.6460  0.1207
  916MPD2    H713472   2.298   1.165  16.176 -0.6771 -0.7717 -0.6366
  917MPD2     C13473   2.705   3.263  11.292 -0.0963 -0.8840  0.8322
  917MPD2    C113474   2.730   3.324  11.415  0.4903  0.1445 -0.2178
  917MPD2    C213475   2.750   3.464  11.426  0.0330 -0.0675 -0.1672
  917MPD2    C313476   2.745   3.542  11.313  0.4562 -0.6053  0.0620
  917MPD2    C413477   2.738   3.472  11.194 -0.2514  0.0768 -0.0457
  917MPD2    C513478   2.712   3.338  11.182  0.0168  1.7449 -0.5813
  917MPD2     H13479   2.767   3.503  11.525  2.9115 -0.7501 -0.3733
  917MPD2    H113480   2.736   3.521  11.097 -0.6302 -1.8453 -0.9988
  917MPD2    H213481   2.682   3.158  11.283  0.1111 -0.9256  0.8061
  917MPD2    H313482   2.717   3.282  11.089 -3.8344  1.0381 -0.3589
  917MPD2     N13483   2.770   3.678  11.318 -0.7271 -0.0550  0.3704
  917MPD2    H513484   2.804   3.726  11.235 -0.1411  1.1350  1.2984
  917MPD2    N113485   2.728   3.243  11.534  0.3002  0.4245 -0.0713
  917MPD2    H713486   2.714   3.143  11.523  1.5461  0.3952 -1.4704
  918MPD2     C13487   2.646   3.745  12.304 -0.1537  0.4964  0.2974
  918MPD2    C113488   2.772   3.731  12.247 -0.2683  0.7968  0.3286
  918MPD2    C213489   2.802   3.606  12.181  0.6894  1.0219  0.0215
  918MPD2    C313490   2.708   3.500  12.181  0.3360 -0.0327 -0.2682
  918MPD2    C413491   2.586   3.530  12.234  0.3550 -0.1487 -0.9746
  918MPD2    C513492   2.556   3.646  12.288  0.0845 -0.3064 -0.0297
  918MPD2     H13493   2.898   3.600  12.131 -0.1491  2.8655 -1.8158
  918MPD2    H113494   2.510   3.456  12.252  0.4645 -0.7025 -2.7859
  918MPD2    H213495   2.614   3.835  12.355 -0.2755  0.3506  0.4789
  918MPD2    H313496   2.457   3.656  12.332  0.5864  1.5943  0.6506
  918MPD2     N13497   2.740   3.372  12.120  0.2215 -0.2455  0.8321
  918MPD2    H513498   2.834   3.348  12.092 -0.2461 -0.4235 -0.5666
  918MPD2    N113499   2.883   3.822  12.262  0.5561 -0.0562  0.4406
  918MPD2    H713500   2.963   3.795  12.206  0.0821 -0.0281 -0.2549
  919MPD2     C13501   3.832   2.405  12.113 -0.0224 -0.9006  0.1113
  919MPD2    C113502   3.855   2.285  12.047  1.1135  0.5671 -0.5348
  919MPD2    C213503   3.903   2.285  11.917  0.3692 -0.1752 -0.2605
  919MPD2    C313504   3.927   2.401  11.846  0.1322  0.2225  0.2643
  919MPD2    C413505   3.907   2.518  11.918 -0.3112 -0.1044 -0.1262
  919MPD2    C513506   3.864   2.517  12.048  0.6334 -0.2105 -0.6653
  919MPD2     H13507   3.907   2.190  11.865  1.0065 -1.0289  1.3586
  919MPD2    H113508   3.919   2.618  11.878 -2.7288  0.2555  0.0800
  919MPD2    H213509   3.790   2.417  12.213 -2.2413 -0.8693 -0.8220
  919MPD2    H313510   3.827   2.614  12.080  1.1347 -0.2776  0.1187
  919MPD2     N13511   3.937   2.407  11.705 -0.2766 -0.4073 -0.2428
  919MPD2    H513512   3.888   2.488  11.672 -1.6880 -1.5479 -0.9290
  919MPD2    N113513   3.825   2.158  12.108  0.1329  0.7435  0.0042
  919MPD2    H713514   3.851   2.071  12.064 -0.2849  0.0661  1.0996
  920MPD2     C13515   3.415   2.824  11.014 -0.2080 -0.0635 -0.5934
  920MPD2    C113516   3.360   2.707  11.062  0.3232 -0.4444 -0.0093
  920MPD2    C213517   3.439   2.608  11.120 -0.3880 -0.1068  0.5899
  920MPD2    C313518   3.570   2.635  11.151 -0.2501  0.5064 -0.3371
  920MPD2    C413519   3.626   2.757  11.105 -0.6957 -0.1288  0.0858
  920MPD2    C513520   3.546   2.845  11.035 -0.2925  0.8505  0.6584
  920MPD2     H13521   3.397   2.515  11.157  1.3155 -0.3222  1.9972
  920MPD2    H113522   3.733   2.769  11.107 -0.6092 -0.5316 -1.9735
  920MPD2    H213523   3.360   2.891  10.950 -2.0674  0.1304  1.2073
  920MPD2    H313524   3.582   2.939  10.995  0.7186 -0.1224 -0.7453
  920MPD2     N13525   3.652   2.542  11.216 -0.2141 -0.6345 -0.1261
  920MPD2    H513526   3.601   2.454  11.219  0.5598 -0.9686  3.6595
  920MPD2    N113527   3.228   2.672  11.034 -0.3208 -0.0199 -0.9142
  920MPD2    H713528   3.197   2.581  11.065  2.5764 -0.5223  0.5082
  921MPD2     C13529   3.875   1.679  16.917  0.5724 -0.0127  0.4620
  921MPD2    C113530   3.955   1.582  16.850 -0.1175  0.3864 -0.2291
  921MPD2    C213531   3.881   1.478  16.790  0.3459  0.4792  0.1349
  921MPD2    C313532   3.743   1.457  16.808  0.1544  0.1052  0.5038
  921MPD2    C413533   3.687   1.536  16.905  0.6732 -0.2608  0.2544
  921MPD2    C513534   3.746   1.650  16.956  0.9931 -0.3470  0.2183
  921MPD2     H13535   3.937   1.419  16.719  0.7540 -0.8581  1.5849
  921MPD2    H113536   3.584   1.525  16.938  0.5443  1.0199  0.2568
  921MPD2    H213537   3.923   1.764  16.963 -0.8156  1.5483 -1.0126
  921MPD2    H313538   3.693   1.728  17.010  1.8281 -1.1702  2.2276
  921MPD2     N13539   3.668   1.357  16.747  0.0957  0.5838  0.0327
  921MPD2    H513540   3.569   1.353  16.771  0.0152 -1.3157 -0.5683
  921MPD2    N113541   4.101   1.591  16.840 -0.2165 -0.3145 -0.1675
  921MPD2    H713542   4.143   1.662  16.899 -0.7234  1.1705 -1.5783
  922MPD2     C13543   4.625   4.282  17.248  0.0260 -0.8232  0.1327
  922MPD2    C113544   4.565   4.317  17.366 -0.0064  0.1667  0.4610
  922MPD2    C213545   4.452   4.237  17.398 -0.4270  0.6691  0.5535
  922MPD2    C313546   4.397   4.133  17.321 -0.5172  0.4692  0.0090
  922MPD2    C413547   4.478   4.096  17.215  0.4859  0.2543  0.1692
  922MPD2    C513548   4.592   4.168  17.188  0.2667  0.2724 -0.2029
  922MPD2     H13549   4.391   4.271  17.481  0.6991  1.4248  1.0678
  922MPD2    H113550   4.462   4.023  17.136 -0.3082  0.0866  0.4831
  922MPD2    H213551   4.707   4.338  17.205 -0.9765  1.9896  1.8967
  922MPD2    H313552   4.656   4.150  17.102  1.2773  0.2171  0.5622
  922MPD2     N13553   4.266   4.095  17.342 -0.1482  0.0770 -0.2346
  922MPD2    H513554   4.207   4.146  17.407  0.1141 -1.5262  1.2666
  922MPD2    N113555   4.603   4.424  17.454 -0.0806  0.2341 -0.6007
  922MPD2    H713556   4.551   4.428  17.541 -1.5826  0.6641 -1.5130
  923MPD2     C13557   1.884   0.681  10.404  0.3649  0.7675  0.6188
  923MPD2    C113558   1.899   0.664  10.268 -0.1532 -0.0861 -0.7121
  923MPD2    C213559   1.999   0.740  10.205  0.3139 -0.6619  0.7893
  923MPD2    C313560   2.077   0.830  10.274  0.8021 -0.0646 -0.4382
  923MPD2    C413561   2.058   0.849  10.407  0.0800  0.1186  0.8073
  923MPD2    C513562   1.965   0.769  10.470 -1.2437  0.1652  0.3058
  923MPD2     H13563   2.019   0.734  10.099  2.4802  0.5354  1.1324
  923MPD2    H113564   2.121   0.911  10.471  0.8285 -1.3512  1.4963
  923MPD2    H213565   1.815   0.629  10.470  2.9469 -0.5573  2.2453
  923MPD2    H313566   1.962   0.771  10.578  0.0435  0.6438  0.3329
  923MPD2     N13567   2.177   0.916  10.213 -0.1224 -0.2106  0.3266
  923MPD2    H513568   2.194   1.003  10.263  0.9253 -0.5815  0.6253
  923MPD2    N113569   1.808   0.581  10.199  0.2661 -0.0739  0.7219
  923MPD2    H713570   1.747   0.522  10.254 -0.7634  1.5050  1.2798
  924MPD2     C13571   1.808   4.092  16.267  0.5816  0.4933  0.0798
  924MPD2    C113572   1.738   4.063  16.377 -1.0463  0.1746 -0.2785
  924MPD2    C213573   1.707   4.169  16.460 -0.1398  0.2626  0.6998
  924MPD2    C313574   1.763   4.294  16.450  0.0996  0.1150  0.7459
  924MPD2    C413575   1.835   4.321  16.339  0.6256  0.1489  0.2104
  924MPD2    C513576   1.862   4.218  16.252 -0.7633  1.1622  0.0506
  924MPD2     H13577   1.638   4.160  16.543 -1.3268  2.3207 -0.0572
  924MPD2    H113578   1.886   4.415  16.323 -0.5794  0.6120 -0.9256
  924MPD2    H213579   1.820   4.023  16.184 -1.2145 -2.1373  2.0042
  924MPD2    H313580   1.912   4.227  16.156 -1.7570 -1.1726 -0.6717
  924MPD2     N13581   1.741   4.403  16.531 -0.0453  0.2890 -0.2091
  924MPD2    H513582   1.773   4.489  16.487  1.0635 -0.1106 -0.1779
  924MPD2    N113583   1.678   3.941  16.392  0.2425  0.2315 -0.2830
  924MPD2    H713584   1.669   3.873  16.316  0.6727  1.6150 -1.5745
  925MPD2     C13585   0.203   2.363  15.082  0.0344  0.7302  0.3943
  925MPD2    C113586   0.119   2.261  15.055  0.2566  0.1433 -0.3509
  925MPD2    C213587   0.026   2.223  15.152 -0.2884  0.1259 -0.8373
  925MPD2    C313588   0.025   2.285  15.277 -0.2239  0.2462  0.1319
  925MPD2    C413589   0.120   2.385  15.309 -0.1363 -1.0094  0.1887
  925MPD2    C513590   0.198   2.422  15.202 -0.3605 -0.3019 -0.0296
  925MPD2     H13591   4.697   2.139  15.135 -1.1393  0.5194  0.5549
  925MPD2    H113592   0.120   2.431  15.407 -0.0659 -0.2161 -0.1793
  925MPD2    H213593   0.275   2.403  15.011  0.1592  1.8452  1.1462
  925MPD2    H313594   0.268   2.501  15.225  0.6602 -0.8591 -1.2618
  925MPD2     N13595   4.677   2.248  15.384  0.5149 -0.0251 -0.0905
  925MPD2    H513596   4.708   2.286  15.473 -1.2319  0.5608  0.2688
  925MPD2    N113597   0.117   2.179  14.941 -0.2262 -0.1684  0.1846
  925MPD2    H713598   0.045   2.107  14.938 -0.4311  0.0932 -1.0851
  926MPD2     C13599   4.133   0.779  13.851 -0.6155 -0.1710 -0.4385
  926MPD2    C113600   4.023   0.823  13.784 -0.4886  0.2470 -0.5948
  926MPD2    C213601   4.027   0.929  13.698  0.0274 -0.3424  0.0530
  926MPD2    C313602   4.150   0.984  13.670  0.0714 -0.0120  0.1375
  926MPD2    C413603   4.263   0.938  13.748 -0.4380  1.5694  0.3713
  926MPD2    C513604   4.255   0.829  13.826 -0.0570 -0.3992  1.0323
  926MPD2     H13605   3.939   0.959  13.642 -0.7354 -0.5699  1.1283
  926MPD2    H113606   4.363   0.979  13.739 -0.4175  1.3707 -0.2694
  926MPD2    H213607   4.125   0.694  13.918 -1.6580  0.3484  0.1050
  926MPD2    H313608   4.336   0.783  13.882 -0.0783 -0.2473  1.1855
  926MPD2     N13609   4.167   1.093  13.581  0.0094 -0.9891 -0.1188
  926MPD2    H513610   4.264   1.122  13.582 -0.3538  0.2904 -5.1189
  926MPD2    N113611   3.895   0.771  13.810  0.0407 -0.5392  0.1236
  926MPD2    H713612   3.826   0.826  13.759 -0.5501 -1.9799 -0.6323
  927MPD2     C13613   3.101   3.185  17.411  0.0742  0.5741 -0.1779
  927MPD2    C113614   3.128   3.081  17.493  0.0675  0.0468  0.3154
  927MPD2    C213615   3.253   3.012  17.486  0.1640 -0.6461  0.0775
  927MPD2    C313616   3.353   3.073  17.414  0.0338 -0.3601  0.3819
  927MPD2    C413617   3.327   3.183  17.335  0.4007 -0.0467  0.0877
  927MPD2    C513618   3.209   3.239  17.342  0.1235 -0.2489 -0.0372
  927MPD2     H13619   3.273   2.926  17.549  3.2671  0.4104  0.5329
  927MPD2    H113620   3.405   3.215  17.267  0.3411 -0.3651 -0.1264
  927MPD2    H213621   3.011   3.245  17.406 -1.8407 -2.3920 -1.2101
  927MPD2    H313622   3.188   3.326  17.281  1.4995  0.2102  0.1552
  927MPD2     N13623   3.476   3.011  17.430  0.2306 -0.1860 -0.4143
  927MPD2    H513624   3.478   2.924  17.483  1.6164  0.6419  0.9119
  927MPD2    N113625   3.022   3.033  17.579  0.7634 -0.0265  0.1258
  927MPD2    H713626   2.942   3.096  17.583 -1.0948 -2.2847 -1.1195
  928MPD2     C13627   1.292   0.720   1.091 -1.0392 -1.2296  0.0592
  928MPD2    C113628   1.347   0.835   1.154 -1.3060  0.2471  0.3193
  928MPD2    C213629   1.419   0.922   1.078  0.5463 -0.2261 -0.4173
  928MPD2    C313630   1.445   0.892   0.950  0.6355  0.7387  0.4888
  928MPD2    C413631   1.394   0.775   0.895 -0.4392 -0.4022  0.5725
  928MPD2    C513632   1.308   0.690   0.961 -0.3362 -1.1476 -0.3275
  928MPD2     H13633   1.463   1.006   1.130 -2.1460  0.9865 -0.1091
  928MPD2    H113634   1.413   0.754   0.791  0.3266 -3.0878  1.2528
  928MPD2    H213635   1.237   0.652   1.155 -1.7819 -0.8452 -0.1642
  928MPD2    H313636   1.253   0.612   0.912 -3.8753 -0.1208  2.0388
  928MPD2     N13637   1.516   0.983   0.861 -0.0783  0.3620 -0.4851
  928MPD2    H513638   1.505   0.962   0.763  0.6926 -2.6365  0.0741
  928MPD2    N113639   1.296   0.855   1.288 -0.1067 -0.0010  0.1374
  928MPD2    H713640   1.220   0.793   1.311  1.1847 -0.9379  1.9082
  929MPD2     C13641   2.200   0.793  11.189 -0.0517  0.6972  1.1122
  929MPD2    C113642   2.087   0.721  11.203 -0.4745 -0.6356 -0.0297
  929MPD2    C213643   1.990   0.712  11.099 -0.1974  0.9765 -0.8213
  929MPD2    C313644   2.016   0.782  10.980  0.6902  0.1146 -0.7298
  929MPD2    C413645   2.130   0.861  10.979 -0.4697  0.0800  0.1292
  929MPD2    C513646   2.223   0.865  11.079 -0.3995 -0.4736 -0.4251
  929MPD2     H13647   1.895   0.665  11.120  0.1635  0.6236  0.0530
  929MPD2    H113648   2.143   0.922  10.891 -0.1112 -0.4557 -0.1889
  929MPD2    H213649   2.263   0.810  11.275  0.3976 -0.2998  0.9815
  929MPD2    H313650   2.310   0.928  11.064  0.4780 -1.8305 -1.0809
  929MPD2     N13651   1.931   0.783  10.866 -0.2599 -0.0792  0.5128
  929MPD2    H513652   1.944   0.862  10.804 -2.3208 -0.9959 -1.0622
  929MPD2    N113653   2.079   0.656  11.322 -0.1063 -0.2603  0.0814
  929MPD2    H713654   2.149   0.677  11.391 -1.5337  0.6648  1.2426
  930MPD2     C13655   2.694   3.466  13.891  0.0294  0.2741  0.3226
  930MPD2    C113656   2.813   3.389  13.903 -0.7385  0.1432  0.0387
  930MPD2    C213657   2.891   3.372  13.793 -0.2794 -0.8434  0.0722
  930MPD2    C313658   2.865   3.442  13.675  0.4430  0.0053  0.6271
  930MPD2    C413659   2.743   3.508  13.661  0.8892 -0.4822 -0.5771
  930MPD2    C513660   2.664   3.526  13.770  0.1364 -0.7197 -0.6141
  930MPD2     H13661   2.984   3.318  13.808  0.3650  0.2275 -0.0096
  930MPD2    H113662   2.724   3.570  13.574 -1.3168  0.4817  0.6123
  930MPD2    H213663   2.623   3.484  13.971  1.4803 -0.7522  1.8400
  930MPD2    H313664   2.567   3.574  13.771 -0.5235 -2.0840  0.1558
  930MPD2     N13665   2.964   3.457  13.577  0.6130 -0.5158 -0.2390
  930MPD2    H513666   2.940   3.506  13.491  1.2991  1.1332  0.4961
  930MPD2    N113667   2.858   3.373  14.032 -0.2560 -0.0485  0.5038
  930MPD2    H713668   2.805   3.432  14.095 -2.0898 -2.4932  1.2596
  931MPD2     C13669   2.913   2.371   0.312 -0.2588  0.7313  0.4386
  931MPD2    C113670   2.912   2.495   0.364 -0.8189  0.6678  0.9957
  931MPD2    C213671   2.936   2.502   0.507  0.1398  0.2824 -0.4492
  931MPD2    C313672   2.965   2.387   0.581 -0.1788  0.3884 -0.7307
  931MPD2    C413673   2.968   2.263   0.517 -0.4429 -0.2003 -0.9282
  931MPD2    C513674   2.940   2.257   0.386  0.0625  0.2114  0.2651
  931MPD2     H13675   2.949   2.597   0.557  2.8801  0.6268 -1.8337
  931MPD2    H113676   2.995   2.168   0.560  1.9266 -0.1317 -2.2919
  931MPD2    H213677   2.887   2.360   0.207  0.3605 -2.8244  0.6396
  931MPD2    H313678   2.941   2.162   0.336  1.4811  0.9400 -1.0676
  931MPD2     N13679   3.003   2.381   0.718  0.4431 -0.4900 -0.2308
  931MPD2    H513680   3.021   2.288   0.754  0.9682 -1.3893 -2.7552
  931MPD2    N113681   2.893   2.617   0.284  0.6983  0.1476  0.1080
  931MPD2    H713682   2.902   2.607   0.184 -0.9478  0.8190 -0.1069
  932MPD2     C13683   0.781   1.602  11.660 -0.3855 -0.3957  0.6068
  932MPD2    C113684   0.877   1.688  11.618 -0.4385 -0.3686 -0.2536
  932MPD2    C213685   1.016   1.657  11.631 -0.3019  1.0919 -0.0251
  932MPD2    C313686   1.053   1.542  11.702 -0.4322 -0.7707 -0.2351
  932MPD2    C413687   0.950   1.461  11.752  0.0727 -0.4450 -0.5117
  932MPD2    C513688   0.819   1.494  11.734  0.0887  0.0358 -0.6115
  932MPD2     H13689   1.094   1.726  11.603  1.8987 -0.7783  1.4616
  932MPD2    H113690   0.965   1.370  11.808 -1.4283  0.3941  1.2475
  932MPD2    H213691   0.677   1.630  11.650 -0.0200  0.1707 -1.5582
  932MPD2    H313692   0.739   1.426  11.760 -0.1152 -0.0539 -1.4780
  932MPD2     N13693   1.180   1.495  11.709  0.0853  0.3014 -0.6934
  932MPD2    H513694   1.191   1.410  11.762  0.2427 -0.2660 -1.6439
  932MPD2    N113695   0.844   1.806  11.545 -0.4025  0.3342  0.2618
  932MPD2    H713696   0.924   1.859  11.512  0.8205 -0.5144  1.9097
  933MPD2     C13697   0.638   1.068   1.808 -0.5524 -0.1395  0.7859
  933MPD2    C113698   0.714   1.085   1.694  0.0027  0.7073 -0.1851
  933MPD2    C213699   0.671   1.193   1.612 -0.3491  0.5184 -0.7255
  933MPD2    C313700   0.555   1.270   1.623 -0.4269  0.3720 -0.0615
  933MPD2    C413701   0.477   1.245   1.735 -0.1111 -0.5963 -0.2544
  933MPD2    C513702   0.528   1.149   1.830  0.1905  0.8023 -0.2930
  933MPD2     H13703   0.712   1.202   1.512 -0.5575 -1.8294 -1.0274
  933MPD2    H113704   0.395   1.310   1.766  1.2807  0.7235  0.6528
  933MPD2    H213705   0.655   0.996   1.887  3.1328  0.8153  0.8861
  933MPD2    H313706   0.464   1.132   1.916 -0.0410 -1.5996 -0.9495
  933MPD2     N13707   0.511   1.364   1.522  0.0865 -0.3621  0.7227
  933MPD2    H513708   0.422   1.412   1.533  0.6349  0.7055  0.4808
  933MPD2    N113709   0.830   1.007   1.675  0.3596 -0.5984  0.3151
  933MPD2    H713710   0.852   0.927   1.734  0.6924 -0.5421  0.2651
  934MPD2     C13711   2.428   4.379   1.943  0.3189  0.5171  0.1741
  934MPD2    C113712   2.479   4.342   1.819  0.7542  1.3064 -0.6918
  934MPD2    C213713   2.397   4.269   1.736 -0.2593 -0.1262 -0.2792
  934MPD2    C313714   2.269   4.232   1.772 -0.4154 -0.2509 -0.4683
  934MPD2    C413715   2.222   4.268   1.897 -0.1290 -0.1931 -0.4908
  934MPD2    C513716   2.296   4.348   1.975 -0.2863  0.8940  0.6059
  934MPD2     H13717   2.428   4.241   1.637 -2.2457 -1.7925 -0.4267
  934MPD2    H113718   2.125   4.239   1.935 -0.2433 -0.1335 -0.7370
  934MPD2    H213719   2.471   4.454   2.008  1.9809 -0.9590  0.7762
  934MPD2    H313720   2.253   4.385   2.067  1.1534 -2.8558  2.7702
  934MPD2     N13721   2.192   4.146   1.696  0.2611 -0.5168  0.0217
  934MPD2    H513722   2.103   4.112   1.732  1.4497 -2.0863  1.4612
  934MPD2    N113723   2.598   4.393   1.764 -0.3331  0.2549 -0.2282
  934MPD2    H713724   2.623   4.350   1.675  4.2742 -1.9139  2.1571
  935MPD2     C13725   2.513   3.284   1.222 -0.0367  0.2907 -0.0463
  935MPD2    C113726   2.381   3.295   1.199  0.0853  0.3585 -0.2552
  935MPD2    C213727   2.309   3.403   1.245 -0.0171  0.4070 -0.1946
  935MPD2    C313728   2.371   3.496   1.329 -0.2473 -0.3835  0.1687
  935MPD2    C413729   2.498   3.475   1.364  1.2038  0.4109 -0.3679
  935MPD2    C513730   2.571   3.377   1.301  0.2645 -0.1438  0.4003
  935MPD2     H13731   2.203   3.408   1.222 -0.4502 -0.0446  1.6652
  935MPD2    H113732   2.552   3.545   1.428 -0.3686  1.2635  0.0182
  935MPD2    H213733   2.584   3.211   1.184 -1.9764 -0.2560 -2.5964
  935MPD2    H313734   2.674   3.355   1.328  0.3567  0.8325  0.8696
  935MPD2     N13735   2.309   3.613   1.382  0.4928  0.7405  0.5713
  935MPD2    H513736   2.364   3.661   1.453  2.8526 -0.2066 -0.5964
  935MPD2    N113737   2.317   3.202   1.111  0.8658 -0.1329  0.0228
  935MPD2    H713738   2.227   3.227   1.071  0.7799 -0.0497  0.2660
  936MPD2     C13739   1.219   0.115  12.618 -0.2175  0.1216  0.1513
  936MPD2    C113740   1.157   0.186  12.719  0.5377  0.3764 -0.4732
  936MPD2    C213741   1.061   0.279  12.677  0.4413  0.1647  0.4391
  936MPD2    C313742   1.041   0.301  12.543 -0.4583 -0.0856 -0.0859
  936MPD2    C413743   1.105   0.232  12.446 -0.3448 -0.3173 -0.1719
  936MPD2    C513744   1.183   0.129  12.488 -0.1644 -0.1327 -0.4571
  936MPD2     H13745   1.021   0.351  12.748  0.9902 -1.6363  2.5670
  936MPD2    H113746   1.078   0.241  12.341 -0.2812  1.4653 -0.0357
  936MPD2    H213747   1.293   0.039  12.640 -0.4153 -0.2317 -0.3984
  936MPD2    H313748   1.231   0.063  12.416 -1.0745 -2.0389  0.6791
  936MPD2     N13749   0.955   0.410  12.525  0.1026 -0.8435  0.2060
  936MPD2    H513750   0.922   0.461  12.606 -0.3314  1.2091 -1.2613
  936MPD2    N113751   1.183   0.178  12.860  0.0474 -0.0405 -0.0336
  936MPD2    H713752   1.110   0.201  12.926  0.2855 -1.4714  0.7364
  937MPD2     C13753   3.827   1.507  11.868  0.1262  0.1675 -0.4025
  937MPD2    C113754   3.879   1.626  11.900 -0.1469  0.0202 -0.5431
  937MPD2    C213755   4.006   1.649  11.844  0.3343  0.8513 -0.2057
  937MPD2    C313756   4.058   1.571  11.743  0.4587  0.5088 -0.3352
  937MPD2    C413757   3.981   1.471  11.690 -0.1082 -0.4842 -0.3828
  937MPD2    C513758   3.869   1.439  11.753  0.0139 -0.1552 -0.7733
  937MPD2     H13759   4.058   1.732  11.891  0.7312 -0.8401  2.3576
  937MPD2    H113760   4.003   1.402  11.609 -0.3792  0.3360 -1.1669
  937MPD2    H213761   3.737   1.471  11.915 -0.2009 -0.6959 -1.6632
  937MPD2    H313762   3.805   1.365  11.706 -3.8042  1.6817  1.5662
  937MPD2     N13763   4.193   1.597  11.703  0.4341  0.2990  0.0385
  937MPD2    H513764   4.247   1.653  11.769 -0.5145  2.5462 -1.0938
  937MPD2    N113765   3.831   1.705  12.013 -0.2693 -0.0463 -0.2393
  937MPD2    H713766   3.879   1.792  12.033 -1.2047  0.3906  0.1083
  938MPD2     C13767   1.269   3.883   0.883  0.2124  0.2382  0.2761
  938MPD2    C113768   1.293   3.847   1.015 -0.4084 -0.3071  0.0279
  938MPD2    C213769   1.307   3.706   1.040  0.1953  0.0654  0.3667
  938MPD2    C313770   1.294   3.614   0.936  0.0188  0.2684 -0.1346
  938MPD2    C413771   1.273   3.658   0.812  0.0892 -0.2849  0.2970
  938MPD2    C513772   1.262   3.792   0.791 -0.0434 -0.2421 -0.7634
  938MPD2     H13773   1.307   3.668   1.142 -1.7466  0.5387  0.5638
  938MPD2    H113774   1.273   3.595   0.724 -1.1618 -1.0097  0.8080
  938MPD2    H213775   1.241   3.981   0.848 -1.5892 -0.3735 -0.0074
  938MPD2    H313776   1.256   3.824   0.688  1.8019  2.7939  0.0679
  938MPD2     N13777   1.311   3.475   0.960 -0.4911  0.2940  0.2056
  938MPD2    H513778   1.322   3.409   0.884  2.3980  0.7328  0.2482
  938MPD2    N113779   1.297   3.938   1.122  0.5880 -0.1772  0.2175
  938MPD2    H713780   1.329   3.906   1.214  0.6767 -1.9704 -0.4285
  939MPD2     C13781   1.806   4.069   0.639  0.4613  0.2467 -0.2160
  939MPD2    C113782   1.882   4.177   0.671 -0.5366  0.4247  0.5094
  939MPD2    C213783   1.974   4.219   0.574  0.9767 -0.9128 -0.3164
  939MPD2    C313784   1.983   4.156   0.450 -0.2917  0.6179 -0.2969
  939MPD2    C413785   1.900   4.048   0.422  0.1486  0.0850 -0.3954
  939MPD2    C513786   1.804   4.007   0.515 -0.4870  0.0541  0.8905
  939MPD2     H13787   2.033   4.304   0.607 -0.4572  0.0555 -0.2350
  939MPD2    H113788   1.895   4.000   0.325 -1.9593 -0.5932  0.0572
  939MPD2    H213789   1.734   4.027   0.708  0.1286 -0.3989 -0.9595
  939MPD2    H313790   1.728   3.934   0.488  1.4291 -1.2809 -0.9405
  939MPD2     N13791   2.077   4.194   0.353 -0.8685 -0.2360 -0.3727
  939MPD2    H513792   2.146   4.266   0.370 -0.9321 -0.2701  0.0265
  939MPD2    N113793   1.840   4.250   0.780  0.1220  0.0524 -0.1560
  939MPD2    H713794   1.758   4.211   0.826 -0.7698 -1.6088 -3.1109
  940MPD2     C13795   1.224   0.211  13.897 -0.6867 -1.0020  0.5804
  940MPD2    C113796   1.231   0.078  13.859  0.2742 -0.1296 -0.2260
  940MPD2    C213797   1.299   0.042  13.743 -0.2515  0.4978 -0.1474
  940MPD2    C313798   1.344   0.139  13.654 -0.3773  0.8037  0.5935
  940MPD2    C413799   1.315   0.269  13.685 -0.3305 -0.0810 -0.1310
  940MPD2    C513800   1.259   0.299  13.804  0.0532  0.0520  0.4712
  940MPD2     H13801   1.305   4.674  13.720  1.9076  0.3446  1.1511
  940MPD2    H113802   1.345   0.353  13.623 -0.5681 -0.0414 -0.1904
  940MPD2    H213803   1.183   0.241  13.993  0.9788  2.4041  0.2292
  940MPD2    H313804   1.225   0.398  13.834 -0.8478 -0.7436  2.0621
  940MPD2     N13805   1.408   0.095  13.539 -0.4609 -0.5556  0.1951
  940MPD2    H513806   1.378   0.001  13.516 -1.0609 -0.0776 -0.9800
  940MPD2    N113807   1.188   4.711  13.941 -0.4109 -0.2292 -0.1506
  940MPD2    H713808   1.230   4.620  13.926  2.4114  0.6205  2.6233
  941MPD2     C13809   0.338   4.082  10.207  0.1049 -0.4515  0.0656
  941MPD2    C113810   0.464   4.037  10.250 -0.0097 -0.0059  0.3359
  941MPD2    C213811   0.471   3.935  10.347  0.4819 -0.6490  1.0613
  941MPD2    C313812   0.359   3.862  10.381  0.0982  0.1923 -0.2493
  941MPD2    C413813   0.238   3.913  10.329  0.6924  0.6180  0.1233
  941MPD2    C513814   0.228   4.019  10.248 -0.1999  0.3610 -0.2820
  941MPD2     H13815   0.568   3.892  10.369  0.3802 -0.4262  1.9567
  941MPD2    H113816   0.141   3.867  10.347  0.8258  0.6610  0.9414
  941MPD2    H213817   0.337   4.163  10.135  1.4790 -1.3770 -1.0144
  941MPD2    H313818   0.127   4.048  10.220 -0.1486  1.3717  0.5961
  941MPD2     N13819   0.360   3.744  10.448  0.5748 -0.4282  0.2370
  941MPD2    H513820   0.265   3.709  10.459 -0.5119  2.1112 -1.0678
  941MPD2    N113821   0.586   4.096  10.209 -0.0863  0.0663 -0.1366
  941MPD2    H713822   0.670   4.088  10.267 -1.2533  2.2090  1.8401
  942MPD2     C13823   0.568   4.497   9.070  0.0356 -0.0945  0.0750
  942MPD2    C113824   0.686   4.566   9.101 -0.1631 -0.3032  0.3970
  942MPD2    C213825   0.776   4.590   9.003 -0.0434 -0.3842  0.3130
  942MPD2    C313826   0.779   4.510   8.890  0.3353 -1.1874  0.3744
  942MPD2    C413827   0.660   4.436   8.863  0.6066 -0.3874 -0.3309
  942MPD2    C513828   0.557   4.426   8.954 -0.5733  0.3693 -0.5579
  942MPD2     H13829   0.865   4.649   9.026  0.3642 -0.1766 -1.7875
  942MPD2    H113830   0.662   4.378   8.771 -1.8904  1.8731 -1.7836
  942MPD2    H213831   0.495   4.484   9.149  0.3157 -1.8297  0.0685
  942MPD2    H313832   0.473   4.362   8.930 -1.0664 -0.0349  2.2438
  942MPD2     N13833   0.869   4.519   8.780 -0.4683  0.8079 -0.7286
  942MPD2    H513834   0.853   4.456   8.702  0.8962 -2.4570  1.6529
  942MPD2    N113835   0.710   4.635   9.221 -0.2044  0.0344 -1.0465
  942MPD2    H713836   0.801   4.679   9.230 -0.5688  0.2941  1.5927
  943MPD2     C13837   3.946   3.916   9.839  0.4648  0.9059 -0.2837
  943MPD2    C113838   3.929   3.850   9.962 -1.1660 -0.0990  0.2312
  943MPD2    C213839   4.025   3.852  10.057 -0.6688  0.5317  0.2972
  943MPD2    C313840   4.137   3.924  10.038 -0.0580  0.6688  0.5145
  943MPD2    C413841   4.152   3.992   9.920 -0.1747  0.3046 -0.4298
  943MPD2    C513842   4.058   3.997   9.820  0.2776 -0.4280  0.1214
  943MPD2     H13843   4.003   3.813  10.156  1.0305 -2.0157 -0.3266
  943MPD2    H113844   4.240   4.054   9.904 -0.1134  1.0859  2.8589
  943MPD2    H213845   3.868   3.916   9.765 -0.5708  2.5420  0.8224
  943MPD2    H313846   4.076   4.046   9.725  0.5065 -2.4513 -0.8861
  943MPD2     N13847   4.246   3.915  10.130  0.1388 -0.3223 -0.2368
  943MPD2    H513848   4.334   3.947  10.089 -0.0400 -0.3725 -0.6581
  943MPD2    N113849   3.814   3.772   9.967 -0.5100 -0.3524 -0.2274
  943MPD2    H713850   3.743   3.779   9.894 -0.2358  0.4296 -0.4129
  944MPD2     C13851   4.274   3.206  11.450  0.5120 -0.1325 -0.2863
  944MPD2    C113852   4.185   3.189  11.344  0.4131 -0.0270  0.2745
  944MPD2    C213853   4.092   3.289  11.333  0.2157 -0.4863  0.2225
  944MPD2    C313854   4.082   3.394  11.424 -0.1791  0.4137 -0.2974
  944MPD2    C413855   4.162   3.395  11.535  0.1895  0.3700 -0.0636
  944MPD2    C513856   4.255   3.293  11.546  0.2530  0.7938  0.2728
  944MPD2     H13857   4.023   3.282  11.249  1.5071  1.2787 -0.9905
  944MPD2    H113858   4.159   3.467  11.617 -0.4526 -0.5980  0.7603
  944MPD2    H213859   4.349   3.129  11.461 -0.7860 -1.1206  1.6379
  944MPD2    H313860   4.326   3.305  11.626 -0.0703  1.1606  0.5043
  944MPD2     N13861   3.983   3.496  11.402  0.2099  0.6735 -0.3288
  944MPD2    H513862   3.931   3.482  11.316  1.1828 -0.4327 -0.7402
  944MPD2    N113863   4.200   3.078  11.257 -0.1646 -0.1540 -0.0415
  944MPD2    H713864   4.284   3.023  11.268  0.8529  1.1027 -1.5386
    1TMC1    C113865   2.772   3.946  14.389 -0.1443 -0.3653 -0.3532
    1TMC1    C213866   2.732   3.984  14.263 -0.3827  0.1308  0.2595
    1TMC1    C313867   2.695   3.891  14.164  0.0140 -0.3308 -0.3196
    1TMC1    C413868   2.767   3.813  14.417 -0.5479 -0.5772 -0.9235
    1TMC1    C513869   2.728   3.725  14.319  0.9371  0.2952  0.1487
    1TMC1    C613870   2.691   3.760  14.199  0.1192  0.0581 -0.3027
    1TMC1     C13871   2.767   4.041  14.501  0.6956  0.2373  0.0589
    1TMC1     O13872   2.844   4.018  14.594 -0.4295  0.1377  0.6762
    1TMC1     H13873   2.742   4.088  14.233  0.0155  0.2629  0.8442
    1TMC1    H113874   2.765   3.777  14.519 -1.0122  0.1920 -0.6612
    1TMC1    H213875   2.651   3.685  14.132  0.3352  0.2267 -0.6206
    1TMC1    C713876   2.748   3.580  14.343  0.2932 -0.9707  0.0846
    1TMC1    C813877   2.721   3.926  14.033 -0.1543  0.2912 -0.2499
    1TMC1    O113878   2.693   3.489  14.278 -0.0633 -0.2156 -0.3220
    1TMC1    O213879   2.759   3.844  13.952  0.0502 -0.0147  0.3166
    1TMC1    O313880   2.863   3.578  14.407 -0.1304  0.2000 -0.2115
    1TMC1    H313881   2.891   3.667  14.439 -0.6430  0.0847  0.5675
    1TMC1    O513882   2.623   4.009  14.002  0.8807  0.4169 -0.0086
    1TMC1    H513883   2.581   4.040  14.085 -1.1898 -1.5730 -0.3081
    2MPD2     C13884   2.593   4.439  14.744  0.9816  0.0369  0.1148
    2MPD2    C113885   2.501   4.414  14.638  0.6896 -0.0775 -0.1263
    2MPD2    C213886   2.539   4.318  14.550 -1.0012 -1.0047 -0.2422
    2MPD2    C313887   2.660   4.247  14.560 -0.0497 -0.4172 -0.8621
    2MPD2    C413888   2.737   4.275  14.668 -0.1690 -0.1789  0.4402
    2MPD2    C513889   2.708   4.371  14.761 -0.1053  0.1740  1.1450
    2MPD2     H13890   2.472   4.289  14.470 -1.6114 -2.2406  0.7305
    2MPD2    H113891   2.835   4.233  14.686  1.1220  2.2231 -1.0454
    2MPD2    H213892   2.555   4.507  14.819 -0.4082 -1.4322  0.7357
    2MPD2    H313893   2.772   4.404  14.842  1.3480 -0.8273  0.4021
    2MPD2     N13894   2.686   4.143  14.475 -0.6928 -0.2471 -0.4397
    2MPD2    H513895   2.627   4.141  14.392 -0.0609 -0.0934 -0.8919
    2MPD2    N113896   2.379   4.486  14.627  0.4311 -0.0219 -0.4438
    2MPD2    H713897   2.364   4.565  14.689  1.6540 -0.9413  1.0111
    3TMC2    C113898   2.189   4.565  14.531  0.4842  0.0273  0.0910
    3TMC2    C213899   2.071   4.527  14.482  0.2854 -0.3667 -0.6639
    3TMC2    C313900   1.995   4.636  14.430 -0.6598  0.5684 -0.2854
    3TMC2    C413901   2.242   4.691  14.502 -0.4099  0.0377 -0.6100
    3TMC2    C513902   2.176   0.040  14.432 -0.6261  0.7990  0.6912
    3TMC2    C613903   2.043   0.027  14.404  0.3281 -0.2680 -0.0156
    3TMC2     C13904   2.277   4.455  14.540  0.2711  0.2766 -0.8962
    3TMC2     O13905   2.246   4.364  14.468  0.2820  0.4657 -1.0337
    3TMC2     H13906   2.042   4.423  14.495 -0.5856  0.5356  4.9690
    3TMC2    H113907   2.350   4.700  14.492 -0.4106  0.8298  0.0706
    3TMC2    H213908   1.992   0.114  14.364  1.0990 -1.2766 -3.1457
    3TMC2    C713909   2.250   0.169  14.427  0.1805  0.7645 -0.1578
    3TMC2    C813910   1.847   4.617  14.432  0.5511 -0.6607 -0.4887
    3TMC2    O113911   2.322   0.196  14.519 -0.0783 -0.7011 -0.1082
    3TMC2    O213912   1.808   4.541  14.518  0.0122  0.0923  1.0308
    3TMC2    O513913   1.793   0.000  14.400 -0.6147 -0.0686  0.0853
    3TMC2    H513914   1.832   0.023  14.313  0.3931 -0.1020  0.5344
    4TMC2    C113915   1.741   0.838  13.943  0.2343 -0.1078 -0.7389
    4TMC2    C213916   1.803   0.957  13.908 -0.9897 -0.0009 -0.2580
    4TMC2    C313917   1.928   0.986  13.960  0.8095 -0.5906  0.2745
    4TMC2    C413918   1.807   0.755  14.034 -0.6396 -0.2362  0.3689
    4TMC2    C513919   1.928   0.785  14.080  0.2662 -0.8145 -0.2997
    4TMC2    C613920   1.989   0.903  14.049  0.6111  0.3028 -0.2813
    4TMC2     C13921   1.638   0.782  13.865  0.3864 -0.1492 -0.6560
    4TMC2     O13922   1.668   0.676  13.807  0.2942  0.4010  0.5347
    4TMC2     H13923   1.769   1.027  13.832 -2.5637 -0.6772 -0.1761
    4TMC2    H113924   1.761   0.660  14.060 -0.3356 -0.4022  0.2975
    4TMC2    H213925   2.093   0.930  14.063  0.4413 -0.1600  1.8765
    4TMC2    C713926   1.986   0.689  14.173  0.3485  0.6244 -0.6585
    4TMC2    C813927   1.979   1.117  13.945  0.7486 -0.5202 -0.0649
    4TMC2    O113928   1.910   0.598  14.212 -0.5793 -0.1231  0.6968
    4TMC2    O213929   2.035   1.168  14.040 -0.1757  0.3091 -0.5545
    4TMC2    O513930   2.019   1.131  13.814 -0.4233  0.4645 -0.4570
    4TMC2    H513931   1.988   1.056  13.760  0.5870  2.0216 -3.1900
    5MPD2     C13932   1.144   0.659  13.798 -0.6280  0.4288  0.2135
    5MPD2    C113933   1.156   0.770  13.878 -0.1143 -0.1543 -0.4291
    5MPD2    C213934   1.274   0.836  13.893 -0.3566  0.3768 -0.4225
    5MPD2    C313935   1.390   0.774  13.854 -0.1073  0.3675  0.4463
    5MPD2    C413936   1.379   0.663  13.764 -1.0474  0.2375  0.5761
    5MPD2    C513937   1.256   0.609  13.736  0.2432 -0.1233  0.2712
    5MPD2     H13938   1.283   0.925  13.955 -1.2834  0.2706 -0.1372
    5MPD2    H113939   1.471   0.619  13.729 -1.7906  0.5100 -1.7146
    5MPD2    H213940   1.044   0.623  13.775  0.3836 -2.2451  0.0306
    5MPD2    H313941   1.241   0.536  13.657 -1.1352 -0.2214  0.6386
    5MPD2     N13942   1.514   0.829  13.897 -0.4220  0.3513  0.4115
    5MPD2    H513943   1.509   0.909  13.959  1.4449  0.3261  0.5926
    5MPD2    N113944   1.033   0.820  13.932  0.4076 -0.9390 -1.1050
    5MPD2    H713945   0.952   0.762  13.910  1.6294 -2.7237 -0.9617
    6MPD1     C13946   0.475   2.066  12.691 -0.0568  0.7545 -0.2839
    6MPD1    C113947   0.494   2.129  12.814 -0.3015 -0.7323  0.5918
    6MPD1    C213948   0.560   2.061  12.915  0.7072  0.2547  0.1029
    6MPD1    C313949   0.609   1.931  12.892  0.3724  0.4806  0.1590
    6MPD1    C413950   0.595   1.883  12.768 -0.1657  0.7223 -0.2279
    6MPD1    C513951   0.532   1.950  12.666  0.2947  0.0252 -0.3123
    6MPD1     H13952   0.576   2.094  13.017 -0.3637  1.6452 -0.1826
    6MPD1    H113953   0.633   1.786  12.740  0.7945  2.3009 -4.3210
    6MPD1    H213954   0.413   2.116  12.618 -0.9746  3.2891  2.2227
    6MPD1    H313955   0.525   1.908  12.567 -0.2339 -0.8254  0.0919
    6MPD1     N13956   0.689   1.856  12.979 -0.2375  0.1388  0.2664
    6MPD1    H513957   0.719   1.768  12.940  1.1677  0.1347  1.3577
    6MPD1    N113958   0.423   2.250  12.846  0.1639  0.7178  0.0711
    6MPD1    H613959   0.453   2.296  12.932  0.3238  0.7399  0.0033
    6MPD1    H713960   0.416   2.310  12.765 -4.6977  1.6823  1.2166
    7MPD2     C13961   0.925   1.722  13.839  0.1169 -0.8353  0.5918
    7MPD2    C113962   0.852   1.632  13.768 -0.7123 -0.0428 -0.7713
    7MPD2    C213963   0.792   1.527  13.828 -0.6475  0.4405  0.7018
    7MPD2    C313964   0.812   1.502  13.961  0.4961  0.0918 -0.5121
    7MPD2    C413965   0.889   1.591  14.040 -0.4872 -0.2971  0.2753
    7MPD2    C513966   0.938   1.706  13.976  0.7951 -0.4831 -0.0115
    7MPD2     H13967   0.737   1.453  13.771 -1.8552  2.1090 -0.3005
    7MPD2    H113968   0.909   1.578  14.146  0.2302 -1.7970 -0.0451
    7MPD2    H213969   0.974   1.805  13.789  2.5826 -2.4539  0.3302
    7MPD2    H313970   0.994   1.772  14.041 -1.2682  0.6176  0.6515
    7MPD2     N13971   0.771   1.370  14.003  0.0985 -0.2712 -0.1395
    7MPD2    H513972   0.719   1.317  13.934  1.2794 -1.3811 -0.1708
    7MPD2    N113973   0.847   1.648  13.625 -0.6630  0.5862  0.0023
    7MPD2    H713974   0.793   1.577  13.577  1.4333 -0.5597 -0.6663
    8TMC3    C113975   0.771   1.175  14.103 -0.0820 -0.0580  0.5620
    8TMC3    C213976   0.872   1.086  14.120 -0.8086  0.3021  0.0413
    8TMC3    C313977   0.894   0.988  14.031  0.2190  0.8354 -0.2995
    8TMC3    C413978   0.680   1.148  14.005  0.3776 -0.0847  0.3365
    8TMC3    C513979   0.710   1.053  13.910 -0.0534  0.3377  0.4237
    8TMC3    C613980   0.823   0.973  13.914 -0.0467  0.4277  0.8407
    8TMC3     C13981   0.818   1.311  14.112  0.0577  0.0910 -0.1670
    8TMC3     O13982   0.911   1.338  14.185 -0.0175 -0.5483 -0.3885
    8TMC3     H13983   0.951   1.113  14.190 -0.8425  0.3107  0.0762
    8TMC3    H113984   0.583   1.195  14.010  0.5014  0.2701 -0.6080
    8TMC3    H213985   0.868   0.931  13.825  0.2593  0.8437  0.7992
    8TMC3    C713986   0.672   1.099  13.776 -0.5953  0.0842  0.1744
    8TMC3    C813987   1.022   0.922  14.024 -0.1018 -0.2522  0.2608
    8TMC3    O113988   0.633   1.218  13.769 -0.7922 -0.4081 -0.0675
    8TMC3    O213989   1.107   0.978  14.095  0.6386  0.2575 -0.2046
    9TMC3    C113990   0.779   1.779  13.188  0.2119  0.0228  0.1225
    9TMC3    C213991   0.778   1.649  13.148  0.1215  0.0950 -0.6452
    9TMC3    C313992   0.816   1.556  13.238 -0.9043 -0.5801 -0.1997
    9TMC3    C413993   0.814   1.811  13.316  0.1875  0.5372 -0.4365
    9TMC3    C513994   0.859   1.715  13.405 -0.3223  0.6392  0.5807
    9TMC3    C613995   0.867   1.584  13.367  0.5606  0.4548 -0.8647
    9TMC3     C13996   0.698   1.879  13.115 -0.2276 -0.4225 -0.4452
    9TMC3     O13997   0.660   1.975  13.183 -1.1155  0.7392  0.5119
    9TMC3     H13998   0.750   1.621  13.047 -4.1260  0.7344  0.3498
    9TMC3    H113999   0.805   1.915  13.346 -1.3453  0.7629 -1.7004
    9TMC3    H214000   0.911   1.500  13.420 -0.6749 -0.8304 -1.8689
    9TMC3    C714001   0.887   1.748  13.543 -0.8741 -0.1187 -0.2920
    9TMC3    C814002   0.791   1.417  13.220  0.1152  0.0298 -0.3488
    9TMC3    O114003   0.925   1.860  13.564  0.1065 -0.4229 -0.1062
    9TMC3    O214004   0.837   1.360  13.120  0.0411 -0.3457 -0.3841
   10MPD2     C14005   0.738   0.966  13.448  0.3492 -0.2738 -0.3810
   10MPD2    C114006   0.709   1.060  13.534 -0.9704  0.6623  0.4673
   10MPD2    C214007   0.716   1.191  13.498 -0.0237 -0.0619 -0.2526
   10MPD2    C314008   0.746   1.225  13.366  0.5069 -0.3983  0.8346
   10MPD2    C414009   0.763   1.120  13.273  0.2534 -0.2163  0.7472
   10MPD2    C514010   0.760   0.989  13.313 -0.0993  0.3016 -0.1720
   10MPD2     H14011   0.698   1.278  13.561  0.6294 -0.4826  0.5257
   10MPD2    H114012   0.778   1.141  13.168 -0.5231  0.8491  0.8449
   10MPD2    H214013   0.721   0.864  13.479 -2.3765  0.3526  0.2330
   10MPD2    H314014   0.769   0.907  13.242 -1.0536 -0.0811  0.1507
   10MPD2     N14015   0.742   1.359  13.335  0.3373  0.2095 -0.1818
   10MPD2    H514016   0.685   1.410  13.402  2.9282  2.8126  0.0105
   10MPD2    N114017   0.700   1.019  13.669  0.4126 -0.5232  0.7119
   10MPD2    H714018   0.703   0.920  13.690 -0.2115 -0.8269 -0.6207
   11MPD2     C14019   2.365   0.448  14.395  0.4243  0.3887 -0.3611
   11MPD2    C114020   2.248   0.402  14.342  0.0580 -0.0342  0.1843
   11MPD2    C214021   2.161   0.494  14.289  0.0343  0.3717 -0.2263
   11MPD2    C314022   2.193   0.630  14.281 -0.2594 -0.1819 -0.0740
   11MPD2    C414023   2.312   0.673  14.343  0.0536 -0.1138 -0.1277
   11MPD2    C514024   2.398   0.580  14.391  0.7323 -0.3211  0.1607
   11MPD2     H14025   2.073   0.446  14.248  1.6917 -2.8333  0.0014
   11MPD2    H114026   2.338   0.778  14.343 -3.6490  0.8272  0.0038
   11MPD2    H214027   2.439   0.385  14.441 -0.1118 -0.0259 -0.0656
   11MPD2    H314028   2.489   0.618  14.438  0.5841 -0.9345  0.9492
   11MPD2     N14029   2.106   0.725  14.227 -0.6428  0.2390 -0.0337
   11MPD2    H514030   2.146   0.815  14.201 -0.5779  0.4293  0.7379
   11MPD2    N114031   2.203   0.265  14.339 -0.0735  0.3513 -0.2846
   11MPD2    H714032   2.127   0.241  14.275  0.9347 -0.0549 -1.3199
    1MPD1     C14033   0.246   1.771  17.362 -0.3483 -0.4083 -0.1458
    1MPD1    C114034   0.370   1.769  17.307 -0.9128  0.5977  0.4678
    1MPD1    C214035   0.433   1.888  17.286  0.5900 -0.1507 -0.1667
    1MPD1    C314036   0.356   2.005  17.304  0.1103 -0.0884  0.7579
    1MPD1    C414037   0.227   2.004  17.343 -0.1076  0.1567  0.3079
    1MPD1    C514038   0.166   1.883  17.375  0.7570  0.5347 -0.1842
    1MPD1     H14039   0.532   1.887  17.242  0.1033  0.2621 -1.2530
    1MPD1    H114040   0.173   2.092  17.374  2.1009  1.4316  0.4976
    1MPD1    H214041   0.190   1.682  17.388  0.7782 -1.3801 -1.0839
    1MPD1    H314042   0.068   1.872  17.422  1.3970 -0.9622  0.8048
    1MPD1     N14043   0.403   2.138  17.293  0.5191 -0.0144 -0.7966
    1MPD1    H514044   0.345   2.211  17.332 -1.2521 -1.0324 -1.5149
    1MPD1    N114045   0.433   1.647  17.290 -0.1482  0.2899  0.0791
    1MPD1    H614046   0.502   1.656  17.216 -0.0400  1.8278  0.3723
    1MPD1    H714047   0.358   1.587  17.256 -2.0895  1.2995  2.5910
    2MPD1     C14048   0.312   3.116  17.430 -0.7299  0.3116  0.0863
    2MPD1    C114049   0.401   3.110  17.326 -0.3459  0.0589  0.2437
    2MPD1    C214050   0.452   2.986  17.295 -0.3914 -0.9092 -0.6228
    2MPD1    C314051   0.400   2.873  17.354  0.0745  0.2141 -0.5716
    2MPD1    C414052   0.313   2.880  17.462 -0.1238  0.5661  0.0837
    2MPD1    C514053   0.276   3.004  17.495 -0.5774 -0.2877 -0.1999
    2MPD1     H14054   0.532   2.979  17.223 -0.4953  1.1840 -0.9288
    2MPD1    H114055   0.278   2.796  17.520  1.0740 -1.4654 -2.1066
    2MPD1    H214056   0.269   3.206  17.472 -0.2910  1.7524 -2.5895
    2MPD1    H314057   0.206   3.012  17.578 -1.3392  0.1560 -0.8890
    2MPD1     N14058   0.456   2.755  17.302 -0.5878  0.2460  0.5530
    2MPD1    H514059   0.515   2.770  17.221 -1.4261 -2.4187 -0.5144
    2MPD1    N114060   0.461   3.226  17.281 -0.5576 -0.4410 -0.3783
    2MPD1    H614061   0.494   3.209  17.186  0.3866 -0.2556 -0.0899
    2MPD1    H714062   0.396   3.304  17.283  0.6012  0.5619 -2.4167
    3TMC3    C114063   0.507   2.531  17.276 -0.6241 -0.5136 -0.0510
    3TMC3    C214064   0.616   2.575  17.209  0.3465 -1.1418  0.0063
    3TMC3    C314065   0.690   2.487  17.140  0.2981  0.4402  0.2557
    3TMC3    C414066   0.472   2.399  17.293 -0.3470  0.0884  0.3520
    3TMC3    C514067   0.544   2.310  17.220  0.6111 -0.3920  0.7882
    3TMC3    C614068   0.652   2.351  17.135  0.0346 -0.1708  0.8155
    3TMC3     C14069   0.422   2.628  17.344 -0.2392 -0.2720 -0.3216
    3TMC3     O14070   0.350   2.590  17.435 -0.6147  0.3486  0.4055
    3TMC3     H14071   0.657   2.674  17.225  0.3447 -0.9650 -1.0309
    3TMC3    H114072   0.392   2.378  17.364  0.4507  0.3796  1.3330
    3TMC3    H214073   0.706   2.282  17.072 -0.6688 -2.5363  2.8072
    3TMC3    C714074   0.509   2.175  17.216 -0.1877  0.3416 -0.4604
    3TMC3    C814075   0.808   2.537  17.069  0.0457  0.0436  0.0675
    3TMC3    O114076   0.576   2.101  17.147 -0.1797 -0.2107 -0.1901
    3TMC3    O214077   0.826   2.660  17.065  0.7013  0.0503  0.3057
    4MPD1     C14078   1.237   2.503  16.783 -0.0013 -0.0886 -0.3499
    4MPD1    C114079   1.154   2.391  16.761 -0.7582  0.0466  0.6534
    4MPD1    C214080   1.046   2.370  16.839 -0.2390  0.4172 -0.1889
    4MPD1    C314081   1.002   2.465  16.924  0.0993  0.2574  0.5820
    4MPD1    C414082   1.080   2.578  16.942  0.1360 -0.6610 -0.1643
    4MPD1    C514083   1.203   2.594  16.880 -0.1017 -0.0536  0.2507
    4MPD1     H14084   0.988   2.281  16.815  0.8568  0.2584 -2.2175
    4MPD1    H114085   1.047   2.652  17.014 -3.3985 -1.2755 -1.1730
    4MPD1    H214086   1.334   2.501  16.735 -0.8259 -0.6849 -2.0128
    4MPD1    H314087   1.266   2.677  16.911  0.4302 -0.4386  0.1993
    4MPD1     N14088   0.877   2.441  16.997  0.7564 -0.0979 -0.8599
    4MPD1    H514089   0.837   2.349  16.988 -0.6149  0.1496  2.6761
    4MPD1    N114090   1.204   2.286  16.684 -0.4906 -0.0200 -0.5070
    4MPD1    H614091   1.128   2.235  16.639  0.4899 -1.8371 -0.1232
    4MPD1    H714092   1.260   2.324  16.607  0.3088 -1.0431 -0.4254
    1TCq1    O114093   4.069   0.448  11.749  0.1681 -0.0606 -0.4974
    1TCq1    C114094   3.939   0.487  11.765 -0.5822  0.0283  0.3884
    1TCq1    O214095   3.870   0.553  11.684  0.2990 -0.0107  0.2574
    1TCq1    C214096   3.897   0.456  11.903 -0.0931  0.1119 -0.5791
    1TCq1    C314097   3.970   0.367  11.980  0.6091  0.8109  0.1214
    1TCq1    C414098   3.956   0.362  12.117  0.2053 -0.3907 -0.3618
    1TCq1    C514099   3.863   0.441  12.176 -0.7833  0.3327  0.4426
    1TCq1    C614100   3.798   0.537  12.106 -0.5120  0.3586 -0.0645
    1TCq1    C714101   3.820   0.552  11.967  0.4485  0.6368 -0.1641
    1TCq1    C814102   3.679   0.595  12.171 -0.4217 -0.0667  0.5365
    1TCq1    O414103   3.660   0.709  12.129 -0.6713 -0.3657 -0.1529
    1TCq1    C914104   3.980   0.239  12.192  0.9030 -0.5058 -0.4999
    1TCq1    O514105   3.896   0.222  12.288  0.0251 -0.4874 -0.3887
    1TCq1    O614106   4.017   0.142  12.121 -0.1300  0.0212  0.6602
    1TCq1    H114107   4.095   0.411  11.836 -0.2341 -3.3417 -1.7863
    1TCq1    H214108   4.022   0.289  11.927 -3.0865 -0.7853 -1.1514
    1TCq1    H314109   3.849   0.435  12.284 -0.2481 -1.8096  0.3753
    1TCq1    H414110   3.763   0.629  11.916  1.0803  1.6922  0.7065
    2MPD1     C14111   3.337   0.642  12.541  0.3662  0.6238  0.4330
    2MPD1    C114112   3.376   0.514  12.543  0.3440 -0.1417  0.0145
    2MPD1    C214113   3.472   0.476  12.456 -0.0332  0.6266 -0.2448
    2MPD1    C314114   3.525   0.561  12.362 -0.2076 -0.6926 -0.0553
    2MPD1    C414115   3.475   0.693  12.354 -0.0288 -0.3027 -0.2387
    2MPD1    C514116   3.391   0.731  12.452 -0.7189  0.2153  1.1120
    2MPD1     H14117   3.507   0.374  12.465 -1.1022  0.1059 -1.7994
    2MPD1    H114118   3.503   0.770  12.282 -1.5499 -1.3964 -1.9890
    2MPD1    H214119   3.272   0.681  12.618  0.7101 -2.7694  2.4286
    2MPD1    H314120   3.341   0.827  12.445 -1.4738 -0.1056  2.2569
    2MPD1     N14121   3.615   0.519  12.265 -0.0884 -0.9412 -0.5551
    2MPD1    H514122   3.646   0.425  12.287  0.4775  0.1995  3.5854
    2MPD1    N114123   3.340   0.430  12.650 -0.0801  0.4852  0.0245
    2MPD1    H614124   3.348   0.329  12.640  0.9105  0.6906 -1.2268
    2MPD1    H714125   3.243   0.443  12.680  0.8947  2.7905  2.1942
    1TMC1    C114126   3.732   3.032   1.326 -0.8867 -0.0012 -0.5466
    1TMC1    C214127   3.815   3.112   1.258 -0.4486 -0.5588 -0.0932
    1TMC1    C314128   3.920   3.051   1.193  0.0289  0.3348 -0.4899
    1TMC1    C414129   3.743   2.896   1.325  0.5605 -0.0982 -0.2698
    1TMC1    C514130   3.850   2.840   1.259  0.6547  0.0738  0.6025
    1TMC1    C614131   3.935   2.917   1.189 -0.0823 -0.0532  0.8650
    1TMC1     C14132   3.612   3.095   1.380  1.0009  1.1686  0.0642
    1TMC1     O14133   3.522   3.028   1.431 -0.0398 -0.3704 -0.7664
    1TMC1     H14134   3.780   3.206   1.216  0.1114 -1.3954 -2.4568
    1TMC1    H114135   3.689   2.831   1.393 -1.8032  2.0531 -0.0957
    1TMC1    H214136   4.007   2.870   1.122  0.0352 -2.2282  2.5208
    1TMC1    C714137   3.847   2.698   1.221  0.0397 -0.2539 -0.1978
    1TMC1    C814138   4.020   3.121   1.115 -0.8941 -0.0201 -0.5571
    1TMC1    O114139   3.752   2.622   1.221 -0.1510 -0.1071  0.8176
    1TMC1    O214140   4.101   3.062   1.044  0.3697 -0.4966 -0.6431
    1TMC1    O314141   3.976   2.655   1.229 -0.3544  0.3544  0.2603
    1TMC1    H314142   4.034   2.730   1.255 -0.9268 -0.1021  2.9179
    1TMC1    O514143   4.025   3.249   1.161 -0.0552 -0.7507 -0.1504
    1TMC1    H514144   3.966   3.276   1.234  1.9325  0.0256  1.1530
    2MPD1     C14145   3.350   3.503   1.556  0.6230  0.0074  0.0630
    2MPD1    C114146   3.468   3.547   1.507  0.2051  0.2446  0.6119
    2MPD1    C214147   3.555   3.459   1.447 -0.0382  0.1059  0.4151
    2MPD1    C314148   3.524   3.321   1.439  0.3510  0.0720  0.6233
    2MPD1    C414149   3.397   3.284   1.480 -0.0103 -0.0308  0.5875
    2MPD1    C514150   3.306   3.378   1.536 -0.2254  0.9598 -0.1619
    2MPD1     H14151   3.651   3.502   1.421  0.3004 -1.5984 -1.1994
    2MPD1    H114152   3.366   3.181   1.468 -1.0313  0.4330 -0.7834
    2MPD1    H214153   3.288   3.574   1.609 -0.1433 -0.1630 -0.6096
    2MPD1    H314154   3.210   3.350   1.578 -0.5279  2.7031  0.2945
    2MPD1     N14155   3.629   3.231   1.396  0.1044 -0.2274  0.0100
    2MPD1    H514156   3.716   3.278   1.374  1.1269 -1.7712  0.7523
    2MPD1    N114157   3.516   3.674   1.545  0.2606 -0.0989 -0.0532
    2MPD1    H614158   3.574   3.719   1.475  1.0190 -0.0858  0.5876
    2MPD1    H714159   3.440   3.740   1.557  0.5216  0.4229 -1.2762
    1MPD1     C14160   2.620   2.232  11.801  0.1132 -0.8326 -0.5407
    1MPD1    C114161   2.716   2.324  11.823  0.2090  0.4544  0.4877
    1MPD1    C214162   2.808   2.293  11.924  0.1444  0.1145  0.1485
    1MPD1    C314163   2.804   2.183  11.999 -0.0511  0.0050 -0.1012
    1MPD1    C414164   2.706   2.092  11.969  0.1025  0.1380  0.2530
    1MPD1    C514165   2.613   2.119  11.873  0.5464 -0.3435 -0.4282
    1MPD1     H14166   2.895   2.355  11.939 -0.1316  0.0876  1.7981
    1MPD1    H114167   2.693   1.999  12.022  2.5010 -1.1886 -1.4805
    1MPD1    H214168   2.556   2.237  11.714 -1.9002 -0.4470  0.9683
    1MPD1    H314169   2.535   2.048  11.849  0.5982 -0.2495 -0.8718
    1MPD1     N14170   2.895   2.163  12.108  0.1817 -0.0300 -0.0748
    1MPD1    H514171   2.970   2.230  12.123 -0.2911  0.2175  1.0942
    1MPD1    N114172   2.727   2.442  11.746 -0.1070  0.2051  0.5235
    1MPD1    H614173   2.785   2.513  11.790 -1.3641  1.6866 -0.2044
    1MPD1    H714174   2.636   2.486  11.730 -0.4550 -1.5064 -2.2241
    2MPD1     C14175   2.378   1.737  11.877 -0.0135 -0.1642  0.1927
    2MPD1    C114176   2.293   1.816  11.815 -0.1162 -0.4049  0.6878
    2MPD1    C214177   2.340   1.874  11.696 -0.1787 -0.1550  0.2679
    2MPD1    C314178   2.472   1.856  11.655  0.2664  0.5153 -1.2494
    2MPD1    C414179   2.556   1.788  11.737  0.0210 -0.1888 -0.5774
    2MPD1    C514180   2.510   1.724  11.846  0.1916 -0.5564 -0.0100
    2MPD1     H14181   2.276   1.937  11.636 -2.2713 -1.8428  0.7191
    2MPD1    H114182   2.660   1.789  11.707  0.4576 -0.2941  0.9657
    2MPD1    H214183   2.344   1.686  11.966 -2.0009 -0.3161 -0.6741
    2MPD1    H314184   2.577   1.657  11.899  1.9733 -0.7182 -2.4183
    2MPD1     N14185   2.531   1.918  11.541  0.6849  0.1012  0.4806
    2MPD1    H514186   2.627   1.887  11.535  0.6562  0.0567  0.2390
    2MPD1    N114187   2.158   1.820  11.854  0.3819  0.1414  0.1240
    2MPD1    H614188   2.106   1.881  11.791  0.0749 -1.3815 -1.1325
    2MPD1    H714189   2.141   1.841  11.952 -0.2053  0.7312 -0.1083
    3MPD1     C14190   2.483   1.588  10.547 -0.4876  0.3512 -0.6560
    3MPD1    C114191   2.595   1.665  10.556  0.2869  0.5575 -0.2328
    3MPD1    C214192   2.620   1.747  10.668  0.0394 -0.7492 -0.0902
    3MPD1    C314193   2.526   1.753  10.763 -0.1915 -0.6078 -0.3378
    3MPD1    C414194   2.408   1.678  10.758 -0.9645 -0.4942  0.0478
    3MPD1    C514195   2.393   1.601  10.647  0.5791  0.5395  0.1663
    3MPD1     H14196   2.711   1.801  10.691  0.6579 -1.9531  0.2581
    3MPD1    H114197   2.341   1.669  10.843 -1.1221 -1.4169 -0.1728
    3MPD1    H214198   2.465   1.516  10.468  1.2015 -2.0927  1.1856
    3MPD1    H314199   2.305   1.537  10.651  0.6184  0.3892 -1.2394
    3MPD1     N14200   2.553   1.837  10.875  0.0258 -0.5013 -0.1332
    3MPD1    H514201   2.643   1.884  10.878 -1.1818  1.6426  1.4572
    3MPD1    N114202   2.691   1.626  10.465 -0.7618 -0.4155 -0.1684
    3MPD1    H614203   2.774   1.684  10.458 -1.0290 -0.0811 -0.6498
    3MPD1    H714204   2.659   1.614  10.369  2.3881 -2.4595 -0.9419
    4MPD2     C14205   3.475   2.352  12.037 -0.4479 -0.0631 -0.0697
    4MPD2    C114206   3.449   2.216  12.061  0.0528 -0.1777  0.2553
    4MPD2    C214207   3.489   2.124  11.966 -0.0517 -0.3563 -1.5447
    4MPD2    C314208   3.555   2.162  11.849 -0.0996 -0.0059  0.3263
    4MPD2    C414209   3.578   2.297  11.832 -0.2854  0.0940 -0.2713
    4MPD2    C514210   3.543   2.387  11.928 -0.2795 -0.2916  0.6989
    4MPD2     H14211   3.470   2.019  11.988 -0.6855  0.0934  0.0717
    4MPD2    H114212   3.635   2.335  11.748 -1.3713  0.7444 -0.7137
    4MPD2    H214213   3.456   2.426  12.114  1.8813 -0.2838  0.7147
    4MPD2    H314214   3.576   2.490  11.916 -0.4412 -0.4328 -1.0474
    4MPD2     N14215   3.592   2.058  11.763  0.0649  0.4498 -0.3113
    4MPD2    H514216   3.577   1.962  11.792  1.8572  0.4890  0.7371
    4MPD2    N114217   3.380   2.166  12.181  0.0754  0.2782  0.7082
    4MPD2    H714218   3.382   2.065  12.190 -0.2661  0.1061 -1.3390
    5TMC3    C114219   3.221   2.173  12.347  0.1492 -0.7972  0.2554
    5TMC3    C214220   3.101   2.175  12.281  0.6004  0.0136  0.0485
    5TMC3    C314221   3.032   2.060  12.272 -0.0148 -0.2057 -0.0005
    5TMC3    C414222   3.268   2.052  12.389 -0.6659  0.1714 -0.0141
    5TMC3    C514223   3.203   1.932  12.365 -0.7344 -0.1241 -0.3549
    5TMC3    C614224   3.073   1.939  12.318  0.2414 -0.0380 -0.3084
    5TMC3     C14225   3.327   2.248  12.278  0.1937  0.8905  0.5459
    5TMC3     O14226   3.305   2.369  12.275 -0.0918  0.0777  0.6946
    5TMC3     H14227   3.071   2.272  12.244  0.4616 -0.2110 -0.4292
    5TMC3    H114228   3.363   2.043  12.442  0.2327 -0.1308 -1.6827
    5TMC3    H214229   3.023   1.846  12.293  0.0888 -0.0730  0.1217
    5TMC3    C714230   3.285   1.840  12.283  1.0147  0.3163  0.1406
    5TMC3    C814231   2.912   2.054  12.183  0.0291  0.2396 -0.8651
    5TMC3    O114232   3.391   1.884  12.245 -0.0497  0.1107 -0.2591
    5TMC3    O214233   2.833   1.960  12.192 -0.1682  0.6910 -0.0029
    6TMC3    C114234   2.548   1.998  11.320 -0.1125 -0.1151  0.1063
    6TMC3    C214235   2.477   1.963  11.204 -0.1698 -0.1054 -0.4050
    6TMC3    C314236   2.549   1.911  11.101  0.5019 -0.3978 -0.4623
    6TMC3    C414237   2.681   1.969  11.329 -0.3689  0.3447 -0.0639
    6TMC3    C514238   2.740   1.909  11.226 -0.2742 -0.2109  0.3748
    6TMC3    C614239   2.681   1.891  11.105  0.0110 -0.2522 -0.1275
    6TMC3     C14240   2.466   1.980  11.435 -0.9204 -0.4426 -0.1434
    6TMC3     O14241   2.349   1.991  11.423 -0.8055  0.9310  0.0542
    6TMC3     H14242   2.375   1.992  11.180 -0.1574  1.2146  1.1364
    6TMC3    H114243   2.740   1.998  11.415  1.6739  0.1912 -1.4207
    6TMC3    H214244   2.734   1.849  11.020 -1.5170 -1.6536 -0.3857
    6TMC3    C714245   2.876   1.870  11.252 -0.3681  0.0672  0.0132
    6TMC3    C814246   2.480   1.842  10.990  0.4556  0.0773 -0.8339
    6TMC3    O114247   2.935   1.924  11.344 -0.0925  0.4190  0.2300
    6TMC3    O214248   2.369   1.796  11.012 -0.5951  0.3391 -0.2090
    7MPD2     C14249   3.318   1.467  11.932  0.4523  0.6139 -0.1367
    7MPD2    C114250   3.386   1.584  11.934 -0.6881 -0.1331  0.1858
    7MPD2    C214251   3.365   1.672  12.040  0.6207 -0.1465 -0.3044
    7MPD2    C314252   3.259   1.646  12.129  0.2171  0.3711 -0.2413
    7MPD2    C414253   3.180   1.536  12.110 -0.0012 -0.7098 -0.2013
    7MPD2    C514254   3.213   1.446  12.013 -0.7004  0.2324  0.0587
    7MPD2     H14255   3.431   1.758  12.046  0.2414  0.0633  0.9650
    7MPD2    H114256   3.103   1.506  12.181 -1.4668  0.6419 -1.2097
    7MPD2    H214257   3.344   1.391  11.859 -1.1379 -0.5461  0.5043
    7MPD2    H314258   3.173   1.345  12.017  0.0346 -0.0930 -0.9451
    7MPD2     N14259   3.223   1.731  12.237 -0.1379 -0.0569  0.4540
    7MPD2    H514260   3.135   1.707  12.282 -1.1542  0.3561 -1.2877
    7MPD2    N114261   3.465   1.608  11.820  0.0665 -1.0144  0.6727
    7MPD2    H714262   3.481   1.533  11.753 -0.5666  1.3722 -2.1383
    8TMC3    C114263   3.582   1.745  11.663 -0.5264 -0.2539 -0.3472
    8TMC3    C214264   3.489   1.728  11.563 -0.7370 -0.3300 -0.2219
    8TMC3    C314265   3.478   1.832  11.477 -0.0308 -0.5501 -0.1644
    8TMC3    C414266   3.671   1.849  11.666  0.1545  0.7750 -0.7360
    8TMC3    C514267   3.649   1.952  11.576  0.1351  0.1615 -0.0635
    8TMC3    C614268   3.554   1.945  11.476  0.1316 -0.0610 -0.2797
    8TMC3     C14269   3.532   1.726  11.795 -0.3907  0.4131 -0.1840
    8TMC3     O14270   3.554   1.814  11.877  0.0291 -0.0810  0.3833
    8TMC3     H14271   3.405   1.662  11.582  0.0503 -0.4815  2.7587
    8TMC3    H114272   3.738   1.858  11.751  2.3255  2.8342 -2.6729
    8TMC3    H214273   3.528   2.027  11.411  1.6157 -0.4716 -1.4020
    8TMC3    C714274   3.643   2.078  11.636  0.3239 -0.9664  0.6655
    8TMC3    C814275   3.375   1.822  11.380 -0.0634 -0.5940 -0.0922
    8TMC3    O114276   3.664   2.178  11.567  0.5070  0.2217  0.2527
    8TMC3    O214277   3.339   1.919  11.313 -0.3948  0.3284 -0.7182
    9MPD2     C14278   3.230   1.519  11.236 -0.4933 -0.8335  0.5240
    9MPD2    C114279   3.236   1.648  11.262 -0.1953 -0.3880 -1.0417
    9MPD2    C214280   3.133   1.734  11.234  0.4902 -0.1365  0.2771
    9MPD2    C314281   3.021   1.693  11.170 -0.2846  0.3653  0.3922
    9MPD2    C414282   3.018   1.557  11.136 -0.4441  0.1049  0.3127
    9MPD2    C514283   3.113   1.468  11.182 -0.0569  0.1163 -0.1183
    9MPD2     H14284   3.133   1.835  11.275  2.7181 -0.1691  0.3915
    9MPD2    H114285   2.927   1.518  11.092 -1.2563  1.1759  1.0263
    9MPD2    H214286   3.303   1.442  11.259  1.1690  0.0195 -1.9828
    9MPD2    H314287   3.113   1.364  11.150  1.3207 -0.8505  3.0121
    9MPD2     N14288   2.903   1.767  11.167 -0.2301  0.3153  0.4760
    9MPD2    H514289   2.830   1.720  11.114 -2.1585  1.9640  1.6916
    9MPD2    N114290   3.344   1.691  11.344 -0.2220  0.0488  0.0055
    9MPD2    H714291   3.396   1.612  11.380  0.8551  0.4509 -0.6782
    1MPD1     C14292   3.080   1.119  16.620  0.0680  0.1007 -0.7685
    1MPD1    C114293   3.005   1.156  16.735  0.7227 -0.2737 -0.2263
    1MPD1    C214294   2.917   1.061  16.788  0.0416  0.6731 -0.2670
    1MPD1    C314295   2.902   0.932  16.733  0.0679  0.4424 -0.9763
    1MPD1    C414296   2.978   0.895  16.626 -0.0357 -0.2777  0.1435
    1MPD1    C514297   3.067   0.991  16.575  0.4598  0.6486  0.1799
    1MPD1     H14298   2.868   1.076  16.883 -0.0961  2.6774 -0.6707
    1MPD1    H114299   2.976   0.800  16.574  1.3883 -0.0801 -0.2568
    1MPD1    H214300   3.145   1.181  16.560  0.1610 -1.7063 -2.5031
    1MPD1    H314301   3.126   0.957  16.490 -2.3878 -0.3642 -1.4292
    1MPD1     N14302   2.803   0.837  16.772 -0.2913 -0.3429  0.1092
    1MPD1    H514303   2.807   0.752  16.716 -1.3293 -1.1344  1.2537
    1MPD1    N114304   3.044   1.273  16.805 -0.3383  0.3985  0.0461
    1MPD1    H614305   2.959   1.318  16.837 -1.7857 -1.0880 -1.7412
    1MPD1    H714306   3.084   1.341  16.740  0.3989 -1.6472 -1.6365
    2TMC2    C114307   2.427   0.662  16.996 -0.2965 -0.3477  0.3649
    2TMC2    C214308   2.454   0.544  16.938 -1.0042 -0.4351  0.0898
    2TMC2    C314309   2.570   0.521  16.872 -0.5605 -0.3082  0.3663
    2TMC2    C414310   2.514   0.769  16.981  0.0952  0.7136 -0.2848
    2TMC2    C514311   2.626   0.748  16.899 -0.0085  0.2923 -0.0212
    2TMC2    C614312   2.659   0.623  16.854  0.0923 -0.6850 -0.4391
    2TMC2     C14313   2.315   0.675  17.081 -0.0821  0.1034 -0.1517
    2TMC2     O14314   2.299   0.788  17.130 -0.0783 -0.2943 -0.2237
    2TMC2     H14315   2.387   0.459  16.929 -1.3019  0.0253 -2.0076
    2TMC2    H114316   2.491   0.867  17.022  0.6759  0.3353  0.9401
    2TMC2    H214317   2.753   0.606  16.804 -0.0797  0.3634 -1.1013
    2TMC2    C714318   2.708   0.864  16.864  0.3061 -0.5832 -0.5639
    2TMC2    C814319   2.599   0.392  16.826 -0.2358 -0.2481 -0.2293
    2TMC2    O114320   2.687   0.967  16.927  0.0128 -0.2797 -0.2321
    2TMC2    O214321   2.561   0.286  16.876  0.1040  0.1801  0.0944
    2TMC2    O514322   2.619   0.401  16.694  0.2922 -0.6349 -0.3392
    2TMC2    H514323   2.631   0.492  16.659 -0.6990  0.5471  2.3376
    3MPD1     C14324   1.871   0.545  17.290 -0.5178  0.7045  0.1183
    3MPD1    C114325   1.939   0.428  17.257  0.2288  0.0985  0.1654
    3MPD1    C214326   2.066   0.437  17.197 -0.1872  0.3465  0.3413
    3MPD1    C314327   2.118   0.559  17.174 -0.2819  0.0145  0.0823
    3MPD1    C414328   2.050   0.676  17.211  0.6532 -0.2068  0.3683
    3MPD1    C514329   1.929   0.664  17.267 -0.6021  0.1058  0.0004
    3MPD1     H14330   2.126   0.351  17.170  1.5049  1.4222  0.6501
    3MPD1    H114331   2.088   0.775  17.191 -1.3573 -0.0627 -2.8670
    3MPD1    H214332   1.777   0.547  17.344  0.4272  2.2267  1.7174
    3MPD1    H314333   1.869   0.748  17.301  0.0376 -0.1161  1.6948
    3MPD1     N14334   2.241   0.558  17.105  0.0471 -0.7496 -0.0233
    3MPD1    H514335   2.269   0.473  17.057  0.0866  0.0960 -1.5090
    3MPD1    N114336   1.899   0.308  17.313 -0.0628  0.9061 -0.2768
    3MPD1    H614337   1.921   0.226  17.256 -1.6593  0.0822  0.2572
    3MPD1    H714338   1.798   0.312  17.329  0.1137  0.5742  0.8929
    1TMC1    C114339   1.229   4.107  13.622 -0.6024  0.1234  0.2637
    1TMC1    C214340   1.204   3.975  13.635 -0.0525 -0.2323  1.0807
    1TMC1    C314341   1.071   3.938  13.612  0.2142 -0.6235 -1.0668
    1TMC1    C414342   1.129   4.197  13.596  0.1209 -0.4289 -0.4374
    1TMC1    C514343   0.998   4.157  13.570 -0.3458 -0.3023 -0.0653
    1TMC1    C614344   0.965   4.023  13.585 -0.4569  0.1616  0.5691
    1TMC1     C14345   1.362   4.164  13.648 -0.4318  0.6039  0.0961
    1TMC1     O14346   1.374   4.277  13.691  0.5191  0.5798  0.4317
    1TMC1     H14347   1.272   3.899  13.673 -0.6220 -1.1762  0.2166
    1TMC1    H114348   1.162   4.300  13.589 -2.7660  0.5031 -0.7312
    1TMC1    H214349   0.870   3.977  13.560 -0.6806  1.2519 -0.5915
    1TMC1    C714350   0.899   4.255  13.530  0.4226 -0.2846 -0.5575
    1TMC1    C814351   1.040   3.805  13.642 -0.1410 -0.4038  0.6293
    1TMC1    O114352   0.781   4.236  13.545 -0.2503  0.3240 -0.0948
    1TMC1    O214353   1.117   3.711  13.624 -0.7033  0.6969 -0.3152
    1TMC1    O314354   0.951   4.358  13.458 -0.0568 -0.2030  0.4475
    1TMC1    H314355   1.043   4.347  13.425 -0.4244  0.3117 -0.7315
    1TMC1    O514356   0.954   3.816  13.740 -0.2983 -0.6584 -0.3265
    1TMC1    H514357   0.904   3.898  13.762  0.6323 -0.8997  2.6321
    2MPD2     C14358   1.670   3.998  13.555  0.1481 -0.5012 -0.2193
    2MPD2    C114359   1.598   4.097  13.612 -0.3770  0.1878 -0.0156
    2MPD2    C214360   1.654   4.200  13.684 -0.0518 -0.1264  0.0091
    2MPD2    C314361   1.794   4.194  13.689 -0.1833  0.2629  0.7490
    2MPD2    C414362   1.868   4.091  13.638  0.2430  0.0675 -0.0906
    2MPD2    C514363   1.800   3.991  13.576 -0.0724  0.2658 -0.5846
    2MPD2     H14364   1.604   4.287  13.725  2.4347  1.3866 -0.1836
    2MPD2    H114365   1.976   4.087  13.634  0.2212 -1.6154  1.0813
    2MPD2    H214366   1.618   3.919  13.503 -0.6195 -0.8942  1.1487
    2MPD2    H314367   1.852   3.906  13.532 -0.4327  0.4366 -1.3491
    2MPD2     N14368   1.865   4.300  13.750  0.8276  0.2896  0.2094
    2MPD2    H514369   1.795   4.359  13.793  2.5441  2.0131  0.6344
    2MPD2    N114370   1.461   4.081  13.589 -0.0650 -0.4330 -0.0549
    2MPD2    H714371   1.432   3.997  13.541  1.2039 -1.4956  1.0281
    3TCq1    O114372   2.336   4.382  14.070  0.4859  0.0484  0.3995
    3TCq1    C114373   2.324   4.510  14.055  0.5031  0.8617 -0.0855
    3TCq1    O214374   2.344   4.601  14.138  0.1022  0.6230 -0.1763
    3TCq1    C214375   2.193   4.520  13.982 -0.7258 -0.1729  0.1167
    3TCq1    C314376   2.095   4.588  14.046 -1.0333  1.5209 -1.2729
    3TCq1    C414377   1.967   4.576  14.005  0.7666  0.2237 -0.7813
    3TCq1    C514378   1.933   4.514  13.893  0.0111  0.6775 -0.7011
    3TCq1    C614379   2.040   4.450  13.821 -0.8295  0.3559 -0.1289
    3TCq1    C714380   2.171   4.452  13.864 -0.0990 -0.3958  0.2576
    3TCq1    C814381   1.999   4.336  13.742 -0.1787  0.4009 -0.3787
    3TCq1    O414382   2.095   4.285  13.684 -0.1149 -0.5971 -0.2850
    3TCq1    C914383   1.861   4.633  14.083  0.0536  0.3115  0.5795
    3TCq1    O514384   1.761   4.558  14.095 -0.3757 -0.0814 -0.4934
    3TCq1    O614385   1.885   4.726  14.160  0.1085 -0.0170 -0.4756
    3TCq1    H114386   2.288   4.330  14.001 -1.6860  0.9317  1.2301
    3TCq1    H214387   2.123   4.653  14.128  2.8300 -1.4579 -0.1882
    3TCq1    H314388   1.829   4.495  13.867  0.0812 -1.0165  0.2726
    3TCq1    H414389   2.255   4.399  13.820  0.2319 -0.6344  1.1755
    1MPD2     C14390   0.413   0.836  15.265 -0.9250  0.1680  0.9796
    1MPD2    C114391   0.313   0.746  15.239 -0.0383  0.6073  0.1871
    1MPD2    C214392   0.336   0.607  15.257  0.0450  0.5205 -0.0639
    1MPD2    C314393   0.450   0.560  15.313  0.2946 -0.1195  0.2223
    1MPD2    C414394   0.550   0.651  15.334 -0.0368  0.7024 -0.6725
    1MPD2    C514395   0.530   0.787  15.317 -0.4065  0.5159 -0.2058
    1MPD2     H14396   0.257   0.535  15.241  0.5064  0.0260 -0.1082
    1MPD2    H114397   0.646   0.623  15.376 -0.6196 -1.1632 -0.5666
    1MPD2    H214398   0.392   0.941  15.250  0.1996  0.3836  0.9453
    1MPD2    H314399   0.614   0.849  15.347 -0.2079  0.4003 -0.5286
    1MPD2     N14400   0.470   0.424  15.359 -0.0099 -0.5244 -0.8728
    1MPD2    H514401   0.558   0.397  15.401  0.5289  1.9400 -0.4383
    1MPD2    N114402   0.193   0.804  15.188  0.0371  0.1251  0.1889
    1MPD2    H714403   0.173   0.900  15.215 -0.1128  0.2951 -0.5273
    2TMC3    C114404   4.710   0.798  15.166  0.6726 -0.5553  0.6064
    2TMC3    C214405   4.626   0.722  15.244  0.3062  0.6608 -0.0029
    2TMC3    C314406   4.495   0.727  15.215 -0.1920 -0.3675  0.1151
    2TMC3    C414407   4.667   0.890  15.076  0.2522  0.0984 -0.3200
    2TMC3    C514408   4.533   0.887  15.047 -0.5632  0.8083  0.2069
    2TMC3    C614409   4.444   0.809  15.115  0.1178 -0.1826  0.4678
    2TMC3     C14410   0.090   0.728  15.136 -0.7269  0.2478 -1.2453
    2TMC3     O14411   0.079   0.620  15.091 -0.1366  0.3297  0.3863
    2TMC3     H14412   4.667   0.648  15.312  1.7450  1.0829 -0.3980
    2TMC3    H114413   4.735   0.934  15.005 -0.1993 -0.0059 -0.8163
    2TMC3    H214414   4.339   0.823  15.092  0.4471  0.8413 -0.4244
    2TMC3    C714415   4.471   0.946  14.935  0.1465  0.8046 -0.1158
    2TMC3    C814416   4.435   0.590  15.214 -0.2782 -0.7989  0.2162
    2TMC3    O114417   4.384   0.891  14.872 -0.0876 -0.2333 -0.0353
    2TMC3    O214418   4.350   0.575  15.124  0.7805 -0.1281  0.6802
    3TCq1    O114419   0.158   1.680  14.132 -0.3534 -0.0861 -0.5104
    3TCq1    C114420   0.194   1.762  14.231  1.0279  0.0335 -1.0016
    3TCq1    O214421   0.240   1.878  14.218  0.1397  0.0904 -0.3785
    3TCq1    C214422   0.148   1.700  14.355  0.5613  0.1925  0.1401
    3TCq1    C314423   0.223   1.724  14.463  0.1298 -0.1230  0.1694
    3TCq1    C414424   0.174   1.702  14.590  0.3591  0.0233  0.0085
    3TCq1    C514425   0.053   1.640  14.607  0.8407  0.1714  0.5309
    3TCq1    C614426   4.718   1.618  14.492  0.0333 -0.0610  1.2605
    3TCq1    C714427   0.019   1.650  14.368  0.0514 -0.5115 -0.4014
    3TCq1    C814428   4.608   1.527  14.501 -0.9076  0.5186 -0.3967
    3TCq1    O414429   4.528   1.525  14.410  0.6241 -0.0532 -0.3692
    3TCq1    C914430   0.250   1.738  14.707  1.0602 -0.1563  0.5091
    3TCq1    O514431   0.363   1.788  14.684  0.0623 -0.1978  0.0506
    3TCq1    O614432   0.201   1.704  14.822 -0.3026 -0.5875  0.0977
    3TCq1    H114433   0.108   1.605  14.170 -0.2313  1.3265  2.4255
    3TCq1    H214434   0.318   1.768  14.436  0.0101 -0.4697 -0.7826
    3TCq1    H314435   0.018   1.604  14.703  1.9147  1.3799  1.3779
    3TCq1    H414436   4.684   1.640  14.287  1.4009 -2.4976 -1.3450
    4MPD2     C14437   4.410   1.313  14.586 -0.0622  0.6039 -0.0328
    4MPD2    C114438   4.536   1.326  14.641  0.4516  0.2362  0.2753
    4MPD2    C214439   4.578   1.233  14.734 -0.3601 -0.3466  0.4022
    4MPD2    C314440   4.493   1.134  14.777  0.1146  0.3538  0.7491
    4MPD2    C414441   4.363   1.133  14.721  0.6509 -1.0649 -0.3944
    4MPD2    C514442   4.321   1.226  14.640  0.6956 -0.0345 -0.0976
    4MPD2     H14443   4.680   1.243  14.770 -0.5403 -1.7345  1.2607
    4MPD2    H114444   4.284   1.074  14.766 -0.5699  1.5009  0.8654
    4MPD2    H214445   4.374   1.374  14.504 -1.8912  1.5634  1.4778
    4MPD2    H314446   4.219   1.220  14.605  0.1942 -1.0902  1.5443
    4MPD2     N14447   4.540   1.050  14.885  0.0232  0.2995 -0.1756
    4MPD2    H514448   4.629   1.084  14.919  0.3765  0.4570 -1.2787
    4MPD2    N114449   4.627   1.425  14.594 -0.0757  0.8888 -0.4108
    4MPD2    H714450   4.721   1.414  14.632 -0.9021 -3.4871  0.4181
    5TMC2    C114451   0.215   0.108  15.518  0.1140  0.0775  0.1348
    5TMC2    C214452   0.248   0.141  15.647 -0.2062 -0.1286  0.2333
    5TMC2    C314453   0.371   0.195  15.659 -0.4883 -0.3216  0.0419
    5TMC2    C414454   0.290   0.128  15.410  0.6190 -0.6219  0.6084
    5TMC2    C514455   0.400   0.202  15.424  0.4963  0.3931 -0.5257
    5TMC2    C614456   0.444   0.230  15.551 -0.3579  0.5306  0.0024
    5TMC2     C14457   0.068   0.129  15.494 -0.3808  0.1556  0.1925
    5TMC2     O14458   0.018   0.203  15.573 -0.5707  0.0693 -0.2171
    5TMC2     H14459   0.167   0.118  15.715 -0.1120  1.0014  0.7255
    5TMC2    H114460   0.253   0.107  15.310  1.8017  1.7298 -0.3504
    5TMC2    H214461   0.535   0.288  15.561 -0.5259  1.0617 -1.5227
    5TMC2    C714462   0.384   0.319  15.343 -0.1706  0.0272 -0.2207
    5TMC2    C814463   0.418   0.241  15.787 -0.6018  0.4179  0.3420
    5TMC2    O114464   0.283   0.324  15.274  0.1949  0.3880 -0.6293
    5TMC2    O214465   0.538   0.267  15.807 -0.4768 -0.1447 -0.4907
    5TMC2    O514466   0.350   0.169  15.872  0.7367  0.2819 -0.3780
    5TMC2    H514467   0.257   0.153  15.847 -0.0286  2.6949  0.9377
    6MPD2     C14468   4.484   0.308  15.137 -0.3990 -0.0183 -0.0212
    6MPD2    C114469   4.526   0.367  15.254 -0.7431  0.0457  0.2132
    6MPD2    C214470   4.622   0.298  15.331  0.3873  0.4406  0.0501
    6MPD2    C314471   4.660   0.169  15.302  0.1374 -0.0789  0.3045
    6MPD2    C414472   4.605   0.115  15.190  0.1331 -0.5761  0.0179
    6MPD2    C514473   4.520   0.181  15.104  0.1837 -0.1430  0.2231
    6MPD2     H14474   4.667   0.335  15.422  1.1897 -1.8487  0.5657
    6MPD2    H114475   4.633   0.015  15.158 -0.8430 -0.3414 -1.5418
    6MPD2    H214476   4.413   0.355  15.070  0.5522  2.1475  0.4737
    6MPD2    H314477   4.485   0.124  15.018  0.2416 -4.5084  3.0715
    6MPD2     N14478   0.031   0.106  15.365  0.2157 -0.6252  0.2244
    6MPD2    H514479   0.078   0.029  15.318  0.8761  1.3145 -2.3082
    6MPD2    N114480   4.501   0.500  15.294  0.4921  0.0729 -0.6934
    6MPD2    H714481   4.559   0.536  15.369  0.1700 -1.7901  0.4173
  945NH4     N114482   2.329   3.446  17.035 -0.1296  0.0609  0.0644
  945NH4     H214483   2.262   3.382  16.988 -0.4561 -2.5463  4.1195
  945NH4     H314484   2.397   3.393  17.093  1.5173  0.4407 -1.5115
  945NH4     H414485   2.279   3.497  17.110  0.9560 -0.4095  1.1011
  945NH4     H514486   2.368   3.510  16.962  0.2087  1.2060  1.2452
  946SOD     NA14487   4.263   0.243  12.799  0.1880 -0.5361  0.8565
  947SOD     NA14488   3.705   1.884  15.598 -0.0220 -0.5149  0.0655
  948SOD     NA14489   2.004   1.744  14.870 -0.4207  0.1430 -0.0721
  949SOD     NA14490   1.776   4.092  16.769  0.0066  0.1478 -0.0185
  950SOD     NA14491   4.355   0.738  14.725  0.1946 -0.1342  0.2768
  951SOD     NA14492   2.041   3.220   8.759  0.1235 -0.1313 -0.1114
  952SOD     NA14493   0.523   0.261   6.512  0.5904  0.0381  0.1772
  953SOL     OW14494   1.466   2.126   6.690  0.3034  0.2667  0.5857
  953SOL    HW114495   1.430   2.171   6.766 -3.7875 -0.5972 -0.8280
  953SOL    HW214496   1.414   2.046   6.699  1.7852 -0.9504 -1.5804
  954SOL     OW14497   3.212   0.501   7.401  0.3904  0.4177  0.1881
  954SOL    HW114498   3.125   0.518   7.365  1.2467  2.6078 -0.8172
  954SOL    HW214499   3.194   0.466   7.489 -0.3077 -2.2307 -1.0059
  955SOL     OW14500   3.917   0.266   0.719  0.0028  0.3196  0.0795
  955SOL    HW114501   4.009   0.239   0.721 -0.2781 -0.5753  1.1087
  955SOL    HW214502   3.874   0.180   0.723  0.4324  0.1111  0.2245
  956SOL     OW14503   4.588   4.302   3.458 -0.1130 -0.4564  0.6692
  956SOL    HW114504   4.665   4.262   3.417  0.7087 -0.5533  2.3120
  956SOL    HW214505   4.589   4.393   3.429 -2.5137  0.1008  2.3692
  957SOL     OW14506   2.138   1.785   9.295  0.1407 -0.0621 -0.0536
  957SOL    HW114507   2.214   1.841   9.282  0.8973 -1.3283 -1.0602
  957SOL    HW214508   2.103   1.784   9.206 -2.0549  1.7263  0.7622
  958SOL     OW14509   1.399   3.305   6.613  0.1848  0.0305  0.1926
  958SOL    HW114510   1.435   3.261   6.691  3.1195  0.6002 -0.8537
  958SOL    HW214511   1.466   3.284   6.549  0.7468  1.8756  0.1816
  959SOL     OW14512   4.715   1.331   1.177  0.0784 -0.1706  0.5954
  959SOL    HW114513   0.036   1.382   1.233  2.1775 -1.9940  0.0518
  959SOL    HW214514   4.690   1.405   1.121 -0.7713 -1.6343 -0.9910
  960SOL     OW14515   4.363   2.294  16.230 -0.1312 -0.0146  0.6263
  960SOL    HW114516   4.342   2.383  16.203 -0.3359 -0.0446  0.6839
  960SOL    HW214517   4.316   2.288  16.313  0.6004  0.4065  1.0727
  961SOL     OW14518   1.787   4.445   6.831 -0.0809  0.3523 -0.0306
  961SOL    HW114519   1.826   4.408   6.910 -0.5179  0.0925  0.0598
  961SOL    HW214520   1.865   4.423   6.779 -0.5311  3.5713 -2.0836
  962SOL     OW14521   2.835   2.775   3.690 -0.1507 -0.9609 -0.3522
  962SOL    HW114522   2.901   2.744   3.752  0.7824 -0.6335 -1.1835
  962SOL    HW214523   2.765   2.710   3.696 -1.7137  1.0434  3.0021
  963SOL     OW14524   4.539   1.351   6.573  0.2033 -0.4911  0.2882
  963SOL    HW114525   4.590   1.283   6.529 -0.3697 -0.2993 -0.6684
  963SOL    HW214526   4.486   1.390   6.503 -2.7129 -2.1581  1.5481
  964SOL     OW14527   0.598   4.454   4.325  0.1256  0.3764  0.2985
  964SOL    HW114528   0.630   4.435   4.414  2.0624  0.9990 -0.2615
  964SOL    HW214529   0.635   4.385   4.269 -2.5998  1.2067 -2.5156
  965SOL     OW14530   2.778   3.193  16.830 -0.0168 -0.2788  0.1311
  965SOL    HW114531   2.707   3.134  16.804 -0.6069  0.6695 -0.4302
  965SOL    HW214532   2.728   3.269  16.799  2.3338  1.1253 -0.1591
  966SOL     OW14533   1.827   2.926   3.309  0.1290  0.4239  0.1670
  966SOL    HW114534   1.835   2.836   3.342  1.8398 -0.2396 -2.0838
  966SOL    HW214535   1.882   2.978   3.368 -0.3749  1.5764 -0.3810
  967SOL     OW14536   2.838   3.714   8.970  0.0283  0.8754  0.8474
  967SOL    HW114537   2.749   3.715   8.935 -0.5496 -1.4838  2.1758
  967SOL    HW214538   2.841   3.800   9.012 -0.7183  0.8282  0.9931
  968SOL     OW14539   0.202   1.895   8.176 -0.3665 -0.0464  0.0179
  968SOL    HW114540   0.243   1.887   8.090 -0.1525 -0.4573  0.1555
  968SOL    HW214541   0.247   1.825   8.225 -0.4998  0.1395  0.4057
  969SOL     OW14542   1.583   3.119  14.634  0.5788  0.1617 -0.1464
  969SOL    HW114543   1.587   3.146  14.543 -1.2398  0.8474 -0.0242
  969SOL    HW214544   1.663   3.162  14.664  0.8501 -0.3394 -0.1517
  970SOL     OW14545   3.350   0.072   3.616 -0.0907 -0.3391  0.2851
  970SOL    HW114546   3.440   0.049   3.594  0.3424  0.5485  1.1127
  970SOL    HW214547   3.347   0.166   3.597 -2.3454 -0.6888 -1.1082
  971SOL     OW14548   2.500   0.416   4.647 -0.1504  0.2722 -0.0046
  971SOL    HW114549   2.561   0.361   4.597  0.9733  0.0324  1.6296
  971SOL    HW214550   2.538   0.500   4.623  1.4085 -0.8604 -1.5129
  972SOL     OW14551   0.153   1.108   8.418 -0.4636 -0.1201  0.8944
  972SOL    HW114552   0.215   1.176   8.448  0.8150 -2.1209  2.7574
  972SOL    HW214553   0.204   1.071   8.346  0.3004  0.2518  1.2402
  973SOL     OW14554   0.661   0.089   5.679 -0.5065 -0.4360 -0.4594
  973SOL    HW114555   0.734   0.114   5.622 -0.0688  0.5625  0.5225
  973SOL    HW214556   0.628   0.177   5.699  0.8234 -0.8116  3.4416
  974SOL     OW14557   3.844   1.962   7.670 -0.5440  0.0671  0.0967
  974SOL    HW114558   3.897   2.028   7.625  0.6070 -0.0719  1.2257
  974SOL    HW214559   3.756   1.978   7.635 -1.0375  0.4142  1.5062
  975SOL     OW14560   1.583   3.081   9.321  0.7108  0.3128  0.1074
  975SOL    HW114561   1.528   3.015   9.279 -1.2684  1.3409  1.0912
  975SOL    HW214562   1.621   3.032   9.394  1.6622  0.8919  0.0014
  976SOL     OW14563   2.770   4.650   9.949 -0.3026  0.7129  0.2480
  976SOL    HW114564   2.824   4.662   9.871 -1.3653  0.9702 -0.4399
  976SOL    HW214565   2.794   4.730   9.995 -1.1617  0.9357  0.2987
  977SOL     OW14566   0.229   1.132  10.356  0.2128 -0.3964 -0.2230
  977SOL    HW114567   0.311   1.135  10.405 -0.1509  2.4713  0.1818
  977SOL    HW214568   0.183   1.203  10.399  2.2967  1.6077 -1.3131
  978SOL     OW14569   2.817   1.138   8.913  0.0570 -0.2976  0.0464
  978SOL    HW114570   2.843   1.211   8.968  0.3165  0.5759 -1.2266
  978SOL    HW214571   2.763   1.175   8.843  1.3718  0.1664 -0.7278
  979SOL     OW14572   3.646   1.528   9.799  0.4362 -0.8277 -0.3688
  979SOL    HW114573   3.582   1.537   9.729 -0.6312  1.7184  0.9615
  979SOL    HW214574   3.694   1.610   9.789  1.5680 -1.4297  0.1019
  980SOL     OW14575   0.491   4.413   8.397 -0.4672  0.0157  0.2000
  980SOL    HW114576   0.446   4.393   8.479  0.3130  1.3631  0.9425
  980SOL    HW214577   0.449   4.353   8.335 -1.3305  0.2301  0.5820
  981SOL     OW14578   3.034   2.652   2.711  0.0454  0.1659 -0.2778
  981SOL    HW114579   3.111   2.682   2.761  0.3142 -1.4920  0.2961
  981SOL    HW214580   3.069   2.601   2.638 -0.6442 -3.0207  1.6217
  982SOL     OW14581   1.682   0.646   5.100 -0.5253  0.2663  0.3184
  982SOL    HW114582   1.763   0.595   5.102 -1.0872 -0.5797  1.6852
  982SOL    HW214583   1.725   0.731   5.092 -2.6035  1.4414  1.6292
  983SOL     OW14584   0.176   1.982   4.424  0.2276 -0.4020 -0.6115
  983SOL    HW114585   0.126   1.962   4.345 -2.0942  1.8993  0.2910
  983SOL    HW214586   0.144   1.921   4.491  0.7645 -0.6058 -0.5379
  984SOL     OW14587   1.003   1.717   4.321  0.0001 -0.8537  0.3082
  984SOL    HW114588   0.996   1.792   4.380  0.6458 -1.7177  1.4920
  984SOL    HW214589   0.945   1.744   4.250 -0.9816 -0.6303  1.1896
  985SOL     OW14590   4.155   3.879   3.254  0.2000  0.3852 -0.2060
  985SOL    HW114591   4.085   3.853   3.313  1.5526 -0.5071  1.0151
  985SOL    HW214592   4.211   3.802   3.268 -1.2916 -0.4865  0.8910
  986SOL     OW14593   3.198   3.985  13.070  0.1767  0.3600 -0.3294
  986SOL    HW114594   3.187   3.895  13.041  0.0940  0.4091 -0.4504
  986SOL    HW214595   3.201   3.958  13.162  1.0769  1.1737 -0.1167
  987SOL     OW14596   0.064   2.626   4.603 -0.3605  0.1008  0.2996
  987SOL    HW114597   0.016   2.669   4.673 -0.2714  1.8082 -0.7072
  987SOL    HW214598   0.035   2.536   4.620  0.4040  0.4220  3.2045
  988SOL     OW14599   1.400   2.850   7.353 -0.3133  0.1788  0.1963
  988SOL    HW114600   1.446   2.934   7.355  0.5176 -0.2615 -0.3924
  988SOL    HW214601   1.447   2.799   7.287  2.3742  1.6675  0.9531
  989SOL     OW14602   2.673   0.220   6.679 -0.5241 -0.3121 -0.0321
  989SOL    HW114603   2.584   0.242   6.706 -0.3866  2.4419 -1.8714
  989SOL    HW214604   2.714   0.301   6.649 -0.5282 -0.6394 -0.9098
  990SOL     OW14605   2.751   3.664   8.066 -0.0942 -0.2864  0.5077
  990SOL    HW114606   2.665   3.685   8.031  0.1650 -2.2436 -1.2792
  990SOL    HW214607   2.814   3.680   7.996 -0.6500  1.1682  0.3458
  991SOL     OW14608   3.638   2.181  16.931  0.4291  0.5311 -0.3383
  991SOL    HW114609   3.700   2.200  17.002  1.0771 -1.6137 -0.3433
  991SOL    HW214610   3.623   2.273  16.909  3.9755  0.7601 -1.6437
  992SOL     OW14611   2.200   4.678   2.867 -0.2639  0.5363  0.0616
  992SOL    HW114612   2.254   4.657   2.943  1.2860  0.3867 -1.0747
  992SOL    HW214613   2.194   0.035   2.875  4.0602  0.9185 -1.6597
  993SOL     OW14614   1.737   1.855  11.265  0.5865  0.0928  0.5048
  993SOL    HW114615   1.692   1.889  11.342 -0.8202 -1.5742  0.4273
  993SOL    HW214616   1.813   1.839  11.321  1.4976  0.5080 -0.6123
  994SOL     OW14617   0.630   3.516   1.967 -0.1081 -0.4273 -0.1925
  994SOL    HW114618   0.632   3.450   1.897  2.2350  0.1239 -0.6462
  994SOL    HW214619   0.537   3.530   1.984 -0.1701 -0.1224 -0.7559
  995SOL     OW14620   3.854   3.196  15.425  0.2993  0.4072  0.4617
  995SOL    HW114621   3.932   3.171  15.474 -2.7063 -1.9797  3.9640
  995SOL    HW214622   3.884   3.262  15.362  0.6161 -0.6044 -0.4502
  996SOL     OW14623   2.918   4.261   4.271 -0.4497  0.4105 -0.3394
  996SOL    HW114624   2.979   4.266   4.197 -1.4955 -2.6705 -1.4252
  996SOL    HW214625   2.966   4.291   4.348 -3.9833  0.3929  1.8958
  997SOL     OW14626   3.278   1.368   4.915 -0.2158  0.1472 -0.2072
  997SOL    HW114627   3.348   1.414   4.961  0.5763 -0.7579 -0.5066
  997SOL    HW214628   3.319   1.372   4.829  2.5176  1.5174  1.1474
  998SOL     OW14629   3.223   2.889  12.342  0.1246 -0.2591  0.6629
  998SOL    HW114630   3.209   2.807  12.389 -0.6628 -0.8671 -0.6476
  998SOL    HW214631   3.231   2.847  12.257 -0.4406 -0.2338  0.5993
  999SOL     OW14632   0.477   1.140  10.195  0.6822  0.4093  0.0072
  999SOL    HW114633   0.469   1.234  10.211  1.1640  0.6059 -0.9225
  999SOL    HW214634   0.495   1.115  10.286 -0.0198  3.3540  0.9635
 1000SOL     OW14635   3.895   1.901  15.435  0.0745  0.5847 -0.0105
 1000SOL    HW114636   3.887   1.825  15.377  1.5942  0.1011  0.4207
 1000SOL    HW214637   3.989   1.916  15.426  0.0318  2.1799  2.3322
 1001SOL     OW14638   2.570   2.274   8.639  0.0502 -0.1402  0.1113
 1001SOL    HW114639   2.597   2.358   8.601  0.5404  0.1082  1.0026
 1001SOL    HW214640   2.639   2.260   8.704  0.0527  0.1279  0.1689
 1002SOL     OW14641   3.677   0.189   5.202  0.6405 -0.7157  0.3757
 1002SOL    HW114642   3.743   0.121   5.188  0.3420 -0.9098 -0.0911
 1002SOL    HW214643   3.733   0.266   5.208 -0.7016  0.4117 -1.7759
 1003SOL     OW14644   4.165   3.807  11.707  0.6069  0.4604 -0.0087
 1003SOL    HW114645   4.125   3.738  11.653 -1.8997  0.4784  1.8096
 1003SOL    HW214646   4.087   3.827  11.758  0.1299  3.5612 -1.9296
 1004SOL     OW14647   1.892   0.312   0.593  0.4179  0.4027 -0.3509
 1004SOL    HW114648   1.827   0.378   0.616  0.9686  0.5942  0.7021
 1004SOL    HW214649   1.879   0.251   0.666 -2.5146  0.3252 -0.9568
 1005SOL     OW14650   0.455   3.790   7.772 -0.6427 -0.2544  0.6264
 1005SOL    HW114651   0.470   3.699   7.799 -1.0596 -0.0943  1.3969
 1005SOL    HW214652   0.499   3.837   7.842 -0.4050 -0.4419  0.6055
 1006SOL     OW14653   2.288   4.425  10.171  0.5419  0.1083 -0.1964
 1006SOL    HW114654   2.233   4.499  10.144  1.5699  0.7866 -0.4345
 1006SOL    HW214655   2.277   4.420  10.266  0.1231  1.7383 -0.1553
 1007SOL     OW14656   3.173   2.357   3.836 -0.2613  0.2945  0.1318
 1007SOL    HW114657   3.146   2.381   3.925 -0.4222  0.2735  0.0894
 1007SOL    HW214658   3.248   2.299   3.848  0.7197  1.0717 -2.2146
 1008SOL     OW14659   0.457   3.556  12.389  0.1387 -0.0434  0.2816
 1008SOL    HW114660   0.547   3.554  12.421  0.1511 -0.3464  0.2289
 1008SOL    HW214661   0.423   3.486  12.445 -1.0207  0.1143 -0.2235
 1009SOL     OW14662   1.465   3.612  13.629 -0.8183 -0.2664  0.2163
 1009SOL    HW114663   1.429   3.527  13.604  0.6597 -0.9760  0.5175
 1009SOL    HW214664   1.451   3.660  13.547  1.3832 -0.8778 -0.5143
 1010SOL     OW14665   3.711   1.216   3.541 -0.0447  0.5435  0.1132
 1010SOL    HW114666   3.736   1.208   3.448 -0.8097 -0.4776  0.0031
 1010SOL    HW214667   3.617   1.200   3.540  0.4199 -2.2632  0.5080
 1011SOL     OW14668   1.301   0.328   4.141 -0.0991  0.3102 -0.0713
 1011SOL    HW114669   1.222   0.369   4.106 -0.3405  0.2533  0.4126
 1011SOL    HW214670   1.292   0.241   4.103  0.6772  0.8480 -1.4845
 1012SOL     OW14671   1.405   1.750   7.058  0.5125 -0.4264  0.0435
 1012SOL    HW114672   1.471   1.752   6.989  0.0712 -0.1728 -0.3698
 1012SOL    HW214673   1.364   1.673   7.020  0.9913 -0.4706 -0.3827
 1013SOL     OW14674   4.175   1.301   6.343 -0.4271  0.3633  0.2565
 1013SOL    HW114675   4.207   1.219   6.381  0.5560  0.2404 -0.8430
 1013SOL    HW214676   4.258   1.339   6.314 -0.9253  1.1205 -0.1764
 1014SOL     OW14677   4.262   0.987   2.619 -1.0379 -0.5708 -0.2785
 1014SOL    HW114678   4.262   0.898   2.585 -1.3422 -0.8866  0.5407
 1014SOL    HW214679   4.172   1.003   2.591 -0.9805 -2.4591 -1.5602
 1015SOL     OW14680   0.779   2.967   5.068  0.3853  0.5118  0.0750
 1015SOL    HW114681   0.840   3.037   5.046 -0.4934  1.0049 -0.7851
 1015SOL    HW214682   0.700   2.993   5.019  0.4773  0.0723 -0.3033
 1016SOL     OW14683   3.305   0.309  15.163 -0.1699 -0.0178 -0.1423
 1016SOL    HW114684   3.366   0.383  15.174 -1.2482  0.8725 -0.1921
 1016SOL    HW214685   3.223   0.354  15.179  0.3140  1.3083 -1.4540
 1017SOL     OW14686   2.801   0.440  12.673 -0.5763 -0.0152  0.1223
 1017SOL    HW114687   2.768   0.352  12.660  1.7852 -0.6102 -2.0125
 1017SOL    HW214688   2.802   0.469  12.582  1.4053 -0.6602 -0.0678
 1018SOL     OW14689   0.116   4.554   7.671  0.1346 -0.2592 -0.1635
 1018SOL    HW114690   0.140   4.478   7.724  1.1709  0.1828  0.0081
 1018SOL    HW214691   0.167   4.550   7.591  0.3920  0.2809 -0.0256
 1019SOL     OW14692   0.308   2.405   9.186  0.3416 -0.3268  0.0814
 1019SOL    HW114693   0.227   2.358   9.164  0.1687  0.0914 -0.1796
 1019SOL    HW214694   0.358   2.334   9.227  0.3769  0.9647  2.2589
 1020SOL     OW14695   0.329   1.006   4.751 -0.7635 -0.6360 -0.0181
 1020SOL    HW114696   0.358   1.047   4.670  0.1653  0.6384  0.9817
 1020SOL    HW214697   0.346   0.914   4.729 -1.7157 -1.5208  2.8803
 1021SOL     OW14698   2.636   3.583   7.785 -0.0847  0.1009 -0.0022
 1021SOL    HW114699   2.660   3.576   7.693 -1.5988  0.1848 -0.3920
 1021SOL    HW214700   2.649   3.677   7.790 -0.3246  0.1188  0.2554
 1022SOL     OW14701   4.620   4.578   3.382 -0.6429  0.4871 -0.0169
 1022SOL    HW114702   4.643   4.644   3.447  1.1882 -0.9412  0.7756
 1022SOL    HW214703   4.683   4.588   3.310 -1.0439  1.5887 -0.2030
 1023SOL     OW14704   2.222   2.525   6.978 -0.0818 -0.1016 -0.2298
 1023SOL    HW114705   2.175   2.544   6.897 -0.1513 -1.5859 -0.5395
 1023SOL    HW214706   2.285   2.596   6.991  0.3650 -1.6616  5.8236
 1024SOL     OW14707   1.630   1.413   3.537 -0.0153  0.2366 -0.1213
 1024SOL    HW114708   1.613   1.373   3.452  1.3278  1.0235 -0.7517
 1024SOL    HW214709   1.553   1.469   3.545 -0.4586 -0.1326 -1.8109
 1025SOL     OW14710   0.334   0.986   8.225 -0.4725  0.2397 -0.1340
 1025SOL    HW114711   0.290   1.051   8.170  1.1944  2.4216  1.1053
 1025SOL    HW214712   0.336   0.904   8.176 -0.1977  0.5980 -0.7227
 1026SOL     OW14713   1.751   3.225   6.744 -0.0391  0.4688 -0.4015
 1026SOL    HW114714   1.659   3.237   6.767  0.2701  0.4178  0.9055
 1026SOL    HW214715   1.778   3.173   6.821  1.2899 -0.3986 -1.4458
 1027SOL     OW14716   2.959   2.025   4.840 -0.4227 -0.2596  0.9580
 1027SOL    HW114717   2.884   1.967   4.853 -1.1373  0.2579 -0.8054
 1027SOL    HW214718   3.023   1.953   4.839 -0.2479 -0.1046  0.9205
 1028SOL     OW14719   3.207   1.990  14.686 -0.1479 -0.5336  0.0183
 1028SOL    HW114720   3.281   2.006  14.627  0.9744 -2.5681  0.8808
 1028SOL    HW214721   3.201   1.895  14.681  0.6798 -0.6703  1.4405
 1029SOL     OW14722   0.656   4.121   1.886 -0.2027 -0.1798 -0.4202
 1029SOL    HW114723   0.629   4.029   1.887  2.0132 -0.8144  0.9383
 1029SOL    HW214724   0.751   4.125   1.894 -0.1353  0.0822 -1.3040
 1030SOL     OW14725   2.400   4.149   4.037 -0.1814 -0.3377  0.1970
 1030SOL    HW114726   2.405   4.103   3.953  1.8251 -1.8790  1.1761
 1030SOL    HW214727   2.465   4.219   4.032 -1.4769  0.8811  0.2333
 1031SOL     OW14728   3.445   2.197   4.415 -0.7236 -0.7532  0.6548
 1031SOL    HW114729   3.493   2.173   4.494 -0.3749 -1.5750  0.1912
 1031SOL    HW214730   3.355   2.194   4.446 -0.6559  1.8509  1.0664
 1032SOL     OW14731   4.579   1.456   2.878  0.2984 -0.1750 -0.0633
 1032SOL    HW114732   4.641   1.413   2.937 -0.9301  0.8171  1.9178
 1032SOL    HW214733   4.641   1.504   2.824  0.2943  0.1719  0.2457
 1033SOL     OW14734   3.419   0.320   8.250 -0.3535  0.0314 -0.0778
 1033SOL    HW114735   3.334   0.324   8.207  1.0209  2.6979 -2.5453
 1033SOL    HW214736   3.440   0.413   8.253  0.7905 -0.2209 -0.0635
 1034SOL     OW14737   2.233   0.175  13.968  0.1133  0.3356 -0.2698
 1034SOL    HW114738   2.286   0.248  13.937  2.3362 -1.2167 -0.1149
 1034SOL    HW214739   2.186   0.214  14.042  2.0952  1.6736  0.2934
 1035SOL     OW14740   3.863   0.160   6.006 -0.3042 -0.3024 -0.0332
 1035SOL    HW114741   3.904   0.247   6.003  0.1573 -0.5217  0.0895
 1035SOL    HW214742   3.847   0.147   5.913 -0.0715 -2.8909  0.2857
 1036SOL     OW14743   3.095   4.718   3.484  0.0661  0.3220 -0.1601
 1036SOL    HW114744   3.183   0.006   3.514  0.2412  0.1596 -0.5372
 1036SOL    HW214745   3.077   0.049   3.419  0.5511  1.0884  0.5166
 1037SOL     OW14746   3.198   3.554   2.498  0.4327 -0.1510 -0.6838
 1037SOL    HW114747   3.247   3.521   2.423 -1.1563 -1.1993 -1.2622
 1037SOL    HW214748   3.277   3.566   2.551 -0.8820  0.0625  1.2395
 1038SOL     OW14749   3.494   3.988  13.198 -0.1203  0.3287  0.3120
 1038SOL    HW114750   3.488   4.083  13.204  1.9586  0.5011 -0.4411
 1038SOL    HW214751   3.442   3.956  13.272  0.4072  0.0650  0.5622
 1039SOL     OW14752   2.604   1.386   1.521 -0.5490 -0.6232  0.0606
 1039SOL    HW114753   2.698   1.368   1.515 -0.1451  0.7557  2.0255
 1039SOL    HW214754   2.605   1.463   1.579 -0.5930  0.8619 -1.9233
 1040SOL     OW14755   4.385   0.778   6.053  0.2505  0.3821  0.5045
 1040SOL    HW114756   4.392   0.873   6.061  0.1765  0.3203  1.2613
 1040SOL    HW214757   4.311   0.760   6.111 -0.4834 -1.6074 -1.0419
 1041SOL     OW14758   2.992   4.334   3.524  0.1344  0.1779  0.1115
 1041SOL    HW114759   3.028   4.412   3.483  0.6199 -0.3722 -0.5134
 1041SOL    HW214760   3.057   4.271   3.493 -1.1687 -1.0248 -0.1585
 1042SOL     OW14761   0.968   2.049  10.315 -0.8040  0.0798  0.1775
 1042SOL    HW114762   0.995   2.140  10.299 -0.1619 -0.3540 -1.1259
 1042SOL    HW214763   1.025   2.026  10.388  1.3200 -2.3887 -2.3246
 1043SOL     OW14764   4.567   2.612   7.498  0.2079  0.1755  0.4860
 1043SOL    HW114765   4.599   2.594   7.410 -1.6600  0.0884 -0.1873
 1043SOL    HW214766   4.511   2.537   7.519 -0.1570 -0.0709 -1.3432
 1044SOL     OW14767   2.773   3.653   4.220 -0.4293 -0.3165 -0.0216
 1044SOL    HW114768   2.767   3.560   4.197 -1.4354 -0.2091 -0.1946
 1044SOL    HW214769   2.748   3.695   4.138  1.9753 -0.3945 -0.7986
 1045SOL     OW14770   1.752   0.608  14.464 -0.2687 -0.0747 -0.0870
 1045SOL    HW114771   1.808   0.599  14.541 -0.7880  0.3064  0.3356
 1045SOL    HW214772   1.810   0.596  14.389 -2.1565 -2.9631 -1.0474
 1046SOL     OW14773   3.132   0.865  13.028  0.0586  0.0168  0.4613
 1046SOL    HW114774   3.160   0.947  13.066  0.7443  0.0141 -0.0327
 1046SOL    HW214775   3.057   0.890  12.974 -0.5892  2.4276  2.5095
 1047SOL     OW14776   0.877   3.569   7.152 -0.1841 -0.5033 -0.4645
 1047SOL    HW114777   0.941   3.515   7.106 -0.0777 -0.8999  0.1528
 1047SOL    HW214778   0.919   3.566   7.237 -3.2231 -0.0178  1.0754
 1048SOL     OW14779   3.489   2.097   6.040 -0.0829 -0.2250 -0.1007
 1048SOL    HW114780   3.563   2.156   6.027  0.5605 -1.0108 -0.0182
 1048SOL    HW214781   3.437   2.156   6.094 -1.8456 -1.9683  0.0908
 1049SOL     OW14782   2.794   3.425   6.012  0.2492  0.5894  0.3903
 1049SOL    HW114783   2.813   3.475   6.092 -1.4811  0.0064  1.1635
 1049SOL    HW214784   2.865   3.362   6.020  0.0684  0.3927  0.4458
 1050SOL     OW14785   4.717   0.460   7.399  0.3667 -0.5881 -0.7043
 1050SOL    HW114786   4.695   0.533   7.341  1.6532  0.3910  0.0390
 1050SOL    HW214787   0.059   0.491   7.443  0.3239 -1.6576  0.1445
 1051SOL     OW14788   2.461   3.912   2.839 -0.1153 -0.0879  0.3612
 1051SOL    HW114789   2.505   3.839   2.794  0.7764 -0.0929  1.2398
 1051SOL    HW214790   2.428   3.957   2.761  0.1305  0.1330  0.3827
 1052SOL     OW14791   2.437   3.341   2.365 -0.4921  0.3193  0.0871
 1052SOL    HW114792   2.353   3.381   2.344 -0.8878  0.8099  2.5567
 1052SOL    HW214793   2.453   3.310   2.276 -1.2725  0.3652 -0.0738
 1053SOL     OW14794   4.343   1.826   3.578  0.6945 -0.2790  0.3501
 1053SOL    HW114795   4.260   1.795   3.615  0.4915 -0.0240  0.1086
 1053SOL    HW214796   4.362   1.751   3.522  1.1391  0.9389 -1.1182
 1054SOL     OW14797   0.012   2.214   1.413 -0.1556 -0.6258 -0.4329
 1054SOL    HW114798   0.067   2.136   1.417  0.3676 -0.3581 -2.5265
 1054SOL    HW214799   0.053   2.253   1.336 -0.6041  0.1505 -0.2761
 1055SOL     OW14800   0.507   4.593   3.875  0.3175  0.2650  0.5385
 1055SOL    HW114801   0.504   4.509   3.830  0.7917  1.2022 -1.2427
 1055SOL    HW214802   0.414   4.617   3.873  0.4669  0.8723  0.7960
 1056SOL     OW14803   0.592   1.985  13.512  0.1147  0.2573 -0.1562
 1056SOL    HW114804   0.596   2.079  13.532  2.5071 -0.5561  3.1359
 1056SOL    HW214805   0.636   1.993  13.427  1.5820  0.2320  0.5891
 1057SOL     OW14806   4.516   0.524   3.338 -0.2258 -0.3634  0.2012
 1057SOL    HW114807   4.484   0.605   3.377  1.0927 -0.2506  1.0483
 1057SOL    HW214808   4.436   0.492   3.297  0.7647 -1.4098 -0.9378
 1058SOL     OW14809   0.448   2.918  13.362  0.3116  0.5310  0.6871
 1058SOL    HW114810   0.386   2.872  13.418  1.7413 -0.3244  1.5691
 1058SOL    HW214811   0.441   3.007  13.396 -0.1202 -0.8386  4.1653
 1059SOL     OW14812   0.338   4.663  11.738  0.3030  0.0371  0.0610
 1059SOL    HW114813   0.405   4.594  11.734 -0.2128 -0.4902  0.5181
 1059SOL    HW214814   0.351   4.691  11.828  0.5816 -1.6989  0.5607
 1060SOL     OW14815   0.678   1.023   7.591 -0.0370  0.2376  0.1354
 1060SOL    HW114816   0.749   1.087   7.594 -0.1761  0.4455 -1.0960
 1060SOL    HW214817   0.712   0.968   7.521  1.0021 -0.4480  1.1860
 1061SOL     OW14818   4.410   0.419   6.745 -0.0179 -0.1294  0.6034
 1061SOL    HW114819   4.390   0.428   6.838 -1.4513 -0.3707  0.3232
 1061SOL    HW214820   4.495   0.463   6.742  0.3771 -1.1388 -2.7781
 1062SOL     OW14821   2.641   0.370   5.578 -0.1881 -0.0084  0.6734
 1062SOL    HW114822   2.649   0.374   5.482 -1.4043 -1.1764  0.5327
 1062SOL    HW214823   2.557   0.411   5.599 -0.3438  0.5345 -0.9877
 1063SOL     OW14824   3.747   3.648   6.616 -0.4488 -0.3928 -0.8079
 1063SOL    HW114825   3.816   3.597   6.659 -1.1239 -0.6632 -0.0512
 1063SOL    HW214826   3.799   3.722   6.582  1.7142 -1.8060 -0.5735
 1064SOL     OW14827   1.441   0.310  10.360 -0.1466  0.0342 -0.0446
 1064SOL    HW114828   1.410   0.380  10.302 -1.0180 -1.5459 -1.4828
 1064SOL    HW214829   1.392   0.235  10.326 -1.4212 -0.2958  2.4583
 1065SOL     OW14830   2.983   3.527   9.445  0.4822  0.0693  0.2590
 1065SOL    HW114831   2.966   3.551   9.354  2.5460 -1.2794 -0.4515
 1065SOL    HW214832   3.044   3.590   9.483 -2.0056  1.2314  2.3873
 1066SOL     OW14833   0.415   1.135   2.515  0.6740 -0.3739  0.2616
 1066SOL    HW114834   0.490   1.097   2.560  2.1210  1.3609 -0.6753
 1066SOL    HW214835   0.400   1.199   2.584 -3.3317 -4.5818  3.2298
 1067SOL     OW14836   3.520   4.579   9.428 -0.0302  0.3586  0.1617
 1067SOL    HW114837   3.529   4.487   9.450  0.3137  0.4093  0.2474
 1067SOL    HW214838   3.427   4.594   9.412  0.1396  0.6054 -0.6069
 1068SOL     OW14839   0.388   3.200  15.948 -0.1658  0.1474  0.1846
 1068SOL    HW114840   0.483   3.215  15.938 -0.0407 -1.4900 -1.1560
 1068SOL    HW214841   0.348   3.282  15.921 -1.4923 -0.3364  0.7105
 1069SOL     OW14842   1.148   3.914   6.427  0.4594  0.2006 -0.4274
 1069SOL    HW114843   1.222   3.952   6.473 -0.9410  2.4218 -0.0327
 1069SOL    HW214844   1.140   3.974   6.353  0.0409 -0.9477 -1.3250
 1070SOL     OW14845   2.222   3.229   4.320 -0.1032 -0.5134  0.1378
 1070SOL    HW114846   2.146   3.179   4.288  1.4130 -1.9214 -1.2439
 1070SOL    HW214847   2.245   3.178   4.398  0.0853  1.2365  1.2083
 1071SOL     OW14848   0.365   0.883   6.546 -0.2043 -1.0208 -0.1997
 1071SOL    HW114849   0.390   0.795   6.571 -1.6956 -0.7904  2.0468
 1071SOL    HW214850   0.269   0.885   6.545 -0.2248 -2.5931 -1.6186
 1072SOL     OW14851   1.502   2.116   8.601  0.6728  0.7828  0.3179
 1072SOL    HW114852   1.476   2.088   8.689 -0.0524  0.9777  0.1660
 1072SOL    HW214853   1.488   2.210   8.604 -0.2256  0.6243  1.1603
 1073SOL     OW14854   0.405   3.188   5.485  0.5771 -0.1721  0.1276
 1073SOL    HW114855   0.462   3.153   5.416  2.0883  1.2445  0.6305
 1073SOL    HW214856   0.417   3.129   5.559  0.3919  1.9778  1.8603
 1074SOL     OW14857   3.406   1.275   5.989  0.2562  0.2403 -0.1727
 1074SOL    HW114858   3.462   1.257   6.064 -1.0182 -1.4762  0.3733
 1074SOL    HW214859   3.340   1.206   6.000  1.2781 -0.8481 -0.9268
 1075SOL     OW14860   3.495   1.824   2.677 -0.0362  0.0096 -0.3922
 1075SOL    HW114861   3.402   1.820   2.700  0.0459 -1.3247 -0.3145
 1075SOL    HW214862   3.512   1.914   2.707 -1.0347  0.3859 -0.9164
 1076SOL     OW14863   2.949   3.887   3.587 -0.2322 -0.3756  0.2367
 1076SOL    HW114864   2.867   3.917   3.624  0.1322  1.7191 -0.6243
 1076SOL    HW214865   2.963   3.803   3.631 -0.1744  0.2728  1.4526
 1077SOL     OW14866   3.917   0.951   4.154  0.7310 -0.3126  0.6585
 1077SOL    HW114867   3.995   0.896   4.152  1.1842  0.2850  2.0034
 1077SOL    HW214868   3.859   0.897   4.099  0.5402  0.2900  0.2666
 1078SOL     OW14869   4.176   0.402   3.566 -0.2588  0.2214 -0.4804
 1078SOL    HW114870   4.128   0.471   3.611 -1.5045 -0.9902  0.0607
 1078SOL    HW214871   4.125   0.324   3.587  1.8464 -0.9784  0.1468
 1079SOL     OW14872   2.680   0.869   7.199 -0.1643 -0.3450 -0.1707
 1079SOL    HW114873   2.677   0.817   7.119  0.5294 -1.0497  0.2582
 1079SOL    HW214874   2.659   0.958   7.172 -0.8820 -0.1460  1.0474
 1080SOL     OW14875   2.113   3.717   8.734  0.2598  0.1866 -0.2224
 1080SOL    HW114876   2.170   3.683   8.803  0.7462 -2.3757 -1.9106
 1080SOL    HW214877   2.154   3.798   8.703 -0.5465  0.5384 -0.3861
 1081SOL     OW14878   4.607   3.178  15.889  0.1368  0.2165  0.4174
 1081SOL    HW114879   4.650   3.096  15.865  0.1225  0.1140  0.7385
 1081SOL    HW214880   4.542   3.180  15.819  1.1382  1.0193 -0.4883
 1082SOL     OW14881   0.047   2.550   1.334  0.2904  0.1214  0.1949
 1082SOL    HW114882   0.079   2.480   1.277  0.2929 -0.4792  0.9229
 1082SOL    HW214883   4.714   2.587   1.282  0.7457  1.0985  0.2795
 1083SOL     OW14884   1.788   1.241   4.380  0.2706 -0.0828  0.9693
 1083SOL    HW114885   1.730   1.287   4.441 -0.5186  0.1663  0.0268
 1083SOL    HW214886   1.773   1.285   4.296  0.0933 -2.0035 -0.0242
 1084SOL     OW14887   2.920   4.295   0.799  0.0326 -0.4735 -0.0779
 1084SOL    HW114888   2.927   4.276   0.892  1.7474  3.5096  0.6015
 1084SOL    HW214889   3.000   4.346   0.788 -1.1621  1.8941  2.2891
 1085SOL     OW14890   3.712   0.146  16.510  0.0185  0.0077 -0.4691
 1085SOL    HW114891   3.679   0.169  16.423  0.0662  2.5082  0.1613
 1085SOL    HW214892   3.753   0.231  16.525 -0.5036  0.2878 -0.6372
 1086SOL     OW14893   3.769   2.568  10.524  0.3243 -0.2684 -0.1561
 1086SOL    HW114894   3.732   2.628  10.588  2.0961  2.6931 -1.8959
 1086SOL    HW214895   3.714   2.491  10.537  0.3448 -0.3796 -0.7423
 1087SOL     OW14896   3.786   2.432  12.578 -0.3039  0.5845 -0.4035
 1087SOL    HW114897   3.691   2.434  12.575 -0.3299  1.3029  0.7138
 1087SOL    HW214898   3.795   2.385  12.495 -0.9466 -0.6053  0.2038
 1088SOL     OW14899   1.387   0.602   7.078 -0.2522 -0.1672 -0.5163
 1088SOL    HW114900   1.406   0.621   7.170  1.9678  0.4706 -1.1192
 1088SOL    HW214901   1.354   0.515   7.102  0.4893  0.8637  4.2883
 1089SOL     OW14902   2.836   3.473   8.668  0.2444  0.1650  0.0520
 1089SOL    HW114903   2.872   3.468   8.579 -0.9676 -0.3382 -0.4087
 1089SOL    HW214904   2.878   3.556   8.691 -0.7260  0.2995  1.3500
 1090SOL     OW14905   1.460   4.734   1.941 -0.0133  0.4684 -0.4796
 1090SOL    HW114906   1.484   0.004   2.034  1.3476 -0.8652 -0.7299
 1090SOL    HW214907   1.367   0.018   1.940 -0.5010 -1.7003  0.3764
 1091SOL     OW14908   0.968   1.628   2.912 -0.1970 -0.4188 -0.1418
 1091SOL    HW114909   0.975   1.555   2.974 -0.2302  0.2824  0.6859
 1091SOL    HW214910   0.959   1.708   2.964  0.1173 -0.2377 -0.3626
 1092SOL     OW14911   1.551   1.832  14.760  0.0145 -0.4205  0.5790
 1092SOL    HW114912   1.575   1.834  14.853  0.8630  1.1770  0.3296
 1092SOL    HW214913   1.585   1.746  14.737  0.2821 -0.2960  0.5100
 1093SOL     OW14914   2.187   4.488   6.251 -0.9036 -0.4239 -0.1950
 1093SOL    HW114915   2.204   4.469   6.158  0.6155  0.7889 -0.1603
 1093SOL    HW214916   2.188   4.583   6.238 -0.6803 -0.7281 -2.5521
 1094SOL     OW14917   3.056   3.465   6.759  0.1726 -0.4788 -0.0071
 1094SOL    HW114918   3.085   3.409   6.831 -0.2290 -2.2207 -1.1933
 1094SOL    HW214919   3.137   3.501   6.722 -0.1800 -1.0729 -1.3403
 1095SOL     OW14920   0.543   4.081   4.318  0.2407  0.1948  0.0188
 1095SOL    HW114921   0.462   4.074   4.369  0.4370  0.2096  0.3352
 1095SOL    HW214922   0.596   4.128   4.383  1.4559 -1.9270  0.5732
 1096SOL     OW14923   1.623   0.224  14.644  0.3025 -0.7016  0.0256
 1096SOL    HW114924   1.600   0.133  14.663  0.6241 -0.1492  3.0064
 1096SOL    HW214925   1.549   0.268  14.602  0.1945 -0.5469  0.3750
 1097SOL     OW14926   3.262   1.425   3.368  0.4817  0.1324 -0.4411
 1097SOL    HW114927   3.240   1.335   3.393 -1.1998  0.3668 -1.0777
 1097SOL    HW214928   3.324   1.413   3.296  2.4868 -3.0020  1.8114
 1098SOL     OW14929   3.848   2.512  17.351  0.6339 -0.1912  0.5479
 1098SOL    HW114930   3.915   2.444  17.362  0.9030  0.3914  2.5041
 1098SOL    HW214931   3.856   2.547  17.440 -2.3042  1.1647  0.2970
 1099SOL     OW14932   2.249   1.982   2.797  0.3905 -0.0570  0.4833
 1099SOL    HW114933   2.246   2.074   2.821  1.7062  0.6164 -1.9097
 1099SOL    HW214934   2.210   1.939   2.873 -1.4896 -0.3261 -0.6461
 1100SOL     OW14935   0.930   2.500   2.006  0.0894  0.2763  0.2881
 1100SOL    HW114936   1.016   2.464   1.986 -0.0611  0.4603 -0.6658
 1100SOL    HW214937   0.871   2.434   1.972 -1.2293  0.6303  1.8885
 1101SOL     OW14938   4.348   0.283   1.111 -0.5182 -0.3628 -0.2049
 1101SOL    HW114939   4.362   0.259   1.020  1.9897  0.3619 -0.0110
 1101SOL    HW214940   4.263   0.241   1.124  0.0714 -1.2703  0.6704
 1102SOL     OW14941   3.139   0.743   4.330  0.0414  0.1078  0.4059
 1102SOL    HW114942   3.109   0.828   4.360  1.0218  0.0998  1.4453
 1102SOL    HW214943   3.220   0.738   4.381  1.2147 -1.2271 -1.5532
 1103SOL     OW14944   2.134   4.481  13.127 -0.1734  0.2102 -0.6756
 1103SOL    HW114945   2.199   4.550  13.116  1.5002 -1.2791 -0.1181
 1103SOL    HW214946   2.105   4.507  13.215 -0.7945 -1.8904 -0.2364
 1104SOL     OW14947   1.384   4.076   7.320 -0.3689 -0.2134  0.0517
 1104SOL    HW114948   1.422   3.989   7.320 -3.7491 -1.6676 -2.2924
 1104SOL    HW214949   1.317   4.069   7.388  1.5225 -0.9472  1.8421
 1105SOL     OW14950   3.700   4.157   2.914  0.0815 -0.3182 -0.0159
 1105SOL    HW114951   3.762   4.170   2.843  1.5929  0.6314  1.4878
 1105SOL    HW214952   3.734   4.220   2.978  1.3438  1.1742 -2.1754
 1106SOL     OW14953   2.048   3.623   8.486  0.3764  0.6277 -0.0210
 1106SOL    HW114954   1.974   3.681   8.465 -0.9990 -1.2627 -0.4127
 1106SOL    HW214955   2.073   3.659   8.571 -1.6493  0.0699  0.8163
 1107SOL     OW14956   2.024   4.361  15.253  0.9754 -0.2906 -0.2693
 1107SOL    HW114957   2.035   4.297  15.183 -1.5095  0.1897 -1.1218
 1107SOL    HW214958   1.981   4.434  15.208  1.6330 -0.6296 -1.4215
 1108SOL     OW14959   3.199   2.341   2.675 -0.4245 -0.3544 -0.0861
 1108SOL    HW114960   3.224   2.414   2.618 -1.0639 -1.2276 -1.4765
 1108SOL    HW214961   3.104   2.348   2.686 -0.5777  0.5050 -1.8822
 1109SOL     OW14962   3.877   1.793  15.753  0.4247  0.1159  0.2718
 1109SOL    HW114963   3.934   1.857  15.795 -0.6435  0.7456  0.7823
 1109SOL    HW214964   3.897   1.711  15.797  0.5610 -0.8093 -1.4973
 1110SOL     OW14965   4.256   3.139  12.476 -0.4758 -0.1196 -0.1660
 1110SOL    HW114966   4.186   3.121  12.539 -0.6191  2.1959  0.3354
 1110SOL    HW214967   4.215   3.087  12.407 -1.0517  0.4103 -0.2247
 1111SOL     OW14968   4.119   3.647   3.601  1.2815 -0.0107 -0.1697
 1111SOL    HW114969   4.165   3.682   3.677 -1.1037  1.7911  0.4416
 1111SOL    HW214970   4.118   3.555   3.629 -0.1738 -0.2752 -1.0853
 1112SOL     OW14971   1.770   2.940   8.773 -0.4271  0.3553 -0.0054
 1112SOL    HW114972   1.697   2.982   8.818 -1.0908 -0.3283 -0.4343
 1112SOL    HW214973   1.840   2.991   8.813 -1.2724  0.4846  1.3229
 1113SOL     OW14974   4.592   1.481  15.790 -0.4755  0.2940 -0.2009
 1113SOL    HW114975   4.530   1.413  15.816  0.5000 -1.6679 -2.9554
 1113SOL    HW214976   4.677   1.438  15.802  0.4808  2.5566  1.1321
 1114SOL     OW14977   2.020   0.256  15.834  0.1127  0.3106 -0.2518
 1114SOL    HW114978   2.109   0.292  15.825  0.9295 -2.1726 -2.0542
 1114SOL    HW214979   2.032   0.161  15.832 -2.2388 -0.0013  0.7759
 1115SOL     OW14980   4.662   3.634   6.960 -0.1836 -0.1353 -0.3604
 1115SOL    HW114981   4.693   3.628   6.869 -2.3720 -0.2026 -1.1119
 1115SOL    HW214982   4.572   3.615   6.934  0.0409  0.8693 -1.8930
 1116SOL     OW14983   0.288   4.005   5.711 -0.4835  0.0369 -0.0676
 1116SOL    HW114984   0.339   3.937   5.668  1.9746  1.1106  1.1559
 1116SOL    HW214985   0.352   4.076   5.714 -0.8978  0.3993  0.1750
 1117SOL     OW14986   3.890   0.380   2.223 -0.1872 -0.4540 -0.0459
 1117SOL    HW114987   3.870   0.402   2.132  0.7467 -0.0226 -0.1464
 1117SOL    HW214988   3.849   0.453   2.270  1.1292 -0.8914  1.7792
 1118SOL     OW14989   0.432   4.213  15.707  0.3593 -0.7418 -0.7450
 1118SOL    HW114990   0.363   4.276  15.726  1.2846 -1.1339  4.0114
 1118SOL    HW214991   0.420   4.197  15.613 -0.2051  1.1352 -0.9842
 1119SOL     OW14992   1.992   2.548   2.844 -0.1046  0.0707  0.1449
 1119SOL    HW114993   1.913   2.498   2.821 -1.3042  2.9043 -1.9486
 1119SOL    HW214994   2.005   2.579   2.754  0.5141 -1.6217 -0.3578
 1120SOL     OW14995   1.587   2.639   9.708  0.5963 -0.5736  0.1163
 1120SOL    HW114996   1.605   2.611   9.619 -0.3169 -0.6413 -0.0527
 1120SOL    HW214997   1.507   2.687   9.686 -0.7566 -1.3784  3.1844
 1121SOL     OW14998   1.830   0.631   9.017  0.3209  0.5731  0.0209
 1121SOL    HW114999   1.886   0.679   8.956 -1.4251 -0.4871 -2.4302
 1121SOL    HW215000   1.850   0.541   8.989 -0.5286  0.3418  0.1369
 1122SOL     OW15001   4.258   3.697   6.531 -0.3755  0.3959 -0.5382
 1122SOL    HW115002   4.179   3.671   6.579 -0.2648 -1.3903 -1.3301
 1122SOL    HW215003   4.252   3.635   6.458  0.7271  0.9849 -1.1232
 1123SOL     OW15004   3.030   3.138   9.747  0.4890 -0.1778 -0.1559
 1123SOL    HW115005   3.099   3.095   9.797 -0.2384 -1.9036 -0.6579
 1123SOL    HW215006   3.054   3.231   9.744 -3.5332  0.8868  0.2501
 1124SOL     OW15007   4.394   1.247   7.625  0.0979  0.5989 -0.4180
 1124SOL    HW115008   4.400   1.324   7.681 -0.0758 -0.6286  1.2681
 1124SOL    HW215009   4.476   1.258   7.577 -0.3385  3.3381 -0.5208
 1125SOL     OW15010   2.762   3.601   4.495  0.3695  0.3666 -0.4001
 1125SOL    HW115011   2.806   3.618   4.412  0.9063 -0.5057 -0.2970
 1125SOL    HW215012   2.683   3.552   4.470 -0.0161  1.3387 -1.0626
 1126SOL     OW15013   4.604   1.989  16.216  0.1864  0.1390 -0.2371
 1126SOL    HW115014   4.514   2.003  16.185  1.0216  2.2659 -1.7660
 1126SOL    HW215015   4.656   2.029  16.146 -0.5678 -0.3687 -1.0869
 1127SOL     OW15016   2.674   3.183  13.206  0.3843  0.4835 -0.1924
 1127SOL    HW115017   2.595   3.136  13.180  0.5274 -0.9771  1.9347
 1127SOL    HW215018   2.656   3.277  13.203  1.0337  0.5287 -2.7247
 1128SOL     OW15019   0.695   1.339  12.830 -0.1804 -0.4225 -0.0982
 1128SOL    HW115020   0.631   1.276  12.864 -1.8534  1.4304  0.1740
 1128SOL    HW215021   0.748   1.349  12.909  0.8847 -0.2204 -0.8441
 1129SOL     OW15022   0.021   2.975   8.282 -0.2674  0.5118 -0.7246
 1129SOL    HW115023   4.674   2.934   8.301 -0.0170  0.1133 -0.4840
 1129SOL    HW215024   0.001   3.016   8.198 -1.6107 -0.7064 -1.0066
 1130SOL     OW15025   0.054   1.296  10.492  0.0102 -0.0666 -0.1551
 1130SOL    HW115026   4.726   1.248  10.543  0.1737 -0.7909 -0.6303
 1130SOL    HW215027   0.006   1.377  10.474 -1.2058 -1.6602 -4.1090
 1131SOL     OW15028   2.623   3.662   8.618 -0.2906 -0.3467 -0.1186
 1131SOL    HW115029   2.561   3.603   8.576 -1.3244  0.9681 -0.4594
 1131SOL    HW215030   2.685   3.601   8.656 -0.3982  0.4129  1.2775
 1132SOL     OW15031   3.436   2.811   4.367  0.4492  0.3062  0.3197
 1132SOL    HW115032   3.508   2.806   4.304  0.5334  1.0339  0.3596
 1132SOL    HW215033   3.436   2.901   4.399  2.6387  0.5262 -0.2530
 1133SOL     OW15034   1.330   2.012   5.543  0.7540 -0.1215  0.5556
 1133SOL    HW115035   1.351   2.058   5.624 -1.4491 -2.5197  2.4612
 1133SOL    HW215036   1.296   2.078   5.483 -0.3755 -0.4088  0.8938
 1134SOL     OW15037   1.306   1.866  12.318  0.3150 -0.4206  0.3095
 1134SOL    HW115038   1.258   1.802  12.372 -1.0271  0.8171  0.5626
 1134SOL    HW215039   1.311   1.831  12.229  2.7105 -0.1249  0.3445
 1135SOL     OW15040   4.183   0.460  12.873  0.0836  0.2871 -0.5852
 1135SOL    HW115041   4.179   0.494  12.963 -2.9539 -1.4065 -0.0894
 1135SOL    HW215042   4.108   0.502  12.831  0.6515  1.0934 -0.7938
 1136SOL     OW15043   2.909   1.750   2.415 -0.4677  0.2901  0.1182
 1136SOL    HW115044   2.971   1.734   2.344  0.1964  4.7441 -0.2993
 1136SOL    HW215045   2.890   1.843   2.401 -3.8201 -0.4706 -0.4256
 1137SOL     OW15046   1.544   2.062   2.063  0.2145  0.3907 -0.0207
 1137SOL    HW115047   1.467   2.052   2.118 -1.7261  1.4490 -2.4920
 1137SOL    HW215048   1.606   2.119   2.108 -0.4650  0.7208  0.5055
 1138SOL     OW15049   3.779   0.430  14.606 -0.1306 -1.0690 -0.2563
 1138SOL    HW115050   3.742   0.385  14.682  0.8174 -1.0676  0.2054
 1138SOL    HW215051   3.699   0.474  14.577  1.7352  3.0637  0.8773
 1139SOL     OW15052   2.730   0.670   6.987 -0.2683 -0.2782 -0.3207
 1139SOL    HW115053   2.680   0.588   6.985 -1.5924  0.6106 -2.8808
 1139SOL    HW215054   2.714   0.704   6.899 -0.0464  0.8693  0.0778
 1140SOL     OW15055   3.562   2.466   4.000  0.0049  0.0614  0.0886
 1140SOL    HW115056   3.612   2.546   4.015  0.2175  0.4854 -2.8629
 1140SOL    HW215057   3.522   2.455   4.086  0.0950  1.7971  0.3485
 1141SOL     OW15058   2.507   2.640   3.236  0.3212  0.6086 -0.6501
 1141SOL    HW115059   2.431   2.694   3.216 -0.9889 -1.7183 -1.8659
 1141SOL    HW215060   2.475   2.585   3.308 -4.5580  2.4301 -1.4334
 1142SOL     OW15061   3.053   0.895   2.248  0.2053  0.1089 -0.7703
 1142SOL    HW115062   3.118   0.916   2.181 -0.7045  0.8205 -1.4387
 1142SOL    HW215063   3.079   0.960   2.312  0.8247 -1.1725  0.2764
 1143SOL     OW15064   0.958   0.254   5.818  0.3023 -0.0800 -0.0995
 1143SOL    HW115065   0.925   0.186   5.759 -0.3790  0.0908  0.0906
 1143SOL    HW215066   0.877   0.281   5.861  0.4215 -0.0698  0.1181
 1144SOL     OW15067   4.575   2.420   8.689 -0.3444  0.2357 -0.3303
 1144SOL    HW115068   4.655   2.426   8.636  0.7354 -1.0779  1.1293
 1144SOL    HW215069   4.525   2.492   8.651  1.0253  2.3682  1.9139
 1145SOL     OW15070   4.411   2.168   6.170 -0.4540 -0.2569  0.7197
 1145SOL    HW115071   4.352   2.160   6.095  0.6675 -0.0688 -0.1842
 1145SOL    HW215072   4.461   2.248   6.155  0.1239 -0.7059  0.1855
 1146SOL     OW15073   1.176   2.462   7.988 -0.0040 -0.3371 -0.0837
 1146SOL    HW115074   1.098   2.424   8.029 -0.9236  0.6528 -0.9066
 1146SOL    HW215075   1.173   2.424   7.900 -0.8527 -0.9078  0.1870
 1147SOL     OW15076   1.731   2.272   4.860  0.3897 -0.0543  0.2269
 1147SOL    HW115077   1.736   2.319   4.777 -2.3575 -2.7469 -1.4463
 1147SOL    HW215078   1.677   2.198   4.832 -0.3101  0.5833 -0.1044
 1148SOL     OW15079   2.096   3.134   5.543  0.8336  0.0294 -0.2801
 1148SOL    HW115080   2.159   3.199   5.513  0.6904  1.3636  2.3197
 1148SOL    HW215081   2.146   3.076   5.600  1.0249  1.6481  1.1902
 1149SOL     OW15082   0.002   1.174   3.814 -0.2795 -0.0519  0.3352
 1149SOL    HW115083   0.066   1.237   3.847  2.3971 -2.4055 -0.3418
 1149SOL    HW215084   0.049   1.120   3.751  0.4685 -0.6312  1.3945
 1150SOL     OW15085   0.098   3.220   4.947 -0.3265 -0.0949 -0.0742
 1150SOL    HW115086   0.075   3.296   5.000 -1.0864 -1.8465  2.0827
 1150SOL    HW215087   0.051   3.247   4.868  0.7425 -0.7120 -0.9341
 1151SOL     OW15088   2.724   1.794   9.976 -0.4140 -0.2378  0.2327
 1151SOL    HW115089   2.647   1.822  10.026  0.3480  0.5816  0.9402
 1151SOL    HW215090   2.779   1.871   9.982  3.2030 -2.9144  1.4047
 1152SOL     OW15091   4.421   3.601  15.864 -0.3455  0.3143  0.6561
 1152SOL    HW115092   4.414   3.695  15.847 -4.4235 -0.1666 -0.2322
 1152SOL    HW215093   4.337   3.564  15.837 -0.2241 -1.4978  2.7046
 1153SOL     OW15094   2.036   3.415   7.940  0.2560  0.2164 -0.1903
 1153SOL    HW115095   1.967   3.406   8.005 -0.0475  0.4509 -0.4803
 1153SOL    HW215096   1.999   3.355   7.875 -4.8064 -0.6222  3.4805
 1154SOL     OW15097   2.038   2.588   2.571 -0.2507 -0.5981 -0.1103
 1154SOL    HW115098   2.037   2.524   2.501  0.1171 -2.1482  1.2995
 1154SOL    HW215099   2.035   2.670   2.521 -0.3479  0.4871  1.6432
 1155SOL     OW15100   1.813   4.344  10.767  0.3270 -0.0496 -0.5396
 1155SOL    HW115101   1.743   4.322  10.706 -0.5717 -2.1642  1.2461
 1155SOL    HW215102   1.770   4.390  10.839 -0.2785  0.2411 -1.0819
 1156SOL     OW15103   3.569   2.237   9.593  0.2598  0.0185 -0.0877
 1156SOL    HW115104   3.480   2.230   9.557  0.3350  0.4975 -0.3774
 1156SOL    HW215105   3.615   2.266   9.514 -3.0994 -2.4574 -2.9373
 1157SOL     OW15106   2.998   3.570   5.369  0.0876  0.2540 -0.6141
 1157SOL    HW115107   3.070   3.563   5.431 -2.5060 -0.5357  2.2877
 1157SOL    HW215108   3.006   3.487   5.321 -1.1339 -0.9915  1.3251
 1158SOL     OW15109   2.396   2.541   4.043  0.6567  0.8951  0.0742
 1158SOL    HW115110   2.377   2.465   4.098  1.5705 -0.5835 -1.6721
 1158SOL    HW215111   2.382   2.615   4.102 -0.6469 -0.8442  1.9944
 1159SOL     OW15112   1.244   3.069   2.092  0.0066  0.5521  0.2757
 1159SOL    HW115113   1.169   3.022   2.129 -0.1713  0.0438 -0.7496
 1159SOL    HW215114   1.270   3.007   2.024 -1.5661 -0.3503  0.5103
 1160SOL     OW15115   0.805   2.801  16.837 -0.2002  0.3570 -0.4175
 1160SOL    HW115116   0.757   2.883  16.829 -0.5032  0.0347 -1.9209
 1160SOL    HW215117   0.811   2.795  16.932  2.6818 -0.4022 -0.6467
 1161SOL     OW15118   4.479   3.153   1.087  0.5157  0.1245 -0.4430
 1161SOL    HW115119   4.445   3.063   1.080 -0.3290  0.3149  1.2490
 1161SOL    HW215120   4.437   3.193   1.011 -2.9057  0.8323  1.8130
 1162SOL     OW15121   4.376   4.217   2.565  0.0243  0.3151  0.0037
 1162SOL    HW115122   4.446   4.151   2.559  0.5605  0.8754  0.1363
 1162SOL    HW215123   4.379   4.247   2.474 -1.5034 -1.3706 -0.6209
 1163SOL     OW15124   3.307   2.063   5.508 -0.5417  0.1673 -0.1251
 1163SOL    HW115125   3.307   2.155   5.533  1.8702  0.4804 -1.3009
 1163SOL    HW215126   3.218   2.035   5.527 -0.9727  1.2242 -0.6086
 1164SOL     OW15127   0.490   0.450   3.560 -0.4828  0.5460  0.1047
 1164SOL    HW115128   0.572   0.427   3.604 -1.1357  0.7827  1.4471
 1164SOL    HW215129   0.435   0.495   3.624  0.1678 -0.8351  1.6612
 1165SOL     OW15130   3.326   0.945   4.596 -0.2665  0.2854  0.1762
 1165SOL    HW115131   3.366   0.969   4.680  0.0776 -1.7767  0.6228
 1165SOL    HW215132   3.240   0.911   4.618 -0.2321 -0.7421 -1.2862
 1166SOL     OW15133   1.500   3.187  16.348  0.8567  0.3972 -0.5411
 1166SOL    HW115134   1.456   3.103  16.339 -0.4498  1.1723 -1.2983
 1166SOL    HW215135   1.541   3.177  16.434 -1.0213  0.3908  0.3441
 1167SOL     OW15136   2.914   2.162   6.095 -0.0573 -0.1852  0.5491
 1167SOL    HW115137   2.982   2.095   6.102  0.7461  0.3244 -2.2387
 1167SOL    HW215138   2.880   2.145   6.007 -3.4267  1.3729  1.5721
 1168SOL     OW15139   1.857   1.261   2.857  0.1497 -0.0249 -0.2041
 1168SOL    HW115140   1.819   1.247   2.944 -2.1457 -2.9872 -1.6777
 1168SOL    HW215141   1.882   1.353   2.864 -1.8811  0.4656  0.5028
 1169SOL     OW15142   4.075   0.430   7.956 -0.5535 -0.9416 -0.8574
 1169SOL    HW115143   4.134   0.504   7.939  0.1931 -1.1554  0.7660
 1169SOL    HW215144   4.086   0.368   7.884  0.3740 -2.0671  0.2652
 1170SOL     OW15145   4.144   3.164   3.748 -0.0873  0.5523  0.2969
 1170SOL    HW115146   4.223   3.197   3.705 -0.3759  0.1792 -0.5242
 1170SOL    HW215147   4.102   3.234   3.797 -0.2319  1.2125 -0.7599
 1171SOL     OW15148   4.260   0.936   4.016 -0.3052 -0.0222 -0.0140
 1171SOL    HW115149   4.268   0.843   4.039  4.1079  0.4335  0.2398
 1171SOL    HW215150   4.333   0.943   3.956  0.3468  1.4595  0.9576
 1172SOL     OW15151   2.138   1.229  12.993 -0.2179  0.1133  0.0533
 1172SOL    HW115152   2.067   1.242  12.930 -1.1082 -0.8978  0.8506
 1172SOL    HW215153   2.124   1.149  13.043 -0.5161 -0.1477 -0.4534
 1173SOL     OW15154   2.111   0.014   5.256 -0.1687  0.0032  0.1040
 1173SOL    HW115155   2.163   0.077   5.206 -0.2691 -0.5197 -0.6541
 1173SOL    HW215156   2.038   4.736   5.196  1.7554 -1.3132 -1.9049
 1174SOL     OW15157   4.654   0.683  14.133 -0.5470  0.0753 -0.0662
 1174SOL    HW115158   4.593   0.739  14.181  1.3899  2.6842 -0.6232
 1174SOL    HW215159   4.638   0.711  14.043  0.0203 -1.5767 -0.6707
 1175SOL     OW15160   2.468   2.911   9.043 -0.1659 -0.2433 -0.1863
 1175SOL    HW115161   2.482   2.817   9.055  0.3933 -0.1979 -0.4689
 1175SOL    HW215162   2.545   2.948   9.086 -0.5906  1.6719 -1.0761
 1176SOL     OW15163   2.267   1.312   2.830  0.0782 -0.4066  0.5923
 1176SOL    HW115164   2.332   1.380   2.815  0.3624 -1.4468 -2.7094
 1176SOL    HW215165   2.307   1.231   2.799  1.3825  0.0642  1.0340
 1177SOL     OW15166   3.562   4.259   7.012 -0.1594  0.2431  0.6031
 1177SOL    HW115167   3.513   4.256   6.930  0.3727 -0.6975  0.3197
 1177SOL    HW215168   3.509   4.195   7.060 -0.1058 -0.4784 -0.3071
 1178SOL     OW15169   1.252   3.664   6.333 -0.0124 -0.5693  0.0577
 1178SOL    HW115170   1.268   3.639   6.424 -1.1019 -0.0098  0.4009
 1178SOL    HW215171   1.213   3.748   6.358  1.8970  0.4201 -0.2646
 1179SOL     OW15172   3.917   1.094   2.845  0.0576 -0.1721 -0.0850
 1179SOL    HW115173   3.874   1.156   2.904 -1.7283 -0.4493 -1.0868
 1179SOL    HW215174   3.995   1.069   2.894  0.8295  1.1241 -0.6271
 1180SOL     OW15175   3.549   4.704   8.147  0.4178  0.3011 -0.0864
 1180SOL    HW115176   3.518   0.038   8.202 -1.2675 -0.8485  0.4704
 1180SOL    HW215177   3.463   4.669   8.124 -0.5250  1.3291  1.8467
 1181SOL     OW15178   3.076   1.035  17.677 -0.1289 -0.5113 -0.3618
 1181SOL    HW115179   3.168   1.062  17.676 -0.0946 -0.6512 -1.1622
 1181SOL    HW215180   3.061   1.040  17.583 -1.1857 -3.6714 -0.3694
 1182SOL     OW15181   0.947   1.590  15.492 -0.1189 -0.1186  0.5890
 1182SOL    HW115182   0.859   1.625  15.475 -0.0520  1.1857  2.9500
 1182SOL    HW215183   0.974   1.536  15.418  1.5765  2.2270 -0.5171
 1183SOL     OW15184   2.290   0.073   3.972 -0.5559 -0.5029  0.3814
 1183SOL    HW115185   2.333   0.094   3.889 -0.7741  2.0777  0.9375
 1183SOL    HW215186   2.332   4.724   3.977  0.1445 -0.2988 -1.8960
 1184SOL     OW15187   0.339   0.331   7.389 -0.0425  0.2122  0.1131
 1184SOL    HW115188   0.400   0.288   7.448 -1.7028 -0.5014  1.3208
 1184SOL    HW215189   0.256   0.283   7.397 -0.4350  0.7734 -0.5619
 1185SOL     OW15190   2.231   1.861   6.143 -0.6134  0.3639  0.3183
 1185SOL    HW115191   2.319   1.823   6.147 -0.5514  0.2358 -2.3880
 1185SOL    HW215192   2.266   1.950   6.135 -0.8909  0.6690  2.6527
 1186SOL     OW15193   3.016   3.432   9.993 -0.0094 -0.4507  1.0033
 1186SOL    HW115194   2.970   3.432   9.909 -0.4767 -2.2728  1.2545
 1186SOL    HW215195   3.105   3.452   9.964 -0.5222  1.2495  0.6197
 1187SOL     OW15196   0.092   3.748  10.568 -0.1192 -0.4578 -0.3554
 1187SOL    HW115197   0.091   3.725  10.661 -1.1078 -1.8590 -0.7185
 1187SOL    HW215198   0.057   3.837  10.575  1.7437  0.1999  0.5547
 1188SOL     OW15199   4.662   0.197  11.922  0.8717  0.9944  0.5724
 1188SOL    HW115200   0.020   0.200  11.914  0.7468 -0.7223 -1.3926
 1188SOL    HW215201   4.647   0.148  12.003  0.2974  1.6514  0.8718
 1189SOL     OW15202   1.376   3.584  12.048  0.4817  0.0114 -0.6094
 1189SOL    HW115203   1.312   3.654  12.063 -0.0914 -0.4293 -0.9857
 1189SOL    HW215204   1.444   3.633  12.002  0.2761  0.3188 -0.5885
 1190SOL     OW15205   1.239   1.342   5.072  0.6641  0.0198 -0.4016
 1190SOL    HW115206   1.229   1.377   4.983  1.1014  1.8324  0.2549
 1190SOL    HW215207   1.319   1.387   5.102 -0.0847 -1.0972  3.2633
 1191SOL     OW15208   4.699   1.176   9.866  0.2040 -0.2265  0.1929
 1191SOL    HW115209   0.021   1.191   9.939 -0.6458  3.1872  0.1834
 1191SOL    HW215210   0.003   1.111   9.809 -0.7576  0.0243 -0.7983
 1192SOL     OW15211   4.318   3.714   4.496 -0.0324  0.5485 -0.4886
 1192SOL    HW115212   4.246   3.760   4.538 -0.0909  0.2026 -0.2107
 1192SOL    HW215213   4.391   3.757   4.539  0.3037 -0.0828 -0.4278
 1193SOL     OW15214   1.227   1.869  15.738  0.2288  0.3682 -0.1869
 1193SOL    HW115215   1.321   1.869  15.723  0.5875  0.7429  2.0552
 1193SOL    HW215216   1.221   1.907  15.826  0.7325 -1.0459  0.4595
 1194SOL     OW15217   4.413   4.385   0.207  0.3379 -0.1436 -0.5159
 1194SOL    HW115218   4.481   4.427   0.261 -0.4659 -1.7314  1.7485
 1194SOL    HW215219   4.427   4.298   0.245  0.4979  0.5771  1.0978
 1195SOL     OW15220   3.891   0.451   0.056 -0.1104 -0.1763  0.1073
 1195SOL    HW115221   3.806   0.491   0.075 -0.1300 -0.2726  0.2210
 1195SOL    HW215222   3.867   0.378  17.748 -1.2608  0.6606 -0.4797
 1196SOL     OW15223   3.780   3.595   7.181 -0.4236  0.3966  0.0597
 1196SOL    HW115224   3.710   3.533   7.159  1.9735 -1.9173 -1.1213
 1196SOL    HW215225   3.763   3.607   7.275  1.3648 -2.9334  0.8296
 1197SOL     OW15226   1.829   2.428  10.121 -0.0861 -0.1655  0.2791
 1197SOL    HW115227   1.902   2.442  10.180 -0.2017 -2.1587  0.8997
 1197SOL    HW215228   1.777   2.506  10.143 -0.7797 -0.3469 -0.7098
 1198SOL     OW15229   3.222   0.303   6.515  0.1508  0.0483  0.2089
 1198SOL    HW115230   3.193   0.307   6.424  1.0412 -1.7667 -0.1452
 1198SOL    HW215231   3.185   0.216   6.530 -1.5191  1.2341  2.9029
 1199SOL     OW15232   2.222   1.114  10.777  0.0773  0.5775  0.3788
 1199SOL    HW115233   2.304   1.136  10.734  0.0762 -0.8725 -0.3630
 1199SOL    HW215234   2.233   1.168  10.855 -0.2003 -1.3726  1.7751
 1200SOL     OW15235   2.750   3.095   9.726  0.0099 -0.0879  0.2735
 1200SOL    HW115236   2.839   3.130   9.726 -0.3184  0.7475 -1.7183
 1200SOL    HW215237   2.750   3.036   9.802 -0.5001 -1.1118 -0.5122
 1201SOL     OW15238   2.569   1.585   1.284  0.4811 -0.1272 -0.0960
 1201SOL    HW115239   2.613   1.520   1.229  0.4174  0.1614 -0.4876
 1201SOL    HW215240   2.511   1.521   1.325 -0.4528  0.5433 -0.3520
 1202SOL     OW15241   0.137   2.833   6.318  0.5891 -0.1188 -0.4590
 1202SOL    HW115242   0.134   2.884   6.237 -2.7889 -0.9403 -0.8728
 1202SOL    HW215243   0.201   2.881   6.370  0.1708  2.2609 -2.0930
 1203SOL     OW15244   4.105   1.867  10.416 -0.3763  0.4221  0.6587
 1203SOL    HW115245   4.142   1.823  10.339  2.8560  0.5088  2.1815
 1203SOL    HW215246   4.018   1.882  10.379  0.2029  1.5495 -0.2267
 1204SOL     OW15247   3.926   3.613   3.258  0.2908  0.0310 -0.1599
 1204SOL    HW115248   3.978   3.636   3.181  0.0808 -3.0115 -1.2308
 1204SOL    HW215249   3.855   3.559   3.221 -0.2833 -0.1795  1.2589
 1205SOL     OW15250   0.509   4.432   5.064 -0.7784 -0.0411 -0.0326
 1205SOL    HW115251   0.422   4.434   5.023 -1.8709  3.2448  2.4605
 1205SOL    HW215252   0.505   4.506   5.124  0.6289  0.2293 -0.2867
 1206SOL     OW15253   3.016   1.405   3.981  0.3779 -0.5625  0.6398
 1206SOL    HW115254   2.947   1.469   3.960  0.1684 -0.9157  0.2610
 1206SOL    HW215255   3.042   1.385   3.892 -0.2443  0.1394  0.2938
 1207SOL     OW15256   0.092   0.595   8.064  0.7133  0.3792 -0.3317
 1207SOL    HW115257   0.142   0.618   8.142  0.5691 -2.2402  0.5038
 1207SOL    HW215258   0.162   0.570   8.004 -0.4633  1.3424 -2.1194
 1208SOL     OW15259   3.100   2.582  11.488 -0.6836  0.1007 -0.8527
 1208SOL    HW115260   3.007   2.597  11.502 -0.0217  0.6616  3.2370
 1208SOL    HW215261   3.089   2.536  11.405 -0.0618 -3.4079  0.9854
 1209SOL     OW15262   0.272   2.594  16.379  0.7319 -0.6458  0.5323
 1209SOL    HW115263   0.262   2.628  16.467 -1.0534 -2.5222  1.0402
 1209SOL    HW215264   0.297   2.669  16.325 -1.3787  0.7276  1.4589
 1210SOL     OW15265   1.564   4.246   8.026  0.8358  0.6101  0.6049
 1210SOL    HW115266   1.613   4.184   7.973  1.7465 -0.0398  2.1826
 1210SOL    HW215267   1.605   4.217   8.108 -0.4934 -0.1648  1.0007
 1211SOL     OW15268   3.304   1.728   3.560  0.5410  0.1120 -0.5089
 1211SOL    HW115269   3.340   1.642   3.582  1.8900  0.9564  0.5233
 1211SOL    HW215270   3.349   1.778   3.628 -0.2836 -1.0892  0.9051
 1212SOL     OW15271   0.402   0.578  12.621  0.0482 -0.1749  0.3161
 1212SOL    HW115272   0.461   0.503  12.614  0.1989 -0.1782  1.6072
 1212SOL    HW215273   0.452   0.654  12.590 -2.2403  0.0179 -2.9008
 1213SOL     OW15274   3.688   1.928   8.103  0.2292  0.2717  0.3204
 1213SOL    HW115275   3.761   1.866   8.097 -0.3639 -0.4598  0.6450
 1213SOL    HW215276   3.609   1.879   8.124 -0.9042  1.9241 -0.0707
 1214SOL     OW15277   2.691   0.143  16.614 -0.2368  0.1141 -0.2255
 1214SOL    HW115278   2.740   0.211  16.567  0.8316 -0.6511 -0.2050
 1214SOL    HW215279   2.651   0.187  16.689 -0.9344 -0.8864 -0.0162
 1215SOL     OW15280   1.801   0.082   6.650  0.2099 -0.1585 -0.0795
 1215SOL    HW115281   1.721   0.133   6.661  0.5793  0.6722 -1.2007
 1215SOL    HW215282   1.868   0.145   6.627 -0.3959 -0.2979 -2.2056
 1216SOL     OW15283   1.049   1.587   4.582  0.9133 -0.0710  0.0505
 1216SOL    HW115284   1.013   1.526   4.518  1.6007  0.4908 -0.8885
 1216SOL    HW215285   1.027   1.535   4.659  0.8755 -1.5293 -0.9454
 1217SOL     OW15286   3.366   1.263   7.794 -0.2242  0.6988  0.6332
 1217SOL    HW115287   3.388   1.335   7.854  1.0277  1.4033 -0.6609
 1217SOL    HW215288   3.404   1.189   7.841  0.2655 -0.0010 -0.8669
 1218SOL     OW15289   3.329   3.520  17.160 -0.6147 -0.6103 -0.2444
 1218SOL    HW115290   3.422   3.522  17.184 -0.8290 -1.3176  0.6726
 1218SOL    HW215291   3.303   3.610  17.182 -2.3590 -1.6925  2.2644
 1219SOL     OW15292   3.187   4.096   3.757 -0.2481 -0.2421  0.3462
 1219SOL    HW115293   3.103   4.069   3.795 -1.5888  0.0284 -2.4659
 1219SOL    HW215294   3.247   4.094   3.832 -1.0044  3.9516  1.0424
 1220SOL     OW15295   0.720   0.179  11.436 -0.2876  0.1467 -0.0462
 1220SOL    HW115296   0.670   0.223  11.367 -0.1291  0.0106 -0.2469
 1220SOL    HW215297   0.765   0.258  11.469 -0.4749 -0.6004  1.9952
 1221SOL     OW15298   3.417   0.811   4.005 -0.2596  0.5078 -0.3368
 1221SOL    HW115299   3.455   0.892   3.971 -0.2100  0.1828 -1.0349
 1221SOL    HW215300   3.327   0.844   4.001 -1.1263 -1.5843  1.8252
 1222SOL     OW15301   3.251   2.377   5.209  0.4692 -0.6017  0.1254
 1222SOL    HW115302   3.167   2.381   5.162  1.2048  1.2210 -1.0529
 1222SOL    HW215303   3.235   2.451   5.267 -0.5246 -0.1202 -0.7525
 1223SOL     OW15304   2.411   0.271   6.755 -0.6896  0.4169 -0.1057
 1223SOL    HW115305   2.359   0.198   6.789 -0.0452  0.7190  1.5364
 1223SOL    HW215306   2.338   0.322   6.722 -0.8421  1.3321  1.6325
 1224SOL     OW15307   1.912   2.138   1.870 -0.4018 -0.6690 -0.3871
 1224SOL    HW115308   1.959   2.204   1.922  0.2681 -0.0219 -1.7936
 1224SOL    HW215309   1.985   2.099   1.822 -0.9030 -1.5278 -0.4447
 1225SOL     OW15310   2.153   1.328   6.931  0.1681 -0.3699 -0.0049
 1225SOL    HW115311   2.149   1.262   6.862 -2.4801  0.4871 -0.6748
 1225SOL    HW215312   2.059   1.333   6.950  0.5241 -1.1952  1.9208
 1226SOL     OW15313   1.734   0.993   8.056  0.0276  0.3673  0.2530
 1226SOL    HW115314   1.717   1.040   8.137  1.2713  0.0695  0.6848
 1226SOL    HW215315   1.650   1.000   8.011  0.6254  1.6161 -0.6920
 1227SOL     OW15316   2.545   4.215   7.580 -0.2587  0.9524 -0.5010
 1227SOL    HW115317   2.468   4.254   7.622 -0.9404  1.8825 -2.6582
 1227SOL    HW215318   2.589   4.291   7.542 -0.0694  0.8338 -0.5186
 1228SOL     OW15319   0.441   3.255   6.608  0.4842  0.0974  0.2964
 1228SOL    HW115320   0.369   3.197   6.633 -1.9294  3.3924  1.0977
 1228SOL    HW215321   0.432   3.257   6.513 -1.2641 -0.8935  0.4394
 1229SOL     OW15322   2.918   3.901   9.228  0.4630  0.4950  0.7699
 1229SOL    HW115323   2.945   3.990   9.252  0.4395  0.0920  2.3317
 1229SOL    HW215324   2.956   3.854   9.302  1.4955 -0.5153 -0.4248
 1230SOL     OW15325   2.148   1.141   6.753 -0.5536  0.1786  0.2787
 1230SOL    HW115326   2.205   1.072   6.721 -0.7980 -0.8354  2.0342
 1230SOL    HW215327   2.133   1.186   6.670 -1.4963 -2.8434 -1.1968
 1231SOL     OW15328   3.123   2.581  11.989 -0.8476 -0.3188  0.0139
 1231SOL    HW115329   3.182   2.646  12.028  0.1776 -0.5150 -1.1798
 1231SOL    HW215330   3.169   2.548  11.911 -0.4327 -2.6505  1.2368
 1232SOL     OW15331   0.960   1.565   2.651 -0.2174 -0.5646 -0.0104
 1232SOL    HW115332   1.011   1.486   2.637 -0.6430 -1.0489  1.1692
 1232SOL    HW215333   0.974   1.575   2.745 -2.2758 -0.4885  0.2960
 1233SOL     OW15334   0.843   0.711   4.234  0.0654  0.2943 -0.4052
 1233SOL    HW115335   0.764   0.690   4.185 -1.2905 -0.8196  2.2314
 1233SOL    HW215336   0.814   0.776   4.299  0.9851 -2.6447  2.9303
 1234SOL     OW15337   0.272   0.527   2.918 -0.2915  0.3902  0.4058
 1234SOL    HW115338   0.328   0.470   2.971 -0.9711  0.2713  0.9957
 1234SOL    HW215339   0.319   0.527   2.835  0.2345 -0.2646  0.6996
 1235SOL     OW15340   3.215   3.143   3.472  1.0662 -0.0189  0.3994
 1235SOL    HW115341   3.245   3.230   3.498  0.7837  0.9139 -2.3573
 1235SOL    HW215342   3.131   3.174   3.437  1.2325  1.1779  1.0474
 1236SOL     OW15343   0.364   3.281  14.918 -0.1307 -0.1164 -0.0637
 1236SOL    HW115344   0.371   3.254  14.827 -0.1218  0.0605 -0.1162
 1236SOL    HW215345   0.393   3.372  14.927 -1.8391  0.3749  0.4324
 1237SOL     OW15346   3.582   3.033   7.612 -0.0816  0.0729 -0.1072
 1237SOL    HW115347   3.623   3.110   7.652  0.1297  0.7434 -1.6068
 1237SOL    HW215348   3.633   3.021   7.531  0.4723  1.3602  0.0550
 1238SOL     OW15349   3.452   1.066   7.976  0.5333 -0.7478  0.2354
 1238SOL    HW115350   3.507   1.026   8.044 -0.3792 -1.8134  0.3342
 1238SOL    HW215351   3.369   1.084   8.020 -0.1980 -0.2849 -1.3351
 1239SOL     OW15352   0.904   2.049  13.734  0.2011 -0.3972 -0.9732
 1239SOL    HW115353   0.957   1.994  13.676  3.9066 -0.6910  2.7333
 1239SOL    HW215354   0.830   1.991  13.752 -0.1706  0.4348  0.1560
 1240SOL     OW15355   3.546   4.635   6.215 -0.0467 -0.0242 -0.2273
 1240SOL    HW115356   3.571   4.727   6.210 -0.8994  0.3434  2.4149
 1240SOL    HW215357   3.516   4.622   6.125 -1.5495 -0.3196  0.3184
 1241SOL     OW15358   0.923   2.017   2.191  0.0959  0.3674 -0.2157
 1241SOL    HW115359   1.003   2.045   2.146 -0.3873  1.1566 -0.5760
 1241SOL    HW215360   0.950   1.983   2.276 -1.6363  0.8717  0.5364
 1242SOL     OW15361   2.797   3.725   5.336 -0.0879  0.6601  0.0673
 1242SOL    HW115362   2.769   3.690   5.252 -1.8069  0.1819  0.8272
 1242SOL    HW215363   2.876   3.672   5.345  0.3130  0.9587 -1.7818
 1243SOL     OW15364   3.005   3.470  10.253  0.7507 -0.5008  0.0974
 1243SOL    HW115365   3.004   3.449  10.159 -0.7130 -3.1647  0.7066
 1243SOL    HW215366   3.081   3.416  10.276  1.0611 -1.0413 -2.1413
 1244SOL     OW15367   0.326   2.120   1.762  0.0022 -0.5752 -0.1763
 1244SOL    HW115368   0.385   2.077   1.824  0.7737 -2.0882 -1.9914
 1244SOL    HW215369   0.239   2.095   1.796 -0.2104  3.5354  2.2382
 1245SOL     OW15370   2.779   1.027   0.187 -0.5129 -0.7364 -0.0362
 1245SOL    HW115371   2.685   1.038   0.170 -0.3194 -0.0825 -0.6790
 1245SOL    HW215372   2.791   0.932   0.191 -3.4856 -1.0516  1.2490
 1246SOL     OW15373   3.444   0.823   5.241  0.4481 -0.0390 -0.5902
 1246SOL    HW115374   3.368   0.881   5.240  0.5021  0.0143 -2.0692
 1246SOL    HW215375   3.523   0.871   5.216 -0.2360  2.8201  2.8058
 1247SOL     OW15376   1.480   1.061   8.901  0.0638 -0.3735 -0.1089
 1247SOL    HW115377   1.463   1.103   8.985 -0.3933 -0.3275 -0.2245
 1247SOL    HW215378   1.571   1.078   8.875  0.2668  1.4963  1.8490
 1248SOL     OW15379   4.191   2.641   7.667  0.3874 -0.0054  0.1418
 1248SOL    HW115380   4.176   2.567   7.608 -0.6506  0.6514 -0.4112
 1248SOL    HW215381   4.200   2.717   7.610 -0.0517 -0.3827 -0.4307
 1249SOL     OW15382   0.162   2.222  13.514 -0.1965 -0.7834 -0.0782
 1249SOL    HW115383   0.108   2.280  13.460 -0.9680  0.6706  2.2819
 1249SOL    HW215384   0.193   2.156  13.452 -2.6310  0.7898 -2.9666
 1250SOL     OW15385   3.454   2.682  11.442  0.3072  0.5047 -0.3475
 1250SOL    HW115386   3.477   2.608  11.385  0.5657 -0.3270  0.8397
 1250SOL    HW215387   3.466   2.643  11.529 -1.0935  0.7820 -0.0268
 1251SOL     OW15388   3.979   1.409   3.164  0.2506 -0.1398  0.6883
 1251SOL    HW115389   3.943   1.484   3.211  1.8469  1.2316 -0.2882
 1251SOL    HW215390   4.050   1.378   3.220 -0.3386 -0.5354  1.2167
 1252SOL     OW15391   2.560   4.285   2.747 -0.2247  0.7829 -0.7557
 1252SOL    HW115392   2.621   4.245   2.809  0.2151  0.6658 -1.2588
 1252SOL    HW215393   2.529   4.205   2.704  0.0396  0.3520 -0.1630
 1253SOL     OW15394   2.529   3.415  10.252 -0.6542  0.5367  0.4397
 1253SOL    HW115395   2.477   3.492  10.231 -1.9107 -0.1494  1.0016
 1253SOL    HW215396   2.580   3.441  10.328  1.2634  2.0994 -1.3561
 1254SOL     OW15397   1.961   0.486   0.855 -0.0888 -0.1279  0.3161
 1254SOL    HW115398   1.911   0.478   0.937  0.8157 -1.6800  0.7168
 1254SOL    HW215399   1.902   0.543   0.806  0.6962  0.2283 -0.2115
 1255SOL     OW15400   0.578   1.947   6.426 -0.3971  0.7742  0.0682
 1255SOL    HW115401   0.532   1.952   6.342  1.1430  1.6767 -0.7188
 1255SOL    HW215402   0.501   1.957   6.482  0.1992  0.3327  0.9700
 1256SOL     OW15403   4.458   1.941   4.019 -0.0294  0.1877  0.4562
 1256SOL    HW115404   4.483   1.938   3.927 -3.0623  1.0200 -0.4007
 1256SOL    HW215405   4.499   1.862   4.053 -0.5099 -0.9343 -1.5878
 1257SOL     OW15406   2.251   4.093   5.106  0.1923  0.0413 -0.3079
 1257SOL    HW115407   2.170   4.128   5.142  1.4305  0.9508  1.5776
 1257SOL    HW215408   2.222   4.015   5.059  0.0458 -0.1832  0.1554
 1258SOL     OW15409   2.518   0.829   7.882  0.2422  0.0795 -0.1877
 1258SOL    HW115410   2.422   0.826   7.890  0.1560 -1.5027 -1.6922
 1258SOL    HW215411   2.540   0.919   7.905 -2.2964  0.7877 -0.5370
 1259SOL     OW15412   3.155   3.174  12.813 -0.5145  0.4523 -0.1119
 1259SOL    HW115413   3.219   3.103  12.824  0.1878  0.5965 -3.4397
 1259SOL    HW215414   3.202   3.249  12.775  3.0119 -1.5231  0.3220
 1260SOL     OW15415   3.234   3.321   4.503  0.0652  0.4690 -0.1947
 1260SOL    HW115416   3.313   3.366   4.530  0.7955 -0.2600 -1.1205
 1260SOL    HW215417   3.204   3.382   4.435  1.1381  0.2636 -0.8545
 1261SOL     OW15418   1.233   4.419   3.285 -0.4052 -0.4859 -0.4615
 1261SOL    HW115419   1.147   4.448   3.318 -0.5196 -1.0615 -0.2569
 1261SOL    HW215420   1.252   4.351   3.350  1.4093  0.4006 -0.0577
 1262SOL     OW15421   2.381   2.687  10.967 -0.2958  0.0457  0.3438
 1262SOL    HW115422   2.446   2.637  10.917 -1.1146  0.3534 -1.0333
 1262SOL    HW215423   2.323   2.718  10.897  0.6933 -1.2033 -1.0206
 1263SOL     OW15424   3.449   1.747   0.146 -0.1818  0.0729  0.0356
 1263SOL    HW115425   3.369   1.749   0.094  1.3177  0.3633 -2.2595
 1263SOL    HW215426   3.429   1.661   0.183 -0.3961  0.2118  0.2437
 1264SOL     OW15427   1.632   3.963   1.086  0.1951 -0.1951 -0.4625
 1264SOL    HW115428   1.602   3.883   1.129  0.6617  0.6180  1.3527
 1264SOL    HW215429   1.708   3.935   1.033  0.6484  0.2759 -0.0591
 1265SOL     OW15430   3.194   0.638   5.057 -0.6047  0.3037 -0.0636
 1265SOL    HW115431   3.190   0.648   5.152  3.4499  2.2820 -0.0856
 1265SOL    HW215432   3.100   0.638   5.038 -1.0036  2.9626  1.9386
 1266SOL     OW15433   1.503   4.262   4.082  0.1914  0.7885  0.0062
 1266SOL    HW115434   1.582   4.303   4.116 -0.0667  1.2464  0.0482
 1266SOL    HW215435   1.435   4.288   4.143  1.4297  1.4105  1.1174
 1267SOL     OW15436   0.132   2.323  12.820 -0.0104 -0.0912  0.0611
 1267SOL    HW115437   0.222   2.292  12.830 -0.5743 -0.9403  2.4794
 1267SOL    HW215438   0.075   2.246  12.813  2.5719 -2.0826  1.1509
 1268SOL     OW15439   1.287   4.352  15.763 -0.4303  0.1710 -0.1398
 1268SOL    HW115440   1.306   4.381  15.673  1.6400  0.7305  0.4773
 1268SOL    HW215441   1.227   4.421  15.791 -0.6502  0.7891 -2.1307
 1269SOL     OW15442   2.833   1.188  13.120 -0.8230 -0.1807  0.3204
 1269SOL    HW115443   2.880   1.212  13.040 -2.8633  2.2039 -0.1786
 1269SOL    HW215444   2.743   1.199  13.088 -1.8825 -0.2192  3.2434
 1270SOL     OW15445   2.783   1.368  10.391  0.1771  0.0859 -0.2242
 1270SOL    HW115446   2.749   1.456  10.402 -1.3627 -0.5721  0.2483
 1270SOL    HW215447   2.787   1.367  10.295 -0.1981 -0.6189 -0.2326
 1271SOL     OW15448   3.522   0.924   7.746 -0.0397 -0.2418 -0.2947
 1271SOL    HW115449   3.504   0.976   7.824  0.0937  0.8409 -0.9934
 1271SOL    HW215450   3.511   0.837   7.785 -1.3371 -0.1918 -0.5487
 1272SOL     OW15451   4.408   3.509   7.840 -0.0037  0.4000  0.0498
 1272SOL    HW115452   4.434   3.432   7.789 -0.8809  1.1598 -1.5532
 1272SOL    HW215453   4.400   3.478   7.931 -0.5971  0.2558 -0.0468
 1273SOL     OW15454   2.693   2.393   3.459  0.1727 -0.2757  0.6081
 1273SOL    HW115455   2.694   2.323   3.524  1.4785  0.8681  1.8295
 1273SOL    HW215456   2.786   2.415   3.464 -0.0644  0.9891 -0.4912
 1274SOL     OW15457   1.268   4.351   6.805 -0.0151  0.1330 -0.2859
 1274SOL    HW115458   1.264   4.290   6.731  1.4777 -0.9917  0.5803
 1274SOL    HW215459   1.289   4.290   6.876 -1.4887  0.5349  0.5001
 1275SOL     OW15460   3.668   0.494   2.764 -0.2673  0.3000 -0.1543
 1275SOL    HW115461   3.629   0.407   2.772 -1.8084  1.1079  1.0112
 1275SOL    HW215462   3.697   0.483   2.673 -0.1086 -0.0425 -0.0623
 1276SOL     OW15463   1.209   3.902   5.493  0.2688 -0.0613 -0.0789
 1276SOL    HW115464   1.249   3.815   5.491  2.3594  0.9146 -0.5429
 1276SOL    HW215465   1.285   3.938   5.539 -0.0774  0.2156  0.2640
 1277SOL     OW15466   0.370   1.185   4.135  0.1359  0.2517  0.1894
 1277SOL    HW115467   0.451   1.173   4.184  0.0282 -1.3159 -0.0397
 1277SOL    HW215468   0.313   1.169   4.210  1.4966 -0.8312  0.9991
 1278SOL     OW15469   1.420   0.156   2.713  0.3959 -0.2178 -0.5862
 1278SOL    HW115470   1.399   0.078   2.661  1.3731 -1.0248  0.2493
 1278SOL    HW215471   1.421   0.126   2.804  1.9115 -1.6685 -1.0657
 1279SOL     OW15472   1.744   1.336   6.762  0.2582 -0.4897 -0.0739
 1279SOL    HW115473   1.777   1.297   6.843 -0.3925  0.8205  0.8122
 1279SOL    HW215474   1.791   1.289   6.693 -1.2610 -2.3447  0.1503
 1280SOL     OW15475   2.081   3.365   8.934  0.3933  0.0657  0.2236
 1280SOL    HW115476   2.070   3.458   8.951 -0.7747 -0.3309  1.6596
 1280SOL    HW215477   2.085   3.335   9.025 -0.3696  0.7095  0.4672
 1281SOL     OW15478   1.881   3.999   2.604  0.4695  0.1312 -0.5150
 1281SOL    HW115479   1.811   4.064   2.608  1.1692  0.8363  0.3834
 1281SOL    HW215480   1.848   3.928   2.549  0.0901 -0.2572  0.2201
 1282SOL     OW15481   2.355   3.158  10.179 -0.8855 -0.0615  0.5968
 1282SOL    HW115482   2.433   3.150  10.123 -0.6752  3.0946  0.4362
 1282SOL    HW215483   2.372   3.247  10.211 -0.7826 -1.1899  3.6791
 1283SOL     OW15484   2.607   4.505   9.315 -0.4288 -0.2834 -0.4324
 1283SOL    HW115485   2.645   4.436   9.260  0.4456 -1.2109  1.3659
 1283SOL    HW215486   2.667   4.515   9.388  0.2202  3.6857 -1.5203
 1284SOL     OW15487   0.612   0.990   6.097 -0.3120  0.4267  0.2788
 1284SOL    HW115488   0.602   0.899   6.069 -0.9305  0.3955  0.6107
 1284SOL    HW215489   0.530   1.012   6.141 -0.8154  1.4830 -1.1928
 1285SOL     OW15490   0.995   4.549   5.788 -0.5394 -0.6908 -0.0826
 1285SOL    HW115491   1.053   4.481   5.753 -0.0162 -2.0738  3.5156
 1285SOL    HW215492   0.913   4.528   5.742  0.2858 -1.6842 -1.1420
 1286SOL     OW15493   2.124   3.051   7.990 -0.4026 -0.0460  0.1477
 1286SOL    HW115494   2.183   3.126   7.977 -1.3217  0.9364  1.7116
 1286SOL    HW215495   2.168   3.007   8.062 -0.9227  0.6677  0.9016
 1287SOL     OW15496   3.803   1.505   3.960 -0.0615 -0.3311 -0.0961
 1287SOL    HW115497   3.790   1.586   4.009  1.1772  1.2362 -2.3417
 1287SOL    HW215498   3.720   1.463   3.979  1.1934 -1.6197  2.4710
 1288SOL     OW15499   3.498   1.590   4.555  0.1666  0.2639  0.1527
 1288SOL    HW115500   3.499   1.578   4.460  0.8945  0.8905  0.0850
 1288SOL    HW215501   3.518   1.501   4.585 -3.9751 -1.2163 -1.3495
 1289SOL     OW15502   1.336   1.065  12.189 -0.1344 -0.1841 -0.2142
 1289SOL    HW115503   1.316   0.986  12.240 -1.7622 -1.0989 -2.2435
 1289SOL    HW215504   1.280   1.055  12.112 -0.4907  1.4780 -0.1631
 1290SOL     OW15505   2.530   3.843   5.686 -0.1476 -0.2315  0.0785
 1290SOL    HW115506   2.564   3.928   5.714  1.6399 -1.5699  1.9251
 1290SOL    HW215507   2.507   3.810   5.772  0.1573 -0.6854 -0.0135
 1291SOL     OW15508   0.762   4.219   7.836  0.0371 -0.1936 -0.9415
 1291SOL    HW115509   0.851   4.198   7.866 -0.2373  3.1923  2.1534
 1291SOL    HW215510   0.707   4.213   7.914 -1.0902 -0.5476 -1.7675
 1292SOL     OW15511   3.011   3.788   0.731  0.1854 -0.0171  0.0653
 1292SOL    HW115512   2.952   3.781   0.806 -1.7885  0.0930 -1.4533
 1292SOL    HW215513   3.022   3.696   0.707  1.3321  1.3889 -4.9099
 1293SOL     OW15514   1.728   2.926   1.071 -0.0308  0.1758  0.0335
 1293SOL    HW115515   1.819   2.898   1.082  0.3667  0.7654 -1.7543
 1293SOL    HW215516   1.684   2.843   1.053 -2.9670  1.6912  0.2199
 1294SOL     OW15517   2.073   2.047   2.583  0.4864 -0.1335 -0.0237
 1294SOL    HW115518   2.150   1.991   2.573  0.5230 -0.1310  0.2620
 1294SOL    HW215519   2.125   2.127   2.591 -0.5333  0.7083 -1.8155
 1295SOL     OW15520   3.712   0.433   2.496  0.3617  0.5587  0.2188
 1295SOL    HW115521   3.706   0.340   2.517 -0.4940  1.0519  2.1501
 1295SOL    HW215522   3.683   0.430   2.405 -0.3292  3.4552  0.3402
 1296SOL     OW15523   3.346   4.140  12.879  0.5525  0.1104  0.1390
 1296SOL    HW115524   3.310   4.097  12.802 -0.1363  0.4856  0.2504
 1296SOL    HW215525   3.316   4.083  12.950  2.1171 -0.2577  0.5176
 1297SOL     OW15526   0.706   1.629  15.368 -0.1455  0.2892 -0.0191
 1297SOL    HW115527   0.633   1.691  15.367 -1.1199 -0.8486  0.6113
 1297SOL    HW215528   0.649   1.552  15.368 -0.5206  0.5666 -0.1016
 1298SOL     OW15529   3.239   2.677   9.783  0.4047 -0.3053  1.0503
 1298SOL    HW115530   3.209   2.597   9.825 -2.2268  1.0701  1.8558
 1298SOL    HW215531   3.175   2.692   9.713  1.1036 -1.0081  0.2732
 1299SOL     OW15532   4.149   2.068   1.613  0.1092 -0.1798 -0.0373
 1299SOL    HW115533   4.064   2.028   1.593 -0.0529 -0.0473  0.3856
 1299SOL    HW215534   4.145   2.121   1.693  0.2138  0.3446 -0.3762
 1300SOL     OW15535   0.713   4.667   5.254 -0.3507 -0.0407 -0.1058
 1300SOL    HW115536   0.735   4.719   5.176 -0.4072 -1.0094 -0.7705
 1300SOL    HW215537   0.617   4.669   5.252 -0.4259 -3.0919  0.3374
 1301SOL     OW15538   0.269   1.479   8.877  0.4426 -0.0842 -0.1417
 1301SOL    HW115539   0.260   1.487   8.782  1.9130 -0.3960 -0.3145
 1301SOL    HW215540   0.183   1.461   8.914  0.4146 -0.4328 -0.3869
 1302SOL     OW15541   1.747   2.840  13.066 -0.4948 -0.0073 -0.3263
 1302SOL    HW115542   1.772   2.821  13.157 -0.6428  1.0806 -0.0595
 1302SOL    HW215543   1.840   2.856  13.047 -0.6119  1.1956  0.1452
 1303SOL     OW15544   2.628   3.441   6.485 -0.0806  0.0579 -0.1116
 1303SOL    HW115545   2.716   3.405   6.486 -0.2040 -0.2499 -0.4625
 1303SOL    HW215546   2.618   3.469   6.576  0.7577  0.0636 -0.0253
 1304SOL     OW15547   0.185   2.970  17.107 -0.0428 -0.2467 -0.1799
 1304SOL    HW115548   0.197   3.058  17.071 -0.8509  0.3228  0.9503
 1304SOL    HW215549   0.260   2.951  17.164 -2.2545 -1.6629  2.2376
 1305SOL     OW15550   3.037   4.721  11.389  0.0869  0.1033 -0.1981
 1305SOL    HW115551   3.002   4.724  11.478 -0.1552  0.7179 -0.3153
 1305SOL    HW215552   2.956   4.725  11.338 -0.0599  0.1351  0.0346
 1306SOL     OW15553   3.530   0.491  14.469 -0.0339  0.1310  0.3343
 1306SOL    HW115554   3.470   0.457  14.402  2.6595  0.8034 -2.4225
 1306SOL    HW215555   3.474   0.536  14.532 -0.8958 -0.1025 -0.2623
 1307SOL     OW15556   1.231   0.534   8.128 -0.2754 -0.0896  0.2072
 1307SOL    HW115557   1.271   0.570   8.207 -1.6898 -1.5199  1.5766
 1307SOL    HW215558   1.143   0.504   8.151 -0.4438  0.3134  0.0991
 1308SOL     OW15559   0.527   0.173   0.311  0.5109 -0.0779  0.0415
 1308SOL    HW115560   0.484   0.243   0.359  1.6848  0.3902  0.4198
 1308SOL    HW215561   0.603   0.167   0.370 -1.0706 -0.0738  2.0664
 1309SOL     OW15562   1.622   2.074   0.443  0.0845  0.5828  0.5921
 1309SOL    HW115563   1.685   2.005   0.465 -1.6066 -1.5632 -1.2207
 1309SOL    HW215564   1.578   2.024   0.374 -1.2852  2.1992  0.2960
 1310SOL     OW15565   0.161   1.593   4.847  0.4696  0.3959  0.2685
 1310SOL    HW115566   0.247   1.598   4.805 -0.2446  1.2922 -1.1237
 1310SOL    HW215567   0.134   1.685   4.854 -1.3721 -0.1358  0.1009
 1311SOL     OW15568   1.277   2.461   3.368  0.0772 -0.0093 -0.1509
 1311SOL    HW115569   1.235   2.526   3.425 -2.1393 -2.1880  0.6551
 1311SOL    HW215570   1.359   2.500   3.336 -0.9608 -0.3308 -3.1539
 1312SOL     OW15571   2.165   2.074   5.446  0.2455  0.6579  0.3287
 1312SOL    HW115572   2.117   2.152   5.473  0.7369  0.8167  0.7288
 1312SOL    HW215573   2.155   2.071   5.351  0.4625  1.7535  0.2780
 1313SOL     OW15574   1.344   3.671   7.988  0.2692 -0.1120  0.2103
 1313SOL    HW115575   1.298   3.663   8.072 -0.1617  1.5752  0.1382
 1313SOL    HW215576   1.312   3.592   7.945  0.2680 -0.7068  1.3130
 1314SOL     OW15577   1.644   4.730   1.696  0.5396 -0.1215  0.0264
 1314SOL    HW115578   1.643   0.082   1.732  2.2790  0.1502 -0.5974
 1314SOL    HW215579   1.598   4.691   1.770 -0.5673  3.3376  1.1806
 1315SOL     OW15580   4.446   0.219  15.666  0.2120  0.0249 -0.5091
 1315SOL    HW115581   4.452   0.143  15.609 -1.2003 -1.3817  1.1977
 1315SOL    HW215582   4.534   0.257  15.665 -0.6515  2.1543  2.0666
 1316SOL     OW15583   3.346   4.206   8.591  0.0089 -0.5148  0.6238
 1316SOL    HW115584   3.441   4.190   8.590 -0.2641 -2.0375 -1.6344
 1316SOL    HW215585   3.325   4.196   8.498  1.2765  0.9047  0.1777
 1317SOL     OW15586   0.474   2.623   9.103  0.7001  0.4268  0.1861
 1317SOL    HW115587   0.486   2.641   9.009 -0.6821  0.0729 -0.0624
 1317SOL    HW215588   0.430   2.539   9.111  2.8496 -0.5571  1.4873
 1318SOL     OW15589   2.717   1.893  13.304  0.1069 -0.0402  0.5840
 1318SOL    HW115590   2.799   1.893  13.256  1.0655 -0.9363  2.2095
 1318SOL    HW215591   2.681   1.979  13.282 -0.5196 -1.0632 -2.3997
 1319SOL     OW15592   0.366   0.302   3.048 -0.1674 -0.4772  0.0001
 1319SOL    HW115593   0.305   0.231   3.066  0.7390 -1.8800 -2.5391
 1319SOL    HW215594   0.411   0.253   2.980  0.4294 -1.5237  1.1430
 1320SOL     OW15595   4.103   2.590   5.018 -0.3144 -0.0563 -0.5442
 1320SOL    HW115596   4.126   2.544   4.938 -1.3382  1.0731 -1.5031
 1320SOL    HW215597   4.129   2.677   4.988  0.6161 -0.5628 -1.1954
 1321SOL     OW15598   2.397   1.605   7.230  0.3522  0.4207  0.0868
 1321SOL    HW115599   2.339   1.569   7.163  0.7494 -3.5494  1.8293
 1321SOL    HW215600   2.481   1.559   7.229 -1.0424 -2.1803 -0.0092
 1322SOL     OW15601   3.437   4.472   5.962  0.1934 -0.0370  0.3778
 1322SOL    HW115602   3.503   4.405   5.943  0.0425 -0.0244 -0.1868
 1322SOL    HW215603   3.405   4.472   5.872 -1.4028  0.3328  0.9497
 1323SOL     OW15604   4.676   0.474   0.778  0.3100 -0.0051  0.1158
 1323SOL    HW115605   4.620   0.552   0.783 -0.1220 -0.3222  0.2609
 1323SOL    HW215606   4.734   0.496   0.851 -2.0888  2.0551  1.4199
 1324SOL     OW15607   1.967   3.011   2.238 -0.5024  1.1262  0.2205
 1324SOL    HW115608   1.948   3.103   2.255  3.2107  1.9923 -0.2753
 1324SOL    HW215609   1.960   3.014   2.143 -1.1357  0.9134  0.2605
 1325SOL     OW15610   4.007   0.597  14.241 -0.0280 -0.0278  0.0539
 1325SOL    HW115611   3.972   0.595  14.152  0.3045 -0.7960 -0.0658
 1325SOL    HW215612   3.933   0.632  14.290  0.2742  1.2880 -0.4247
 1326SOL     OW15613   1.798   3.782   2.480 -0.3163  0.2414 -0.4909
 1326SOL    HW115614   1.857   3.739   2.544 -1.6318  1.0726  1.2810
 1326SOL    HW215615   1.734   3.710   2.479  2.0754 -1.9129 -0.3110
 1327SOL     OW15616   0.823   1.380   9.944 -0.3725 -0.1226 -0.1778
 1327SOL    HW115617   0.822   1.375  10.040  1.4523 -0.1866 -0.1626
 1327SOL    HW215618   0.871   1.462   9.932 -1.1065  0.1353 -1.3612
 1328SOL     OW15619   4.297   3.151   3.262 -0.0910  0.2071  0.7034
 1328SOL    HW115620   4.228   3.185   3.318  0.5682  0.5874  1.2893
 1328SOL    HW215621   4.326   3.079   3.318 -2.8317 -1.3577  0.1168
 1329SOL     OW15622   1.154   1.869  17.622  0.7493  0.6144 -0.5297
 1329SOL    HW115623   1.147   1.779  17.591 -0.3862 -0.2493  2.2729
 1329SOL    HW215624   1.103   1.922  17.561 -0.0553 -0.2959 -0.6451
 1330SOL     OW15625   2.730   3.186  10.752  0.7277 -0.1741 -0.0907
 1330SOL    HW115626   2.789   3.116  10.725  2.6932  1.1994  0.6979
 1330SOL    HW215627   2.699   3.158  10.838 -0.5099  0.7833 -0.2144
 1331SOL     OW15628   4.080   2.752  11.403 -0.3704 -0.5161  0.5929
 1331SOL    HW115629   4.008   2.720  11.348 -0.9884  0.7872  0.6474
 1331SOL    HW215630   4.034   2.825  11.444 -1.9396 -1.0193 -0.2441
 1332SOL     OW15631   2.236   2.306   1.756  0.3220  0.0308  0.2900
 1332SOL    HW115632   2.209   2.280   1.668  1.4910  1.0049 -0.3511
 1332SOL    HW215633   2.296   2.235   1.779 -1.4768 -1.5743  0.0158
 1333SOL     OW15634   1.526   4.013   0.029 -0.5601 -0.2213 -0.5854
 1333SOL    HW115635   1.489   4.069   0.097 -0.2308 -0.4737 -0.1946
 1333SOL    HW215636   1.614   4.047   0.016 -0.1866 -1.0347 -0.1955
 1334SOL     OW15637   3.264   2.448  12.753 -0.4097  0.1205 -0.8928
 1334SOL    HW115638   3.354   2.437  12.786  0.4232 -0.7357 -3.4425
 1334SOL    HW215639   3.219   2.396  12.819  2.4845  0.5649  1.4377
 1335SOL     OW15640   1.511   4.210   5.194  0.2782  0.5046 -0.2163
 1335SOL    HW115641   1.547   4.298   5.185  0.7326  0.4443  1.0527
 1335SOL    HW215642   1.579   4.160   5.148  0.6913  1.4093 -0.5819
 1336SOL     OW15643   0.298   4.087   8.649 -0.6093  0.6510 -0.3299
 1336SOL    HW115644   0.224   4.058   8.702 -0.2090  0.3982  0.0937
 1336SOL    HW215645   0.363   4.050   8.709 -0.1529  0.9693 -0.6273
 1337SOL     OW15646   3.279   4.094   9.449 -0.3050  0.4021  0.1238
 1337SOL    HW115647   3.312   4.018   9.401  1.2321  0.6774  0.7347
 1337SOL    HW215648   3.223   4.049   9.513 -0.4602  0.1135 -0.2159
 1338SOL     OW15649   3.828   3.587  14.913  0.5658  0.1243 -0.3967
 1338SOL    HW115650   3.756   3.585  14.976  0.2915 -1.2062 -0.7399
 1338SOL    HW215651   3.812   3.669  14.867  2.5990  1.0715  0.6041
 1339SOL     OW15652   3.174   0.177   8.161  0.0776 -0.1282  0.3973
 1339SOL    HW115653   3.122   0.128   8.096  0.5390  0.3592 -0.3409
 1339SOL    HW215654   3.167   0.111   8.231  1.2288  0.2629  0.8730
 1340SOL     OW15655   2.360   4.370  17.408  0.1304 -0.3180 -0.0923
 1340SOL    HW115656   2.373   4.448  17.461  0.4359 -0.4565  0.0369
 1340SOL    HW215657   2.453   4.347  17.401 -0.3986 -2.9014  1.1133
 1341SOL     OW15658   1.957   2.729   4.527  0.2835 -0.0268  0.3198
 1341SOL    HW115659   2.036   2.762   4.484 -1.7423  0.9183 -2.7104
 1341SOL    HW215660   1.972   2.638   4.505 -0.7716  0.1008 -0.8970
 1342SOL     OW15661   2.070   3.968   7.214  0.1826 -0.2391 -0.0795
 1342SOL    HW115662   2.016   3.908   7.163 -1.2126 -0.2898  1.4663
 1342SOL    HW215663   1.998   4.012   7.259 -0.2430 -0.5010 -0.4982
 1343SOL     OW15664   2.587   1.665   6.732  0.0215 -0.1397  0.6440
 1343SOL    HW115665   2.632   1.721   6.668  2.8500  1.1216  3.7522
 1343SOL    HW215666   2.532   1.730   6.774 -0.3271  0.0836 -0.1555
 1344SOL     OW15667   0.221   0.054   7.381 -0.5410  0.7111  0.0827
 1344SOL    HW115668   0.202   0.085   7.293 -1.0392  1.5941  0.4948
 1344SOL    HW215669   0.139   0.074   7.426 -0.4767 -0.4182  0.6996
 1345SOL     OW15670   3.729   0.786   2.204 -0.2184 -0.3512 -0.3014
 1345SOL    HW115671   3.752   0.863   2.153  0.5810 -1.3765 -1.4939
 1345SOL    HW215672   3.649   0.761   2.159 -0.1240  1.9251 -1.7345
 1346SOL     OW15673   3.658   1.601   3.756 -0.1279 -0.0839 -0.1934
 1346SOL    HW115674   3.712   1.648   3.692 -0.4477 -0.8905 -1.0627
 1346SOL    HW215675   3.730   1.571   3.812 -0.6443 -0.1460  0.4331
 1347SOL     OW15676   2.379   0.820   7.596  0.4899  0.0344 -0.7592
 1347SOL    HW115677   2.407   0.902   7.635  1.3393 -0.5595 -0.1221
 1347SOL    HW215678   2.328   0.859   7.525  1.6062 -0.2678 -1.7259
 1348SOL     OW15679   4.654   2.704   6.384  0.0281  0.5798  0.2916
 1348SOL    HW115680   4.735   2.756   6.378 -0.3269  0.9592 -1.1613
 1348SOL    HW215681   4.614   2.732   6.302  1.3098  0.2756 -0.4304
 1349SOL     OW15682   1.837   0.276   6.937 -0.3548  0.4119  0.5481
 1349SOL    HW115683   1.814   0.215   6.867  1.7292  1.2212 -0.8590
 1349SOL    HW215684   1.750   0.301   6.968 -0.4179 -0.3227  0.9438
 1350SOL     OW15685   1.807   2.640   6.459 -0.1422  0.8007 -0.4619
 1350SOL    HW115686   1.826   2.729   6.430  1.6076  2.1834  4.9428
 1350SOL    HW215687   1.870   2.636   6.531  1.7534 -0.2628 -2.1548
 1351SOL     OW15688   3.497   1.964   3.956 -0.2503 -0.2405  0.8851
 1351SOL    HW115689   3.459   1.968   4.044  0.6559 -1.0696  1.3136
 1351SOL    HW215690   3.591   1.957   3.974  0.7355  3.1111 -2.9266
 1352SOL     OW15691   0.002   2.954   4.041  0.8858  0.2239 -0.0053
 1352SOL    HW115692   4.711   2.943   3.950 -0.7648 -0.2296  0.5581
 1352SOL    HW215693   4.683   3.024   4.074  2.0858  1.6880 -1.0696
 1353SOL     OW15694   2.580   1.919   0.987  0.3696  0.6067 -0.2013
 1353SOL    HW115695   2.491   1.898   0.958  1.2458  0.1584 -2.6232
 1353SOL    HW215696   2.620   1.836   1.015  0.1017  0.5096 -0.1144
 1354SOL     OW15697   4.004   0.076   2.563  0.3175  0.2761 -0.3208
 1354SOL    HW115698   4.028   0.142   2.628  1.3537  0.3424 -0.7689
 1354SOL    HW215699   4.061   0.004   2.593  0.2731  0.1891 -0.4493
 1355SOL     OW15700   1.296   0.369   7.098  0.1755 -0.0966 -0.1011
 1355SOL    HW115701   1.205   0.370   7.129  0.7442  1.3082  1.5060
 1355SOL    HW215702   1.292   0.295   7.038 -0.6051 -0.0217 -0.1492
 1356SOL     OW15703   2.239   4.093   3.081 -0.1498 -0.2030 -0.4762
 1356SOL    HW115704   2.232   4.004   3.046 -0.9068 -0.1004 -0.5939
 1356SOL    HW215705   2.211   4.152   3.011 -0.0743 -0.1722 -0.4797
 1357SOL     OW15706   1.454   2.217   9.413 -0.0283  0.0677  0.3126
 1357SOL    HW115707   1.424   2.307   9.404  0.9970  0.3383 -0.4589
 1357SOL    HW215708   1.426   2.180   9.496  1.8632  0.5320  1.1566
 1358SOL     OW15709   0.142   2.056   0.281 -0.1140 -0.0786 -1.0807
 1358SOL    HW115710   0.063   2.069   0.333  0.8441  0.8753  0.1174
 1358SOL    HW215711   0.163   1.965   0.301 -1.5454 -0.0031  0.8411
 1359SOL     OW15712   2.169   3.991   2.632  0.5338  0.8143 -0.0189
 1359SOL    HW115713   2.163   4.043   2.712 -1.8866  0.7492 -0.1675
 1359SOL    HW215714   2.082   3.952   2.636  1.0790 -0.1951  2.2677
 1360SOL     OW15715   1.924   4.639   6.185 -0.5424 -0.3323  0.0641
 1360SOL    HW115716   1.843   4.666   6.227  0.1306  1.8378 -0.0525
 1360SOL    HW215717   1.977   4.718   6.192 -2.0811  0.7101 -0.1989
 1361SOL     OW15718   3.477   2.745   7.521 -0.0801  0.1878 -0.5242
 1361SOL    HW115719   3.420   2.821   7.508 -1.2843 -1.0036 -2.0840
 1361SOL    HW215720   3.551   2.796   7.556 -0.2633 -1.3307  2.0685
 1362SOL     OW15721   0.719   3.449   1.521 -0.1830 -0.1596 -0.5608
 1362SOL    HW115722   0.811   3.475   1.525 -0.6626  1.3563  0.5117
 1362SOL    HW215723   0.722   3.375   1.460 -2.1510  0.4605 -1.3974
 1363SOL     OW15724   0.708   4.086  15.151 -0.1340  0.2399  0.5958
 1363SOL    HW115725   0.784   4.090  15.209 -0.1867 -0.6615  0.7241
 1363SOL    HW215726   0.751   4.049  15.075 -0.8823  1.5387 -0.4694
 1364SOL     OW15727   2.787   2.443   4.049  0.0570 -0.2077 -0.2352
 1364SOL    HW115728   2.828   2.504   4.110 -1.6242  2.4543 -1.7613
 1364SOL    HW215729   2.732   2.393   4.108  0.2192  0.7088  0.6997
 1365SOL     OW15730   3.579   2.114   7.635 -0.0312 -0.4194  0.1962
 1365SOL    HW115731   3.540   2.194   7.667 -1.1392 -1.0920  0.5106
 1365SOL    HW215732   3.523   2.086   7.562 -0.4587 -3.6636  1.7598
 1366SOL     OW15733   1.706   3.698  15.811  0.0812  0.9395  0.5594
 1366SOL    HW115734   1.624   3.739  15.839 -0.7120 -1.6664  2.0603
 1366SOL    HW215735   1.700   3.635  15.884 -0.1713  0.4862  0.1451
 1367SOL     OW15736   1.932   2.286   5.218  0.0656 -0.3008  0.5998
 1367SOL    HW115737   1.979   2.335   5.150 -1.1328  0.2668  0.1786
 1367SOL    HW215738   1.985   2.207   5.209  0.2392  0.0412 -1.5141
 1368SOL     OW15739   2.479   3.699   8.110 -0.1647 -0.0730  0.0935
 1368SOL    HW115740   2.417   3.633   8.077  0.0163  0.2279 -0.8653
 1368SOL    HW215741   2.415   3.770   8.116 -1.7584 -1.5099  0.1855
 1369SOL     OW15742   4.097   0.530   5.525 -0.0450 -0.1366 -0.1530
 1369SOL    HW115743   4.037   0.471   5.571 -2.6510  1.5738 -1.3763
 1369SOL    HW215744   4.113   0.588   5.600  0.3383 -0.2595 -0.1407
 1370SOL     OW15745   0.323   3.773   8.907  0.1116  0.0973  0.2315
 1370SOL    HW115746   0.295   3.714   8.837  1.5633 -2.8883  2.1333
 1370SOL    HW215747   0.273   3.852   8.887 -0.8423  0.7482  5.0334
 1371SOL     OW15748   3.738   1.110  14.928 -0.6941 -0.0769 -0.2544
 1371SOL    HW115749   3.787   1.183  14.967  1.2909 -1.9093  0.6450
 1371SOL    HW215750   3.754   1.043  14.993 -3.3370 -0.9134 -0.4525
 1372SOL     OW15751   2.942   3.252   3.440  0.1972  0.1883  0.1868
 1372SOL    HW115752   2.899   3.220   3.519 -1.3802  2.3220  0.1731
 1372SOL    HW215753   2.869   3.235   3.381 -0.2057 -0.1341  0.7817
 1373SOL     OW15754   1.861   2.513   6.230  0.1574 -0.0785  0.0875
 1373SOL    HW115755   1.847   2.542   6.320  0.9283  0.6447 -0.0234
 1373SOL    HW215756   1.781   2.544   6.188 -1.0649 -1.3635  1.4953
 1374SOL     OW15757   2.603   1.567   3.746 -0.6651 -0.3385 -0.1175
 1374SOL    HW115758   2.609   1.570   3.650  1.8744 -0.2809  0.0310
 1374SOL    HW215759   2.672   1.507   3.772 -1.5215 -1.9084 -1.4663
 1375SOL     OW15760   1.682   2.313   0.978 -0.5301  0.2410 -0.1535
 1375SOL    HW115761   1.678   2.372   1.053 -0.3583  0.2165 -0.1254
 1375SOL    HW215762   1.594   2.315   0.939 -0.2179  2.0286 -0.7779
 1376SOL     OW15763   0.664   1.244   6.992  0.0832  0.1627 -0.3431
 1376SOL    HW115764   0.683   1.206   7.078 -2.0727 -0.3153 -0.0937
 1376SOL    HW215765   0.577   1.279   7.009 -0.5145 -0.6480 -1.7351
 1377SOL     OW15766   4.258   0.966  12.943  0.7569  0.3127  0.0462
 1377SOL    HW115767   4.261   1.042  12.885  0.9816 -0.2527 -0.6844
 1377SOL    HW215768   4.342   0.926  12.921  1.4898  1.1149  1.3259
 1378SOL     OW15769   0.091   0.993   6.814  0.4972 -0.6907  0.1359
 1378SOL    HW115770   0.118   0.968   6.902  0.5533 -1.8526 -0.2188
 1378SOL    HW215771   0.113   0.910   6.773 -2.3663  0.2717 -3.2995
 1379SOL     OW15772   1.536   0.880   3.664 -0.0618  0.0720  0.6682
 1379SOL    HW115773   1.489   0.958   3.634  0.2800  0.3204  0.7650
 1379SOL    HW215774   1.487   0.862   3.744 -0.7368  3.4294  1.0147
 1380SOL     OW15775   0.506   2.619   8.250  0.6863  0.4770 -0.2985
 1380SOL    HW115776   0.509   2.611   8.345  1.6256 -2.8321 -0.6002
 1380SOL    HW215777   0.595   2.592   8.227  1.3737  0.3814  2.4534
 1381SOL     OW15778   3.870   4.262   8.101 -0.6948 -0.0934 -0.0037
 1381SOL    HW115779   3.815   4.316   8.044 -0.3044  1.0857  0.7325
 1381SOL    HW215780   3.943   4.315   8.133  0.5685 -0.8417 -1.6691
 1382SOL     OW15781   0.910   0.390  13.295  0.3442 -0.6521 -0.2077
 1382SOL    HW115782   0.922   0.328  13.366  1.4458 -0.6103 -0.3658
 1382SOL    HW215783   0.939   0.469  13.341  0.6273 -0.5015 -0.6460
 1383SOL     OW15784   3.281   0.432   2.192 -0.3197  0.2820  0.1648
 1383SOL    HW115785   3.226   0.504   2.161 -0.5968 -0.0545 -0.1263
 1383SOL    HW215786   3.230   0.401   2.267  0.9310  0.4857  1.1159
 1384SOL     OW15787   0.019   0.096   1.493  0.3503 -0.2310 -0.2004
 1384SOL    HW115788   4.661   0.105   1.496  0.3549 -0.2579  0.0061
 1384SOL    HW215789   0.038   0.161   1.561 -0.7368 -1.4421  1.2784
 1385SOL     OW15790   2.936   4.248   6.314  0.7280  0.4664 -0.1839
 1385SOL    HW115791   2.875   4.180   6.285 -1.2480  2.0838  0.1751
 1385SOL    HW215792   3.012   4.191   6.325 -1.3354 -2.1877  0.4799
 1386SOL     OW15793   0.326   4.215  12.270  0.0311 -0.7868  0.0014
 1386SOL    HW115794   0.260   4.208  12.201  1.3953  0.7467 -1.4431
 1386SOL    HW215795   0.391   4.150  12.241 -2.1424 -2.9005 -0.1915
 1387SOL     OW15796   0.170   0.626   8.374 -0.1435  0.4671  0.8200
 1387SOL    HW115797   0.175   0.535   8.403  1.4558  0.2441 -0.1686
 1387SOL    HW215798   0.252   0.664   8.403 -0.8011  1.6883  1.0817
 1388SOL     OW15799   2.645   2.834   0.741  0.7424 -1.1374  0.3258
 1388SOL    HW115800   2.738   2.843   0.719  0.2353  2.2908 -0.3816
 1388SOL    HW215801   2.641   2.742   0.766 -1.2828 -0.9461  0.7243
 1389SOL     OW15802   4.343   1.289   2.971  0.3449 -0.5378  0.0096
 1389SOL    HW115803   4.406   1.348   2.929 -0.2387  0.5432  0.6592
 1389SOL    HW215804   4.370   1.299   3.063  0.5272  1.4767 -0.2662
 1390SOL     OW15805   3.818   2.061  10.034  0.8704  0.5274 -0.2846
 1390SOL    HW115806   3.766   2.100   9.964  0.4856 -1.3368 -1.0314
 1390SOL    HW215807   3.905   2.076   9.998  0.9054  1.6556  0.2622
 1391SOL     OW15808   4.477   4.610   3.911  0.2735  1.0641 -0.4590
 1391SOL    HW115809   4.442   4.669   3.844  0.9559  0.8895 -0.9619
 1391SOL    HW215810   4.405   4.547   3.911 -0.2728  1.6539 -3.1476
 1392SOL     OW15811   4.636   0.070   3.979 -0.1890 -0.0024  0.0818
 1392SOL    HW115812   4.687   0.075   3.899  0.9268  0.7998  0.8386
 1392SOL    HW215813   4.578   4.732   3.968  0.0003  0.0861 -1.5500
 1393SOL     OW15814   1.621   0.582   9.468  0.2622 -0.1357 -0.1301
 1393SOL    HW115815   1.608   0.497   9.426  1.9232 -0.8292  0.7701
 1393SOL    HW215816   1.669   0.625   9.398 -0.8972 -0.5071 -1.1537
 1394SOL     OW15817   2.225   3.489   9.878 -0.5426 -0.0982  0.0028
 1394SOL    HW115818   2.275   3.493   9.797 -0.0393 -0.6063  0.2928
 1394SOL    HW215819   2.234   3.398   9.907 -0.1422 -0.2249 -0.5164
 1395SOL     OW15820   4.450   3.036  12.630 -0.1560  0.1653  0.3467
 1395SOL    HW115821   4.457   3.122  12.671  0.6009  0.1601  0.2202
 1395SOL    HW215822   4.377   3.056  12.571  0.6751 -0.1044 -0.7709
 1396SOL     OW15823   0.051   3.866   5.710  0.2760 -0.2528  0.0121
 1396SOL    HW115824   0.133   3.916   5.710  0.0841  0.0590 -5.0520
 1396SOL    HW215825   0.090   3.786   5.676 -2.7528 -1.1746 -1.2483
 1397SOL     OW15826   0.054   2.894   5.641  0.0915  0.3348 -0.3363
 1397SOL    HW115827   0.100   2.862   5.563  0.7890 -0.9333  0.5847
 1397SOL    HW215828   4.701   2.891   5.609  0.4243 -0.8943 -1.1739
 1398SOL     OW15829   2.918   3.357   4.358 -0.2308  0.5200  0.4004
 1398SOL    HW115830   2.853   3.353   4.288  1.0085 -0.1154 -0.7070
 1398SOL    HW215831   2.972   3.425   4.319 -1.6684  0.9243 -0.8826
 1399SOL     OW15832   1.983   1.329   7.243 -0.0724 -0.1839  0.0323
 1399SOL    HW115833   1.897   1.340   7.283  0.2510  1.5669  0.2678
 1399SOL    HW215834   2.019   1.418   7.248  0.9085 -0.4231 -2.5381
 1400SOL     OW15835   2.140   4.165  11.255 -0.4843  0.6471  0.2680
 1400SOL    HW115836   2.192   4.225  11.203  2.9878 -2.5109  0.1224
 1400SOL    HW215837   2.192   4.158  11.335 -0.7047  0.5704  0.4059
 1401SOL     OW15838   4.310   4.107   5.910 -0.6036  0.0917  0.2551
 1401SOL    HW115839   4.292   4.109   5.816 -0.3526 -2.8905  0.1509
 1401SOL    HW215840   4.397   4.148   5.913 -0.5497  0.1573 -1.8686
 1402SOL     OW15841   1.303   4.282   4.293  0.2504 -0.2353 -0.0799
 1402SOL    HW115842   1.296   4.197   4.338  2.4581  0.3745  1.3912
 1402SOL    HW215843   1.215   4.317   4.308 -0.3970 -1.3313 -1.2361
 1403SOL     OW15844   1.903   4.405  14.746 -0.5919 -0.2512 -0.6260
 1403SOL    HW115845   1.834   4.415  14.680  1.3692  0.8819 -2.4792
 1403SOL    HW215846   1.947   4.333  14.700 -0.6163  0.3523 -1.5999
 1404SOL     OW15847   1.858   0.469   4.182  0.4609  0.0858 -0.1584
 1404SOL    HW115848   1.901   0.385   4.200  1.1753  0.3829 -0.4783
 1404SOL    HW215849   1.779   0.436   4.139 -1.1547  2.8772  0.6527
 1405SOL     OW15850   4.023   3.599   6.670  0.0901  0.5678 -0.2185
 1405SOL    HW115851   4.065   3.629   6.750  0.5027 -1.6640  0.3981
 1405SOL    HW215852   4.011   3.504   6.681 -0.6592  0.7322  0.4223
 1406SOL     OW15853   3.822   2.688   9.379  0.3082  0.4938 -0.4089
 1406SOL    HW115854   3.733   2.721   9.387  0.2633 -0.3061  2.4123
 1406SOL    HW215855   3.831   2.648   9.465 -0.8229  0.2008 -0.4280
 1407SOL     OW15856   1.512   3.406  10.094  0.2481 -0.4493  0.2260
 1407SOL    HW115857   1.505   3.349  10.018  0.4098 -0.2149  0.0332
 1407SOL    HW215858   1.532   3.490  10.051 -0.3787  1.0130  2.7935
 1408SOL     OW15859   0.176   0.887  10.248  0.6992  0.6375  0.1343
 1408SOL    HW115860   0.156   0.843  10.331  1.5069  0.8813  0.4611
 1408SOL    HW215861   0.202   0.971  10.285  0.6573  1.2285 -1.2147
 1409SOL     OW15862   0.259   2.933   6.952 -0.4938 -0.1488  0.3068
 1409SOL    HW115863   0.333   2.941   7.011 -1.3635 -1.1573  1.5509
 1409SOL    HW215864   0.236   2.840   6.961 -2.3889  0.2998  0.1815
 1410SOL     OW15865   3.527   1.310   6.416  0.0892 -0.2958  0.1975
 1410SOL    HW115866   3.560   1.393   6.381 -0.3133  0.4607  1.6342
 1410SOL    HW215867   3.476   1.340   6.491  0.0747  1.0878 -0.3566
 1411SOL     OW15868   2.034   1.460   4.313 -0.4492 -0.0899  0.1554
 1411SOL    HW115869   2.057   1.536   4.259  3.3898 -2.1635 -1.1178
 1411SOL    HW215870   2.088   1.487   4.387 -0.0650  1.8361 -0.8274
 1412SOL     OW15871   3.696   4.540  11.080 -0.1157 -0.5258 -0.6068
 1412SOL    HW115872   3.633   4.569  11.145 -0.1274  0.5981 -1.1201
 1412SOL    HW215873   3.768   4.598  11.105 -1.0830  0.5851 -0.4071
 1413SOL     OW15874   4.146   3.616  13.215  0.1951 -0.4596  0.6414
 1413SOL    HW115875   4.185   3.695  13.177 -1.1580  1.0556  2.4199
 1413SOL    HW215876   4.222   3.560  13.200  0.7208  0.2373  0.7067
 1414SOL     OW15877   0.230   1.716   3.643  0.1047 -0.3986  0.3137
 1414SOL    HW115878   0.264   1.764   3.568 -1.0002  1.6412  1.1386
 1414SOL    HW215879   0.220   1.628   3.605 -0.0306  0.6700 -2.0797
 1415SOL     OW15880   2.570   0.711   9.000  0.1268  0.3583 -0.4733
 1415SOL    HW115881   2.565   0.626   9.043  3.6989  0.6701  0.5780
 1415SOL    HW215882   2.660   0.738   9.017 -0.8144  2.5779  1.0375
 1416SOL     OW15883   0.038   3.704   6.056  0.1262 -0.7877  0.0936
 1416SOL    HW115884   4.684   3.709   6.084 -0.2581  0.8574 -1.5121
 1416SOL    HW215885   0.072   3.788   6.085 -1.0369 -0.4366  0.4628
 1417SOL     OW15886   4.523   3.114   3.788  0.9416  0.0277 -0.8240
 1417SOL    HW115887   4.534   3.172   3.713  1.6941 -1.2468 -1.7059
 1417SOL    HW215888   4.497   3.030   3.750 -2.6327  0.2438  1.0473
 1418SOL     OW15889   3.545   1.378  10.577  0.0893 -0.1015 -0.0912
 1418SOL    HW115890   3.514   1.300  10.622  0.7327 -1.2867 -1.6714
 1418SOL    HW215891   3.516   1.364  10.487 -3.3757 -2.8047  1.4579
 1419SOL     OW15892   3.710   3.493   3.096  0.2122 -0.3004 -0.2782
 1419SOL    HW115893   3.629   3.506   3.145 -0.0579 -3.9381  0.2167
 1419SOL    HW215894   3.741   3.411   3.134 -1.3857 -1.9294 -2.5238
 1420SOL     OW15895   4.359   4.548  13.019 -0.0910  0.1008  0.1476
 1420SOL    HW115896   4.319   4.622  13.065 -0.4351 -0.0007  0.0083
 1420SOL    HW215897   4.301   4.546  12.943 -0.7844  0.5985  0.6574
 1421SOL     OW15898   0.790   2.523   3.668 -0.2481  0.1287 -0.2110
 1421SOL    HW115899   0.821   2.613   3.677 -2.5135  0.7706  1.1839
 1421SOL    HW215900   0.780   2.516   3.573  0.1342  1.4627 -0.3605
 1422SOL     OW15901   3.160   0.318   2.407  0.0051  0.4567  0.6805
 1422SOL    HW115902   3.079   0.291   2.364  0.9327  0.1769 -0.8980
 1422SOL    HW215903   3.153   0.263   2.485  0.8200 -1.8966 -0.8927
 1423SOL     OW15904   0.133   0.874   0.946 -0.8503 -0.8637  0.2323
 1423SOL    HW115905   0.226   0.866   0.965 -0.8916 -1.1991  0.2924
 1423SOL    HW215906   0.102   0.959   0.977 -0.1711 -0.5411  0.0204
 1424SOL     OW15907   4.275   1.572   4.007 -0.1420 -0.7016 -0.2569
 1424SOL    HW115908   4.211   1.574   3.936 -0.0165  0.8917 -0.3350
 1424SOL    HW215909   4.351   1.549   3.953 -0.3583 -2.6301  0.2795
 1425SOL     OW15910   4.568   3.120   3.103 -0.0657 -1.0719  0.9647
 1425SOL    HW115911   4.546   3.188   3.166 -1.3605 -3.0158  2.6419
 1425SOL    HW215912   4.664   3.129   3.099 -0.1337 -0.8226  0.0326
 1426SOL     OW15913   3.555   3.015   5.032  0.0042  0.5732 -0.6589
 1426SOL    HW115914   3.549   3.092   5.089 -0.0827 -0.4181  0.6893
 1426SOL    HW215915   3.624   2.970   5.082  0.1907  0.8253 -0.6904
 1427SOL     OW15916   3.040   1.238  14.599  0.2228  0.4470  0.1549
 1427SOL    HW115917   3.124   1.235  14.645  0.0095  2.2829  0.6766
 1427SOL    HW215918   3.061   1.217  14.508 -2.5127 -2.4757  0.2258
 1428SOL     OW15919   4.469   4.652   2.411  0.2520 -1.0836  0.2521
 1428SOL    HW115920   4.547   4.665   2.356 -0.7062  1.1776 -0.5832
 1428SOL    HW215921   4.450   4.566   2.375  0.1900 -0.9210 -0.1046
 1429SOL     OW15922   0.220   1.051  11.487  0.3579 -0.0780  0.4408
 1429SOL    HW115923   0.252   1.045  11.577 -1.2230 -2.0807  0.8416
 1429SOL    HW215924   0.235   1.142  11.460  0.8129 -0.8577 -2.0086
 1430SOL     OW15925   0.070   2.905  12.372 -0.2646  0.0056  0.1252
 1430SOL    HW115926   0.015   2.826  12.372 -2.1735  1.3475 -1.9367
 1430SOL    HW215927   0.021   2.963  12.314  1.7279 -0.6554 -2.1978
 1431SOL     OW15928   3.225   2.896   1.604  0.0229  0.4417 -0.0755
 1431SOL    HW115929   3.149   2.954   1.615  0.2936  0.8198 -0.2211
 1431SOL    HW215930   3.209   2.819   1.659  0.1058 -0.2154 -0.9594
 1432SOL     OW15931   2.266   0.801   2.684  0.4485 -0.2458 -0.8235
 1432SOL    HW115932   2.259   0.713   2.721 -0.3581 -0.2584 -1.0239
 1432SOL    HW215933   2.192   0.816   2.626 -1.4694  1.3710  2.0564
 1433SOL     OW15934   2.337   0.922   6.021  0.0012  0.1469 -0.2933
 1433SOL    HW115935   2.375   0.944   5.936  1.0423 -2.1320 -0.4176
 1433SOL    HW215936   2.273   0.991   6.040 -0.6308 -1.0302  1.7774
 1434SOL     OW15937   0.715   0.243   6.635  0.1428  0.0203  0.2558
 1434SOL    HW115938   0.782   0.267   6.700  1.8803 -1.6603 -0.9262
 1434SOL    HW215939   0.704   0.151   6.660 -1.9643 -0.2171 -1.6306
 1435SOL     OW15940   0.483   2.255   6.523 -0.1066  0.2346 -0.4009
 1435SOL    HW115941   0.439   2.202   6.456 -0.3517  0.6660 -0.5799
 1435SOL    HW215942   0.554   2.285   6.467 -0.2900  0.0994 -0.7080
 1436SOL     OW15943   0.778   2.210   6.402 -0.2112 -0.3161 -0.1725
 1436SOL    HW115944   0.736   2.194   6.486 -1.8343 -1.5833 -1.2311
 1436SOL    HW215945   0.853   2.150   6.405  1.0912  1.3339  0.4852
 1437SOL     OW15946   2.616   3.950   5.364 -0.3872  0.6950 -0.0633
 1437SOL    HW115947   2.680   3.881   5.343  0.3317  0.5477  2.6781
 1437SOL    HW215948   2.535   3.902   5.380  0.3121  0.2525  2.1685
 1438SOL     OW15949   0.853   2.825  15.051 -0.8638 -0.3492 -0.0844
 1438SOL    HW115950   0.849   2.917  15.077 -0.2176 -0.4318  0.3055
 1438SOL    HW215951   0.928   2.820  14.992  0.0984 -0.3706  1.1522
 1439SOL     OW15952   0.480   1.762  15.258 -0.5534 -0.3431 -0.1335
 1439SOL    HW115953   0.457   1.848  15.224 -2.4869 -0.3328  1.1844
 1439SOL    HW215954   0.450   1.712  15.182 -1.7890 -2.6229  1.8396
 1440SOL     OW15955   4.587   2.839   1.112  0.3923  0.2417 -0.2579
 1440SOL    HW115956   4.530   2.845   1.036  1.0860  1.0733 -0.7121
 1440SOL    HW215957   4.584   2.744   1.124  0.3764  0.3587  0.6919
 1441SOL     OW15958   4.657   1.641   5.007 -0.2279 -0.1851  0.1950
 1441SOL    HW115959   4.646   1.578   4.936 -1.1672 -1.4269  1.4338
 1441SOL    HW215960   4.724   1.606   5.066 -0.6604  1.1296  1.4723
 1442SOL     OW15961   2.817   0.536   0.113  0.6961  0.1027 -0.1384
 1442SOL    HW115962   2.859   0.454   0.138 -0.3641 -0.6467 -0.7833
 1442SOL    HW215963   2.882   0.569   0.051  1.3893 -2.9115 -0.9777
 1443SOL     OW15964   2.374   2.267  12.787  0.1037  0.5509 -0.6339
 1443SOL    HW115965   2.456   2.254  12.834 -0.5105 -0.1817  0.2264
 1443SOL    HW215966   2.318   2.327  12.834 -0.1245  1.9430 -2.6849
 1444SOL     OW15967   1.047   0.174   6.752 -0.2017  0.2896 -0.0547
 1444SOL    HW115968   1.054   0.178   6.656 -0.8312  2.2047 -0.0267
 1444SOL    HW215969   0.991   0.100   6.774  1.8781 -1.8898 -2.0390
 1445SOL     OW15970   4.463   0.111   5.185 -0.1788 -0.2134  0.1228
 1445SOL    HW115971   4.371   0.096   5.165 -0.2838 -1.6557  1.6878
 1445SOL    HW215972   4.465   0.069   5.271 -0.6777  0.7239  0.5869
 1446SOL     OW15973   4.709   2.004   6.858  0.1155  0.4840 -0.1916
 1446SOL    HW115974   0.017   2.003   6.773  0.1024  1.8529 -0.2208
 1446SOL    HW215975   4.721   2.099   6.867  0.8141  0.3693  0.0875
 1447SOL     OW15976   3.550   0.043   1.959 -0.5349 -0.3544  1.0169
 1447SOL    HW115977   3.499   4.702   1.939 -0.4087 -0.2813  0.4005
 1447SOL    HW215978   3.592   0.057   1.874 -1.0581  1.6250  1.0912
 1448SOL     OW15979   1.737   0.578   7.606  0.0008  0.0640  0.3878
 1448SOL    HW115980   1.734   0.510   7.674  1.2108  0.2530  0.6426
 1448SOL    HW215981   1.727   0.656   7.661 -1.5817  2.0852 -2.8166
 1449SOL     OW15982   2.045   2.965   1.690  0.1249 -0.3446 -0.1854
 1449SOL    HW115983   2.137   2.981   1.710  0.1717  1.1208 -1.5715
 1449SOL    HW215984   2.040   2.876   1.656  0.9536 -1.0297  1.5025
 1450SOL     OW15985   2.482   1.926   7.497  0.1626 -0.7219 -0.4825
 1450SOL    HW115986   2.444   1.924   7.409 -0.8446 -4.0596  0.0004
 1450SOL    HW215987   2.568   1.963   7.479 -0.3102 -0.5979 -2.4444
 1451SOL     OW15988   4.539   3.903   7.865 -0.7688  0.6084 -1.0079
 1451SOL    HW115989   4.484   3.893   7.788 -0.4800  0.9455 -1.2543
 1451SOL    HW215990   4.481   3.948   7.927 -0.4402 -0.0744 -0.1978
 1452SOL     OW15991   3.754   3.963   5.326  0.0015 -0.2262 -0.5266
 1452SOL    HW115992   3.777   3.910   5.403  0.7757  0.0191 -0.5896
 1452SOL    HW215993   3.842   3.996   5.307  0.3633 -1.4252 -0.9188
 1453SOL     OW15994   3.179   0.145  16.554  0.1128 -0.1618 -0.4385
 1453SOL    HW115995   3.117   0.158  16.626 -1.8803  0.1943 -2.2278
 1453SOL    HW215996   3.120   0.092  16.501  0.5040 -1.2499  0.2246
 1454SOL     OW15997   0.607   3.657   9.520  0.6650  0.1706 -0.5033
 1454SOL    HW115998   0.544   3.721   9.486 -0.0283  0.4341  1.2652
 1454SOL    HW215999   0.605   3.595   9.447  0.9025 -0.0879 -0.2886
 1455SOL     OW16000   0.581   4.089  14.875 -0.0392 -0.3560 -0.0236
 1455SOL    HW116001   0.491   4.098  14.846  0.0468 -0.3220 -0.2758
 1455SOL    HW216002   0.576   3.997  14.902  0.2828  0.0196  1.3577
 1456SOL     OW16003   1.474   3.857  15.924 -0.0165  0.0778 -0.2595
 1456SOL    HW116004   1.429   3.924  15.872 -1.8636 -1.8822 -1.1918
 1456SOL    HW216005   1.436   3.864  16.012  2.3005  0.8511  0.6816
 1457SOL     OW16006   0.529   2.565   9.714 -0.0805  0.0638 -0.4255
 1457SOL    HW116007   0.516   2.472   9.697  0.2718  0.0059 -0.3726
 1457SOL    HW216008   0.494   2.562   9.803  0.5951 -1.5355 -0.2135
 1458SOL     OW16009   3.884   3.582   2.628 -0.2357  0.4247 -0.5775
 1458SOL    HW116010   3.838   3.527   2.691  1.1558 -1.4350 -1.1979
 1458SOL    HW216011   3.961   3.532   2.601 -0.8067 -1.4081  1.1771
 1459SOL     OW16012   2.864   3.454   7.341 -0.1793  0.0680 -0.3001
 1459SOL    HW116013   2.782   3.453   7.292 -0.0715  0.3028 -0.4880
 1459SOL    HW216014   2.889   3.547   7.337 -2.3610  0.6349 -0.7068
 1460SOL     OW16015   2.020   4.633  15.131  0.0918 -0.1606 -0.5643
 1460SOL    HW116016   1.999   4.610  15.041  1.2905 -0.3429 -0.7980
 1460SOL    HW216017   2.115   4.619  15.124 -0.0621 -1.7330  0.6299
 1461SOL     OW16018   1.588   3.515   6.726 -0.1017 -0.1318 -0.2963
 1461SOL    HW116019   1.546   3.482   6.806 -0.9837  1.0411 -0.2783
 1461SOL    HW216020   1.561   3.606   6.720  4.3483  1.2147  0.3358
 1462SOL     OW16021   1.125   0.596  11.568 -0.3330  0.3812 -0.5240
 1462SOL    HW116022   1.103   0.685  11.541 -1.7072 -0.1485 -1.1692
 1462SOL    HW216023   1.049   0.544  11.542 -0.6227  0.6649 -0.2470
 1463SOL     OW16024   2.534   4.471  16.083 -0.4769  0.4340 -0.3221
 1463SOL    HW116025   2.594   4.449  16.154  0.8400  2.8574 -0.7229
 1463SOL    HW216026   2.453   4.426  16.110  0.6547 -1.3258  0.1482
 1464SOL     OW16027   3.291   2.708   7.858 -0.2804  0.0073 -0.3506
 1464SOL    HW116028   3.302   2.802   7.845 -1.1850  0.4777  2.0821
 1464SOL    HW216029   3.206   2.687   7.819 -1.3306  0.0883  1.8449
 1465SOL     OW16030   0.460   1.136  15.453 -0.7847 -0.3224  0.5827
 1465SOL    HW116031   0.490   1.064  15.509  0.0887 -0.3917  0.0255
 1465SOL    HW216032   0.542   1.143  15.404 -1.6049  0.6921 -0.6301
 1466SOL     OW16033   3.300   2.788  13.220 -0.0979 -0.1869  1.2612
 1466SOL    HW116034   3.205   2.804  13.222 -0.2841 -1.1336  0.2437
 1466SOL    HW216035   3.310   2.694  13.201 -0.7162  0.0752 -0.3238
 1467SOL     OW16036   1.732   0.758   4.034 -0.3039 -0.1921 -0.0565
 1467SOL    HW116037   1.732   0.689   4.100  0.1869  0.7377  0.9163
 1467SOL    HW216038   1.711   0.835   4.088  1.0686  1.5954 -2.0642
 1468SOL     OW16039   0.857   3.572  11.755 -0.5764  0.2528 -0.1198
 1468SOL    HW116040   0.824   3.660  11.773 -2.0066 -0.6576  1.7008
 1468SOL    HW216041   0.947   3.588  11.726 -0.4743  1.9393  1.1018
 1469SOL     OW16042   1.447   1.962   9.297 -0.7861 -0.2059 -0.0295
 1469SOL    HW116043   1.452   2.053   9.327  0.5073  0.3150 -1.8664
 1469SOL    HW216044   1.531   1.954   9.253  1.1130  1.4302  3.3328
 1470SOL     OW16045   2.114   1.809   8.797  0.6234  0.1362 -0.2715
 1470SOL    HW116046   2.160   1.726   8.782  1.9936  0.7032  0.7300
 1470SOL    HW216047   2.162   1.875   8.748  0.6437 -0.6250 -1.2771
 1471SOL     OW16048   2.364   2.162  17.008  0.1150 -0.7159  0.3443
 1471SOL    HW116049   2.446   2.207  16.990 -0.2589  0.3017  1.1917
 1471SOL    HW216050   2.361   2.114  16.925 -2.0547 -0.9091  0.5289
 1472SOL     OW16051   2.816   3.977   3.096 -0.1716  0.1725 -0.5484
 1472SOL    HW116052   2.855   3.950   3.179  0.0316  1.1517 -0.3192
 1472SOL    HW216053   2.853   3.918   3.031  1.1561  0.1722  0.2216
 1473SOL     OW16054   2.421   4.588   5.886  0.0529 -0.8002 -0.0992
 1473SOL    HW116055   2.416   4.594   5.791 -0.4576 -1.2005 -0.1019
 1473SOL    HW216056   2.406   4.679   5.912 -1.4859 -1.1665  0.2960
 1474SOL     OW16057   2.339   0.225   9.497  0.1810 -0.4547 -0.0031
 1474SOL    HW116058   2.313   0.133   9.504  2.4322 -0.8232  3.3262
 1474SOL    HW216059   2.435   0.218   9.502  0.1980 -0.2652 -0.0644
 1475SOL     OW16060   1.095   4.461   6.374 -0.0589  0.1174  0.7903
 1475SOL    HW116061   1.046   4.399   6.321  0.5850 -0.5908  1.0333
 1475SOL    HW216062   1.020   4.502   6.418 -1.1270 -2.0801  1.0109
 1476SOL     OW16063   1.300   1.457   7.309 -0.0336 -0.1487 -0.2276
 1476SOL    HW116064   1.205   1.458   7.310 -0.0193  1.0496  0.3189
 1476SOL    HW216065   1.315   1.363   7.310 -1.0018 -0.2837  2.3889
 1477SOL     OW16066   3.306   1.074   7.420 -0.4057 -0.0760  0.2132
 1477SOL    HW116067   3.364   1.002   7.446 -1.2870 -1.0712 -0.5569
 1477SOL    HW216068   3.223   1.028   7.435 -2.1201  2.7055 -0.6913
 1478SOL     OW16069   0.216   1.721   4.512  0.5643  0.1800  0.1844
 1478SOL    HW116070   0.270   1.717   4.591  1.1850 -0.0459 -0.2599
 1478SOL    HW216071   0.280   1.727   4.442  0.5047  2.6739  0.3158
 1479SOL     OW16072   0.158   1.823  15.529  0.2228  0.2023 -0.3009
 1479SOL    HW116073   0.182   1.883  15.457 -0.9525 -0.2212 -1.0301
 1479SOL    HW216074   0.219   1.866  15.590  0.7147  1.3274 -1.5825
 1480SOL     OW16075   4.560   1.277   5.755  0.6780 -0.1192  0.3908
 1480SOL    HW116076   4.535   1.367   5.777  1.2325  0.4943 -1.5096
 1480SOL    HW216077   4.621   1.290   5.682 -2.1559  1.2988 -1.7016
 1481SOL     OW16078   1.782   0.917   8.463 -0.0753 -0.1446  0.2313
 1481SOL    HW116079   1.746   0.865   8.535  0.1623  2.7397  2.4412
 1481SOL    HW216080   1.875   0.903   8.481 -0.4414 -2.6882  0.1823
 1482SOL     OW16081   0.032   3.324   0.691 -0.2558  0.5630  0.0653
 1482SOL    HW116082   0.099   3.259   0.713 -0.8137  0.4023  1.2918
 1482SOL    HW216083   0.021   3.364   0.777  0.9593  3.0520 -0.9219
 1483SOL     OW16084   1.727   2.425   3.054 -0.6175 -0.0508 -0.9288
 1483SOL    HW116085   1.769   2.358   3.107  1.3761  0.7722 -1.4638
 1483SOL    HW216086   1.757   2.421   2.963 -0.7253  1.1727 -1.0165
 1484SOL     OW16087   3.286   3.662   4.954  0.3160  0.2158  0.2862
 1484SOL    HW116088   3.204   3.694   4.991  0.6773  1.5063 -0.0558
 1484SOL    HW216089   3.299   3.586   5.011 -0.5478  0.5617  0.9213
 1485SOL     OW16090   1.800   3.040   9.151  0.0265 -0.0033 -0.6416
 1485SOL    HW116091   1.739   3.045   9.224 -0.7493 -2.4250 -1.1014
 1485SOL    HW216092   1.804   2.945   9.140 -5.6403 -0.2940 -0.0850
 1486SOL     OW16093   2.217   2.408   7.501 -0.0637 -0.3089  0.0509
 1486SOL    HW116094   2.123   2.403   7.485 -0.2911  1.9187  0.6836
 1486SOL    HW216095   2.230   2.314   7.487 -1.1519 -0.5723  0.8128
 1487SOL     OW16096   0.914   3.126   7.608  0.3665 -0.1265 -0.4221
 1487SOL    HW116097   0.934   3.158   7.696  1.4954 -2.4204  0.1556
 1487SOL    HW216098   0.890   3.035   7.626  0.0266  0.1200  0.3719
 1488SOL     OW16099   1.527   1.236   6.503 -0.2930 -0.2967  0.1155
 1488SOL    HW116100   1.484   1.177   6.442  0.1917 -1.0079  0.4673
 1488SOL    HW216101   1.498   1.320   6.467  0.7498  0.8000  1.8374
 1489SOL     OW16102   1.635   0.139  10.264  0.3029  0.1692  0.6120
 1489SOL    HW116103   1.687   0.114  10.340  1.5716 -1.3820 -0.7579
 1489SOL    HW216104   1.563   0.191  10.299 -1.4406 -2.6076  1.1784
 1490SOL     OW16105   2.758   1.795   1.350  0.3975  0.3337  0.9854
 1490SOL    HW116106   2.797   1.766   1.433 -0.7213  0.7466  1.6546
 1490SOL    HW216107   2.683   1.738   1.335  0.6029  0.5420 -0.7529
 1491SOL     OW16108   3.207   3.150   4.225 -0.0740  0.0551 -0.1369
 1491SOL    HW116109   3.124   3.105   4.238 -0.3342  0.4960 -0.2668
 1491SOL    HW216110   3.173   3.235   4.197 -1.4440 -0.4755 -0.0788
 1492SOL     OW16111   2.761   1.400   7.917  0.0777 -0.3743 -0.1282
 1492SOL    HW116112   2.812   1.400   7.835 -0.4370 -1.1207 -0.4410
 1492SOL    HW216113   2.829   1.388   7.983 -1.1900 -0.8948  1.0636
 1493SOL     OW16114   2.356   3.892   9.430  0.7214  1.3307  0.1015
 1493SOL    HW116115   2.390   3.964   9.483 -3.1994  1.6616  2.1639
 1493SOL    HW216116   2.373   3.930   9.344  0.1470  1.3649  0.0063
 1494SOL     OW16117   1.533   4.315   5.707 -0.1865  0.2176  0.2290
 1494SOL    HW116118   1.543   4.375   5.782 -1.5387  1.4739 -0.5933
 1494SOL    HW216119   1.624   4.317   5.676 -0.2471 -0.9196  0.0025
 1495SOL     OW16120   3.908   4.338   7.121  0.6039  0.1291  0.1132
 1495SOL    HW116121   3.887   4.245   7.107 -0.9725  0.5607 -0.3589
 1495SOL    HW216122   3.967   4.325   7.195 -0.6976  0.3605  1.2071
 1496SOL     OW16123   1.737   3.064  14.078 -0.3231  0.1738 -0.1088
 1496SOL    HW116124   1.716   3.045  13.987 -0.7678 -3.5339  0.7847
 1496SOL    HW216125   1.827   3.098  14.084 -0.6037  0.6135  1.8279
 1497SOL     OW16126   1.543   3.653   9.974  0.8816  0.1798  0.1667
 1497SOL    HW116127   1.593   3.664   9.893 -0.2532 -1.3006 -0.7268
 1497SOL    HW216128   1.557   3.744  10.002  0.0560  0.7817 -1.3338
 1498SOL     OW16129   0.435   1.000   7.175  0.3464 -0.0915  0.8217
 1498SOL    HW116130   0.401   0.989   7.086  1.1905 -0.4546  0.5434
 1498SOL    HW216131   0.360   1.047   7.211 -2.5022 -3.4910 -0.6809
 1499SOL     OW16132   4.038   3.715   3.952  0.3905  0.5148  0.3960
 1499SOL    HW116133   3.976   3.680   3.888  0.9829 -0.7587  0.5218
 1499SOL    HW216134   4.080   3.633   3.980  0.2251  0.1173 -0.5126
 1500SOL     OW16135   0.891   0.300   2.355 -0.7002  0.1730 -0.1310
 1500SOL    HW116136   0.839   0.254   2.289 -1.5278 -1.3798  1.5791
 1500SOL    HW216137   0.981   0.269   2.358 -0.5343  0.7238  0.4597
 1501SOL     OW16138   0.838   3.870   2.691  0.1742 -0.1029  0.1037
 1501SOL    HW116139   0.820   3.872   2.785 -0.0959 -1.2398  0.0691
 1501SOL    HW216140   0.907   3.805   2.681 -0.4711 -0.9788  1.4315
 1502SOL     OW16141   4.108   1.233  11.838 -0.4068  0.4267  0.3933
 1502SOL    HW116142   4.150   1.306  11.884  0.1292  0.8803 -0.8044
 1502SOL    HW216143   4.021   1.271  11.823  0.2458  2.4354  1.6480
 1503SOL     OW16144   1.999   0.269   8.692 -0.4430 -0.0666  0.1607
 1503SOL    HW116145   2.040   0.288   8.608  2.2142 -0.4347  1.3756
 1503SOL    HW216146   1.985   0.174   8.688 -2.1502  0.1276  1.3317
 1504SOL     OW16147   0.692   3.281   8.465 -0.1052 -0.1502  0.2490
 1504SOL    HW116148   0.687   3.253   8.556  1.5786  1.4839  0.8635
 1504SOL    HW216149   0.605   3.305   8.433 -0.6803  0.1656  2.0642
 1505SOL     OW16150   1.167   2.557   8.869 -0.0772 -0.4466 -0.6277
 1505SOL    HW116151   1.096   2.492   8.877  1.3798 -1.8422  1.0974
 1505SOL    HW216152   1.251   2.512   8.864 -0.1628 -0.8708  1.5436
 1506SOL     OW16153   0.852   4.423   4.175  0.5492  0.0186  0.3079
 1506SOL    HW116154   0.866   4.516   4.160 -0.5813  0.0680 -0.4429
 1506SOL    HW216155   0.774   4.397   4.125 -0.0808  0.6127  0.9836
 1507SOL     OW16156   4.136   1.540   1.716 -0.2242 -0.2532 -0.3330
 1507SOL    HW116157   4.046   1.508   1.707 -1.0072  1.6218  0.8872
 1507SOL    HW216158   4.173   1.491   1.643  0.5367 -0.2291  0.0339
 1508SOL     OW16159   2.644   2.361   8.180 -0.0534 -0.5973  0.9018
 1508SOL    HW116160   2.568   2.418   8.173  0.5650  0.1997  0.5786
 1508SOL    HW216161   2.690   2.397   8.103 -2.2129  1.1405  0.4413
 1509SOL     OW16162   3.737   1.774   8.358  0.1565 -0.1969 -0.5091
 1509SOL    HW116163   3.651   1.815   8.366  0.2264  0.1338 -1.4763
 1509SOL    HW216164   3.789   1.853   8.372  0.0699 -0.0216 -1.1478
 1510SOL     OW16165   3.358   1.583   8.562  0.4217 -0.5973 -0.5019
 1510SOL    HW116166   3.449   1.555   8.569  0.9196  0.9660 -0.6300
 1510SOL    HW216167   3.374   1.658   8.619 -2.2453 -0.2305 -0.2513
 1511SOL     OW16168   2.678   2.150   5.109  0.3061  0.3417 -0.3985
 1511SOL    HW116169   2.590   2.133   5.076 -0.7824 -0.0242  2.6708
 1511SOL    HW216170   2.720   2.064   5.112  1.1010  0.6752 -2.2822
 1512SOL     OW16171   0.215   0.104   3.074 -0.0163  0.1250 -0.1152
 1512SOL    HW116172   0.123   0.086   3.052  0.4000  1.2182 -2.6841
 1512SOL    HW216173   0.249   0.015   3.080 -1.8963 -0.6924 -1.4364
 1513SOL     OW16174   0.852   2.698   8.558  0.0397 -0.0495  0.0133
 1513SOL    HW116175   0.938   2.729   8.529  0.1370 -0.4412 -0.1264
 1513SOL    HW216176   0.868   2.627   8.621  0.3851 -0.4187 -0.4845
 1514SOL     OW16177   3.319   1.040  17.553 -0.3060  0.1689 -0.5225
 1514SOL    HW116178   3.310   1.047  17.458  0.2719 -0.6970 -0.6383
 1514SOL    HW216179   3.324   0.945  17.566  0.2356  0.1103 -1.1881
 1515SOL     OW16180   0.245   0.301  10.268  0.3295 -0.1067 -0.4968
 1515SOL    HW116181   0.197   0.295  10.185 -0.6276  2.0292 -0.1234
 1515SOL    HW216182   0.181   0.265  10.329  0.2901  2.1123  0.7931
 1516SOL     OW16183   3.208   4.557   7.743 -0.1949 -0.5867 -0.1212
 1516SOL    HW116184   3.122   4.576   7.781 -0.5169 -1.8327 -0.2301
 1516SOL    HW216185   3.187   4.531   7.653 -1.0658 -2.0968  0.5282
 1517SOL     OW16186   3.599   1.800  15.196 -0.1203  0.0773 -0.3893
 1517SOL    HW116187   3.574   1.852  15.119 -2.8862 -0.4300  0.1479
 1517SOL    HW216188   3.546   1.839  15.266 -0.5185  0.6207 -0.9847
 1518SOL     OW16189   2.316   2.865   2.419 -0.5784 -0.3267 -0.1449
 1518SOL    HW116190   2.226   2.899   2.422 -0.8033 -1.0778  1.7062
 1518SOL    HW216191   2.352   2.921   2.487  0.6175  0.3858 -1.3795
 1519SOL     OW16192   4.624   2.253   1.012  0.0801 -0.0208  0.2811
 1519SOL    HW116193   4.578   2.248   0.928 -0.1377  0.3615  0.3776
 1519SOL    HW216194   4.553   2.285   1.068  0.3489  0.7158  0.2018
 1520SOL     OW16195   1.193   2.132   3.486  0.5216  0.3457 -0.0140
 1520SOL    HW116196   1.239   2.073   3.546  0.2966  1.0913  0.8854
 1520SOL    HW216197   1.158   2.204   3.538 -0.3850  0.6422 -1.0358
 1521SOL     OW16198   2.246   0.045   6.816  0.2112 -0.0543 -0.8262
 1521SOL    HW116199   2.267   4.694   6.844 -1.1955 -0.3818 -0.8118
 1521SOL    HW216200   2.180   0.079   6.876  1.0134 -1.4330  0.8132
 1522SOL     OW16201   1.680   2.048   3.575 -0.0861 -0.3423  0.2083
 1522SOL    HW116202   1.664   1.978   3.512 -1.6549  0.3220 -0.1448
 1522SOL    HW216203   1.607   2.108   3.559 -1.0494 -1.6263 -0.2846
 1523SOL     OW16204   3.803   3.958   2.238 -0.6691 -0.6047  0.3730
 1523SOL    HW116205   3.797   4.052   2.222  1.4624 -0.5061  0.1890
 1523SOL    HW216206   3.775   3.917   2.156  2.1828 -0.1898 -0.7998
 1524SOL     OW16207   3.457   4.302   9.479 -0.1706  0.0789 -0.0956
 1524SOL    HW116208   3.405   4.224   9.460  1.7491 -1.1786 -0.1912
 1524SOL    HW216209   3.546   4.278   9.453  0.1533  1.3231 -0.1263
 1525SOL     OW16210   3.961   1.393   7.810  0.0242 -0.8830  0.1041
 1525SOL    HW116211   3.881   1.352   7.779 -0.4628 -0.7291  1.1471
 1525SOL    HW216212   4.023   1.321   7.798 -0.2055 -1.4847  2.4677
 1526SOL     OW16213   2.708   4.446  16.299  0.1117 -0.0901  0.1271
 1526SOL    HW116214   2.700   4.518  16.361 -1.7265  0.4551 -0.7185
 1526SOL    HW216215   2.793   4.414  16.328 -0.2099 -0.1548  0.9840
 1527SOL     OW16216   4.188   0.900   7.134  0.4269 -0.4766  0.1319
 1527SOL    HW116217   4.176   0.814   7.173  0.4005  0.2691  1.7622
 1527SOL    HW216218   4.102   0.907   7.091 -0.0069  1.1887  1.2345
 1528SOL     OW16219   2.111   1.008   8.865  0.3774 -0.2472 -0.2709
 1528SOL    HW116220   2.170   0.950   8.914  0.3389  0.7631  0.9847
 1528SOL    HW216221   2.116   1.091   8.913 -0.3362 -0.1543 -0.3687
 1529SOL     OW16222   4.643   3.677   7.520  0.5805  0.4422  0.1934
 1529SOL    HW116223   4.640   3.583   7.538 -1.9083  0.2951 -0.9958
 1529SOL    HW216224   4.548   3.692   7.515  1.2474  3.3256 -3.8985
 1530SOL     OW16225   1.240   1.723   7.402 -0.3303 -0.3381 -0.9161
 1530SOL    HW116226   1.285   1.644   7.373 -0.2294 -0.0995 -1.4011
 1530SOL    HW216227   1.291   1.794   7.364  0.2449 -0.3298 -0.1225
 1531SOL     OW16228   3.059   0.219   7.702 -0.0475 -0.4531  0.2170
 1531SOL    HW116229   3.126   0.287   7.697 -1.1595  0.7064  0.9199
 1531SOL    HW216230   3.067   0.179   7.616  0.5530  1.7459 -0.7586
 1532SOL     OW16231   4.239   0.620  14.873 -0.0088  0.5288 -0.2209
 1532SOL    HW116232   4.283   0.610  14.957  0.2049 -1.5702 -0.5772
 1532SOL    HW216233   4.162   0.668  14.901 -1.4340 -0.3667 -2.5953
 1533SOL     OW16234   0.190   0.291   9.546 -0.1433 -0.6493 -0.7092
 1533SOL    HW116235   0.109   0.246   9.569 -0.1712 -0.6000 -0.7121
 1533SOL    HW216236   0.212   0.341   9.625  1.1780 -0.5873 -1.1180
 1534SOL     OW16237   0.336   0.993  11.748 -0.5461  0.3068 -0.4109
 1534SOL    HW116238   0.406   0.971  11.809 -0.4515  2.3463  0.2147
 1534SOL    HW216239   0.387   0.998  11.667 -0.2229 -0.6941 -0.2675
 1535SOL     OW16240   0.310   2.832   5.173 -0.6554  0.1746 -0.3856
 1535SOL    HW116241   0.406   2.839   5.177 -0.7670  0.7925  1.4078
 1535SOL    HW216242   0.288   2.910   5.123 -1.5233 -1.0461 -1.9044
 1536SOL     OW16243   2.027   3.414  16.891  0.3008  0.4943 -0.3337
 1536SOL    HW116244   1.998   3.375  16.973 -0.8879 -0.1635 -1.0482
 1536SOL    HW216245   2.038   3.334  16.840 -0.1485  1.4114 -1.8851
 1537SOL     OW16246   3.790   3.800   3.008  0.2423  0.4850  0.0668
 1537SOL    HW116247   3.776   3.852   3.087 -0.0177  0.8910 -0.2456
 1537SOL    HW216248   3.842   3.730   3.048 -1.1065 -0.8993 -0.6059
 1538SOL     OW16249   1.207   2.820   8.902  0.3612  0.4646  0.4182
 1538SOL    HW116250   1.198   2.728   8.879 -2.1495  0.7465  0.2658
 1538SOL    HW216251   1.250   2.858   8.824 -0.2052 -0.1506 -0.1885
 1539SOL     OW16252   0.626   0.845   5.703 -0.4873  0.1249  0.3952
 1539SOL    HW116253   0.584   0.854   5.789  1.2491  0.1982  1.2376
 1539SOL    HW216254   0.710   0.890   5.717 -0.2238  0.4635 -2.2492
 1540SOL     OW16255   2.651   3.856   9.247 -0.0523 -0.5259  0.1664
 1540SOL    HW116256   2.741   3.882   9.229  1.5421 -3.8946  3.1718
 1540SOL    HW216257   2.666   3.800   9.323  0.4679 -1.3100 -0.5083
 1541SOL     OW16258   4.674   0.305   3.226 -0.6345 -0.4657 -0.0516
 1541SOL    HW116259   0.026   0.333   3.207 -0.9019  0.4123  0.0019
 1541SOL    HW216260   4.643   0.384   3.269 -1.8118 -0.8521 -0.1909
 1542SOL     OW16261   1.443   0.884   0.547 -0.2070 -0.2953  0.3594
 1542SOL    HW116262   1.430   0.794   0.574 -2.1273 -0.5014 -1.2474
 1542SOL    HW216263   1.462   0.878   0.454 -1.9086  3.4164 -0.2366
 1543SOL     OW16264   2.219   0.980  14.288 -0.1091  0.3247  0.0421
 1543SOL    HW116265   2.155   1.003  14.355  0.3063  0.1815  0.4873
 1543SOL    HW216266   2.284   1.050  14.291 -0.7341  0.9789 -1.6149
 1544SOL     OW16267   4.540   3.836   3.372 -0.1043 -0.6566  0.3652
 1544SOL    HW116268   4.589   3.772   3.321  0.9176 -0.0850  0.6215
 1544SOL    HW216269   4.557   3.801   3.460  0.4011 -1.2598  0.0253
 1545SOL     OW16270   2.915   2.070   5.858  0.5886  0.4648  0.2279
 1545SOL    HW116271   2.972   1.994   5.858 -1.1057 -0.7968  0.2309
 1545SOL    HW216272   2.937   2.119   5.779  0.4821  0.5342  0.2400
 1546SOL     OW16273   2.959   1.013   5.887 -0.8061 -0.5077  0.2642
 1546SOL    HW116274   3.016   1.087   5.869  1.4335 -2.3708 -0.3942
 1546SOL    HW216275   3.018   0.943   5.858  1.3144  1.5427 -0.3375
 1547SOL     OW16276   3.454   1.803   8.174  0.5080 -0.4150 -0.2935
 1547SOL    HW116277   3.422   1.862   8.242 -3.1607 -0.0232 -2.3035
 1547SOL    HW216278   3.413   1.720   8.199 -0.0806 -0.1350 -0.3249
 1548SOL     OW16279   4.399   0.169   0.066  0.1154  0.8523 -0.1670
 1548SOL    HW116280   4.416   0.229  17.741  0.4869  0.6196 -0.2725
 1548SOL    HW216281   4.315   0.191   0.106  0.7750 -0.0138  1.7146
 1549SOL     OW16282   0.952   0.735   9.606 -0.0528  0.0088 -0.0602
 1549SOL    HW116283   0.909   0.792   9.671 -0.4475 -0.7379  0.3414
 1549SOL    HW216284   1.028   0.695   9.648 -1.4235 -0.5126  1.9422
 1550SOL     OW16285   0.799   1.807   6.378 -0.3820 -0.0361  0.6358
 1550SOL    HW116286   0.882   1.855   6.380 -0.4170  0.0688 -0.4006
 1550SOL    HW216287   0.726   1.868   6.382 -0.8659 -0.5827  0.0932
 1551SOL     OW16288   0.688   1.471   6.719 -0.2286 -0.2206 -0.0994
 1551SOL    HW116289   0.704   1.377   6.723  2.7347  0.2837 -0.1430
 1551SOL    HW216290   0.778   1.501   6.732 -1.0755  1.1404  2.6644
 1552SOL     OW16291   0.622   0.636   7.703 -0.3941  0.0399  0.6144
 1552SOL    HW116292   0.702   0.599   7.741  0.4407  0.8939 -0.3283
 1552SOL    HW216293   0.624   0.727   7.731  0.7193  0.7064 -1.6787
 1553SOL     OW16294   4.108   4.326   3.088 -0.4983 -0.0786  0.4886
 1553SOL    HW116295   4.198   4.295   3.094 -0.0672  0.8128 -1.3430
 1553SOL    HW216296   4.057   4.257   3.130  0.6803 -1.2732 -0.0343
 1554SOL     OW16297   2.472   1.391   7.022 -0.2935  0.3540 -0.5006
 1554SOL    HW116298   2.494   1.348   6.939 -1.0243 -0.2368 -0.3928
 1554SOL    HW216299   2.383   1.423   7.010  0.1943  1.9536  0.2329
 1555SOL     OW16300   0.177   1.795   5.950 -0.0510  0.3163  0.5401
 1555SOL    HW116301   0.174   1.700   5.935 -3.3641  0.1380  2.3208
 1555SOL    HW216302   0.150   1.827   5.864 -0.1574 -3.1088 -0.7022
 1556SOL     OW16303   1.944   4.132   3.257  0.3197  0.1002  0.4159
 1556SOL    HW116304   1.959   4.210   3.205 -3.2863  0.3917 -0.2070
 1556SOL    HW216305   1.911   4.073   3.189 -0.4679  1.3005 -0.2403
 1557SOL     OW16306   3.144   1.271   8.835 -0.4189  0.2755 -0.4504
 1557SOL    HW116307   3.078   1.247   8.901  0.6008 -1.9796 -0.2536
 1557SOL    HW216308   3.211   1.284   8.902 -0.4002  2.0230 -0.8089
 1558SOL     OW16309   1.007   3.633   2.958  0.3065  0.2476 -0.5577
 1558SOL    HW116310   0.958   3.684   3.022 -0.4377 -0.1747 -0.7755
 1558SOL    HW216311   1.028   3.561   3.017 -0.4517  0.6881  0.2360
 1559SOL     OW16312   1.378   2.540   6.410 -0.0275 -0.1650 -0.0171
 1559SOL    HW116313   1.452   2.486   6.440 -1.2570 -1.9747 -0.2682
 1559SOL    HW216314   1.427   2.623   6.406 -0.6626  0.2427  0.6736
 1560SOL     OW16315   2.833   0.982   4.727  0.1795  0.0469 -0.2962
 1560SOL    HW116316   2.868   0.957   4.813 -0.0239 -0.3207 -0.3218
 1560SOL    HW216317   2.751   0.933   4.722  0.2314  0.2396 -2.9768
 1561SOL     OW16318   0.357   2.052   7.767  0.3880 -0.1890 -0.3189
 1561SOL    HW116319   0.316   2.083   7.686 -0.1779  0.7819  0.3487
 1561SOL    HW216320   0.426   1.999   7.727  1.1436  2.0989 -2.0382
 1562SOL     OW16321   0.332   1.013   6.167 -0.4315  0.1152  0.0933
 1562SOL    HW116322   0.325   1.012   6.072 -1.4284  0.7228  0.1560
 1562SOL    HW216323   0.312   1.103   6.195 -0.1339  0.2188 -0.0210
 1563SOL     OW16324   2.659   3.100  13.651  0.5058 -0.0558 -0.0306
 1563SOL    HW116325   2.715   3.071  13.724  0.5100 -2.2886 -0.9254
 1563SOL    HW216326   2.717   3.152  13.596  2.2413 -1.2499  0.6256
 1564SOL     OW16327   2.644   0.743   7.656  0.1324  0.5902 -0.1982
 1564SOL    HW116328   2.604   0.761   7.742  2.5549  1.7198  0.7031
 1564SOL    HW216329   2.562   0.747   7.606  0.1029 -0.7713 -0.2440
 1565SOL     OW16330   2.706   1.917   5.534  0.3250 -0.6833 -0.1148
 1565SOL    HW116331   2.751   1.892   5.454  1.2612  0.5919  0.0055
 1565SOL    HW216332   2.614   1.913   5.508 -0.5468 -2.0614  3.1034
 1566SOL     OW16333   4.722   2.625  16.512 -0.1010  0.0358 -0.1577
 1566SOL    HW116334   4.677   2.694  16.560 -1.7145 -0.2254 -1.2940
 1566SOL    HW216335   0.064   2.631  16.565  0.3237 -0.1265 -0.7789
 1567SOL     OW16336   3.481   3.396   6.017  0.1346  0.3344  0.3187
 1567SOL    HW116337   3.491   3.488   5.992 -0.8789  0.7945  1.6056
 1567SOL    HW216338   3.388   3.382   6.000  0.0581 -0.6622  1.5399
 1568SOL     OW16339   2.275   1.106   0.899 -0.0033 -0.0734  0.4656
 1568SOL    HW116340   2.208   1.143   0.841  1.4705  1.0206 -0.5501
 1568SOL    HW216341   2.231   1.031   0.938  1.1590  0.2570  2.3802
 1569SOL     OW16342   1.300   4.527   6.129 -0.3004  0.9480 -0.3189
 1569SOL    HW116343   1.223   4.519   6.187 -0.9208  0.3679 -1.2248
 1569SOL    HW216344   1.327   4.435   6.123 -0.0363  1.0807 -1.0624
 1570SOL     OW16345   0.129   1.398  15.838 -0.7485  0.0867  0.4616
 1570SOL    HW116346   0.148   1.485  15.874 -1.9613  0.8232 -0.6575
 1570SOL    HW216347   0.211   1.352  15.855 -0.5989  0.2084  0.0843
 1571SOL     OW16348   4.359   2.021  16.140 -0.3568 -0.0866  0.0286
 1571SOL    HW116349   4.338   2.112  16.158  1.3376  0.3531 -0.2527
 1571SOL    HW216350   4.314   2.015  16.056  0.9236 -2.0322 -0.5201
 1572SOL     OW16351   1.895   3.263   7.775  0.3308  0.0249 -0.3426
 1572SOL    HW116352   1.879   3.305   7.691  0.6950 -1.6831 -1.2817
 1572SOL    HW216353   1.818   3.208   7.760  1.1874 -0.6963 -2.0903
 1573SOL     OW16354   1.514   4.682  15.554  0.0916 -0.1440 -0.1769
 1573SOL    HW116355   1.478   4.593  15.562 -0.2968  0.0821  0.5263
 1573SOL    HW216356   1.478   4.723  15.632  2.0327  1.9979 -0.3946
 1574SOL     OW16357   2.718   4.005   0.456 -0.0794 -0.0201 -0.1572
 1574SOL    HW116358   2.709   3.957   0.539 -2.3948 -1.6058 -1.3234
 1574SOL    HW216359   2.798   4.053   0.475  0.2173 -0.7292  0.3694
 1575SOL     OW16360   2.313   2.650  13.607 -0.1146 -0.3242  0.1931
 1575SOL    HW116361   2.325   2.651  13.702 -1.7138  2.0988  0.3827
 1575SOL    HW216362   2.355   2.566  13.587  1.2892  0.2663  0.6838
 1576SOL     OW16363   2.526   1.992   9.418 -0.1016 -0.5628  0.9209
 1576SOL    HW116364   2.453   1.986   9.357  0.0144  1.3103  0.5892
 1576SOL    HW216365   2.516   1.905   9.458 -1.9698 -0.2005  1.2806
 1577SOL     OW16366   0.921   1.547   5.366  0.4290 -0.6253  0.0941
 1577SOL    HW116367   0.891   1.460   5.392 -1.0504 -0.1467  0.0024
 1577SOL    HW216368   0.837   1.586   5.342  0.2240 -0.3784  1.2356
 1578SOL     OW16369   3.740   0.585   8.758 -0.1677  0.1126  0.0088
 1578SOL    HW116370   3.652   0.561   8.729 -0.5333  0.8335  0.5443
 1578SOL    HW216371   3.732   0.615   8.848  0.5069  2.3062 -0.6727
 1579SOL     OW16372   0.086   1.857  15.191 -0.2255  0.0688 -0.7217
 1579SOL    HW116373   0.132   1.931  15.232  1.9291 -1.4458 -0.3965
 1579SOL    HW216374   0.074   1.874  15.098 -1.1262  1.2435 -0.3955
 1580SOL     OW16375   4.282   4.115   2.178 -0.0726 -0.1602 -0.2461
 1580SOL    HW116376   4.207   4.058   2.195  0.4958 -0.7107  0.3758
 1580SOL    HW216377   4.324   4.052   2.120 -0.8426  2.4791 -3.7073
 1581SOL     OW16378   3.487   4.053   2.004  0.0132  0.1677  0.1922
 1581SOL    HW116379   3.462   4.021   2.091  5.0623 -0.1059  1.4895
 1581SOL    HW216380   3.410   4.027   1.953 -1.4430 -0.1372  2.5227
 1582SOL     OW16381   0.199   2.445   8.239 -0.0881 -0.6422 -0.1098
 1582SOL    HW116382   0.275   2.422   8.187 -0.9083  0.7575 -1.9043
 1582SOL    HW216383   0.213   2.530   8.280  0.5071 -1.1911  0.8193
 1583SOL     OW16384   0.820   1.256   3.494 -0.0814  0.2295  1.0780
 1583SOL    HW116385   0.759   1.187   3.519  1.4996 -1.8191 -0.7147
 1583SOL    HW216386   0.885   1.240   3.562 -1.0396  0.3444  2.0278
 1584SOL     OW16387   0.057   0.689   5.891 -0.6996  0.5678 -0.2420
 1584SOL    HW116388   0.045   0.648   5.976 -0.0701  0.2904 -0.2888
 1584SOL    HW216389   0.152   0.693   5.882 -0.6869  0.9130  0.0511
 1585SOL     OW16390   2.405   3.621  13.994 -0.3490 -0.7146  0.3524
 1585SOL    HW116391   2.447   3.626  13.908 -1.7043 -0.4669 -0.2968
 1585SOL    HW216392   2.374   3.711  14.008 -2.5200 -1.3699 -0.1725
 1586SOL     OW16393   3.925   2.806  11.695 -0.0391  0.8171 -0.0191
 1586SOL    HW116394   4.016   2.803  11.724 -0.0516 -1.4223 -0.2242
 1586SOL    HW216395   3.938   2.868  11.623 -2.4311  1.4112  0.0766
 1587SOL     OW16396   2.501   1.852   4.485  0.9228  0.0688  0.2249
 1587SOL    HW116397   2.556   1.840   4.563  0.2307  0.3877  0.7595
 1587SOL    HW216398   2.575   1.838   4.426  0.9774  0.6182  0.1669
 1588SOL     OW16399   3.875   4.508  12.580 -0.2394  0.0029  0.2411
 1588SOL    HW116400   3.812   4.577  12.603 -0.6160 -0.4519  0.5731
 1588SOL    HW216401   3.919   4.553  12.508  0.3749  1.8098  1.7431
 1589SOL     OW16402   0.527   2.690   1.687 -0.3541 -0.5364  0.1281
 1589SOL    HW116403   0.601   2.732   1.645 -1.1272 -0.4652 -1.1577
 1589SOL    HW216404   0.539   2.603   1.649  0.5999 -0.5339  0.4320
 1590SOL     OW16405   4.231   1.179  17.641 -0.1751  0.1181 -0.0923
 1590SOL    HW116406   4.162   1.229  17.684  1.7948  1.3070  1.6904
 1590SOL    HW216407   4.311   1.217  17.677  1.4025 -4.3666  1.0924
 1591SOL     OW16408   3.102   1.731   2.225  0.6115 -0.2008 -0.3640
 1591SOL    HW116409   3.073   1.782   2.149  2.6424  0.8678 -0.4168
 1591SOL    HW216410   3.146   1.662   2.174 -0.3705 -0.8596 -0.3267
 1592SOL     OW16411   3.266   2.063   7.743  0.5770  0.2434 -0.4073
 1592SOL    HW116412   3.309   2.149   7.744 -2.1873  1.6213  1.1701
 1592SOL    HW216413   3.309   2.007   7.808 -0.1886 -1.0942 -1.0614
 1593SOL     OW16414   2.230   0.728   6.260  0.1234 -0.4277 -0.0750
 1593SOL    HW116415   2.213   0.668   6.188  2.0075  0.9404 -1.6654
 1593SOL    HW216416   2.252   0.810   6.218  2.2616 -1.3124 -0.6933
 1594SOL     OW16417   1.829   2.983  10.166  0.0357  0.1635 -0.1059
 1594SOL    HW116418   1.837   3.050  10.098  1.1587  0.4255  0.2713
 1594SOL    HW216419   1.799   2.908  10.115 -2.4319  1.5652 -0.7116
 1595SOL     OW16420   1.524   2.067  16.541 -0.3270 -0.0408 -0.1839
 1595SOL    HW116421   1.487   2.091  16.626  0.3417  0.4894 -0.0501
 1595SOL    HW216422   1.520   2.153  16.500 -1.1753  1.1651  2.4034
 1596SOL     OW16423   4.600   3.873   8.840  0.1770  0.5147  0.3921
 1596SOL    HW116424   4.581   3.895   8.749 -1.5425 -1.2786  0.3195
 1596SOL    HW216425   4.562   3.785   8.839  0.9848  0.2064 -3.5010
 1597SOL     OW16426   4.430   2.197   8.069  0.4464 -0.5826 -0.0878
 1597SOL    HW116427   4.342   2.222   8.096  0.4844  0.4530 -0.9254
 1597SOL    HW216428   4.461   2.274   8.021 -1.7042  0.4371  0.1685
 1598SOL     OW16429   3.838   3.701   9.504  0.1158 -0.2673 -0.7234
 1598SOL    HW116430   3.897   3.625   9.505  1.0314  0.4425 -0.4402
 1598SOL    HW216431   3.897   3.765   9.463  1.1399 -0.3368  0.6143
 1599SOL     OW16432   0.995   0.138   4.629  0.3754  0.2600  0.3443
 1599SOL    HW116433   0.984   0.066   4.567  0.5221  0.6402 -0.1221
 1599SOL    HW216434   1.042   0.081   4.691  0.7795  0.9855  0.7093
 1600SOL     OW16435   3.915   1.346   2.577 -0.0037  0.1672  0.2718
 1600SOL    HW116436   3.832   1.390   2.593  0.8080  1.4688  0.8858
 1600SOL    HW216437   3.889   1.256   2.599  1.1741 -0.3172 -0.2997
 1601SOL     OW16438   1.630   4.371  13.961 -1.0300  0.2113 -0.1142
 1601SOL    HW116439   1.657   4.447  14.013  0.7258  0.0876 -0.8383
 1601SOL    HW216440   1.614   4.308  14.032 -1.0910  0.9893  0.5608
 1602SOL     OW16441   3.664   3.898   5.851 -0.8954  0.0358 -0.3060
 1602SOL    HW116442   3.619   3.920   5.769 -0.6738  1.5653 -0.0063
 1602SOL    HW216443   3.739   3.851   5.814 -1.9070 -0.3482 -1.8716
 1603SOL     OW16444   0.669   1.475   1.790 -0.8203 -0.0308 -0.4603
 1603SOL    HW116445   0.631   1.388   1.779  1.6983 -1.1557 -0.1909
 1603SOL    HW216446   0.700   1.499   1.703  0.2942 -0.3270 -0.1444
 1604SOL     OW16447   3.911   0.408   1.488  0.6159 -0.0124  0.0059
 1604SOL    HW116448   3.940   0.471   1.554  1.1195  0.7253 -0.9282
 1604SOL    HW216449   3.951   0.435   1.405  1.1483 -0.1288  0.2229
 1605SOL     OW16450   0.255   1.036   7.820  0.3675  0.0738  0.5849
 1605SOL    HW116451   0.208   1.092   7.882  0.1291  0.4345  0.0744
 1605SOL    HW216452   0.206   0.954   7.821  1.7492 -0.7462  0.6464
 1606SOL     OW16453   3.687   4.231   7.705 -0.4146  0.5264  0.3802
 1606SOL    HW116454   3.739   4.304   7.671  1.9606 -0.8357  1.0876
 1606SOL    HW216455   3.603   4.257   7.666 -0.8533 -0.5769  0.5862
 1607SOL     OW16456   4.702   1.176   6.296  0.1039 -0.2036  0.2383
 1607SOL    HW116457   4.715   1.135   6.211  3.1146 -0.4267  0.7889
 1607SOL    HW216458   4.638   1.114   6.331 -0.8657  0.1581 -0.9244
 1608SOL     OW16459   1.496   2.746   5.148  0.0446 -0.3890 -0.2083
 1608SOL    HW116460   1.417   2.703   5.180 -0.9947  1.1452 -0.6885
 1608SOL    HW216461   1.453   2.823   5.110  0.9916  0.1169 -0.2496
 1609SOL     OW16462   3.658   2.519   6.292  0.4070 -0.2881  0.8262
 1609SOL    HW116463   3.685   2.519   6.384 -1.2307  3.0526  1.2825
 1609SOL    HW216464   3.748   2.511   6.259  0.3104 -0.5090  0.6201
 1610SOL     OW16465   3.352   0.064  13.361 -0.6316 -0.5282 -0.2640
 1610SOL    HW116466   3.391   0.135  13.412  2.9175 -1.8756 -1.0742
 1610SOL    HW216467   3.319   0.128  13.298  0.1899 -0.0405 -0.1937
 1611SOL     OW16468   4.005   4.700   4.660  0.1366  0.4896  0.0625
 1611SOL    HW116469   4.073   0.028   4.680  0.3958 -0.0252  0.8704
 1611SOL    HW216470   3.987   4.726   4.570 -2.6452 -1.9892 -0.0967
 1612SOL     OW16471   3.295   2.447   1.525 -0.2087  0.4384 -0.6743
 1612SOL    HW116472   3.278   2.358   1.492 -1.9104  0.2778  0.6374
 1612SOL    HW216473   3.240   2.503   1.471 -0.8651 -0.2023 -0.6761
 1613SOL     OW16474   3.491   1.845   5.605 -0.1654 -0.7657  0.5313
 1613SOL    HW116475   3.442   1.923   5.576  0.0594 -0.8798 -0.1573
 1613SOL    HW216476   3.577   1.857   5.565 -0.8692 -0.5603 -0.9308
 1614SOL     OW16477   2.087   4.613   1.949  0.8518  0.1915  0.7981
 1614SOL    HW116478   2.001   4.650   1.927  0.6497 -0.0228  1.2184
 1614SOL    HW216479   2.089   4.529   1.903  2.0016  0.6640  0.0053
 1615SOL     OW16480   0.750   2.204  13.286  0.0155 -0.2017  0.4617
 1615SOL    HW116481   0.808   2.226  13.213 -0.0319 -0.5233  0.3281
 1615SOL    HW216482   0.685   2.153  13.239  0.4526 -0.2335 -0.1024
 1616SOL     OW16483   0.295   4.601   9.652  0.6928  0.0783 -0.3812
 1616SOL    HW116484   0.252   4.572   9.732 -0.2844  2.1370 -0.1468
 1616SOL    HW216485   0.221   4.621   9.594 -1.6165 -1.4271  2.0308
 1617SOL     OW16486   2.353   3.259   0.761  0.0759  0.0234 -0.1055
 1617SOL    HW116487   2.442   3.225   0.771 -0.8759 -2.1826  0.9844
 1617SOL    HW216488   2.367   3.351   0.738  0.2114 -0.2319 -1.0600
 1618SOL     OW16489   1.127   1.659   2.050  0.5008  0.5908 -0.3750
 1618SOL    HW116490   1.149   1.594   1.983  0.7181  0.1175  0.1462
 1618SOL    HW216491   1.069   1.712   1.996  1.7602  0.6984 -1.6097
 1619SOL     OW16492   4.604   4.535  13.208  0.2357  0.7521  0.1478
 1619SOL    HW116493   4.646   4.608  13.162  0.5877  0.5751  0.1879
 1619SOL    HW216494   4.538   4.506  13.145  1.9910 -0.7115 -1.0173
 1620SOL     OW16495   4.198   2.123   9.601 -0.4869 -0.4632  0.6190
 1620SOL    HW116496   4.144   2.126   9.680 -0.2008  0.5144  0.7807
 1620SOL    HW216497   4.202   2.218   9.592 -0.3537 -0.4118  1.2111
 1621SOL     OW16498   4.472   2.033   4.284 -0.0631  0.4505  0.3367
 1621SOL    HW116499   4.468   1.940   4.307  1.7765  0.7880  2.0959
 1621SOL    HW216500   4.431   2.032   4.198  3.1385 -2.5338 -1.1733
 1622SOL     OW16501   1.976   2.192   6.334 -0.2088 -0.1581 -0.4072
 1622SOL    HW116502   1.914   2.160   6.270 -2.0385  0.9273  0.8269
 1622SOL    HW216503   1.999   2.279   6.302 -1.6087  0.2393 -0.3059
 1623SOL     OW16504   3.560   4.481  10.147 -0.6946 -0.1171  0.2356
 1623SOL    HW116505   3.625   4.449  10.209 -3.1289 -2.3187  1.6538
 1623SOL    HW216506   3.616   4.523  10.082  2.0524 -3.1318  0.7015
 1624SOL     OW16507   0.311   2.105   4.928 -0.0062 -0.2870  0.1534
 1624SOL    HW116508   0.354   2.167   4.987 -2.7696 -0.2970  2.2222
 1624SOL    HW216509   0.246   2.169   4.899 -0.6923 -0.6902  0.7876
 1625SOL     OW16510   2.908   0.310   8.896 -0.5114 -0.8681  0.4600
 1625SOL    HW116511   2.934   0.299   8.987  1.2452  1.1601  0.1880
 1625SOL    HW216512   2.965   0.379   8.861 -0.3481 -0.8216  0.8196
 1626SOL     OW16513   4.527   0.579  14.715  0.3552  0.3896 -0.3438
 1626SOL    HW116514   4.512   0.492  14.679  4.0420 -0.8568  1.1820
 1626SOL    HW216515   4.587   0.549  14.783  1.2628  3.3685  0.1739
 1627SOL     OW16516   1.502   3.687   5.191  0.0357  0.3345 -0.3436
 1627SOL    HW116517   1.426   3.628   5.188  0.4065 -0.0087 -2.8375
 1627SOL    HW216518   1.474   3.759   5.135  0.0087  0.4594 -0.1696
 1628SOL     OW16519   2.224   3.800   3.496  0.2818 -0.0837 -0.7048
 1628SOL    HW116520   2.180   3.880   3.466 -1.1944 -0.6680 -0.1203
 1628SOL    HW216521   2.260   3.773   3.411 -2.4860  0.7834 -2.1729
 1629SOL     OW16522   0.375   3.302   7.065 -0.6390 -0.3404  0.4561
 1629SOL    HW116523   0.386   3.247   6.988 -1.3144  0.7453 -0.4014
 1629SOL    HW216524   0.432   3.374   7.041 -1.0677  1.1705  3.9023
 1630SOL     OW16525   0.395   1.889   8.872  0.4350  0.2043 -0.2189
 1630SOL    HW116526   0.432   1.829   8.937 -0.4352 -0.9932 -0.8316
 1630SOL    HW216527   0.367   1.965   8.923 -0.1391  0.7257 -1.3123
 1631SOL     OW16528   2.215   2.907  10.155 -0.2691  0.3684 -0.3151
 1631SOL    HW116529   2.238   2.999  10.170  2.9521 -0.3675 -0.8352
 1631SOL    HW216530   2.142   2.899  10.217 -1.9933 -1.1695 -2.5105
 1632SOL     OW16531   2.424   0.068   8.943 -0.3310  0.6643  0.4774
 1632SOL    HW116532   2.344   0.077   8.994 -1.0982 -0.4030 -0.5224
 1632SOL    HW216533   2.480   0.039   9.014 -1.0322 -0.0664  0.7248
 1633SOL     OW16534   2.559   4.625   7.045  0.3297  0.8584  0.6548
 1633SOL    HW116535   2.549   4.593   7.134 -0.5536  2.4738  1.1345
 1633SOL    HW216536   2.560   4.720   7.059  1.2704  0.8203  0.8664
 1634SOL     OW16537   0.765   1.546   6.390  0.0818 -0.1527 -0.7161
 1634SOL    HW116538   0.788   1.638   6.399 -1.8623  0.3387 -0.8541
 1634SOL    HW216539   0.670   1.557   6.385  0.0399  0.2984  1.0792
 1635SOL     OW16540   0.527   3.192  14.356 -0.3496  0.3245 -0.1190
 1635SOL    HW116541   0.452   3.140  14.324  0.2695  0.5245 -1.9106
 1635SOL    HW216542   0.495   3.255  14.420  3.2061  0.3080  1.6886
 1636SOL     OW16543   0.428   4.205  13.221  0.5470  0.0275  0.3855
 1636SOL    HW116544   0.482   4.170  13.292  0.1908 -0.8191  0.2328
 1636SOL    HW216545   0.337   4.208  13.248  1.1372 -0.8632  2.4611
 1637SOL     OW16546   0.736   1.507   8.405  0.1415  0.0352  0.1806
 1637SOL    HW116547   0.727   1.472   8.494  2.8766 -1.4189 -0.1281
 1637SOL    HW216548   0.821   1.467   8.386 -1.0489 -1.8683 -1.0832
 1638SOL     OW16549   0.816   3.974   7.432  0.8946 -0.2691  0.4645
 1638SOL    HW116550   0.728   3.974   7.470  0.5127 -0.0432 -0.4173
 1638SOL    HW216551   0.871   3.955   7.508 -3.5003 -2.4486  3.0646
 1639SOL     OW16552   3.471   4.077  16.851  0.6535 -0.5985 -0.0524
 1639SOL    HW116553   3.522   4.103  16.928  1.7831 -2.5718 -0.1325
 1639SOL    HW216554   3.383   4.107  16.874  0.5891 -1.3603  0.7314
 1640SOL     OW16555   2.835   3.780   4.821  0.1368  0.3383 -0.1610
 1640SOL    HW116556   2.929   3.799   4.818  0.8758 -3.1054  0.9619
 1640SOL    HW216557   2.845   3.691   4.785 -1.5465  0.1998 -0.2737
 1641SOL     OW16558   1.480   3.165   7.288  0.0522  0.0115 -0.5957
 1641SOL    HW116559   1.528   3.169   7.205  1.0373 -3.2610 -0.1955
 1641SOL    HW216560   1.388   3.172   7.263 -0.7895 -2.3130  1.7692
 1642SOL     OW16561   3.689   2.262   4.350 -0.1419  0.4219 -0.1766
 1642SOL    HW116562   3.656   2.342   4.392  0.3833  0.6078 -0.1196
 1642SOL    HW216563   3.609   2.215   4.372  0.4979 -1.6514 -2.2973
 1643SOL     OW16564   0.305   2.295   1.515  0.6051 -0.4595 -0.2857
 1643SOL    HW116565   0.318   2.225   1.580  1.6430  1.1014  1.1611
 1643SOL    HW216566   0.258   2.250   1.444 -1.2223  0.1654  0.5356
 1644SOL     OW16567   1.994   2.429   6.798  0.0687  0.2401  0.4399
 1644SOL    HW116568   1.944   2.393   6.872 -0.0443  0.5845  0.5317
 1644SOL    HW216569   1.996   2.346   6.751  0.2658  0.3978  0.1743
 1645SOL     OW16570   0.647   4.359   6.333 -0.5825  0.0564 -0.2583
 1645SOL    HW116571   0.578   4.385   6.272 -0.8499  1.1664  0.5309
 1645SOL    HW216572   0.675   4.275   6.297 -0.3284 -0.1771  0.4900
 1646SOL     OW16573   2.309   0.164   7.220 -0.2104 -1.2739 -0.2694
 1646SOL    HW116574   2.240   0.206   7.271  0.2666 -0.7776 -0.0222
 1646SOL    HW216575   2.264   0.148   7.138  2.6013 -1.4004 -1.7955
 1647SOL     OW16576   2.063   3.954   7.965  0.4948 -0.0521 -0.3885
 1647SOL    HW116577   2.007   3.878   7.973  0.8808 -0.3287 -0.3171
 1647SOL    HW216578   2.126   3.928   7.898 -0.3378  1.1852 -1.6653
 1648SOL     OW16579   3.878   0.500   7.574  0.1008  0.1080 -0.1727
 1648SOL    HW116580   3.940   0.467   7.510  0.9525  2.1499 -0.3931
 1648SOL    HW216581   3.828   0.420   7.591  1.0854 -0.0172  2.2047
 1649SOL     OW16582   2.814   2.082  13.560  0.2267 -0.3815  0.2815
 1649SOL    HW116583   2.779   2.110  13.645 -0.8371  0.9375 -0.5846
 1649SOL    HW216584   2.781   2.151  13.503  0.2221  0.6698  1.5605
 1650SOL     OW16585   4.374   3.979   1.734 -0.1272 -0.3224 -0.2059
 1650SOL    HW116586   4.371   4.030   1.653 -0.2060  0.6929  0.4363
 1650SOL    HW216587   4.437   3.915   1.700 -0.3866 -1.4630  1.4532
 1651SOL     OW16588   0.761   2.644  13.842  0.1221 -0.1462 -0.1637
 1651SOL    HW116589   0.738   2.572  13.783  1.9674 -2.8107  2.3460
 1651SOL    HW216590   0.842   2.612  13.881 -1.2599 -1.5553  1.5579
 1652SOL     OW16591   1.340   0.700   8.350  0.1632 -0.0665 -0.3250
 1652SOL    HW116592   1.401   0.665   8.416  0.0859  0.7649  0.1884
 1652SOL    HW216593   1.401   0.756   8.302 -0.4280  0.2108 -0.7513
 1653SOL     OW16594   0.746   4.324   8.332  0.4384  0.0961 -1.2792
 1653SOL    HW116595   0.658   4.356   8.352  1.6835  1.7746  1.6265
 1653SOL    HW216596   0.790   4.397   8.289  2.1707 -0.0944  0.1662
 1654SOL     OW16597   4.524   1.864   7.054  1.4003  0.2731  0.3723
 1654SOL    HW116598   4.443   1.904   7.022  1.7640  0.5626 -0.1671
 1654SOL    HW216599   4.584   1.908   6.994 -0.1575 -0.7385 -1.9086
 1655SOL     OW16600   1.640   1.740   3.796 -0.6203  0.2138  0.4253
 1655SOL    HW116601   1.708   1.689   3.752 -1.5659  0.7062 -1.6121
 1655SOL    HW216602   1.622   1.804   3.726  0.1677 -1.0128 -0.8954
 1656SOL     OW16603   2.721   0.508   7.950  0.5572  0.0682  0.5594
 1656SOL    HW116604   2.666   0.520   7.872 -0.4403 -1.2608  1.0458
 1656SOL    HW216605   2.667   0.445   7.999 -3.1673  0.2522 -3.2196
 1657SOL     OW16606   2.035   4.623   9.628 -0.4842  0.0328  0.3190
 1657SOL    HW116607   1.982   4.681   9.682 -1.6608 -0.1031 -0.6927
 1657SOL    HW216608   2.008   4.537   9.662  2.5183 -0.5270  1.3497
 1658SOL     OW16609   1.427   0.645   6.341  0.1419 -0.1380 -0.2278
 1658SOL    HW116610   1.360   0.709   6.368 -0.3507 -0.8076  0.1354
 1658SOL    HW216611   1.429   0.584   6.414  0.7884 -1.1414 -1.0938
 1659SOL     OW16612   3.248   2.972   9.859 -0.2151 -0.4899 -0.1703
 1659SOL    HW116613   3.248   2.881   9.828  1.9205 -0.4787 -0.1999
 1659SOL    HW216614   3.336   2.973   9.898 -0.0730  1.7749 -0.5538
 1660SOL     OW16615   1.647   0.480   3.591 -0.3919  0.2095  0.3378
 1660SOL    HW116616   1.580   0.548   3.588 -0.1994  0.4211  0.8526
 1660SOL    HW216617   1.729   0.512   3.551 -0.0731  1.5265  2.0417
 1661SOL     OW16618   3.154   4.268  11.272 -0.4475 -0.3683  0.6606
 1661SOL    HW116619   3.163   4.320  11.351  0.2670  1.6254 -0.7437
 1661SOL    HW216620   3.242   4.252  11.239 -0.7946 -1.2008  0.1321
 1662SOL     OW16621   1.179   3.416   8.657  0.0028 -0.2995 -0.2148
 1662SOL    HW116622   1.096   3.429   8.609 -0.4558  2.3840  1.3107
 1662SOL    HW216623   1.244   3.402   8.588  1.1544  2.9883  0.2234
 1663SOL     OW16624   4.405   1.538   1.044 -0.2223 -0.7854  0.6804
 1663SOL    HW116625   4.498   1.525   1.027  0.1084  1.6289  0.6970
 1663SOL    HW216626   4.398   1.536   1.140  0.1607  1.2912  0.7525
 1664SOL     OW16627   1.187   3.619   8.856  0.4406  0.4919 -0.2129
 1664SOL    HW116628   1.280   3.602   8.870 -0.0324  0.6259  3.1291
 1664SOL    HW216629   1.167   3.553   8.790 -1.8245 -0.0790  1.0392
 1665SOL     OW16630   0.273   3.799   2.224 -0.1414  0.0064 -0.3765
 1665SOL    HW116631   0.234   3.835   2.304  0.7026  0.3964 -0.1352
 1665SOL    HW216632   0.313   3.867   2.170 -0.6442  0.5144 -0.0967
 1666SOL     OW16633   3.563   4.145  16.129 -0.4621 -0.4274 -0.2344
 1666SOL    HW116634   3.617   4.087  16.182  1.7942  0.5633 -1.4510
 1666SOL    HW216635   3.556   4.220  16.189 -1.5681 -1.5861  1.0707
 1667SOL     OW16636   3.817   1.661   2.139  0.5523 -0.0053  0.4046
 1667SOL    HW116637   3.902   1.679   2.098  0.2605 -0.2996 -0.3427
 1667SOL    HW216638   3.817   1.565   2.133  0.9887  0.0694 -0.9825
 1668SOL     OW16639   1.660   2.632  10.164  0.1468  0.0917 -0.3915
 1668SOL    HW116640   1.673   2.695  10.094  0.5213 -1.5672 -1.8244
 1668SOL    HW216641   1.622   2.690  10.230  3.6815  0.5965  1.2519
 1669SOL     OW16642   1.600   4.548   7.823 -0.3143  0.0130  0.3055
 1669SOL    HW116643   1.629   4.587   7.906  2.7108 -0.7961 -0.3724
 1669SOL    HW216644   1.672   4.580   7.768 -0.0250  0.4048  0.9137
 1670SOL     OW16645   4.633   0.151   6.649 -0.6552  0.6191 -0.0975
 1670SOL    HW116646   4.641   0.225   6.589 -0.7140 -0.5045 -1.4914
 1670SOL    HW216647   4.601   0.084   6.589 -0.3651  0.3654  0.0289
 1671SOL     OW16648   1.833   3.371   7.530 -0.5589  0.8157  0.0979
 1671SOL    HW116649   1.741   3.359   7.505 -1.0518  0.9459  1.8383
 1671SOL    HW216650   1.866   3.424   7.457 -0.2663 -0.5688 -0.7825
 1672SOL     OW16651   4.215   1.491   2.142  0.5042 -0.4708  0.6047
 1672SOL    HW116652   4.184   1.401   2.133 -0.7567 -0.2952  3.2126
 1672SOL    HW216653   4.217   1.527   2.053  1.6231 -1.5189  0.2089
 1673SOL     OW16654   2.680   2.815   2.437  0.4261  0.3007 -0.0192
 1673SOL    HW116655   2.629   2.885   2.478  0.4280 -0.5209  1.3906
 1673SOL    HW216656   2.660   2.742   2.496  0.7763  0.0734 -0.1845
 1674SOL     OW16657   0.705   1.913   9.063 -0.6411 -0.2205  0.1386
 1674SOL    HW116658   0.620   1.885   9.095 -0.9111  0.7105  0.2109
 1674SOL    HW216659   0.729   1.830   9.021  1.1281  1.2436 -1.7234
 1675SOL     OW16660   1.868   2.173   8.928  0.2633  0.6933 -0.3269
 1675SOL    HW116661   1.944   2.184   8.985 -0.2987  0.6123  0.4354
 1675SOL    HW216662   1.913   2.135   8.852  2.0477 -0.2474  1.2139
 1676SOL     OW16663   3.103   1.392   1.732 -0.3624 -0.0950  0.6818
 1676SOL    HW116664   3.189   1.423   1.758  0.0166 -0.2740 -0.3870
 1676SOL    HW216665   3.051   1.441   1.796  0.8053 -0.1093  1.6496
 1677SOL     OW16666   1.941   4.443  12.754  0.4817  0.3997 -0.0396
 1677SOL    HW116667   1.948   4.490  12.671  0.8039 -1.4308 -1.0556
 1677SOL    HW216668   2.001   4.371  12.732 -0.6009 -1.1649  2.1876
 1678SOL     OW16669   3.298   3.918   7.407 -0.1624 -0.0055  0.5908
 1678SOL    HW116670   3.348   3.850   7.452 -0.4821  0.1142  1.1346
 1678SOL    HW216671   3.277   3.875   7.324  2.5375  3.7665 -2.0501
 1679SOL     OW16672   0.078   3.524   5.618 -0.0546 -0.0664  0.6410
 1679SOL    HW116673   0.041   3.436   5.623  0.1563 -0.2425 -0.9220
 1679SOL    HW216674   0.015   3.565   5.559 -0.4137  0.1930  1.2088
 1680SOL     OW16675   3.765   3.569   1.961  0.6066  0.0057 -0.2830
 1680SOL    HW116676   3.686   3.614   1.932 -0.0457 -1.8036 -1.3166
 1680SOL    HW216677   3.779   3.518   1.881  1.9083 -1.7216  1.0382
 1681SOL     OW16678   3.251   2.238   7.463 -0.0345  0.3986  0.5525
 1681SOL    HW116679   3.201   2.240   7.546 -3.7538 -1.6380 -1.6235
 1681SOL    HW216680   3.275   2.330   7.477  1.8939 -0.1966  1.1813
 1682SOL     OW16681   4.213   2.791   9.631  0.0645 -0.8125  0.1760
 1682SOL    HW116682   4.160   2.748   9.699 -1.7347 -0.7536 -1.2018
 1682SOL    HW216683   4.288   2.805   9.689  1.7529 -3.3322 -1.4320
 1683SOL     OW16684   1.581   3.004   4.494  0.6647  0.0891 -0.5849
 1683SOL    HW116685   1.653   2.986   4.554  1.0672  0.1148 -1.0613
 1683SOL    HW216686   1.507   2.963   4.539  1.5464  0.3202  1.0591
 1684SOL     OW16687   3.664   1.032   1.382 -0.0908  0.0068 -0.0738
 1684SOL    HW116688   3.627   1.029   1.294 -0.5207  1.7808  0.0554
 1684SOL    HW216689   3.591   1.082   1.419 -0.0316  0.1657 -0.1730
 1685SOL     OW16690   0.228   3.815   6.640  0.4089 -0.0706  0.2361
 1685SOL    HW116691   0.228   3.842   6.732  1.5985  2.9491 -0.6676
 1685SOL    HW216692   0.161   3.868   6.598  1.5290  1.0446 -0.1152
 1686SOL     OW16693   3.176   3.401   4.054 -0.0129 -0.2782  1.1086
 1686SOL    HW116694   3.099   3.401   3.997  0.3181 -1.0965  0.6568
 1686SOL    HW216695   3.242   3.367   3.994 -1.2340  1.5467 -1.2594
 1687SOL     OW16696   2.292   4.088   9.914  0.7012 -0.3625  0.1167
 1687SOL    HW116697   2.336   4.173   9.915  1.6759 -0.8857  1.2960
 1687SOL    HW216698   2.313   4.061  10.003 -0.6305  2.5900  1.3392
 1688SOL     OW16699   4.374   0.246   6.265  0.6926 -0.2354  0.3314
 1688SOL    HW116700   4.355   0.340   6.267  0.3833 -0.2588 -1.1745
 1688SOL    HW216701   4.325   0.217   6.342  1.8394  0.6702  1.4134
 1689SOL     OW16702   4.581   1.704   6.695 -0.3839  0.6240  0.5471
 1689SOL    HW116703   4.675   1.695   6.677 -0.9998 -3.8545 -0.3821
 1689SOL    HW216704   4.578   1.679   6.787  0.7772  0.0569  0.4314
 1690SOL     OW16705   2.973   1.457   4.694 -0.1871 -0.1639  0.5138
 1690SOL    HW116706   2.944   1.488   4.608 -1.9749 -0.5459  0.9608
 1690SOL    HW216707   3.015   1.374   4.669  0.1692  0.7868 -2.0292
 1691SOL     OW16708   1.963   2.881   1.963 -0.1110 -1.1757  0.1167
 1691SOL    HW116709   1.867   2.876   1.959 -0.3015  0.3489  2.4030
 1691SOL    HW216710   1.986   2.926   1.882 -1.3453  0.4444  0.6599
 1692SOL     OW16711   4.401   3.999   1.174  0.7872  0.1701  0.4898
 1692SOL    HW116712   4.490   3.969   1.190 -0.1796 -1.8979  1.9435
 1692SOL    HW216713   4.392   4.048   1.256  2.1160  1.2716 -0.0290
 1693SOL     OW16714   3.371   3.981  14.080  0.0888  0.5547  0.5012
 1693SOL    HW116715   3.301   3.961  14.018  0.5900  1.2306 -0.2903
 1693SOL    HW216716   3.325   3.987  14.163 -1.7275  1.3291 -0.5744
 1694SOL     OW16717   1.137   3.156  13.695 -0.4725 -0.4021  0.0312
 1694SOL    HW116718   1.202   3.086  13.708  1.5953  1.4658 -0.3366
 1694SOL    HW216719   1.122   3.160  13.600  2.5066 -0.6304 -0.4418
 1695SOL     OW16720   4.452   4.527   7.835  0.6660  0.5958 -0.1501
 1695SOL    HW116721   4.519   4.551   7.771  1.1559  1.0486  0.5305
 1695SOL    HW216722   4.499   4.518   7.917 -0.4632 -0.8194  0.3439
 1696SOL     OW16723   0.486   0.406   7.747 -0.2518 -0.3003 -0.0875
 1696SOL    HW116724   0.518   0.490   7.715 -0.8590  0.5709  1.6043
 1696SOL    HW216725   0.567   0.366   7.779 -0.9770 -1.2169  0.6091
 1697SOL     OW16726   2.590   1.453   2.408 -0.0101 -0.6004 -0.0769
 1697SOL    HW116727   2.676   1.457   2.366  0.3298 -2.2659  0.4632
 1697SOL    HW216728   2.545   1.400   2.342 -0.2639 -2.1068  1.3030
 1698SOL     OW16729   2.477   1.831   0.617 -0.4460 -0.0911  0.7141
 1698SOL    HW116730   2.389   1.829   0.653 -1.8282  0.4958 -2.6188
 1698SOL    HW216731   2.521   1.759   0.662  0.5643 -1.1386 -1.9290
 1699SOL     OW16732   4.518   1.482   1.563  0.6307  0.3059 -0.0876
 1699SOL    HW116733   4.423   1.479   1.551  0.6701  0.5681 -0.4730
 1699SOL    HW216734   4.546   1.398   1.526  0.2837 -0.3794  1.2227
 1700SOL     OW16735   1.770   4.111   2.969  0.2779 -0.3563  0.4118
 1700SOL    HW116736   1.820   4.076   2.895  0.8105 -0.2403  0.7191
 1700SOL    HW216737   1.810   4.197   2.976  0.8411 -0.4275 -1.8537
 1701SOL     OW16738   0.117   3.488   5.902  0.3405 -0.3725 -0.0502
 1701SOL    HW116739   0.100   3.546   5.828 -1.4108 -0.6898  0.0951
 1701SOL    HW216740   0.105   3.552   5.973  0.4389  0.9522 -1.2426
 1702SOL     OW16741   4.526   2.859   5.065 -0.1273 -0.1558  0.3321
 1702SOL    HW116742   4.570   2.774   5.063 -0.3891 -0.2764 -0.6555
 1702SOL    HW216743   4.601   2.915   5.082 -0.2060 -0.7421  2.6397
 1703SOL     OW16744   2.295   2.164   5.698 -0.0971 -0.2748  0.2837
 1703SOL    HW116745   2.233   2.099   5.732 -1.0221  1.0597  1.1532
 1703SOL    HW216746   2.273   2.158   5.605  0.9023  0.8142 -0.0225
 1704SOL     OW16747   1.505   2.887   9.996  0.0330 -0.2964  0.1619
 1704SOL    HW116748   1.453   2.946  10.050  0.2864 -0.1149  0.2056
 1704SOL    HW216749   1.463   2.898   9.910  1.3034  0.8661 -0.3025
 1705SOL     OW16750   1.900   0.217   2.464 -0.0632 -0.0083  0.1528
 1705SOL    HW116751   1.901   0.159   2.540 -2.1684  0.8690  0.8342
 1705SOL    HW216752   1.971   0.169   2.421 -1.3655 -1.2838 -0.5566
 1706SOL     OW16753   2.016   0.820   7.531  0.3910  0.4697  0.1319
 1706SOL    HW116754   2.013   0.802   7.437 -1.2510 -2.6299  0.7949
 1706SOL    HW216755   2.103   0.860   7.532  0.4837  0.2267  1.5618
 1707SOL     OW16756   3.988   0.854   5.955 -0.1757  0.3025  0.1207
 1707SOL    HW116757   4.049   0.911   6.003  0.4888  0.1364 -0.5287
 1707SOL    HW216758   4.039   0.812   5.886 -1.2900  2.2649 -1.8812
 1708SOL     OW16759   3.908   4.238   4.736 -0.9637  0.8330  0.1067
 1708SOL    HW116760   3.914   4.216   4.643 -0.8404  4.9191 -0.8537
 1708SOL    HW216761   3.977   4.303   4.745  1.9698 -2.5040  1.8291
 1709SOL     OW16762   4.021   0.951   6.790  0.1632  0.3699 -0.5503
 1709SOL    HW116763   4.026   1.027   6.731 -3.4200  0.5866 -0.5923
 1709SOL    HW216764   3.973   0.981   6.868 -0.0657 -0.3821 -0.4044
 1710SOL     OW16765   2.919   3.261   8.817 -0.2368 -0.5311 -0.2142
 1710SOL    HW116766   2.883   3.335   8.768  1.1348 -0.0264 -0.4444
 1710SOL    HW216767   2.866   3.262   8.897 -0.1608  0.2448 -0.1753
 1711SOL     OW16768   0.395   2.221   3.530  0.5235  0.4301 -0.5593
 1711SOL    HW116769   0.314   2.195   3.574  0.9584  1.4144  0.8245
 1711SOL    HW216770   0.378   2.213   3.436 -0.0091 -1.7592 -0.2810
 1712SOL     OW16771   2.939   3.039  12.843 -0.4691  0.1459 -0.3295
 1712SOL    HW116772   3.016   3.090  12.817 -0.0366 -0.5171 -0.3541
 1712SOL    HW216773   2.936   2.972  12.774  0.9243  0.1658 -0.4069
 1713SOL     OW16774   3.295   3.467  10.865 -0.2524  0.8579  0.0905
 1713SOL    HW116775   3.304   3.562  10.864  0.2855  0.8056  0.2180
 1713SOL    HW216776   3.206   3.467  10.830  0.1572  0.7360 -0.9407
 1714SOL     OW16777   1.530   2.593   4.723  0.0266 -0.2961 -0.2529
 1714SOL    HW116778   1.579   2.638   4.654  2.3654 -1.8109  0.4347
 1714SOL    HW216779   1.489   2.527   4.667  0.7108 -2.0111  1.2682
 1715SOL     OW16780   3.791   0.974   8.736 -1.1167  0.1330 -0.5472
 1715SOL    HW116781   3.837   0.971   8.820  0.6230  3.1535 -1.3767
 1715SOL    HW216782   3.698   0.960   8.753 -1.3390  0.9704 -1.0628
 1716SOL     OW16783   1.465   0.658   3.529  0.1933  0.2181  0.5293
 1716SOL    HW116784   1.496   0.745   3.556  2.5828 -0.0813 -1.2479
 1716SOL    HW216785   1.372   0.672   3.546  0.4646  1.2358  1.2083
 1717SOL     OW16786   4.498   4.248   9.213 -0.2037 -0.5830  0.3476
 1717SOL    HW116787   4.409   4.278   9.196 -0.1732 -0.5483  0.2518
 1717SOL    HW216788   4.514   4.176   9.152  0.2499  1.0344 -1.4543
 1718SOL     OW16789   1.739   4.339   3.304 -0.0477 -0.1458 -0.5018
 1718SOL    HW116790   1.797   4.393   3.249 -0.5480  0.4681 -0.4301
 1718SOL    HW216791   1.677   4.405   3.335  1.1235 -0.0608  1.6424
 1719SOL     OW16792   2.294   1.037   0.591  0.4684 -0.2266  0.2596
 1719SOL    HW116793   2.247   0.979   0.652 -0.8846  1.7455  1.0986
 1719SOL    HW216794   2.254   1.120   0.618  0.5914  0.8123 -2.7455
 1720SOL     OW16795   4.384   0.617   1.120 -0.0560 -0.0132 -0.2877
 1720SOL    HW116796   4.333   0.597   1.042 -2.3938 -1.0952  1.5447
 1720SOL    HW216797   4.315   0.595   1.182 -1.0696 -1.0910 -1.8347
 1721SOL     OW16798   3.983   2.641   8.121  0.0081 -0.3757  0.1581
 1721SOL    HW116799   3.937   2.557   8.134  0.9514 -1.3862 -2.9984
 1721SOL    HW216800   4.071   2.605   8.132 -0.3505 -1.2624  0.1801
 1722SOL     OW16801   1.675   0.461  15.475  0.2084 -0.5396 -0.3674
 1722SOL    HW116802   1.684   0.444  15.569  0.3568 -2.1233 -0.6720
 1722SOL    HW216803   1.640   0.377  15.445 -0.6624 -0.0754 -0.6413
 1723SOL     OW16804   1.604   3.800   5.541  0.0820  0.0009 -0.0565
 1723SOL    HW116805   1.591   3.706   5.528 -0.3881  0.0409  0.1237
 1723SOL    HW216806   1.529   3.814   5.600  1.0684  1.7457  0.7585
 1724SOL     OW16807   3.216   3.135   0.105 -0.0143  0.2325  0.0673
 1724SOL    HW116808   3.200   3.132   0.010 -1.5384  1.7703  0.2728
 1724SOL    HW216809   3.274   3.210   0.119 -2.1990  1.6793  1.2249
 1725SOL     OW16810   1.650   2.656   4.273  0.3752  0.0103 -0.0193
 1725SOL    HW116811   1.582   2.592   4.293 -0.2883  0.5185 -0.6249
 1725SOL    HW216812   1.643   2.669   4.178 -2.0620  1.1204  0.3295
 1726SOL     OW16813   0.183   1.952  12.892 -0.1598 -0.2665 -0.2794
 1726SOL    HW116814   0.176   2.003  12.973  0.2110  2.1558 -1.7765
 1726SOL    HW216815   0.261   1.990  12.852 -0.5212  0.6460 -0.1006
 1727SOL     OW16816   1.271   4.173   5.953  0.5849 -0.1892 -0.1204
 1727SOL    HW116817   1.348   4.228   5.948  0.4552  0.1918  2.1308
 1727SOL    HW216818   1.314   4.089   5.973 -1.6322 -1.3759 -0.2917
 1728SOL     OW16819   0.723   2.969  14.381  0.0688  0.3915  0.0532
 1728SOL    HW116820   0.639   2.939  14.348 -0.2530  1.2182  0.1085
 1728SOL    HW216821   0.709   3.061  14.357  2.0319  1.4472  2.9610
 1729SOL     OW16822   3.411   0.822   4.382 -0.6803  0.0708  0.1714
 1729SOL    HW116823   3.402   0.728   4.399 -0.0638  0.0520  0.3885
 1729SOL    HW216824   3.389   0.859   4.468  0.0731 -0.1370  0.4550
 1730SOL     OW16825   3.667   1.828   2.268 -0.0084  0.2257  0.2991
 1730SOL    HW116826   3.728   1.777   2.215  2.0897  2.8600  0.2172
 1730SOL    HW216827   3.585   1.806   2.224 -0.0784 -0.7281  0.8913
 1731SOL     OW16828   3.495   3.582   6.495  0.0136 -0.1060 -0.1543
 1731SOL    HW116829   3.517   3.608   6.405  0.1177 -0.1408 -0.1389
 1731SOL    HW216830   3.574   3.606   6.544  0.4031 -1.0844 -0.2836
 1732SOL     OW16831   4.490   4.381   5.020  0.6230  0.3631  0.1701
 1732SOL    HW116832   4.435   4.396   4.943 -1.2835 -2.8477  0.8927
 1732SOL    HW216833   4.504   4.287   5.005  3.3017  0.7580  0.1563
 1733SOL     OW16834   3.926   3.680   1.667  0.0576 -0.4762 -0.7380
 1733SOL    HW116835   4.011   3.719   1.690 -0.6163 -0.2400  1.3990
 1733SOL    HW216836   3.897   3.741   1.599  0.0957 -0.7482 -0.9976
 1734SOL     OW16837   4.429   0.769   8.914 -0.4399  0.2527  0.1424
 1734SOL    HW116838   4.460   0.778   8.824 -2.3462 -0.6275 -0.5905
 1734SOL    HW216839   4.396   0.680   8.920  0.8168 -0.3603 -1.9778
 1735SOL     OW16840   2.571   0.624   5.001  0.6958  0.2606 -0.2163
 1735SOL    HW116841   2.518   0.548   4.975 -1.2348  0.9771  1.5939
 1735SOL    HW216842   2.656   0.581   5.010  1.0551  1.1563  0.6830
 1736SOL     OW16843   2.612   2.543   4.758  0.0154 -0.1041 -0.3060
 1736SOL    HW116844   2.664   2.601   4.814  1.2053 -1.3775 -0.0967
 1736SOL    HW216845   2.622   2.459   4.801  2.4698  0.4288  0.1474
 1737SOL     OW16846   3.338   4.370   1.873 -0.1992 -0.7429 -0.1519
 1737SOL    HW116847   3.255   4.328   1.852 -0.3883 -1.4304  1.9698
 1737SOL    HW216848   3.388   4.338   1.798 -1.9670  1.3471 -2.2274
 1738SOL     OW16849   0.684   1.577   2.748 -0.0862  0.3850 -0.0377
 1738SOL    HW116850   0.775   1.579   2.720 -0.5874 -2.3241 -1.8647
 1738SOL    HW216851   0.690   1.650   2.810  1.4401 -0.2501  0.5327
 1739SOL     OW16852   2.331   2.941   6.785  0.6406 -0.0104 -0.1519
 1739SOL    HW116853   2.354   2.967   6.696 -0.8498  0.4433 -0.3948
 1739SOL    HW216854   2.381   2.859   6.786  1.9409  0.7391 -2.1919
 1740SOL     OW16855   1.630   1.213   4.042 -0.0724 -0.0993  0.3353
 1740SOL    HW116856   1.639   1.221   3.947 -2.7610 -1.3909 -0.0259
 1740SOL    HW216857   1.686   1.288   4.062  1.2637 -0.8592 -0.6145
 1741SOL     OW16858   3.582   3.698  11.945 -0.1461 -0.4221  0.5183
 1741SOL    HW116859   3.588   3.643  11.867  0.4176  1.5819 -0.8429
 1741SOL    HW216860   3.602   3.783  11.905 -1.3190 -0.4980 -0.2109
 1742SOL     OW16861   3.803   4.617   1.278  0.0387  0.3537  0.4789
 1742SOL    HW116862   3.815   4.712   1.276 -0.9660  0.4854  0.1751
 1742SOL    HW216863   3.759   4.606   1.362 -1.1167  2.0869  0.1079
 1743SOL     OW16864   3.037   0.723   8.198  0.8674  0.6395 -0.1571
 1743SOL    HW116865   3.029   0.660   8.126  2.0679  0.1982  0.0981
 1743SOL    HW216866   2.948   0.728   8.233  0.0690 -0.4024 -1.9969
 1744SOL     OW16867   2.048   3.752   5.485 -0.0456 -0.0091 -0.0351
 1744SOL    HW116868   1.973   3.737   5.543  0.3839 -2.6786 -0.1779
 1744SOL    HW216869   2.107   3.812   5.531  1.3605 -1.3038 -0.1688
 1745SOL     OW16870   0.974   2.016   5.380  0.2438  0.1568 -0.0164
 1745SOL    HW116871   1.037   2.072   5.424  1.2622  0.2862 -1.6471
 1745SOL    HW216872   0.995   2.036   5.289  3.6626  0.2496  0.8171
 1746SOL     OW16873   2.044   2.842  16.786  0.2804 -0.1864  0.3759
 1746SOL    HW116874   2.094   2.844  16.867 -0.8514  0.2494  1.0645
 1746SOL    HW216875   2.094   2.911  16.743 -1.5467  1.3736  0.7663
 1747SOL     OW16876   4.612   3.214  12.825 -0.3570  0.9978 -0.0782
 1747SOL    HW116877   4.698   3.187  12.857 -0.2152 -1.1221 -2.2479
 1747SOL    HW216878   4.552   3.183  12.892 -0.2163  1.0331  0.0667
 1748SOL     OW16879   2.433   1.884   6.795  0.0150 -0.6771  0.1476
 1748SOL    HW116880   2.396   1.943   6.861  0.7736 -0.2357  0.1792
 1748SOL    HW216881   2.442   1.941   6.719 -0.4759 -1.7787 -0.7323
 1749SOL     OW16882   1.577   1.828   7.451 -0.5410  0.0374  0.0097
 1749SOL    HW116883   1.517   1.878   7.395  0.7485 -1.6472 -2.8338
 1749SOL    HW216884   1.573   1.739   7.417 -2.6343 -0.2435  0.9746
 1750SOL     OW16885   4.401   3.655   9.411 -0.0479 -0.2427 -0.2074
 1750SOL    HW116886   4.425   3.685   9.323 -0.9469  0.9655 -0.0513
 1750SOL    HW216887   4.374   3.567   9.386 -0.0519 -0.1501 -0.5358
 1751SOL     OW16888   4.161   3.177   3.027 -0.5761 -0.3216  0.1115
 1751SOL    HW116889   4.221   3.190   3.100 -0.9390  0.4656  0.2572
 1751SOL    HW216890   4.086   3.136   3.070 -0.5425  1.0984  1.4845
 1752SOL     OW16891   0.658   3.428   6.163  0.1239  0.2784  0.1791
 1752SOL    HW116892   0.673   3.349   6.111 -0.6097  0.7732 -0.7633
 1752SOL    HW216893   0.752   3.448   6.161 -0.1837  1.6439 -0.0863
 1753SOL     OW16894   4.683   2.156   8.181 -0.3658 -0.1157 -0.1804
 1753SOL    HW116895   4.601   2.161   8.132  0.4635  1.5981 -1.4227
 1753SOL    HW216896   4.659   2.138   8.272 -0.5590  1.0391 -0.0023
 1754SOL     OW16897   2.163   0.902   4.322 -0.1123 -0.0778 -0.1970
 1754SOL    HW116898   2.173   0.835   4.389  3.6180  2.0438  1.3969
 1754SOL    HW216899   2.155   0.845   4.246  2.9820  0.7584 -1.1639
 1755SOL     OW16900   4.433   2.087   2.352  0.1050 -0.2071  0.2008
 1755SOL    HW116901   4.464   2.020   2.291  0.0258 -0.6033  0.5935
 1755SOL    HW216902   4.453   2.051   2.439  1.3491  0.6797  0.2863
 1756SOL     OW16903   3.326   1.711  10.398 -0.0921 -0.2398 -0.1091
 1756SOL    HW116904   3.247   1.665  10.426 -0.5941  1.4343  1.2601
 1756SOL    HW216905   3.354   1.730  10.488  0.7035 -0.1757 -0.3726
 1757SOL     OW16906   2.962   1.654  12.407  0.3523 -0.2710 -0.0566
 1757SOL    HW116907   2.905   1.709  12.352  2.1223  1.7286  0.1182
 1757SOL    HW216908   2.903   1.586  12.441 -0.0787 -0.6686 -1.5551
 1758SOL     OW16909   2.245   4.282   2.445  0.5664 -0.5199 -0.1791
 1758SOL    HW116910   2.207   4.354   2.395 -0.5078 -0.8770  0.1202
 1758SOL    HW216911   2.175   4.245   2.498 -1.5392  2.8545 -0.5941
 1759SOL     OW16912   3.161   1.149   3.395 -0.0910  0.3802 -0.4681
 1759SOL    HW116913   3.133   1.057   3.397  1.5800 -0.1347 -0.1497
 1759SOL    HW216914   3.082   1.192   3.426  0.6097 -0.1617  2.0993
 1760SOL     OW16915   3.249   4.090   4.215 -0.0875 -0.8085 -0.2473
 1760SOL    HW116916   3.243   4.092   4.310 -0.9996  2.6068 -0.3637
 1760SOL    HW216917   3.200   4.170   4.191 -0.5087 -1.4510 -1.5404
 1761SOL     OW16918   1.772   1.846   2.730 -0.0004  0.2779  0.0520
 1761SOL    HW116919   1.863   1.836   2.761  0.6606  0.6950 -1.7751
 1761SOL    HW216920   1.753   1.753   2.730 -0.1455  0.2878  2.2212
 1762SOL     OW16921   1.802   4.516  14.989 -0.4396 -0.6343  0.0750
 1762SOL    HW116922   1.721   4.468  15.008  0.1685 -1.3696  0.8027
 1762SOL    HW216923   1.820   4.490  14.899  0.6365  0.8504 -0.1433
 1763SOL     OW16924   1.229   2.628  16.142 -0.7401 -0.0646 -0.2623
 1763SOL    HW116925   1.179   2.659  16.217  1.4084 -2.9586  2.3615
 1763SOL    HW216926   1.188   2.676  16.070 -0.1406  0.6051 -0.1612
 1764SOL     OW16927   4.689   2.062  11.644  0.0354 -0.2538 -0.7995
 1764SOL    HW116928   4.654   2.055  11.555 -1.1904  0.0520 -0.3367
 1764SOL    HW216929   4.612   2.051  11.699  0.6996  1.7949  0.5321
 1765SOL     OW16930   4.399   3.804  15.684 -0.1139 -0.0118 -0.2931
 1765SOL    HW116931   4.397   3.797  15.588  0.8303  2.5545 -0.5068
 1765SOL    HW216932   4.318   3.851  15.702  1.6202  1.9145  2.5823
 1766SOL     OW16933   2.852   1.742  12.012  0.3571 -0.8760 -0.2949
 1766SOL    HW116934   2.941   1.752  11.980  0.3892  0.2472  0.1627
 1766SOL    HW216935   2.833   1.806  12.080  1.6065  0.1868 -0.9446
 1767SOL     OW16936   3.391   2.377   9.167  0.2946  0.3218  0.0199
 1767SOL    HW116937   3.338   2.444   9.209 -0.7287 -0.2069 -0.4431
 1767SOL    HW216938   3.328   2.362   9.097  1.1249  0.1039 -0.6863
 1768SOL     OW16939   3.551   1.402   6.994  0.2850 -0.0405  0.2902
 1768SOL    HW116940   3.608   1.328   7.016  0.6748 -0.6980 -2.9372
 1768SOL    HW216941   3.482   1.359   6.944  0.4808 -2.6857  2.2419
 1769SOL     OW16942   0.227   1.918   6.188 -0.2993 -0.2481 -0.1233
 1769SOL    HW116943   0.178   1.872   6.256 -0.1458 -1.2020 -0.6682
 1769SOL    HW216944   0.206   1.877   6.104  2.8087  1.0078 -1.5140
 1770SOL     OW16945   4.345   2.278  10.329 -0.3385 -0.3855 -0.2533
 1770SOL    HW116946   4.414   2.216  10.307  2.3174  2.2321  0.6926
 1770SOL    HW216947   4.400   2.355  10.343 -0.0848 -0.7128  0.5637
 1771SOL     OW16948   3.870   0.193   8.058 -0.4383 -0.0347  0.0996
 1771SOL    HW116949   3.850   0.108   8.018 -0.7539 -1.0858  2.4896
 1771SOL    HW216950   3.821   0.248   7.997  0.6977 -0.2991 -1.0492
 1772SOL     OW16951   1.317   2.061   0.517 -0.4466 -0.2345 -0.2061
 1772SOL    HW116952   1.354   2.084   0.431  0.2193 -3.1285 -0.7001
 1772SOL    HW216953   1.225   2.079   0.501 -0.2933  0.3398 -0.4500
 1773SOL     OW16954   4.022   1.721   1.971 -0.0633  0.4250 -0.5621
 1773SOL    HW116955   4.090   1.786   1.954  1.4354 -0.8348  0.6255
 1773SOL    HW216956   4.020   1.689   1.881  0.5111 -0.4325 -0.2764
 1774SOL     OW16957   4.412   0.948   6.927  0.0057  0.4312  0.9580
 1774SOL    HW116958   4.327   0.957   6.971 -1.5192 -1.0248 -1.6712
 1774SOL    HW216959   4.431   0.854   6.933  0.9691  0.5657  0.0918
 1775SOL     OW16960   3.382   1.470   0.184  0.1868 -0.5566 -0.1178
 1775SOL    HW116961   3.288   1.472   0.163  0.0427 -0.2487  0.5612
 1775SOL    HW216962   3.387   1.415   0.262  1.4846 -0.7098 -0.3064
 1776SOL     OW16963   1.090   4.501  17.734 -0.2438 -0.4957  0.7008
 1776SOL    HW116964   1.145   4.424  17.718  1.3443  0.7808  0.1014
 1776SOL    HW216965   1.005   4.464   0.013 -1.0351  2.8432  2.8490
 1777SOL     OW16966   1.366   1.385   3.304 -0.0635 -0.4204 -0.1619
 1777SOL    HW116967   1.386   1.298   3.270 -1.3953 -1.0723  0.7293
 1777SOL    HW216968   1.293   1.365   3.362 -0.1842 -0.8936 -0.4801
 1778SOL     OW16969   4.617   1.897  12.017  0.3333  0.2052 -0.4467
 1778SOL    HW116970   4.629   1.860  11.929  2.5217 -1.1581  0.4367
 1778SOL    HW216971   4.633   1.822  12.074  0.3633 -0.0163 -0.7492
 1779SOL     OW16972   1.256   4.664  14.813 -0.4035 -0.3142 -0.1237
 1779SOL    HW116973   1.256   4.599  14.743  1.8966 -3.2172  2.5975
 1779SOL    HW216974   1.163   4.686  14.825  0.1123  2.1407 -0.6401
 1780SOL     OW16975   1.394   2.689   8.459 -0.0892  1.0223  0.0335
 1780SOL    HW116976   1.434   2.675   8.544  0.9027  0.6867 -0.4922
 1780SOL    HW216977   1.459   2.735   8.405 -0.6845 -0.4858 -1.9748
 1781SOL     OW16978   0.565   2.757   6.715 -0.3587  0.6078  0.1667
 1781SOL    HW116979   0.536   2.721   6.798  1.5850  0.2271  0.6765
 1781SOL    HW216980   0.626   2.827   6.739  0.4591  1.1371 -3.3626
 1782SOL     OW16981   2.664   3.947   4.507  0.1094  0.6673  0.2077
 1782SOL    HW116982   2.577   3.986   4.517 -0.6528 -0.6630 -1.1457
 1782SOL    HW216983   2.686   3.937   4.599  1.9056 -0.4813 -0.3363
 1783SOL     OW16984   2.823   2.418   6.078  0.7731 -0.1643  0.4825
 1783SOL    HW116985   2.847   2.326   6.065  1.5959  0.1361 -0.1873
 1783SOL    HW216986   2.757   2.414   6.146  0.2527  0.2404 -0.0001
 1784SOL     OW16987   4.582   3.133   7.558 -0.0124  0.3855  0.5513
 1784SOL    HW116988   4.569   3.085   7.476  2.1428 -1.1428  1.0849
 1784SOL    HW216989   4.628   3.073   7.617  0.8837  2.0268  1.5117
 1785SOL     OW16990   2.033   0.274   3.869  0.4079  0.0175 -0.4643
 1785SOL    HW116991   1.942   0.261   3.894  0.9762 -2.3141  0.3460
 1785SOL    HW216992   2.027   0.244   3.778  0.7180 -0.2253 -0.4066
 1786SOL     OW16993   0.767   1.775   5.795  0.6387 -0.0025 -0.1856
 1786SOL    HW116994   0.680   1.739   5.776  0.4194  0.1001  0.6281
 1786SOL    HW216995   0.759   1.783   5.890 -1.8007  1.4196 -0.4960
 1787SOL     OW16996   2.665   4.263  11.813 -0.1503 -0.0649 -0.2309
 1787SOL    HW116997   2.749   4.221  11.798  0.2383  0.7934 -0.4323
 1787SOL    HW216998   2.704   4.339  11.856 -1.9563  1.8212 -1.9049
 1788SOL     OW16999   2.519   3.937   7.540  0.1124  0.4895  0.8371
 1788SOL    HW117000   2.605   3.908   7.568 -0.1183 -0.5605  0.4472
 1788SOL    HW217001   2.521   4.024   7.579  0.1953  0.7897  0.1754
 1789SOL     OW17002   2.711   1.912   4.824 -0.2263  0.0888  0.1342
 1789SOL    HW117003   2.662   1.851   4.879  0.0457 -0.7885 -0.6046
 1789SOL    HW217004   2.664   1.996   4.823 -1.2770 -0.4899  1.8018
 1790SOL     OW17005   3.412   4.241   2.274  0.2987  0.0369 -0.4838
 1790SOL    HW117006   3.331   4.190   2.276  1.4250 -1.8092 -0.8566
 1790SOL    HW217007   3.466   4.174   2.317  1.0741  0.1466 -1.2924
 1791SOL     OW17008   3.576   3.718   1.840 -0.2302  0.4226  0.1633
 1791SOL    HW117009   3.604   3.710   1.749  0.8219 -2.1734  0.7417
 1791SOL    HW217010   3.480   3.716   1.841 -0.2485  1.0885  0.1321
 1792SOL     OW17011   4.466   1.314   3.228 -0.5736 -0.1490  0.2425
 1792SOL    HW117012   4.532   1.383   3.224 -1.2482  0.4965  0.3355
 1792SOL    HW217013   4.509   1.258   3.293 -0.3786  1.9258  1.8837
 1793SOL     OW17014   2.358   2.248  13.158  0.1447 -0.3758  0.6507
 1793SOL    HW117015   2.451   2.239  13.138  0.0885 -0.6709  0.5121
 1793SOL    HW217016   2.340   2.341  13.169  1.5470  0.1058 -1.2085
 1794SOL     OW17017   0.968   4.166   1.786  0.2831 -0.2665  0.2090
 1794SOL    HW117018   0.931   4.220   1.717  1.9850  2.5596  1.5496
 1794SOL    HW217019   0.947   4.233   1.851  3.5262  0.9362  0.0154
 1795SOL     OW17020   0.598   2.994  10.738  0.1367  0.2402 -0.4132
 1795SOL    HW117021   0.526   2.932  10.755  0.3935 -0.1276 -0.6550
 1795SOL    HW217022   0.551   3.076  10.753  1.5585  0.4579  2.8735
 1796SOL     OW17023   0.568   0.745   3.359 -0.1153 -0.3484 -0.0683
 1796SOL    HW117024   0.531   0.786   3.436 -1.1982 -1.5780  0.0732
 1796SOL    HW217025   0.498   0.685   3.331  0.0021 -0.1654 -0.7607
 1797SOL     OW17026   0.578   3.487   3.588  0.5482  0.1828 -0.3938
 1797SOL    HW117027   0.588   3.560   3.526 -1.7484  1.2014  0.4453
 1797SOL    HW217028   0.592   3.414   3.528 -1.5345  1.6437 -2.6840
 1798SOL     OW17029   0.779   0.207   0.889 -0.3957 -0.2161  0.2675
 1798SOL    HW117030   0.873   0.193   0.881 -0.2660  2.0998 -2.1350
 1798SOL    HW217031   0.772   0.163   0.974 -0.4375 -1.7892 -0.5447
 1799SOL     OW17032   0.048   0.042   3.746  0.1232 -0.1888 -0.4346
 1799SOL    HW117033   0.113   0.094   3.700  0.1595  0.5896  0.5045
 1799SOL    HW217034   0.070   4.695   3.706  0.3498 -1.6209  2.7519
 1800SOL     OW17035   1.429   0.585   4.048  0.4376 -0.0125 -0.0824
 1800SOL    HW117036   1.449   0.625   4.133  2.1966 -1.1289  0.0139
 1800SOL    HW217037   1.363   0.521   4.075 -0.0646 -0.0529 -1.4079
 1801SOL     OW17038   0.465   4.232  15.194 -0.4840 -0.4673  0.0451
 1801SOL    HW117039   0.536   4.168  15.199  0.2132  0.2756 -0.2633
 1801SOL    HW217040   0.516   4.298  15.147  1.1074 -0.2742  2.0373
 1802SOL     OW17041   4.413   1.234   6.947  0.4175  0.5444 -0.1804
 1802SOL    HW117042   4.380   1.228   7.037 -0.4112 -0.7475 -0.5718
 1802SOL    HW217043   4.455   1.149   6.937 -0.1017  0.3654 -0.8667
 1803SOL     OW17044   0.138   3.397   8.562 -0.7105  0.2784 -0.2120
 1803SOL    HW117045   0.224   3.395   8.521 -0.4452 -0.6015  0.3897
 1803SOL    HW217046   0.076   3.353   8.504  1.9982 -4.3539  0.4323
 1804SOL     OW17047   2.507   0.080   7.378  0.4722  0.1291 -0.0140
 1804SOL    HW117048   2.438   0.109   7.318 -0.1791  0.2277  0.7892
 1804SOL    HW217049   2.456   0.091   7.458  0.8051  1.2206  0.0350
 1805SOL     OW17050   1.412   2.333   3.777  0.4999 -0.7747 -0.1522
 1805SOL    HW117051   1.381   2.392   3.846 -2.0877  0.4152 -2.3409
 1805SOL    HW217052   1.339   2.331   3.715  1.7606 -1.0404 -1.6116
 1806SOL     OW17053   0.861   4.368   5.015 -0.1558 -0.0360  0.1293
 1806SOL    HW117054   0.935   4.408   5.061 -1.5692 -0.1446  2.5038
 1806SOL    HW217055   0.875   4.273   5.019  1.4599  0.0762 -3.4146
 1807SOL     OW17056   3.353   1.426  16.858 -0.1898  0.2083  0.0004
 1807SOL    HW117057   3.331   1.458  16.945 -1.6595  0.2871 -0.4035
 1807SOL    HW217058   3.278   1.458  16.808 -0.3649 -1.4749 -0.8117
 1808SOL     OW17059   1.683   1.155   8.357 -0.2553 -0.2757  0.3119
 1808SOL    HW117060   1.724   1.073   8.387  2.6419  1.4667  1.1136
 1808SOL    HW217061   1.751   1.218   8.380 -1.2170  0.9668 -0.2848
 1809SOL     OW17062   2.026   0.686   4.923 -0.2092 -0.1346  0.5197
 1809SOL    HW117063   1.962   0.729   4.979 -0.6522  0.5035 -0.4918
 1809SOL    HW217064   1.991   0.668   4.836 -1.8852  0.6709  1.0362
 1810SOL     OW17065   2.545   1.097  11.005 -0.1936 -0.3806  0.2602
 1810SOL    HW117066   2.558   1.002  10.999  1.7263 -0.0967 -0.0321
 1810SOL    HW217067   2.454   1.126  10.994 -0.6643 -1.1548  1.9944
 1811SOL     OW17068   2.393   0.649   4.354  0.7690 -0.1496  0.2967
 1811SOL    HW117069   2.461   0.690   4.300 -0.2154  1.8997  0.6353
 1811SOL    HW217070   2.365   0.584   4.288  0.8625  0.6720 -0.5527
 1812SOL     OW17071   1.209   4.438   4.791  0.5721  0.2583  0.5237
 1812SOL    HW117072   1.236   4.453   4.700  1.0205 -0.1446  0.5895
 1812SOL    HW217073   1.287   4.410   4.839  0.5198 -0.4640  0.1943
 1813SOL     OW17074   1.810   2.382  16.421  0.1122 -0.2274 -0.1528
 1813SOL    HW117075   1.828   2.387  16.327  2.2689  1.5630  0.3639
 1813SOL    HW217076   1.884   2.422  16.465  0.6295 -2.5948  1.0673
 1814SOL     OW17077   1.970   3.913   5.258  0.2864  0.0482 -0.2105
 1814SOL    HW117078   1.881   3.878   5.262  0.6418 -0.6497  1.7663
 1814SOL    HW217079   2.008   3.857   5.326 -0.0270 -0.9224 -0.8302
 1815SOL     OW17080   1.883   1.178   2.584 -0.2441  0.0890  0.5308
 1815SOL    HW117081   1.902   1.206   2.674 -0.5610  0.9926  0.3144
 1815SOL    HW217082   1.789   1.169   2.572  0.1370 -2.5270 -0.4477
 1816SOL     OW17083   3.963   2.494  12.780  0.4602  0.2293 -0.1592
 1816SOL    HW117084   3.908   2.533  12.848 -1.9914  0.3215 -2.2143
 1816SOL    HW217085   3.901   2.465  12.713 -0.4077  2.3640 -0.2834
 1817SOL     OW17086   1.884   3.196   2.035  0.1059  0.1999 -0.7747
 1817SOL    HW117087   1.818   3.260   2.061  0.3007 -0.5542  1.6041
 1817SOL    HW217088   1.841   3.155   1.961  1.4816  1.4712 -2.2939
 1818SOL     OW17089   0.476   2.852   3.577  0.0780 -0.2148  0.1195
 1818SOL    HW117090   0.422   2.789   3.623 -2.9515  0.4951 -2.5134
 1818SOL    HW217091   0.416   2.880   3.509  1.7771 -1.0537 -1.7226
 1819SOL     OW17092   3.062   0.244  15.380  0.1667 -0.3891  0.1920
 1819SOL    HW117093   3.019   0.329  15.389 -0.0435 -0.6668  1.8152
 1819SOL    HW217094   3.009   0.196  15.444 -1.2746 -0.2872 -0.9229
 1820SOL     OW17095   3.147   1.483  16.641 -0.3726  0.0473 -0.0796
 1820SOL    HW117096   3.186   1.417  16.583 -2.2925 -1.5216  0.4028
 1820SOL    HW217097   3.171   1.561  16.592 -0.7821  0.2620  0.0623
 1821SOL     OW17098   3.623   1.622   3.157  0.6354 -0.2789  0.0887
 1821SOL    HW117099   3.588   1.634   3.069  0.6581 -0.7792  0.0072
 1821SOL    HW217100   3.584   1.689   3.212  0.4777 -1.4226  1.3741
 1822SOL     OW17101   3.548   0.406   2.270  0.2027 -0.1015  0.1991
 1822SOL    HW117102   3.460   0.421   2.235 -0.0345  0.6935  1.1222
 1822SOL    HW217103   3.550   0.314   2.244  0.5600  0.2582 -1.0424
 1823SOL     OW17104   2.246   0.304   0.589 -0.0851  0.1736 -0.5176
 1823SOL    HW117105   2.193   0.279   0.513 -0.4588 -1.3523  0.2300
 1823SOL    HW217106   2.334   0.301   0.553 -0.7814  2.5085 -2.4195
 1824SOL     OW17107   2.746   0.570  13.004 -0.1767 -0.4607 -0.1959
 1824SOL    HW117108   2.766   0.605  13.090  1.0426  0.1853 -0.7443
 1824SOL    HW217109   2.819   0.508  12.999  0.7231  0.7512 -2.1904
 1825SOL     OW17110   1.251   2.475   5.011  0.3205  0.0459  0.0109
 1825SOL    HW117111   1.335   2.438   4.983  0.8015 -1.5661  3.5715
 1825SOL    HW217112   1.213   2.504   4.928  1.3911 -0.0859 -0.5318
 1826SOL     OW17113   0.929   3.470   6.168 -0.3172 -0.0523  0.2868
 1826SOL    HW117114   0.971   3.384   6.170 -0.9057 -0.3801 -1.4753
 1826SOL    HW217115   0.968   3.526   6.235 -0.7914  1.4575 -0.6983
 1827SOL     OW17116   4.434   3.546  16.798  0.1755  0.6596  0.1239
 1827SOL    HW117117   4.481   3.494  16.732 -2.2679  0.8258 -1.7515
 1827SOL    HW217118   4.363   3.580  16.744  1.7653  3.1754 -0.4241
 1828SOL     OW17119   2.706   2.358  17.336  0.0756 -0.0859 -0.2174
 1828SOL    HW117120   2.689   2.394  17.249  3.2069  2.7221  0.3112
 1828SOL    HW217121   2.640   2.411  17.380 -0.4995 -0.4044 -0.6990
 1829SOL     OW17122   3.500   0.910   5.955 -0.0147 -0.4164 -0.6352
 1829SOL    HW117123   3.533   0.979   5.897 -2.0716 -0.5252 -1.9388
 1829SOL    HW217124   3.434   0.956   6.008 -0.9479  0.8058 -2.8547
 1830SOL     OW17125   1.011   0.623  17.617  0.3251  0.0792 -0.2682
 1830SOL    HW117126   1.016   0.529  17.630 -1.5293 -0.0948 -0.7846
 1830SOL    HW217127   1.015   0.656  17.707 -0.7331 -1.9054  0.5003
 1831SOL     OW17128   0.716   2.217   8.723  0.2952  0.0853  0.0856
 1831SOL    HW117129   0.780   2.181   8.661 -0.2023 -3.6618  1.7122
 1831SOL    HW217130   0.638   2.162   8.710  2.1827 -2.4335 -0.5078
 1832SOL     OW17131   1.666   0.380   9.295  0.1224  0.0901 -0.0363
 1832SOL    HW117132   1.628   0.370   9.208  0.8476 -1.8248 -0.1324
 1832SOL    HW217133   1.732   0.311   9.295 -0.0404 -0.0648  0.2325
 1833SOL     OW17134   0.006   4.342   7.191  0.1064  0.0549 -0.5172
 1833SOL    HW117135   0.056   4.334   7.272  0.0616  1.1432 -0.3745
 1833SOL    HW217136   0.077   4.338   7.127 -0.9561 -1.5132 -1.5962
 1834SOL     OW17137   1.662   1.537   1.492  0.3899 -0.4047  0.3436
 1834SOL    HW117138   1.696   1.571   1.410  2.4345 -0.3492  1.2102
 1834SOL    HW217139   1.610   1.463   1.462 -1.5478  0.9533  0.3214
 1835SOL     OW17140   0.799   3.926   4.906 -0.7088 -0.0413 -0.4822
 1835SOL    HW117141   0.888   3.930   4.870 -0.4238  2.2185  0.4974
 1835SOL    HW217142   0.757   3.977   4.836 -1.8531  0.5838  0.6747
 1836SOL     OW17143   3.638   0.568  13.239 -0.0272 -0.4023  0.1392
 1836SOL    HW117144   3.664   0.566  13.147 -0.9136  1.3923 -0.1372
 1836SOL    HW217145   3.699   0.632  13.275 -0.9500  0.7018 -0.2809
 1837SOL     OW17146   0.955   4.299   2.789  0.5044  0.1896 -0.2318
 1837SOL    HW117147   0.897   4.372   2.811  1.7549  0.8180  1.0481
 1837SOL    HW217148   0.890   4.246   2.743 -1.5609  2.2879  0.2636
 1838SOL     OW17149   0.666   0.850   6.503 -0.5086 -0.5189 -0.5206
 1838SOL    HW117150   0.707   0.844   6.589  0.8281 -0.7628 -1.1706
 1838SOL    HW217151   0.585   0.895   6.524 -0.2039 -0.8956  1.4739
 1839SOL     OW17152   0.169   3.103   9.189 -0.3754  0.0605 -0.1051
 1839SOL    HW117153   0.130   3.190   9.180 -0.7372 -0.2762 -1.8606
 1839SOL    HW217154   0.233   3.096   9.117 -0.1550 -0.9460  0.1784
 1840SOL     OW17155   2.910   3.335   6.541 -0.0967 -0.2514 -0.6838
 1840SOL    HW117156   2.965   3.388   6.598  0.4669 -1.4791 -0.0903
 1840SOL    HW217157   2.973   3.313   6.473 -0.2840  1.6106 -1.4822
 1841SOL     OW17158   3.683   4.200   3.620 -0.3514  0.5505 -0.3676
 1841SOL    HW117159   3.601   4.158   3.593  0.5987 -0.3627 -1.8590
 1841SOL    HW217160   3.751   4.139   3.592 -0.0545  1.4812 -1.6670
 1842SOL     OW17161   0.496   1.109  10.452 -0.0200 -0.5309 -0.3604
 1842SOL    HW117162   0.550   1.167  10.505 -0.9786 -0.0855  0.1286
 1842SOL    HW217163   0.480   1.036  10.511  1.5672 -1.3790 -0.9826
 1843SOL     OW17164   2.503   2.588  14.113 -0.2875  0.2152 -0.1531
 1843SOL    HW117165   2.458   2.646  14.051  2.3807  2.2969 -0.1551
 1843SOL    HW217166   2.584   2.586  14.061 -0.3126  2.6919 -0.2610
 1844SOL     OW17167   1.698   4.019   8.848  0.0833  0.3422 -0.3264
 1844SOL    HW117168   1.774   3.960   8.844  0.2565  0.5961 -0.7653
 1844SOL    HW217169   1.743   4.092   8.891 -0.5335 -0.3377  1.4367
 1845SOL     OW17170   0.590   3.296   7.696 -0.3043 -0.7427 -0.1227
 1845SOL    HW117171   0.673   3.329   7.662 -1.0034 -0.9141 -1.9792
 1845SOL    HW217172   0.552   3.382   7.715  2.2808  0.0958  1.1289
 1846SOL     OW17173   0.014   1.954   8.533  0.1079  0.5508  0.1905
 1846SOL    HW117174   4.698   1.891   8.484  0.9153 -1.6221  2.1155
 1846SOL    HW217175   0.077   1.896   8.576 -3.2648 -0.6520  3.5309
 1847SOL     OW17176   2.229   4.014   8.385 -0.1016  0.0658 -0.0346
 1847SOL    HW117177   2.172   4.091   8.388  0.3899  0.3865  1.3559
 1847SOL    HW217178   2.220   3.987   8.477  1.1255 -0.5970 -0.1121
 1848SOL     OW17179   1.257   2.258   4.591  0.4908 -0.3710  0.0348
 1848SOL    HW117180   1.186   2.322   4.590 -0.9906 -2.0118 -1.5107
 1848SOL    HW217181   1.236   2.209   4.671  0.2267 -0.0265  0.1786
 1849SOL     OW17182   1.259   3.483  13.475  0.5400  0.0573 -0.0153
 1849SOL    HW117183   1.189   3.419  13.464 -1.2222  2.0705 -0.6180
 1849SOL    HW217184   1.221   3.561  13.516 -0.8156 -1.5338  1.7251
 1850SOL     OW17185   3.354   4.191   8.906 -0.3995  0.4482  0.4476
 1850SOL    HW117186   3.356   4.207   8.812  0.1529  0.6487  0.4898
 1850SOL    HW217187   3.268   4.159   8.932 -0.0283 -1.0345 -0.1804
 1851SOL     OW17188   1.299   1.980   3.947  0.4361 -0.0506 -0.1834
 1851SOL    HW117189   1.231   2.031   3.991 -2.8137 -3.1009 -1.6165
 1851SOL    HW217190   1.353   1.949   4.019 -0.1301  0.7744  0.5977
 1852SOL     OW17191   4.559   2.256   6.603  0.8596 -0.9357  0.4152
 1852SOL    HW117192   4.545   2.346   6.572 -1.7727 -0.9327  1.6299
 1852SOL    HW217193   4.477   2.212   6.624  0.3238 -0.1970 -0.1110
 1853SOL     OW17194   1.209   0.226   2.316 -0.1058 -0.0917  0.2460
 1853SOL    HW117195   1.194   0.313   2.279  4.2622 -0.0052 -1.3812
 1853SOL    HW217196   1.273   0.246   2.384 -1.0415  2.9130  0.2274
 1854SOL     OW17197   2.679   1.560   5.133 -0.5504  0.1414  0.0884
 1854SOL    HW117198   2.722   1.603   5.207  0.6374  0.4534 -0.7879
 1854SOL    HW217199   2.648   1.478   5.173 -0.1365 -0.0592 -0.0108
 1855SOL     OW17200   0.250   2.636   4.279  0.1823  0.0578  0.2653
 1855SOL    HW117201   0.328   2.679   4.245 -0.0836  0.6703  0.4289
 1855SOL    HW217202   0.285   2.594   4.357 -1.3690 -0.4869  0.6759
 1856SOL     OW17203   3.301   2.363   2.079 -0.2228  0.3431 -0.7306
 1856SOL    HW117204   3.314   2.446   2.034 -0.2040 -0.2069 -1.7377
 1856SOL    HW217205   3.384   2.322   2.058  0.1522  0.6767  0.1090
 1857SOL     OW17206   2.373   1.497   5.373  0.0622 -0.5331 -0.4127
 1857SOL    HW117207   2.278   1.504   5.375  0.2278  1.2518  1.2052
 1857SOL    HW217208   2.389   1.407   5.402  1.8942 -0.5739 -1.5849
 1858SOL     OW17209   3.491   0.850  16.951  0.6076  0.5122 -0.2758
 1858SOL    HW117210   3.427   0.890  16.892 -2.2316  0.8791  3.0687
 1858SOL    HW217211   3.449   0.848  17.037 -2.2791  0.9614 -1.6890
 1859SOL     OW17212   0.359   4.679  17.540  0.0897 -0.6391 -0.0733
 1859SOL    HW117213   0.347   4.625  17.462 -0.8135 -0.7640  0.1537
 1859SOL    HW217214   0.316   4.628  17.609 -0.3938  0.3610  0.3573
 1860SOL     OW17215   3.040   1.941  10.925 -0.8273 -0.4989 -0.2207
 1860SOL    HW117216   2.951   1.971  10.906 -0.5668  1.4050  1.5621
 1860SOL    HW217217   3.030   1.868  10.863  2.6910  0.3668 -1.7901
 1861SOL     OW17218   0.942   2.453   5.422  0.0222 -0.2555 -0.5614
 1861SOL    HW117219   0.927   2.457   5.517  1.2003 -2.1053 -0.3116
 1861SOL    HW217220   0.859   2.425   5.383  0.1280  0.5451 -1.3622
 1862SOL     OW17221   0.058   3.070   3.651  0.2218 -0.2778 -0.6813
 1862SOL    HW117222   0.028   2.992   3.697 -0.5489 -0.7177 -1.9301
 1862SOL    HW217223   0.041   3.144   3.709  2.2404 -0.2998 -0.0574
 1863SOL     OW17224   4.559   1.663   3.748 -0.2885  0.3100 -0.1862
 1863SOL    HW117225   4.520   1.576   3.736  0.2466  0.4631 -2.9847
 1863SOL    HW217226   4.526   1.708   3.670  0.8420 -0.7730 -1.3071
 1864SOL     OW17227   0.001   0.527   6.100 -0.6741  0.4500  0.2463
 1864SOL    HW117228   0.003   0.442   6.055  0.5833  0.1607  0.8528
 1864SOL    HW217229   4.646   0.547   6.085 -1.3015 -2.6251 -0.1243
 1865SOL     OW17230   2.570   2.553   4.499  0.8196  0.0845 -0.0209
 1865SOL    HW117231   2.594   2.548   4.591 -0.7955  0.1876  0.4165
 1865SOL    HW217232   2.591   2.463   4.473  2.1005  0.1620  0.8015
 1866SOL     OW17233   3.192   2.591   9.217  0.4907 -0.3448  0.1464
 1866SOL    HW117234   3.170   2.530   9.288 -0.2240  0.6675  0.8108
 1866SOL    HW217235   3.103   2.625   9.208 -0.0411 -1.7768  0.1062
 1867SOL     OW17236   2.417   3.652  11.064  0.3371  0.0017  0.5114
 1867SOL    HW117237   2.363   3.731  11.057  0.8709  0.2702 -0.5989
 1867SOL    HW217238   2.445   3.654  11.155  3.4187 -0.5150 -0.4332
 1868SOL     OW17239   1.513   4.178   6.748 -0.4260  0.1755 -1.0019
 1868SOL    HW117240   1.483   4.169   6.839  2.9355 -3.0540 -0.1638
 1868SOL    HW217241   1.476   4.263   6.727 -1.4606  0.0208  0.1804
 1869SOL     OW17242   2.419   2.850   7.785  0.2981 -0.1013  0.4095
 1869SOL    HW117243   2.445   2.936   7.816 -2.2305 -0.5701  3.8746
 1869SOL    HW217244   2.355   2.881   7.722 -0.9538 -2.3139  0.5812
 1870SOL     OW17245   3.494   0.075   8.901 -0.1561 -0.1313 -0.4035
 1870SOL    HW117246   3.451   0.045   8.981 -1.9904  1.6991 -0.7179
 1870SOL    HW217247   3.464   0.006   8.841 -1.5772  0.5908 -0.5240
 1871SOL     OW17248   1.176   3.164   0.057  0.0122 -0.3303  0.4137
 1871SOL    HW117249   1.131   3.241   0.091  0.8964  0.3231  0.1360
 1871SOL    HW217250   1.121   3.116  17.743  1.3845 -1.0799 -0.2210
 1872SOL     OW17251   1.087   4.024   6.162 -0.3096  0.2032 -0.4503
 1872SOL    HW117252   1.182   4.029   6.153 -0.0243 -0.3444  2.3472
 1872SOL    HW217253   1.069   3.989   6.075 -0.7310  1.4016 -0.8514
 1873SOL     OW17254   2.624   0.151   0.218 -0.2846  0.5772  0.1020
 1873SOL    HW117255   2.622   0.094   0.142 -2.8778  0.6365  0.1351
 1873SOL    HW217256   2.689   0.098   0.264 -0.6636  0.5781  0.6472
 1874SOL     OW17257   2.600   2.830   9.577  0.3659 -0.5053  0.3689
 1874SOL    HW117258   2.621   2.911   9.623 -1.3547 -0.0713  0.3641
 1874SOL    HW217259   2.550   2.788   9.646 -0.7870 -0.1612 -0.2500
 1875SOL     OW17260   3.768   2.829   6.170 -0.0364 -0.2864 -0.0727
 1875SOL    HW117261   3.754   2.746   6.124  2.5284 -0.7651  0.0030
 1875SOL    HW217262   3.681   2.854   6.201  0.9058  0.8749  1.6272
 1876SOL     OW17263   3.879   0.043   3.039 -0.0630  0.6425 -0.1889
 1876SOL    HW117264   3.917   0.072   2.956 -0.0095  1.0798 -0.0082
 1876SOL    HW217265   3.937   4.711   3.071 -1.2897 -0.1106  0.4216
 1877SOL     OW17266   0.059   4.463   5.448 -0.5925  0.2488 -0.3264
 1877SOL    HW117267   0.025   4.479   5.360  2.1600 -0.1427 -1.4579
 1877SOL    HW217268   0.125   4.398   5.425 -0.2847  1.3684 -2.5370
 1878SOL     OW17269   0.554   1.251  11.801 -0.1680  0.3815  0.1073
 1878SOL    HW117270   0.487   1.256  11.869  0.0585 -0.6362  0.4180
 1878SOL    HW217271   0.502   1.270  11.723  0.4417  1.7611  0.0403
 1879SOL     OW17272   1.257   3.545   6.659 -0.2018 -0.3493  0.5649
 1879SOL    HW117273   1.319   3.593   6.714  0.1432  0.0711 -0.1805
 1879SOL    HW217274   1.310   3.468   6.638 -2.5369 -0.8978 -3.2088
 1880SOL     OW17275   1.280   3.296   7.577 -0.7606 -0.0994 -0.2838
 1880SOL    HW117276   1.372   3.268   7.572 -0.6963  0.3713 -1.6543
 1880SOL    HW217277   1.233   3.229   7.627 -0.1480 -0.5345 -0.2917
 1881SOL     OW17278   1.422   4.185   4.593 -0.4418 -0.0256  0.3068
 1881SOL    HW117279   1.462   4.125   4.656  1.1168  0.3915 -0.3119
 1881SOL    HW217280   1.479   4.198   4.518 -0.4794  0.7466  0.4060
 1882SOL     OW17281   2.258   3.847  16.979  0.4223  0.3122 -0.2482
 1882SOL    HW117282   2.186   3.790  16.952  2.1378 -1.7347 -0.5250
 1882SOL    HW217283   2.215   3.896  17.049  1.3101 -0.7067  1.0201
 1883SOL     OW17284   2.738   4.491  11.663 -0.2925  0.5044  0.0870
 1883SOL    HW117285   2.694   4.406  11.658 -0.1303  0.4770 -0.8921
 1883SOL    HW217286   2.829   4.466  11.646 -0.2929  1.5012 -1.3759
 1884SOL     OW17287   1.028   2.876   3.562 -0.3804 -0.2850  0.1963
 1884SOL    HW117288   1.024   2.842   3.652  0.2186 -1.5592 -0.2468
 1884SOL    HW217289   0.935   2.896   3.552 -0.1088  1.1578  0.6399
 1885SOL     OW17290   0.226   3.079   2.623 -0.8762  0.0043  0.5291
 1885SOL    HW117291   0.143   3.104   2.583 -0.6939  1.3770  0.9968
 1885SOL    HW217292   0.222   3.144   2.694 -0.6162  1.2138 -0.5675
 1886SOL     OW17293   2.097   2.021   5.916 -0.5611 -0.1287 -0.0178
 1886SOL    HW117294   2.074   2.112   5.938  0.6788  0.2934 -0.4574
 1886SOL    HW217295   2.104   1.980   6.003  1.7375 -2.8660 -1.4929
 1887SOL     OW17296   1.854   3.458   7.278  0.1925 -0.0295  0.1346
 1887SOL    HW117297   1.863   3.402   7.202 -0.5554 -0.7335  0.5779
 1887SOL    HW217298   1.816   3.530   7.228 -2.2927 -1.5021 -0.0549
 1888SOL     OW17299   4.195   3.164   5.305  0.0538 -0.0053  0.0186
 1888SOL    HW117300   4.105   3.135   5.287 -0.1896  1.1172 -0.5788
 1888SOL    HW217301   4.230   3.159   5.216 -1.0486  1.3793 -0.5052
 1889SOL     OW17302   2.555   2.336   0.800  0.6071  0.0411 -0.2459
 1889SOL    HW117303   2.584   2.322   0.710 -0.3782 -0.8587 -0.4207
 1889SOL    HW217304   2.578   2.427   0.815 -1.6785  0.8106 -1.4627
 1890SOL     OW17305   4.526   4.416  10.078  0.0996  0.4200 -0.3305
 1890SOL    HW117306   4.590   4.345  10.083 -1.7513 -1.2064  0.0144
 1890SOL    HW217307   4.474   4.392  10.002 -1.2010  1.3800  0.2727
 1891SOL     OW17308   2.137   4.462   2.306 -0.1731 -0.2219 -0.2158
 1891SOL    HW117309   2.188   4.530   2.262 -0.5255  0.5650  0.5978
 1891SOL    HW217310   2.047   4.497   2.310 -0.0188  0.1276  0.1686
 1892SOL     OW17311   4.158   2.631   3.088  0.0533  0.2288 -0.0159
 1892SOL    HW117312   4.145   2.677   3.005  0.3500 -1.2511 -0.8815
 1892SOL    HW217313   4.240   2.584   3.077  1.2148  1.6292  2.6669
 1893SOL     OW17314   3.862   4.287  16.828  0.0805  0.0928  0.2017
 1893SOL    HW117315   3.809   4.220  16.870  0.5880 -0.7568 -0.5283
 1893SOL    HW217316   3.814   4.368  16.848 -0.4052 -0.1104 -0.1210
 1894SOL     OW17317   4.389   0.745   3.387 -0.3473 -0.2441 -0.3724
 1894SOL    HW117318   4.306   0.763   3.431 -0.2133 -2.3726  0.7866
 1894SOL    HW217319   4.363   0.765   3.297 -0.4232 -0.9902 -0.5221
 1895SOL     OW17320   4.031   0.126   1.380 -0.1426  0.5463  0.2111
 1895SOL    HW117321   4.012   0.046   1.428 -1.1199 -0.0019 -1.0854
 1895SOL    HW217322   3.947   0.170   1.390  0.5906  1.9338  0.3129
 1896SOL     OW17323   2.641   1.910  15.856 -0.0821  0.0571 -0.4009
 1896SOL    HW117324   2.552   1.880  15.869 -0.3930  0.3650 -1.8750
 1896SOL    HW217325   2.651   1.909  15.761 -1.4715 -0.6859 -0.5416
 1897SOL     OW17326   2.612   2.356  13.089  0.1251 -0.1455  0.2242
 1897SOL    HW117327   2.611   2.438  13.140  2.4071 -0.6273  1.0243
 1897SOL    HW217328   2.622   2.397  13.003 -0.2942  0.8477  0.6438
 1898SOL     OW17329   3.755   2.628   1.580  0.2568 -0.3671 -0.1281
 1898SOL    HW117330   3.677   2.643   1.527 -0.0350  0.8483  0.6600
 1898SOL    HW217331   3.769   2.534   1.564  0.8722 -0.4305  0.7717
 1899SOL     OW17332   2.274   4.167  13.925  0.1097  0.5892  0.0487
 1899SOL    HW117333   2.301   4.130  13.840  4.3776  0.7333  1.3171
 1899SOL    HW217334   2.212   4.097  13.947  1.8869 -0.2515  2.4285
 1900SOL     OW17335   4.324   2.048   7.755 -0.3657  0.1884  0.3964
 1900SOL    HW117336   4.307   1.965   7.709  0.4731  1.0574 -1.5018
 1900SOL    HW217337   4.396   2.018   7.810 -0.0040 -0.3696 -0.3789
 1901SOL     OW17338   1.216   4.295   2.942  0.2841  0.5341 -0.1633
 1901SOL    HW117339   1.140   4.305   2.885 -0.0307 -1.4721 -0.1065
 1901SOL    HW217340   1.176   4.345   3.013 -1.5920 -2.3233  0.8093
 1902SOL     OW17341   0.487   0.040   1.025  0.3695 -0.3793 -0.2228
 1902SOL    HW117342   0.565   0.033   1.080 -1.9776  0.0246  3.1798
 1902SOL    HW217343   0.494   4.699   0.971  0.7643 -0.1982 -0.4313
 1903SOL     OW17344   3.130   3.105   7.724 -0.3538 -0.7491 -0.5232
 1903SOL    HW117345   3.059   3.085   7.663 -1.4232  1.7427 -0.1019
 1903SOL    HW217346   3.167   3.179   7.676  0.8057 -0.9987 -0.0088
 1904SOL     OW17347   3.435   1.912   3.709  0.3274  0.1698  0.3762
 1904SOL    HW117348   3.519   1.933   3.669  0.2524  1.0906  0.6992
 1904SOL    HW217349   3.439   1.949   3.797 -0.1188  1.0322  0.0308
 1905SOL     OW17350   2.058   1.512   5.259  0.1020  0.2660 -0.4295
 1905SOL    HW117351   2.035   1.511   5.166 -0.2796 -2.4737 -0.3130
 1905SOL    HW217352   2.018   1.590   5.298  0.1850 -0.3314  0.8203
 1906SOL     OW17353   4.042   2.451   5.262  0.4023 -0.0227  0.0652
 1906SOL    HW117354   4.056   2.489   5.176 -1.3610  0.9251  0.1999
 1906SOL    HW217355   3.947   2.440   5.258  0.3611 -0.1070  1.1575
 1907SOL     OW17356   2.370   4.366   6.421  0.2212  0.3006 -0.6908
 1907SOL    HW117357   2.365   4.277   6.387 -0.5242  0.7617 -1.7545
 1907SOL    HW217358   2.299   4.412   6.378  0.1469 -0.9022 -1.8596
 1908SOL     OW17359   0.157   2.143  13.967 -0.3796  0.0564  0.3578
 1908SOL    HW117360   0.165   2.131  13.873  0.5308  0.0664  0.4313
 1908SOL    HW217361   0.228   2.092  14.008  0.6783  1.9536  0.8789
 1909SOL     OW17362   0.644   1.643  12.495 -0.1022 -0.8491  0.5639
 1909SOL    HW117363   0.699   1.644  12.417 -0.5025 -0.1072  0.2984
 1909SOL    HW217364   0.705   1.626  12.567 -0.4020 -2.9618  0.3453
 1910SOL     OW17365   3.264   1.970   1.575 -0.6863  0.6911  0.4692
 1910SOL    HW117366   3.329   1.910   1.613 -2.4080 -1.6303 -0.2669
 1910SOL    HW217367   3.185   1.940   1.619  0.3184 -0.3194  1.5950
 1911SOL     OW17368   2.373   0.940  13.484  0.3691 -0.2890  0.0553
 1911SOL    HW117369   2.316   0.955  13.559  1.3200  1.3653  0.4501
 1911SOL    HW217370   2.401   0.852  13.507  0.7083 -0.5803 -1.4491
 1912SOL     OW17371   3.801   2.608   2.794  0.0431 -0.1741 -0.2064
 1912SOL    HW117372   3.711   2.641   2.788  0.8299  1.3232 -3.3151
 1912SOL    HW217373   3.818   2.626   2.702 -1.9232  1.1056 -0.3226
 1913SOL     OW17374   1.758   0.626   6.940 -0.6034 -0.6120 -0.4638
 1913SOL    HW117375   1.766   0.531   6.946 -1.0296 -0.5672  0.8974
 1913SOL    HW217376   1.847   0.647   6.909 -0.5849  0.0113  0.0068
 1914SOL     OW17377   4.282   3.199   4.098 -0.6179 -0.1541  0.1319
 1914SOL    HW117378   4.188   3.204   4.083 -0.0564  1.1232 -3.1502
 1914SOL    HW217379   4.295   3.168   4.187 -2.8695  0.9641  0.8431
 1915SOL     OW17380   1.033   4.589   2.730  0.0939  0.1392 -0.1544
 1915SOL    HW117381   0.967   4.580   2.662 -2.0868 -0.4071  2.0286
 1915SOL    HW217382   0.994   4.670   2.765  0.8722 -0.4179  2.0209
 1916SOL     OW17383   4.162   3.393   7.977 -0.3122 -0.2858  0.0370
 1916SOL    HW117384   4.222   3.378   8.050  0.8089  2.3189 -0.3659
 1916SOL    HW217385   4.095   3.450   8.014  1.2790  0.8326  1.1910
 1917SOL     OW17386   2.330   3.225  11.334 -0.2204  1.5401 -0.2108
 1917SOL    HW117387   2.339   3.273  11.416 -1.2322  0.7549  0.3533
 1917SOL    HW217388   2.421   3.194  11.331 -0.0245  2.2164 -1.1512
 1918SOL     OW17389   4.220   2.722   4.008  0.2930 -0.1077 -0.1663
 1918SOL    HW117390   4.200   2.775   3.931 -2.4780  2.5148  2.3785
 1918SOL    HW217391   4.291   2.776   4.044  0.3304  0.6511 -1.3962
 1919SOL     OW17392   4.687   3.321   5.303 -0.1477 -0.3203  0.3704
 1919SOL    HW117393   0.006   3.391   5.334 -0.2810 -0.6440  1.3549
 1919SOL    HW217394   4.715   3.243   5.352 -1.2965  0.0998  1.7179
 1920SOL     OW17395   2.216   3.279   5.998  0.4772  0.3482  0.0835
 1920SOL    HW117396   2.131   3.245   6.026  0.4152  0.5093  0.0897
 1920SOL    HW217397   2.264   3.196   5.992 -0.9896 -0.4263 -0.8411
 1921SOL     OW17398   0.925   2.436   5.712  0.3922  0.4867  0.0500
 1921SOL    HW117399   0.987   2.364   5.698 -0.0088  0.1029  0.2378
 1921SOL    HW217400   0.881   2.418   5.796  0.1063  1.0051  0.0099
 1922SOL     OW17401   2.273   3.531   8.311 -0.4086  0.2515  0.4780
 1922SOL    HW117402   2.219   3.581   8.372 -0.6895 -0.1946  0.5880
 1922SOL    HW217403   2.268   3.584   8.231  0.5279 -0.4672 -0.0520
 1923SOL     OW17404   1.972   1.049   6.405 -0.2121  0.6726 -0.2024
 1923SOL    HW117405   2.031   1.122   6.425  1.3643 -1.1245  1.7093
 1923SOL    HW217406   2.024   1.016   6.332  0.9379  0.4437  0.7181
 1924SOL     OW17407   1.530   2.049   7.588  0.4994 -0.6824 -0.0551
 1924SOL    HW117408   1.543   1.966   7.542 -1.6589 -1.1214  0.1121
 1924SOL    HW217409   1.577   2.035   7.670 -1.1361  2.2294  1.3880
 1925SOL     OW17410   3.262   0.995   4.165  0.2190 -0.0751  0.9934
 1925SOL    HW117411   3.338   0.942   4.189 -0.2086 -0.1100  2.2439
 1925SOL    HW217412   3.263   1.055   4.240 -0.2885  3.4217 -1.7989
 1926SOL     OW17413   2.926   3.127   2.880  0.0249 -0.2882  0.4486
 1926SOL    HW117414   2.962   3.177   2.808 -0.2048 -1.9048 -0.7718
 1926SOL    HW217415   2.838   3.099   2.854  0.6822 -2.6341  0.7995
 1927SOL     OW17416   2.654   2.032   0.546 -0.2968  0.3324 -0.8291
 1927SOL    HW117417   2.591   1.959   0.548  0.2471 -0.1171 -0.1590
 1927SOL    HW217418   2.712   2.007   0.618 -0.7887 -0.9317 -0.8744
 1928SOL     OW17419   3.937   2.165   6.210  0.3838 -0.4704 -0.0179
 1928SOL    HW117420   3.910   2.143   6.299 -2.0387  0.8753 -0.4140
 1928SOL    HW217421   3.920   2.257   6.192 -0.8027 -0.2671  2.2208
 1929SOL     OW17422   0.303   4.075   4.448 -0.0769  0.1281 -0.0358
 1929SOL    HW117423   0.277   3.983   4.448 -1.7157  0.5909  0.0603
 1929SOL    HW217424   0.257   4.102   4.368 -0.0375  2.8490  0.8736
 1930SOL     OW17425   4.466   1.271   4.628 -0.2666 -0.4770 -0.6151
 1930SOL    HW117426   4.383   1.224   4.629 -0.8544  0.5261 -1.5179
 1930SOL    HW217427   4.467   1.316   4.543  2.2201  1.3645  0.3751
 1931SOL     OW17428   1.519   0.058   2.205  0.7307  0.3461  0.2321
 1931SOL    HW117429   1.472   0.040   2.286  0.4031 -0.4321 -0.1383
 1931SOL    HW217430   1.514   0.154   2.205  0.6803  0.3406 -0.6160
 1932SOL     OW17431   3.735   1.602   9.280  0.4625  0.1914 -0.6426
 1932SOL    HW117432   3.739   1.574   9.371  2.3636 -1.8852 -1.3630
 1932SOL    HW217433   3.770   1.690   9.295  0.3734  0.2066 -0.5263
 1933SOL     OW17434   2.266   0.575   5.236 -0.0670  0.0876  0.0822
 1933SOL    HW117435   2.335   0.623   5.281  0.4389 -0.6391  0.0917
 1933SOL    HW217436   2.188   0.611   5.277  0.7129  0.2892  1.3655
 1934SOL     OW17437   4.534   0.676  10.111  0.5994 -0.5609 -0.1473
 1934SOL    HW117438   4.528   0.769  10.090 -0.0268 -0.1226  1.9702
 1934SOL    HW217439   4.548   0.686  10.205  0.4730  0.3764 -0.2318
 1935SOL     OW17440   4.575   0.800  13.895  0.1066 -0.1148 -0.3087
 1935SOL    HW117441   4.517   0.726  13.875  0.4305 -0.0311 -1.5642
 1935SOL    HW217442   4.640   0.792  13.825  0.6909  1.8412  0.0314
 1936SOL     OW17443   3.311   0.765   8.064  0.3806 -0.3298  0.1662
 1936SOL    HW117444   3.249   0.756   7.991  4.1569 -1.6967 -2.8176
 1936SOL    HW217445   3.391   0.778   8.013 -0.2866  0.2273 -0.7427
 1937SOL     OW17446   0.409   3.650   3.988  0.2415  0.3734 -0.6527
 1937SOL    HW117447   0.407   3.585   3.918 -1.6917 -1.1340  0.8078
 1937SOL    HW217448   0.491   3.696   3.969  1.2196 -1.1494 -0.1343
 1938SOL     OW17449   1.828   0.463   8.618  0.6619 -0.2247  0.2122
 1938SOL    HW117450   1.911   0.418   8.635  0.3820  0.3001  2.9176
 1938SOL    HW217451   1.838   0.511   8.536 -1.2146 -1.2784 -0.6433
 1939SOL     OW17452   2.755   4.734  10.321  0.0337 -0.5650  0.0187
 1939SOL    HW117453   2.817   0.032  10.257 -1.9842 -0.7573 -2.0407
 1939SOL    HW217454   2.674   4.711  10.275 -0.3456  3.3672 -1.2411
 1940SOL     OW17455   1.869   1.520   0.996 -0.0494 -0.4109 -0.0390
 1940SOL    HW117456   1.831   1.510   1.083 -1.7285  0.7563 -0.6358
 1940SOL    HW217457   1.943   1.575   1.020 -0.4271  0.2874 -0.4814
 1941SOL     OW17458   3.533   2.008  15.011  0.8289 -0.5110  0.5923
 1941SOL    HW117459   3.586   2.060  15.071 -0.7958  0.3884  1.2193
 1941SOL    HW217460   3.510   2.077  14.949 -0.5399 -1.1411  0.3913
 1942SOL     OW17461   0.828   4.319   1.607 -0.0965 -0.6421 -0.0196
 1942SOL    HW117462   0.852   4.272   1.528 -1.6431 -1.3990 -0.0538
 1942SOL    HW217463   0.734   4.325   1.590 -0.0119 -5.6544 -2.1095
 1943SOL     OW17464   4.464   4.068  10.010  0.4830  0.3042  0.1488
 1943SOL    HW117465   4.431   4.111   9.932  1.0950 -0.0377 -0.3015
 1943SOL    HW217466   4.547   4.028   9.983  1.1416  2.0576 -0.3636
 1944SOL     OW17467   1.408   1.600   1.899  0.4202  0.0320 -0.7979
 1944SOL    HW117468   1.488   1.594   1.847  1.3848 -1.6499  0.9110
 1944SOL    HW217469   1.450   1.588   1.984  0.1861 -0.7913 -0.7998
 1945SOL     OW17470   2.738   4.703  11.844 -0.1397 -0.0236  0.3270
 1945SOL    HW117471   2.741   4.630  11.782  0.0631  0.3997 -0.1644
 1945SOL    HW217472   2.775   4.673  11.927  0.2367 -0.9675 -0.1842
 1946SOL     OW17473   4.365   4.226   6.645  0.1963 -0.1128  0.4662
 1946SOL    HW117474   4.328   4.310   6.671  2.0421  1.0797 -0.7476
 1946SOL    HW217475   4.371   4.240   6.551 -1.6633  1.2818  0.5503
 1947SOL     OW17476   1.240   0.988   4.596  0.0959  0.0587 -0.1745
 1947SOL    HW117477   1.166   1.013   4.653 -0.2744 -0.3509 -0.4816
 1947SOL    HW217478   1.196   0.939   4.527  1.0298 -1.5997  0.4137
 1948SOL     OW17479   0.180   0.829   2.680 -0.2181  0.1080  0.2263
 1948SOL    HW117480   0.241   0.771   2.633 -1.8190 -1.4927  0.1094
 1948SOL    HW217481   0.112   0.761   2.677 -0.7720  0.6033  1.5649
 1949SOL     OW17482   4.509   3.965   4.153  0.0976 -0.4341 -0.3303
 1949SOL    HW117483   4.551   4.031   4.099  0.6037 -1.1807 -0.8576
 1949SOL    HW217484   4.418   3.966   4.122  0.2298  1.2887 -0.6662
 1950SOL     OW17485   0.438   2.449  13.764  0.4351  0.0443  0.0211
 1950SOL    HW117486   0.439   2.361  13.803 -1.2529 -0.1562 -0.3804
 1950SOL    HW217487   0.425   2.494  13.848  2.5852 -0.4181  0.6001
 1951SOL     OW17488   0.555   3.416  14.715 -0.1162 -0.5728  0.0332
 1951SOL    HW117489   0.488   3.426  14.647  1.2158 -3.0117 -1.6401
 1951SOL    HW217490   0.563   3.502  14.757  2.1271 -0.3978 -0.7357
 1952SOL     OW17491   0.751   1.629  12.245  0.1517 -0.4614 -0.1083
 1952SOL    HW117492   0.774   1.635  12.152 -2.6320  0.2083 -0.7431
 1952SOL    HW217493   0.656   1.622  12.233  0.0368 -0.6195  0.9060
 1953SOL     OW17494   4.441   1.342   8.343  0.1270  0.0380  0.0687
 1953SOL    HW117495   4.535   1.332   8.326  0.3883  1.6329  0.6647
 1953SOL    HW217496   4.412   1.253   8.320  0.6628  0.2195 -1.3127
 1954SOL     OW17497   3.990   4.468   5.022  0.0259  0.0613 -0.1782
 1954SOL    HW117498   4.023   4.482   4.933  0.0075 -1.0537 -0.3680
 1954SOL    HW217499   4.014   4.377   5.043 -1.6593 -0.5731 -1.0261
 1955SOL     OW17500   4.527   2.756   7.745 -0.5801  0.3091  0.1869
 1955SOL    HW117501   4.526   2.736   7.652 -0.5634  0.9146  0.0615
 1955SOL    HW217502   4.444   2.717   7.774  0.5608 -0.1502  2.9328
 1956SOL     OW17503   3.687   2.972   7.993  0.5815  0.3253 -0.2663
 1956SOL    HW117504   3.604   2.993   8.034 -0.4780  0.5422 -2.5135
 1956SOL    HW217505   3.664   2.931   7.909  1.1029 -2.4273  0.9472
 1957SOL     OW17506   3.299   0.354  16.323  0.3610 -0.2048 -0.0143
 1957SOL    HW117507   3.334   0.414  16.257 -3.7111  0.7224 -1.3535
 1957SOL    HW217508   3.302   0.400  16.407 -1.5941 -1.3445  0.6901
 1958SOL     OW17509   4.408   4.227  16.088  0.5605 -1.1072  0.0799
 1958SOL    HW117510   4.392   4.236  15.994 -1.9098 -2.8142  0.3536
 1958SOL    HW217511   4.398   4.316  16.124 -0.7755 -0.9709 -0.6658
 1959SOL     OW17512   0.787   1.875  10.945  0.2115  0.3528 -0.0028
 1959SOL    HW117513   0.784   1.947  10.882 -1.7138 -0.4865 -0.8500
 1959SOL    HW217514   0.818   1.927  11.019  1.8434  0.2281 -0.5994
 1960SOL     OW17515   0.185   0.712   6.736 -0.1047  0.2214  0.3919
 1960SOL    HW117516   0.261   0.725   6.792  0.5441 -2.2266  0.0794
 1960SOL    HW217517   0.220   0.657   6.666 -0.9451 -0.2864  0.3570
 1961SOL     OW17518   3.750   4.638   4.718  0.3184  0.1828 -0.0055
 1961SOL    HW117519   3.724   4.721   4.759 -0.1174  0.2547 -0.4318
 1961SOL    HW217520   3.845   4.640   4.724  0.2377 -0.0112  1.3673
 1962SOL     OW17521   4.515   1.537   7.391 -0.3207 -0.8715  0.0107
 1962SOL    HW117522   4.539   1.630   7.388  1.3751 -1.3213 -0.2221
 1962SOL    HW217523   4.528   1.526   7.485 -0.5987 -3.5122 -0.2689
 1963SOL     OW17524   0.399   3.457   5.870  0.0747 -0.5617 -0.4529
 1963SOL    HW117525   0.402   3.523   5.801 -0.5275 -1.3612 -1.2567
 1963SOL    HW217526   0.303   3.458   5.875  0.0451 -1.6858 -0.7625
 1964SOL     OW17527   1.219   0.852  15.689  0.2482 -0.1534  0.3116
 1964SOL    HW117528   1.205   0.877  15.598 -0.5850 -0.5389  0.3396
 1964SOL    HW217529   1.131   0.824  15.715  0.2204 -1.8070 -1.5686
 1965SOL     OW17530   3.880   2.805   8.875 -0.2068 -0.5318 -0.6057
 1965SOL    HW117531   3.948   2.753   8.833  0.4504 -1.0354  1.0728
 1965SOL    HW217532   3.885   2.765   8.962 -1.8461  0.7721  0.0875
 1966SOL     OW17533   4.180   1.903   8.922 -0.1917 -0.2932 -0.1584
 1966SOL    HW117534   4.212   1.813   8.932 -2.1769 -0.6889  2.6870
 1966SOL    HW217535   4.127   1.923   8.999 -1.0822  0.2588 -0.9171
 1967SOL     OW17536   1.137   4.371   7.987  0.2639  0.3673  0.2396
 1967SOL    HW117537   1.146   4.411   8.074  1.3273  0.6610 -0.0065
 1967SOL    HW217538   1.229   4.375   7.965  0.7522 -0.8479  2.0600
 1968SOL     OW17539   1.664   3.180   0.957 -0.0536 -0.1864  0.0612
 1968SOL    HW117540   1.677   3.107   1.017  1.6482  0.3296  0.3223
 1968SOL    HW217541   1.741   3.184   0.899 -0.2826 -1.1541 -0.3055
 1969SOL     OW17542   1.766   1.479   1.999 -0.0410  0.0988 -0.5927
 1969SOL    HW117543   1.685   1.476   2.049  1.4174  2.0294  1.9039
 1969SOL    HW217544   1.815   1.550   2.041  1.4743 -0.7740 -0.8941
 1970SOL     OW17545   0.316   2.702   6.632 -0.2280  0.1092 -0.7399
 1970SOL    HW117546   0.304   2.609   6.652 -0.2962  0.2156 -0.2688
 1970SOL    HW217547   0.406   2.708   6.661 -0.7351  1.2478  0.5783
 1971SOL     OW17548   0.476   0.789  16.500  0.2430  0.2167 -0.2280
 1971SOL    HW117549   0.510   0.824  16.582 -0.6982 -0.4645  0.4433
 1971SOL    HW217550   0.533   0.839  16.441  1.2033 -0.5543  0.0504
 1972SOL     OW17551   0.556   3.668   3.340  0.2986 -0.2240  0.2357
 1972SOL    HW117552   0.525   3.651   3.251 -0.0939 -2.4471  0.8050
 1972SOL    HW217553   0.578   3.760   3.323  0.2754 -0.2705 -0.0522
 1973SOL     OW17554   2.977   3.034   7.515 -0.0508 -0.3385  0.0790
 1973SOL    HW117555   2.983   3.052   7.421 -1.0795  0.9899  0.2606
 1973SOL    HW217556   2.898   2.982   7.501  0.4515 -0.6057 -1.8598
 1974SOL     OW17557   1.434   0.305  14.120 -0.2162  0.5278  0.2069
 1974SOL    HW117558   1.455   0.241  14.051 -1.0566  2.6529 -2.0069
 1974SOL    HW217559   1.443   0.394  14.088  0.8889 -0.3069 -1.7997
 1975SOL     OW17560   1.308   0.112  17.213 -0.1479 -0.1682  0.0595
 1975SOL    HW117561   1.266   0.066  17.285  1.2220 -0.6938  0.5220
 1975SOL    HW217562   1.237   0.155  17.165  2.2814  1.7889 -1.7773
 1976SOL     OW17563   0.311   3.105  13.550 -0.1384 -0.1411 -0.4888
 1976SOL    HW117564   0.376   3.140  13.490 -0.0140 -2.0874 -1.5115
 1976SOL    HW217565   0.250   3.175  13.571  0.2869  0.0845 -0.0177
 1977SOL     OW17566   0.959   3.967   7.668 -0.4009  0.3885 -0.1690
 1977SOL    HW117567   1.002   3.887   7.697  3.0348  3.3421  2.8992
 1977SOL    HW217568   0.958   3.997   7.760  1.6049  1.1897 -0.3963
 1978SOL     OW17569   0.733   2.917   8.096 -0.2180 -0.5758  0.0024
 1978SOL    HW117570   0.774   2.994   8.137 -1.8507 -0.4797  1.4632
 1978SOL    HW217571   0.642   2.928   8.126  0.4787  3.5649  0.6364
 1979SOL     OW17572   1.784   2.187  10.037 -0.6710  0.7636 -0.4016
 1979SOL    HW117573   1.874   2.174  10.008 -1.3650  0.1552 -2.2645
 1979SOL    HW217574   1.788   2.274  10.077 -2.5089 -0.4062  2.2841
 1980SOL     OW17575   1.934   0.501   9.662 -0.4911 -0.3118  0.1348
 1980SOL    HW117576   2.005   0.562   9.679 -1.5682  1.2298 -0.9333
 1980SOL    HW217577   1.948   0.490   9.568 -2.8699  0.8090 -0.3571
 1981SOL     OW17578   3.130   3.369   5.526  0.2537 -0.3660  0.3521
 1981SOL    HW117579   3.218   3.367   5.563  0.7448  0.8781 -0.7415
 1981SOL    HW217580   3.121   3.275   5.510  0.7907 -0.3125 -0.2393
 1982SOL     OW17581   4.065   4.258   5.805 -0.3736  0.4984  0.5420
 1982SOL    HW117582   4.009   4.305   5.866 -0.9497  1.6733 -0.8882
 1982SOL    HW217583   4.151   4.287   5.834  0.5230 -0.3819 -1.2345
 1983SOL     OW17584   0.770   3.850   5.258 -0.2277  0.3810  0.1304
 1983SOL    HW117585   0.773   3.945   5.243 -1.3899 -0.1651 -3.7051
 1983SOL    HW217586   0.807   3.838   5.345  2.3645  2.2999 -0.6994
 1984SOL     OW17587   4.020   1.266  12.977 -0.1744 -0.2782  0.1564
 1984SOL    HW117588   3.947   1.206  12.966 -0.9232  1.1770 -2.7257
 1984SOL    HW217589   4.082   1.236  12.910  1.6685  1.9031  0.8879
 1985SOL     OW17590   4.639   3.143  10.081 -0.5586  0.0246 -0.4397
 1985SOL    HW117591   4.704   3.211  10.064 -0.3956  0.2683  1.2089
 1985SOL    HW217592   4.639   3.142  10.176 -0.2850 -1.4871 -0.4515
 1986SOL     OW17593   1.606   1.242   1.715  0.0272  0.0390  0.4278
 1986SOL    HW117594   1.613   1.261   1.622  0.6722  1.0916  0.6949
 1986SOL    HW217595   1.512   1.258   1.729 -0.3690 -2.4621  0.6064
 1987SOL     OW17596   1.825   0.099  10.472 -0.7464  0.6767  0.2938
 1987SOL    HW117597   1.883   0.172  10.449  0.5574  0.1113  1.8296
 1987SOL    HW217598   1.778   0.138  10.546 -0.5837  0.7018  0.3843
 1988SOL     OW17599   1.520   0.882  17.650 -0.5198  0.2884 -0.0327
 1988SOL    HW117600   1.434   0.917  17.627 -0.3836  1.2142  0.8631
 1988SOL    HW217601   1.582   0.920  17.588  2.3057 -1.7635  1.5601
 1989SOL     OW17602   0.830   4.602   2.966 -0.3516 -0.2027 -0.6234
 1989SOL    HW117603   0.868   4.516   2.983  1.8544  0.7224 -0.9033
 1989SOL    HW217604   0.869   4.646   3.041  1.3008 -2.3168 -0.2489
 1990SOL     OW17605   0.222   4.385   7.007  0.1873 -0.2714  0.2132
 1990SOL    HW117606   0.298   4.333   6.981  1.3621  0.8719  1.3612
 1990SOL    HW217607   0.201   4.420   6.921  2.9819 -0.5860 -0.5998
 1991SOL     OW17608   4.254   3.800   2.749 -0.3596  0.0798 -0.1364
 1991SOL    HW117609   4.160   3.784   2.762 -0.5203  0.5492 -0.6722
 1991SOL    HW217610   4.249   3.896   2.744 -1.2213  0.1243  1.7257
 1992SOL     OW17611   0.227   1.556   0.353  0.2603  0.2906 -0.0546
 1992SOL    HW117612   0.299   1.498   0.377  0.4785  0.5738 -0.0250
 1992SOL    HW217613   0.244   1.552   0.259  0.6468  1.8835 -0.0568
 1993SOL     OW17614   1.156   3.253  15.236 -0.4658  0.7884  0.1932
 1993SOL    HW117615   1.150   3.187  15.167 -0.7122  0.7897  0.2158
 1993SOL    HW217616   1.070   3.295  15.239 -0.2528  1.0835  2.5228
 1994SOL     OW17617   0.599   2.833   2.292 -0.0627  0.2403 -0.1175
 1994SOL    HW117618   0.675   2.808   2.240 -0.6913 -1.2700 -0.3318
 1994SOL    HW217619   0.551   2.899   2.243 -2.5326  0.0490  2.0027
 1995SOL     OW17620   2.825   2.815   4.053 -0.4144 -0.4163 -0.1382
 1995SOL    HW117621   2.757   2.869   4.093  1.6072  1.4132  0.7946
 1995SOL    HW217622   2.819   2.731   4.099  0.7481 -0.7553 -0.5900
 1996SOL     OW17623   4.494   1.571   5.906  0.2990 -0.2082  0.2239
 1996SOL    HW117624   4.462   1.571   5.996  0.4981 -1.3246  0.2951
 1996SOL    HW217625   4.456   1.654   5.877 -0.9047 -2.3925 -4.4503
 1997SOL     OW17626   0.617   0.889   3.130  0.0224  0.1184  0.3987
 1997SOL    HW117627   0.536   0.873   3.081  1.1891  2.9217 -2.3514
 1997SOL    HW217628   0.581   0.858   3.214 -2.3790  0.9727 -0.2946
 1998SOL     OW17629   0.278   1.181  10.669 -0.0032 -0.2057 -0.1645
 1998SOL    HW117630   0.195   1.171  10.622 -1.1605  0.7399  1.6695
 1998SOL    HW217631   0.301   1.267  10.633 -0.2294  0.1550  0.5440
 1999SOL     OW17632   2.789   3.969   7.556  0.0103 -0.3394 -0.4327
 1999SOL    HW117633   2.874   3.936   7.584 -0.8244 -0.7195  1.6103
 1999SOL    HW217634   2.810   4.030   7.485  0.0338  2.2981  1.8136
 2000SOL     OW17635   4.567   0.779   2.573  0.3540  0.2108 -0.3182
 2000SOL    HW117636   4.637   0.717   2.593  2.6309  2.8422 -0.1718
 2000SOL    HW217637   4.546   0.758   2.482  0.2802  0.8374 -0.4465
 2001SOL     OW17638   2.862   0.862   8.729  0.0141 -1.0256 -0.5118
 2001SOL    HW117639   2.907   0.931   8.682 -0.0429  0.0806  1.0395
 2001SOL    HW217640   2.804   0.914   8.786 -1.4105 -2.2990 -0.7968
 2002SOL     OW17641   3.467   0.547   7.492  0.3332 -0.3778 -0.0909
 2002SOL    HW117642   3.459   0.482   7.563 -0.1279 -0.9094 -0.6363
 2002SOL    HW217643   3.382   0.542   7.450  0.6342  1.7396 -0.9156
 2003SOL     OW17644   3.685   2.654   2.280 -0.1225 -0.3339  0.1265
 2003SOL    HW117645   3.634   2.731   2.254 -0.2631 -0.3221  0.4399
 2003SOL    HW217646   3.700   2.606   2.198 -2.1283 -0.5983 -0.0799
 2004SOL     OW17647   2.255   4.711   7.849 -0.1695  0.2615  0.3695
 2004SOL    HW117648   2.176   4.712   7.903 -2.3085 -0.3773 -2.7866
 2004SOL    HW217649   2.300   0.050   7.885 -0.5539  0.0037  1.3983
 2005SOL     OW17650   2.357   3.472   6.760 -0.6925 -0.4557  0.1932
 2005SOL    HW117651   2.338   3.388   6.716 -1.3711 -1.0824  1.6827
 2005SOL    HW217652   2.270   3.511   6.756 -0.4112  0.2693  1.4216
 2006SOL     OW17653   1.215   0.994   8.367 -0.2370  0.2705 -0.5955
 2006SOL    HW117654   1.133   1.025   8.406  0.5582  0.8739  0.6004
 2006SOL    HW217655   1.213   0.903   8.397  1.6489  0.3287 -0.2925
 2007SOL     OW17656   0.477   0.215  10.359  0.2334  0.4515  0.1168
 2007SOL    HW117657   0.550   0.265  10.323  2.6696 -0.5008  3.7728
 2007SOL    HW217658   0.409   0.267  10.317  2.4109  1.7158 -1.8115
 2008SOL     OW17659   4.615   3.493   3.508  0.2907  1.0021  0.4041
 2008SOL    HW117660   4.534   3.536   3.534 -0.1371  0.1975  0.3933
 2008SOL    HW217661   4.644   3.543   3.431 -1.1627 -1.5445 -1.8242
 2009SOL     OW17662   0.176   1.275   7.568 -0.0565 -0.4419  0.2712
 2009SOL    HW117663   0.215   1.362   7.578 -1.4125  0.2427 -0.3508
 2009SOL    HW217664   0.257   1.225   7.565  1.7422  2.4667 -0.0251
 2010SOL     OW17665   4.509   3.624   9.128 -0.1679 -0.2315  0.8032
 2010SOL    HW117666   4.519   3.535   9.161  1.2661  0.0750  1.1803
 2010SOL    HW217667   4.540   3.613   9.038 -0.8728 -0.8198  0.6274
 2011SOL     OW17668   1.707   0.152  15.656  0.4029  0.0162  0.4068
 2011SOL    HW117669   1.639   0.193  15.709 -0.7250 -0.0881 -0.9668
 2011SOL    HW217670   1.674   0.159  15.566  0.6114 -0.0329  0.3270
 2012SOL     OW17671   1.043   2.723  16.296 -0.1081  0.1179 -0.6257
 2012SOL    HW117672   1.043   2.819  16.301 -1.5677  0.1507 -1.4271
 2012SOL    HW217673   0.949   2.707  16.303 -0.6194  1.9978 -3.0387
 2013SOL     OW17674   0.220   4.513   6.009  0.0534 -0.1787  0.2370
 2013SOL    HW117675   0.198   4.476   5.924  2.4151  1.2072 -0.9867
 2013SOL    HW217676   0.272   4.589   5.983 -1.7228  1.2880  1.0062
 2014SOL     OW17677   0.882   4.301  12.473  0.1707  0.1368 -0.3170
 2014SOL    HW117678   0.876   4.215  12.430 -2.1569 -0.0926  0.4504
 2014SOL    HW217679   0.794   4.325  12.501  0.7460  1.8274  0.0446
 2015SOL     OW17680   2.124   2.707   1.616  0.4366 -0.1157 -0.4146
 2015SOL    HW117681   2.069   2.629   1.626 -0.6009  0.9227  1.8460
 2015SOL    HW217682   2.194   2.677   1.674  0.4214  0.4521 -0.1101
 2016SOL     OW17683   0.647   2.100   3.515 -0.4284 -0.1015  0.1768
 2016SOL    HW117684   0.712   2.126   3.580  1.1083  0.3305 -1.5105
 2016SOL    HW217685   0.564   2.142   3.536 -1.6009 -1.7920 -1.0952
 2017SOL     OW17686   1.701   3.516   3.031 -0.6179  0.0739  0.3944
 2017SOL    HW117687   1.690   3.428   2.996 -2.0458 -0.1611  1.4226
 2017SOL    HW217688   1.626   3.524   3.091 -1.5878  0.2845 -0.8380
 2018SOL     OW17689   3.989   4.603   5.314 -0.3627 -0.0277  0.5853
 2018SOL    HW117690   3.927   4.580   5.383 -0.5433 -2.0737 -0.2496
 2018SOL    HW217691   4.023   4.514   5.300 -0.6996  0.0873 -1.0209
 2019SOL     OW17692   1.621   2.455   6.516  0.0846 -0.1581 -0.7375
 2019SOL    HW117693   1.629   2.476   6.609 -1.9524 -1.9385 -0.1465
 2019SOL    HW217694   1.695   2.502   6.479  0.4175 -0.3206 -0.2770
 2020SOL     OW17695   0.773   1.187   6.742  0.2702  0.2385 -0.5060
 2020SOL    HW117696   0.706   1.137   6.696 -1.2377  2.5117 -0.8230
 2020SOL    HW217697   0.733   1.200   6.828 -0.8264  1.6200 -1.2226
 2021SOL     OW17698   1.689   4.619  17.371  0.1086  0.0185 -0.0530
 2021SOL    HW117699   1.608   4.577  17.340  0.4459 -1.1932  0.6936
 2021SOL    HW217700   1.675   4.631  17.465 -0.2835 -1.2143  0.0470
 2022SOL     OW17701   1.149   2.117   9.175 -0.7582  0.1616 -0.0557
 2022SOL    HW117702   1.155   2.089   9.266  1.6098  1.3711  0.1388
 2022SOL    HW217703   1.112   2.037   9.136 -1.2850  1.4625 -2.2538
 2023SOL     OW17704   1.479   0.465  17.361 -0.0160  0.2784 -0.6574
 2023SOL    HW117705   1.553   0.410  17.383  0.9748  0.5051 -3.3441
 2023SOL    HW217706   1.476   0.458  17.265 -0.6092 -1.1157 -0.5332
 2024SOL     OW17707   3.354   1.274   3.917  0.0945  0.4303  0.0541
 2024SOL    HW117708   3.305   1.264   3.835  0.8962  1.1509 -0.5143
 2024SOL    HW217709   3.386   1.184   3.924 -2.2910 -0.3366  1.1224
 2025SOL     OW17710   1.353   4.460   4.554 -0.1077 -0.7498 -0.2252
 2025SOL    HW117711   1.364   4.367   4.574  0.0265 -0.3800  1.4021
 2025SOL    HW217712   1.411   4.474   4.479  1.2039  0.6379  1.0433
 2026SOL     OW17713   1.348   0.184  12.081 -0.3032  0.2571  0.1234
 2026SOL    HW117714   1.421   0.188  12.143  1.5503 -1.8854 -1.9503
 2026SOL    HW217715   1.321   0.093  12.087 -0.4397  0.4395  2.2731
 2027SOL     OW17716   4.473   1.308   8.794  0.3220 -0.4581 -0.1212
 2027SOL    HW117717   4.535   1.380   8.787  0.7419 -0.6609  1.4038
 2027SOL    HW217718   4.410   1.332   8.727  1.3779  1.9915 -0.2400
 2028SOL     OW17719   2.039   1.142   3.010 -0.4657 -0.3299 -0.2115
 2028SOL    HW117720   1.989   1.186   2.941  1.1871 -0.6760 -1.6086
 2028SOL    HW217721   2.118   1.183   2.976 -1.7407  1.3001 -1.2088
 2029SOL     OW17722   4.617   0.631   4.598 -0.7277  0.4228  0.3243
 2029SOL    HW117723   4.657   0.662   4.517  0.3715  0.4803  0.8944
 2029SOL    HW217724   4.684   0.660   4.660 -0.0082  0.5803 -0.5264
 2030SOL     OW17725   3.605   2.107   5.152 -0.2379  0.1964  0.0293
 2030SOL    HW117726   3.591   2.190   5.198 -1.7714 -1.2096  2.0966
 2030SOL    HW217727   3.512   2.082   5.154 -0.9686  2.9126  0.5609
 2031SOL     OW17728   0.522   2.349   5.834 -0.0142  0.5803  0.2503
 2031SOL    HW117729   0.466   2.272   5.841  0.5564 -0.0578 -2.0960
 2031SOL    HW217730   0.456   2.418   5.837  0.4291  0.9117  2.2440
 2032SOL     OW17731   0.908   3.556   1.952  0.3646 -1.2776 -0.0792
 2032SOL    HW117732   0.942   3.469   1.971  1.5098 -0.5590  1.1271
 2032SOL    HW217733   0.813   3.548   1.965  0.2444  2.6555  1.4117
 2033SOL     OW17734   1.344   1.625   3.852 -0.4102  0.0970 -0.1366
 2033SOL    HW117735   1.281   1.560   3.881 -1.3046  0.6357 -0.8892
 2033SOL    HW217736   1.382   1.643   3.938  1.8357 -2.0653 -0.6755
 2034SOL     OW17737   1.475   3.296   8.720 -0.2909  0.1203  0.4196
 2034SOL    HW117738   1.501   3.212   8.683  1.6017  0.9675 -0.1708
 2034SOL    HW217739   1.433   3.336   8.643 -0.1795  0.0121  0.3048
 2035SOL     OW17740   1.894   3.716  15.592  0.0025  0.9366 -0.0607
 2035SOL    HW117741   1.851   3.711  15.677  0.5527 -2.8738 -0.0301
 2035SOL    HW217742   1.822   3.679  15.541 -0.0569 -0.5200  1.0988
 2036SOL     OW17743   2.268   1.104   4.114  0.1684  0.3425  0.2713
 2036SOL    HW117744   2.308   1.178   4.158  2.6702 -0.6098 -0.4124
 2036SOL    HW217745   2.246   1.042   4.184 -0.3819 -2.0775 -2.0396
 2037SOL     OW17746   1.094   3.894   1.796 -0.0661 -0.3458  0.0299
 2037SOL    HW117747   1.127   3.854   1.876  0.0388 -0.6047 -0.1430
 2037SOL    HW217748   1.070   3.980   1.830  0.9995  0.5302 -1.4307
 2038SOL     OW17749   0.913   3.091   8.220 -0.2221  0.0551 -0.3523
 2038SOL    HW117750   0.889   3.155   8.287  0.0040 -0.2683  0.0376
 2038SOL    HW217751   1.008   3.094   8.210 -0.4308  1.5318 -1.7711
 2039SOL     OW17752   2.870   0.147   4.725 -0.0813 -0.1845 -0.2986
 2039SOL    HW117753   2.805   0.175   4.661  0.8845 -1.9835 -2.0852
 2039SOL    HW217754   2.854   0.052   4.727  1.9157 -0.5214  0.2917
 2040SOL     OW17755   3.477   1.405  11.593  0.7435  0.4131  0.0306
 2040SOL    HW117756   3.511   1.377  11.509 -0.4235 -2.4674  0.4951
 2040SOL    HW217757   3.389   1.367  11.597  1.2642 -0.6508  1.1743
 2041SOL     OW17758   1.613   2.825   9.483 -0.3997 -0.0596  0.3324
 2041SOL    HW117759   1.522   2.797   9.496 -0.3929  0.5718  1.6430
 2041SOL    HW217760   1.657   2.748   9.448  0.9713  0.4807  0.8606
 2042SOL     OW17761   3.765   0.794  15.371  0.4321  0.6839  0.4656
 2042SOL    HW117762   3.842   0.823  15.321  0.3364 -1.5922 -1.0366
 2042SOL    HW217763   3.788   0.716  15.422  1.5499  0.3454 -0.5361
 2043SOL     OW17764   0.397   4.326   9.596 -0.2077 -0.5243  0.0069
 2043SOL    HW117765   0.329   4.325   9.529 -1.6116  1.7998  1.3980
 2043SOL    HW217766   0.392   4.419   9.619  1.3540 -0.2616 -0.6951
 2044SOL     OW17767   3.526   2.365   7.304 -0.9113 -0.9277  0.0869
 2044SOL    HW117768   3.603   2.405   7.346  0.2896 -1.8033 -1.3118
 2044SOL    HW217769   3.529   2.272   7.325  2.2313 -1.1436 -1.4176
 2045SOL     OW17770   2.625   1.152   4.527  0.0184 -0.0198 -0.2462
 2045SOL    HW117771   2.605   1.231   4.476  0.3259  0.5658  0.5465
 2045SOL    HW217772   2.668   1.191   4.604 -2.0812 -1.0044  1.4224
 2046SOL     OW17773   1.350   0.869   7.149  0.2663 -0.3691  0.5171
 2046SOL    HW117774   1.379   0.815   7.076 -0.7049  1.9099 -1.5761
 2046SOL    HW217775   1.392   0.954   7.137  0.2439 -0.4253  0.0617
 2047SOL     OW17776   2.359   0.115   8.047 -0.0135 -0.4102  0.4050
 2047SOL    HW117777   2.392   0.029   8.075  2.6593  0.4854  0.0426
 2047SOL    HW217778   2.320   0.149   8.127  0.9348 -0.7295  1.0077
 2048SOL     OW17779   4.099   4.412   3.472  0.1654  0.2498 -0.2577
 2048SOL    HW117780   4.044   4.399   3.395 -0.9819 -1.8394  0.9053
 2048SOL    HW217781   4.171   4.355   3.444 -1.3534 -1.4633 -0.6925
 2049SOL     OW17782   0.590   1.496   9.568 -0.1424  0.3292 -0.0822
 2049SOL    HW117783   0.604   1.465   9.657 -0.1388 -0.7499 -0.4536
 2049SOL    HW217784   0.588   1.412   9.522  1.8590  0.3707 -0.2622
 2050SOL     OW17785   3.770   0.893  12.259  0.0924 -0.5325  0.1874
 2050SOL    HW117786   3.713   0.845  12.199  1.6855 -2.4318  0.2144
 2050SOL    HW217787   3.853   0.866  12.220 -0.4764  0.5375 -1.7537
 2051SOL     OW17788   3.347   2.726  17.468 -0.1372 -0.3355 -0.0736
 2051SOL    HW117789   3.339   2.638  17.504  2.7852  0.6445  2.9336
 2051SOL    HW217790   3.371   2.701  17.378 -1.0336 -0.7036 -0.2075
 2052SOL     OW17791   1.656   1.180  15.126  0.4625 -0.5424 -0.4571
 2052SOL    HW117792   1.562   1.184  15.140  0.8735  0.6248  1.9971
 2052SOL    HW217793   1.679   1.102  15.176  1.6846 -0.6021 -1.0982
 2053SOL     OW17794   1.225   2.178  13.341 -0.1066 -0.1680  0.5724
 2053SOL    HW117795   1.320   2.173  13.340 -0.1771 -1.0749 -0.6000
 2053SOL    HW217796   1.205   2.258  13.390 -0.6192  0.4070 -0.5892
 2054SOL     OW17797   4.281   2.306   9.225  0.3966  0.3937  0.3818
 2054SOL    HW117798   4.344   2.303   9.154  0.0034  0.8531  0.0089
 2054SOL    HW217799   4.258   2.399   9.224 -0.0415  0.2726 -0.4503
 2055SOL     OW17800   0.630   3.066   7.166  0.2054 -0.1919 -0.1933
 2055SOL    HW117801   0.597   3.114   7.243 -0.8357  1.0466 -1.4164
 2055SOL    HW217802   0.722   3.088   7.178 -0.1919 -0.2290  3.1115
 2056SOL     OW17803   1.169   1.828   4.594 -0.1510 -0.3457 -0.2914
 2056SOL    HW117804   1.257   1.805   4.623 -0.3406  0.3971  0.8805
 2056SOL    HW217805   1.128   1.742   4.593 -0.0599 -0.3842 -1.6513
 2057SOL     OW17806   1.538   1.250  15.543 -0.8668 -0.2412  0.1407
 2057SOL    HW117807   1.631   1.268  15.528  0.2817 -3.9669  2.8114
 2057SOL    HW217808   1.493   1.324  15.502  1.4486  0.9308 -0.3345
 2058SOL     OW17809   1.069   2.512  16.475  0.1451 -0.3814 -0.5380
 2058SOL    HW117810   1.082   2.567  16.397  1.1013  1.1451  0.6845
 2058SOL    HW217811   1.044   2.575  16.542  0.7852 -0.0699 -0.5872
 2059SOL     OW17812   0.159   2.105  10.997 -0.1881  0.2635 -0.1941
 2059SOL    HW117813   0.240   2.079  11.041 -0.3669 -0.3100 -0.2032
 2059SOL    HW217814   0.125   2.180  11.045 -1.6564  2.1314 -4.2013
 2060SOL     OW17815   1.236   2.498  11.422  0.0104  0.9262 -0.6026
 2060SOL    HW117816   1.221   2.592  11.426  0.1925  0.9701 -0.9445
 2060SOL    HW217817   1.211   2.492  11.330  0.3848  0.9942 -0.7110
 2061SOL     OW17818   0.509   3.820   8.310 -0.1114  0.0275 -0.0031
 2061SOL    HW117819   0.449   3.752   8.340 -0.4740 -0.7477 -2.4202
 2061SOL    HW217820   0.530   3.869   8.389  2.7472  0.9129 -1.2979
 2062SOL     OW17821   3.811   0.621  13.508  0.0019  0.0867 -0.2891
 2062SOL    HW117822   3.840   0.537  13.546 -1.4712  0.7354  2.2505
 2062SOL    HW217823   3.880   0.680  13.537 -0.1015  0.0497  0.0324
 2063SOL     OW17824   3.679   3.579  17.007 -0.1558  0.3945  0.1865
 2063SOL    HW117825   3.656   3.568  17.099 -1.8774  1.9103 -0.0477
 2063SOL    HW217826   3.767   3.541  17.009  0.1423  1.0140 -1.1496
 2064SOL     OW17827   4.067   2.224   3.567 -0.2513  0.0679  0.3137
 2064SOL    HW117828   4.025   2.269   3.641  0.5742 -1.4595  1.7252
 2064SOL    HW217829   4.002   2.230   3.498  0.7417  0.6304 -0.5651
 2065SOL     OW17830   0.930   1.010  11.886 -0.1238 -0.1369 -0.1401
 2065SOL    HW117831   0.878   1.063  11.824  0.1659  0.7344  0.3634
 2065SOL    HW217832   0.907   0.923  11.853 -1.0865 -0.2915  0.9457
 2066SOL     OW17833   2.232   2.767  13.012  0.5823  0.0071 -0.1734
 2066SOL    HW117834   2.185   2.750  12.931  1.8285 -1.0976 -0.6648
 2066SOL    HW217835   2.166   2.827  13.048 -1.3639 -2.1280 -0.2418
 2067SOL     OW17836   1.894   1.106   3.233 -0.4558 -0.0196 -0.0847
 2067SOL    HW117837   1.933   1.127   3.317 -0.2963  0.5640 -0.3041
 2067SOL    HW217838   1.958   1.137   3.169 -1.0148 -0.1084 -0.6980
 2068SOL     OW17839   4.703   0.854   3.885  0.4123  0.2818 -0.4218
 2068SOL    HW117840   0.007   0.894   3.809 -1.1115  2.5850 -0.0283
 2068SOL    HW217841   0.025   0.880   3.955  1.6812  0.4719 -1.5732
 2069SOL     OW17842   0.613   1.919   7.959 -0.0041  0.0232  0.3636
 2069SOL    HW117843   0.525   1.882   7.956 -0.6659  1.4593  2.3359
 2069SOL    HW217844   0.644   1.902   7.870  1.2305 -0.5179  0.8980
 2070SOL     OW17845   2.507   1.829  10.231  0.4154 -0.0391  0.6962
 2070SOL    HW117846   2.532   1.737  10.228 -0.9501 -0.3837 -0.2404
 2070SOL    HW217847   2.450   1.825  10.308  0.2710 -0.4483  0.5681
 2071SOL     OW17848   0.567   1.966  16.923  0.0662 -0.1378 -0.0491
 2071SOL    HW117849   0.489   1.910  16.926  0.8820 -1.1817  1.3480
 2071SOL    HW217850   0.554   2.022  17.001  0.4626 -0.2945  0.1251
 2072SOL     OW17851   0.489   1.889   6.166 -0.5123 -0.2872  0.4151
 2072SOL    HW117852   0.394   1.894   6.176 -0.5866  2.8186 -1.8818
 2072SOL    HW217853   0.500   1.815   6.105 -0.5343  1.3004 -1.5124
 2073SOL     OW17854   3.094   1.740   4.303  0.0940 -0.1323  0.0576
 2073SOL    HW117855   3.040   1.669   4.336 -1.5545 -0.2689 -2.9517
 2073SOL    HW217856   3.174   1.696   4.273  1.1034  1.1379  0.8688
 2074SOL     OW17857   1.117   0.271   0.191 -0.2171 -0.1760  0.6577
 2074SOL    HW117858   1.140   0.294   0.281 -0.8224 -1.8308  1.2316
 2074SOL    HW217859   1.162   0.333   0.134 -0.7036 -0.7979 -0.4140
 2075SOL     OW17860   3.900   2.106   2.143  0.8284  0.1307 -0.2252
 2075SOL    HW117861   3.963   2.047   2.183  0.5599 -0.3186 -0.4692
 2075SOL    HW217862   3.842   2.126   2.217  0.3751  0.4333 -0.6598
 2076SOL     OW17863   0.084   4.148  13.386 -0.2621 -0.3543  0.8205
 2076SOL    HW117864   0.046   4.061  13.395  0.9159 -0.6857  2.5186
 2076SOL    HW217865   0.080   4.165  13.292 -0.7991  3.0064  1.4517
 2077SOL     OW17866   2.139   0.546   8.846  0.1653  0.2150 -0.1322
 2077SOL    HW117867   2.095   0.477   8.897 -0.0560  1.3486  1.1918
 2077SOL    HW217868   2.142   0.503   8.760  0.3771 -4.3632  2.1500
 2078SOL     OW17869   3.705   1.260   6.766 -0.0651 -0.4509 -0.1176
 2078SOL    HW117870   3.701   1.354   6.749  0.0097 -0.2752  0.8446
 2078SOL    HW217871   3.800   1.262   6.782 -0.1853  0.4528  0.4966
 2079SOL     OW17872   1.118   1.625  12.082 -0.3667 -0.1375  0.0862
 2079SOL    HW117873   1.076   1.541  12.099 -1.3133  0.4514  0.7071
 2079SOL    HW217874   1.041   1.671  12.047  1.4406  1.5454 -1.6574
 2080SOL     OW17875   0.641   1.822  16.679  0.2532  0.0519  0.3330
 2080SOL    HW117876   0.601   1.820  16.766  3.1522  1.4875  1.6862
 2080SOL    HW217877   0.731   1.794  16.696  0.5030 -0.8596 -2.5332
 2081SOL     OW17878   3.433   1.321   7.525 -0.1348 -0.1729 -0.3350
 2081SOL    HW117879   3.384   1.242   7.499  0.7278 -0.8000 -0.0288
 2081SOL    HW217880   3.432   1.305   7.619 -0.7512  1.2677 -0.0939
 2082SOL     OW17881   2.146   1.742   3.972  0.0009  0.2560 -0.2538
 2082SOL    HW117882   2.233   1.743   3.934 -0.0960  1.4752 -0.4640
 2082SOL    HW217883   2.108   1.667   3.927  1.5414  0.3560 -1.6992
 2083SOL     OW17884   1.504   2.940   2.154  0.0509 -0.6617 -0.3142
 2083SOL    HW117885   1.412   2.934   2.179  0.6226 -1.1698  1.6572
 2083SOL    HW217886   1.541   2.998   2.220 -0.5104  0.5508 -1.0716
 2084SOL     OW17887   3.495   4.218   6.742 -1.0404  0.2817 -0.6536
 2084SOL    HW117888   3.412   4.246   6.703 -1.6484 -0.8998 -0.2143
 2084SOL    HW217889   3.541   4.297   6.713  1.2393 -1.1270 -0.9292
 2085SOL     OW17890   0.051   0.837  13.453  0.1250  0.0784 -0.3244
 2085SOL    HW117891   0.021   0.905  13.393 -0.1723 -2.2467 -2.8059
 2085SOL    HW217892   0.135   0.814  13.414  0.3229 -0.6509  0.5112
 2086SOL     OW17893   0.136   0.681   1.849 -0.1049  0.6834  0.2227
 2086SOL    HW117894   0.182   0.720   1.775  0.2140  0.4820  0.3147
 2086SOL    HW217895   0.128   0.752   1.912 -2.0113  1.6870 -1.1489
 2087SOL     OW17896   0.337   0.540   0.174  0.1810 -0.1914 -0.1940
 2087SOL    HW117897   0.391   0.502   0.105 -1.5593 -0.4377 -1.4372
 2087SOL    HW217898   0.294   0.469   0.221 -1.8309  1.2637  0.1631
 2088SOL     OW17899   1.292   3.615   2.880 -0.3276  0.2561  0.1969
 2088SOL    HW117900   1.210   3.630   2.927  0.7232  2.4934  1.3001
 2088SOL    HW217901   1.355   3.639   2.949 -1.2578  0.1691  1.0691
 2089SOL     OW17902   3.302   2.238   2.447  0.2236 -0.0805  0.1805
 2089SOL    HW117903   3.277   2.231   2.539  0.3795 -2.4137  0.0310
 2089SOL    HW217904   3.235   2.295   2.410 -0.0098 -0.4754 -0.0076
 2090SOL     OW17905   0.958   0.832   8.171 -0.0900 -0.3198 -0.1848
 2090SOL    HW117906   0.871   0.797   8.189  0.1963 -1.2868 -0.6968
 2090SOL    HW217907   1.011   0.758   8.201  0.9561  0.7792  0.6775
 2091SOL     OW17908   2.604   2.617   6.573  0.6107  0.5485 -0.0922
 2091SOL    HW117909   2.543   2.648   6.507 -0.4440  1.7479  1.4378
 2091SOL    HW217910   2.641   2.702   6.600 -1.7326  1.8845 -1.0739
 2092SOL     OW17911   4.686   3.123  12.479 -0.2503  0.1194  1.1866
 2092SOL    HW117912   4.605   3.082  12.509 -0.4126  0.0364  0.6448
 2092SOL    HW217913   4.653   3.193  12.422  2.4341  2.1504  2.0955
 2093SOL     OW17914   3.077   0.243  12.580 -0.2817 -0.3203 -0.4046
 2093SOL    HW117915   3.028   0.211  12.656 -0.8120  0.3769 -0.4566
 2093SOL    HW217916   3.139   0.170  12.581 -2.2424 -1.9719  0.8081
 2094SOL     OW17917   1.268   2.585   5.265 -0.8149  0.4106  0.3407
 2094SOL    HW117918   1.231   2.556   5.181  0.2237 -2.8619  1.0104
 2094SOL    HW217919   1.236   2.674   5.274  1.0714  1.2816 -1.5133
 2095SOL     OW17920   0.426   3.420  14.477  0.3767  0.3851  0.6478
 2095SOL    HW117921   0.345   3.466  14.498  0.5109  0.6813  0.5231
 2095SOL    HW217922   0.459   3.468  14.400  0.6910 -0.5228  0.2184
 2096SOL     OW17923   2.643   3.972   6.994  0.1770 -0.2851  0.0476
 2096SOL    HW117924   2.592   4.034   6.942 -0.8140  0.9367  2.4601
 2096SOL    HW217925   2.714   4.031   7.021 -0.2327  1.4109 -2.5828
 2097SOL     OW17926   4.671   3.167   4.539 -0.0146 -0.3009 -0.1428
 2097SOL    HW117927   0.016   3.204   4.509 -0.3664 -1.2346 -2.2325
 2097SOL    HW217928   4.666   3.213   4.623 -0.3705 -1.5746  0.5329
 2098SOL     OW17929   1.917   1.139   3.752  0.3318  0.1244  0.2346
 2098SOL    HW117930   1.829   1.164   3.780  1.1125  0.6001  2.3236
 2098SOL    HW217931   1.903   1.054   3.710  1.4121 -0.9145  1.9294
 2099SOL     OW17932   1.743   1.181  16.353  0.4767  0.2282 -0.2100
 2099SOL    HW117933   1.692   1.231  16.416 -1.8530  0.3596 -2.1709
 2099SOL    HW217934   1.835   1.190  16.378  0.6978  1.0178 -1.3128
 2100SOL     OW17935   1.761   1.188   1.209 -0.1981 -0.6538  0.1385
 2100SOL    HW117936   1.711   1.123   1.160  1.7129 -1.2540 -1.0359
 2100SOL    HW217937   1.850   1.171   1.176 -0.5513  0.3789 -1.3218
 2101SOL     OW17938   3.618   1.468   3.358  0.4373  0.1999 -0.6708
 2101SOL    HW117939   3.600   1.528   3.286  0.9129  0.2666 -0.7341
 2101SOL    HW217940   3.617   1.389   3.304  2.2976 -0.4234  0.2048
 2102SOL     OW17941   3.442   0.057   5.280  0.3949 -0.0494  0.3141
 2102SOL    HW117942   3.501   0.128   5.254 -1.1925  1.0013 -0.4143
 2102SOL    HW217943   3.356   0.097   5.266  0.7381  0.4233 -0.4239
 2103SOL     OW17944   3.927   3.653  13.101 -0.0319 -0.5212  0.2132
 2103SOL    HW117945   4.007   3.634  13.149 -0.3020  0.6855  1.1274
 2103SOL    HW217946   3.969   3.686  13.022  2.4066 -2.3009  0.7767
 2104SOL     OW17947   2.310   0.323  16.123  0.2280  0.3825  0.2161
 2104SOL    HW117948   2.313   0.414  16.093 -1.5241  0.5436  0.5411
 2104SOL    HW217949   2.220   0.319  16.155  0.8825 -0.2410  1.9684
 2105SOL     OW17950   4.552   0.011   5.444 -0.6155 -0.6598 -0.0044
 2105SOL    HW117951   4.552   4.654   5.462 -0.6309 -0.7715 -0.5939
 2105SOL    HW217952   4.537   0.056   5.527  1.1342  1.8432 -1.0749
 2106SOL     OW17953   1.104   2.683   8.274 -0.1661  0.1108  0.1257
 2106SOL    HW117954   1.033   2.626   8.302 -0.4591  1.3734  1.9743
 2106SOL    HW217955   1.132   2.724   8.357 -0.0771 -0.3265  0.3095
 2107SOL     OW17956   0.086   4.229   7.636 -0.1860  0.3618  0.7465
 2107SOL    HW117957   0.011   4.201   7.689 -1.3375  0.0830 -1.0307
 2107SOL    HW217958   0.153   4.232   7.704  0.0888 -0.4982  0.5133
 2108SOL     OW17959   3.024   3.651   5.055  0.3720  0.3458  0.2500
 2108SOL    HW117960   3.032   3.746   5.058  1.9562  0.2332 -0.8032
 2108SOL    HW217961   2.929   3.636   5.058  0.6215 -1.0539  1.1036
 2109SOL     OW17962   4.323   2.942   0.995  0.0436 -0.4403  0.1891
 2109SOL    HW117963   4.290   2.860   1.031 -0.7427 -0.7606 -1.2839
 2109SOL    HW217964   4.252   3.000   1.022  0.2415  0.4755 -1.2822
 2110SOL     OW17965   0.081   3.809   8.223 -0.4712 -0.0075  0.6035
 2110SOL    HW117966   0.038   3.742   8.170  2.2129 -0.9373 -0.3536
 2110SOL    HW217967   0.146   3.852   8.168  0.1385 -0.1587  1.2026
 2111SOL     OW17968   4.392   3.034   2.166  0.1760 -0.0173 -0.2306
 2111SOL    HW117969   4.456   3.010   2.100  0.2167  0.7424 -0.4759
 2111SOL    HW217970   4.367   3.115   2.121  1.1872 -0.3302 -1.3447
 2112SOL     OW17971   4.155   1.946   6.168  0.3309 -0.3674 -0.2429
 2112SOL    HW117972   4.107   2.023   6.138  0.3617  0.0826  0.8840
 2112SOL    HW217973   4.144   1.967   6.261 -0.3509 -0.3758 -0.3215
 2113SOL     OW17974   0.742   4.160  12.277 -0.1766 -0.0080  0.0857
 2113SOL    HW117975   0.811   4.182  12.215  0.7023 -1.9486  0.4015
 2113SOL    HW217976   0.687   4.102  12.224 -0.7071 -0.0279  0.6557
 2114SOL     OW17977   3.872   2.963  10.793  0.5772  0.2139  0.0150
 2114SOL    HW117978   3.845   2.879  10.830  1.2732  0.8578  1.9788
 2114SOL    HW217979   3.802   2.985  10.732 -1.2867 -2.2880  1.2456
 2115SOL     OW17980   0.043   0.307  14.739 -0.4438 -0.0469  0.0758
 2115SOL    HW117981   4.725   0.359  14.798  1.4754 -0.0166  1.8516
 2115SOL    HW217982   0.023   0.353  14.658 -1.4869  0.3633  0.5601
 2116SOL     OW17983   0.278   0.108   8.610 -0.0078 -0.2927  0.1272
 2116SOL    HW117984   0.248   0.145   8.693  0.6731 -1.6253  0.9589
 2116SOL    HW217985   0.309   0.025   8.645  1.1776  1.2737  2.8107
 2117SOL     OW17986   1.766   2.473   7.696  0.6725  0.2767 -0.0175
 2117SOL    HW117987   1.679   2.500   7.723 -0.0882 -1.7044 -0.5265
 2117SOL    HW217988   1.810   2.471   7.781  0.8033  2.2340 -0.0450
 2118SOL     OW17989   3.618   2.725   9.676  0.2572 -0.2353  0.7724
 2118SOL    HW117990   3.565   2.725   9.596 -0.9652 -0.0864  1.5773
 2118SOL    HW217991   3.700   2.686   9.648 -0.2829 -0.8066 -0.0309
 2119SOL     OW17992   1.893   0.858   0.637  0.0119  0.8343 -0.0555
 2119SOL    HW117993   1.962   0.915   0.603 -0.1137  0.3759 -1.1073
 2119SOL    HW217994   1.930   0.774   0.608 -3.0429 -0.1960 -1.0364
 2120SOL     OW17995   1.944   2.346   7.497  0.0414  0.1052  0.2629
 2120SOL    HW117996   1.874   2.385   7.549  0.6911  0.6519  0.7430
 2120SOL    HW217997   1.993   2.302   7.567 -2.2238  0.0653  1.8221
 2121SOL     OW17998   1.620   2.190   3.853 -0.2833 -0.1349  0.7108
 2121SOL    HW117999   1.571   2.267   3.824 -0.9450 -0.6269  0.5212
 2121SOL    HW218000   1.576   2.124   3.799 -0.9474  1.4454 -0.6739
 2122SOL     OW18001   3.299   1.425   5.360 -0.3895  0.8058  0.5213
 2122SOL    HW118002   3.203   1.426   5.355 -0.3453 -1.9119 -0.7290
 2122SOL    HW218003   3.317   1.519   5.362  2.0811  0.3347  0.6017
 2123SOL     OW18004   1.684   2.445   7.960 -0.3859 -0.0186  0.4309
 2123SOL    HW118005   1.604   2.481   7.998 -0.9894  0.1074 -0.9494
 2123SOL    HW218006   1.709   2.372   8.016 -0.3971 -0.8149 -0.5938
 2124SOL     OW18007   1.619   1.238   1.439  0.4128  0.2110 -0.0302
 2124SOL    HW118008   1.675   1.232   1.362  1.1886 -0.1669  0.5687
 2124SOL    HW218009   1.559   1.168   1.411  0.2978  0.7103 -1.0401
 2125SOL     OW18010   4.126   0.749   3.713 -0.4003  0.3304 -0.7988
 2125SOL    HW118011   4.211   0.705   3.715 -1.5928 -1.9681  0.9746
 2125SOL    HW218012   4.079   0.681   3.762  1.4161 -1.3433 -1.3710
 2126SOL     OW18013   1.665   0.330   4.041  0.0564  0.3287 -0.1133
 2126SOL    HW118014   1.613   0.392   3.990  0.9160 -0.5639 -2.0696
 2126SOL    HW218015   1.610   0.326   4.119  2.3999 -1.7433  1.4479
 2127SOL     OW18016   2.804   0.744   3.903  0.0867 -0.1790  0.5018
 2127SOL    HW118017   2.830   0.716   3.991  0.5240  1.0539  0.7701
 2127SOL    HW218018   2.728   0.797   3.928 -0.8401 -2.7521  3.1768
 2128SOL     OW18019   0.953   0.295  13.003 -0.3875  0.6970  0.2404
 2128SOL    HW118020   0.888   0.288  12.933  0.0547 -2.9021  0.2296
 2128SOL    HW218021   0.897   0.317  13.079 -2.5496 -0.5190 -1.0002
 2129SOL     OW18022   2.936   3.219   5.332 -0.0877 -0.0111  0.6125
 2129SOL    HW118023   2.867   3.223   5.398  0.3376  1.6679  0.9574
 2129SOL    HW218024   2.906   3.261   5.252 -3.3289 -2.0373  0.7649
 2130SOL     OW18025   2.428   0.419   4.902 -0.2236  0.0862 -0.4401
 2130SOL    HW118026   2.334   0.437   4.902 -0.5094 -1.4268  1.2293
 2130SOL    HW218027   2.454   0.413   4.810  0.1482  0.7601 -0.3819
 2131SOL     OW18028   4.367   2.957   3.446  0.5650  0.0230  0.0412
 2131SOL    HW118029   4.319   2.876   3.431  1.2276 -0.6559  1.5242
 2131SOL    HW218030   4.369   2.963   3.542 -0.9786 -1.4613  0.1480
 2132SOL     OW18031   4.418   2.274   7.603 -0.3625  0.3412  1.0085
 2132SOL    HW118032   4.338   2.283   7.551  0.2190  0.2274  0.0874
 2132SOL    HW218033   4.396   2.193   7.649 -1.6750  0.0138 -0.1720
 2133SOL     OW18034   3.144   3.915   2.468 -0.0088  0.5362 -0.1037
 2133SOL    HW118035   3.127   3.995   2.417  0.2169  0.4760 -0.2768
 2133SOL    HW218036   3.227   3.934   2.512  1.7303 -1.6320 -2.4719
 2134SOL     OW18037   0.496   1.961   1.908 -0.3921  0.2485 -0.0462
 2134SOL    HW118038   0.548   1.946   1.987  0.1516  0.5990 -0.3396
 2134SOL    HW218039   0.511   1.875   1.868  1.0156  0.1724  0.6412
 2135SOL     OW18040   4.621   1.122  13.350  0.2839 -0.3446  0.1888
 2135SOL    HW118041   4.599   1.039  13.309  2.1560  0.3803 -2.3005
 2135SOL    HW218042   4.559   1.184  13.312 -3.3282 -3.0334  1.7611
 2136SOL     OW18043   3.936   4.538  13.076  0.5557  0.3442  0.1103
 2136SOL    HW118044   3.986   4.490  13.142 -0.4925 -0.6191  0.2151
 2136SOL    HW218045   3.858   4.567  13.123 -0.6320 -1.8212 -0.5254
 2137SOL     OW18046   2.443   3.128   3.107  0.2998  0.5841  0.4912
 2137SOL    HW118047   2.437   3.208   3.056 -1.2662 -0.1879 -0.5141
 2137SOL    HW218048   2.539   3.120   3.102  0.0157 -0.9535 -2.5214
 2138SOL     OW18049   1.529   1.205   3.146 -0.0165 -0.7295 -0.5386
 2138SOL    HW118050   1.592   1.276   3.160 -0.5137  0.3978 -4.1465
 2138SOL    HW218051   1.592   1.135   3.131  0.9467 -0.0176  0.1651
 2139SOL     OW18052   0.015   1.481   8.567 -0.0871 -0.9288 -0.1802
 2139SOL    HW118053   0.000   1.569   8.532  2.7280 -0.6522 -0.7238
 2139SOL    HW218054   4.683   1.482   8.633  1.0905 -1.0067  1.0661
 2140SOL     OW18055   0.501   2.324  16.106  0.1602 -0.2108 -0.0698
 2140SOL    HW118056   0.502   2.245  16.052  2.3463 -0.8441  0.9228
 2140SOL    HW218057   0.586   2.366  16.093  0.0482 -0.0563 -0.3069
 2141SOL     OW18058   3.653   0.080   7.774 -0.2268 -0.1011 -0.7430
 2141SOL    HW118059   3.611   4.737   7.745 -1.6036 -0.1528  1.3192
 2141SOL    HW218060   3.581   0.117   7.826 -1.5496 -1.2871 -1.7476
 2142SOL     OW18061   4.351   2.221   4.885  0.4186 -0.1919  0.1757
 2142SOL    HW118062   4.277   2.270   4.849 -1.3868 -1.9877  1.4364
 2142SOL    HW218063   4.353   2.255   4.974  0.9770 -0.2458  0.1799
 2143SOL     OW18064   2.214   0.869   1.029 -0.7053  0.9759  0.3848
 2143SOL    HW118065   2.187   0.782   1.058 -0.9340  1.4863  1.7002
 2143SOL    HW218066   2.306   0.854   1.053 -0.8261  2.8720  1.9791
 2144SOL     OW18067   1.414   0.438   1.984  0.3849  0.2699 -0.2885
 2144SOL    HW118068   1.495   0.402   2.022  0.2978 -1.4310 -1.7079
 2144SOL    HW218069   1.416   0.385   1.904 -1.7610  1.0112 -0.8296
 2145SOL     OW18070   0.041   2.809  16.265  0.6505  0.2300  0.3295
 2145SOL    HW118071   0.002   2.810  16.353 -0.5207 -0.9698 -0.1739
 2145SOL    HW218072   0.135   2.810  16.283  0.6971 -0.4727  0.1155
 2146SOL     OW18073   1.306   4.565   2.806 -0.1107  0.3288 -0.9111
 2146SOL    HW118074   1.299   4.532   2.895 -0.5265 -1.5046 -1.6205
 2146SOL    HW218075   1.217   4.597   2.790 -0.0215  1.5293  0.9444
 2147SOL     OW18076   2.777   4.051   4.159 -0.4006  0.1557  0.6216
 2147SOL    HW118077   2.794   4.137   4.199 -1.6790 -0.3811  2.2848
 2147SOL    HW218078   2.823   3.990   4.217 -1.5636  1.0485  2.4771
 2148SOL     OW18079   3.145   2.287  11.995 -0.2711  0.2655 -0.2033
 2148SOL    HW118080   3.235   2.254  11.994 -0.5284 -0.4349 -0.2032
 2148SOL    HW218081   3.152   2.382  12.009 -2.9815  0.4879 -0.2238
 2149SOL     OW18082   2.937   4.153   9.283 -0.1409 -0.5933  0.3693
 2149SOL    HW118083   2.860   4.205   9.258 -0.2524 -0.8618  0.1610
 2149SOL    HW218084   2.972   4.192   9.363  0.5141  1.6745 -0.9976
 2150SOL     OW18085   2.127   4.479   3.878  0.0487  0.6532  0.7385
 2150SOL    HW118086   2.108   4.560   3.925  0.9351 -1.4364  4.6961
 2150SOL    HW218087   2.219   4.498   3.859 -0.4598  1.2911 -1.0653
 2151SOL     OW18088   0.059   1.782  10.033  1.1338  0.1686  0.5495
 2151SOL    HW118089   0.137   1.811   9.987  0.6220 -1.3417 -1.2507
 2151SOL    HW218090   0.034   1.707   9.980  2.4188 -0.1092  0.3463
 2152SOL     OW18091   1.951   4.541   3.190  0.3422 -0.3288  0.2647
 2152SOL    HW118092   1.951   4.621   3.137 -0.7404  0.2940  1.2183
 2152SOL    HW218093   1.984   4.572   3.274  2.2835 -1.0815 -0.2266
 2153SOL     OW18094   1.789   2.158   6.137  0.2812 -0.2175 -0.0784
 2153SOL    HW118095   1.833   2.137   6.054 -0.7158  0.5944 -0.8198
 2153SOL    HW218096   1.739   2.239   6.127  0.4132  0.0603  1.5316
 2154SOL     OW18097   1.096   3.544  13.195  0.5034  0.3238  0.2015
 2154SOL    HW118098   1.042   3.567  13.119 -1.2030 -3.0725  0.3567
 2154SOL    HW218099   1.179   3.516  13.156 -0.1592  0.0513 -1.0092
 2155SOL     OW18100   2.092   3.071  16.652 -0.8787 -0.2463  0.2353
 2155SOL    HW118101   2.068   3.163  16.644 -3.3748 -1.0110 -1.1294
 2155SOL    HW218102   2.018   3.030  16.607  0.8478 -1.0475 -1.8960
 2156SOL     OW18103   3.279   4.170   7.513  0.1424  0.5401 -0.5207
 2156SOL    HW118104   3.265   4.081   7.480  1.2375  0.5308 -0.9582
 2156SOL    HW218105   3.202   4.215   7.480 -0.7969  0.2354  1.2945
 2157SOL     OW18106   3.232   0.283   1.951  0.2243 -0.5275 -0.0085
 2157SOL    HW118107   3.250   0.314   2.040  1.4404 -0.6754 -0.1967
 2157SOL    HW218108   3.308   0.227   1.934  0.6193  0.6177 -2.0444
 2158SOL     OW18109   1.593   2.971   7.880  0.3050  0.4299 -0.1511
 2158SOL    HW118110   1.588   3.016   7.795  0.4460 -0.2994 -0.5419
 2158SOL    HW218111   1.683   2.994   7.901  0.3972  0.4942 -0.6278
 2159SOL     OW18112   0.614   4.269   2.472 -0.2144  0.1923  0.3934
 2159SOL    HW118113   0.519   4.268   2.468 -0.1580 -4.9310  0.2522
 2159SOL    HW218114   0.623   4.293   2.565  0.0054  1.8284 -0.0510
 2160SOL     OW18115   1.090   2.888   4.752  0.3632  0.4248  0.4320
 2160SOL    HW118116   1.119   2.930   4.833  3.9503 -0.5931 -0.3292
 2160SOL    HW218117   1.063   2.965   4.701 -1.0420  0.1872  0.8144
 2161SOL     OW18118   3.318   3.843   6.504 -0.4512 -0.5091 -0.0942
 2161SOL    HW118119   3.331   3.912   6.569  2.7974 -1.1086 -0.0907
 2161SOL    HW218120   3.407   3.846   6.468 -0.7889  1.2120 -0.7906
 2162SOL     OW18121   3.917   2.208  17.658 -0.4287 -0.1457  0.0199
 2162SOL    HW118122   3.926   2.289  17.710 -1.5135 -0.4970  0.7586
 2162SOL    HW218123   3.983   2.218  17.590 -1.7596  0.2627 -1.1990
 2163SOL     OW18124   3.056   1.346   2.966  0.4614 -0.0379 -0.4044
 2163SOL    HW118125   3.064   1.257   3.000  2.4863  0.3803  0.1604
 2163SOL    HW218126   2.997   1.329   2.892 -0.7916 -1.5884  0.9502
 2164SOL     OW18127   1.614   4.254   4.413 -0.1167 -0.2187 -0.0743
 2164SOL    HW118128   1.654   4.271   4.328  3.1630  1.9565  1.9122
 2164SOL    HW218129   1.672   4.308   4.467 -0.2687 -0.4015  0.2755
 2165SOL     OW18130   2.587   1.954   3.478 -0.1378  0.1722 -0.1179
 2165SOL    HW118131   2.629   1.988   3.399  0.9392 -0.6749  0.0821
 2165SOL    HW218132   2.660   1.955   3.540  1.4724  0.3082 -2.0068
 2166SOL     OW18133   1.430   0.267   2.468  1.0466 -0.7641 -0.4965
 2166SOL    HW118134   1.423   0.222   2.553 -1.8283  0.6568  0.0198
 2166SOL    HW218135   1.524   0.279   2.480  1.0728 -1.7755  0.4236
 2167SOL     OW18136   4.095   0.810   8.983 -0.2790 -0.1036 -0.0154
 2167SOL    HW118137   4.175   0.766   8.954  0.2933 -0.1102  1.6057
 2167SOL    HW218138   4.079   0.871   8.911  1.4170  1.0541  0.6046
 2168SOL     OW18139   0.839   2.117   1.757  0.3177 -0.1306 -0.0622
 2168SOL    HW118140   0.775   2.107   1.686 -1.2517  1.1184  1.1625
 2168SOL    HW218141   0.877   2.029   1.763  2.1494  0.4540 -3.2832
 2169SOL     OW18142   4.524   3.616   5.790  0.0498  0.1358 -0.3259
 2169SOL    HW118143   4.615   3.646   5.792 -0.3119  1.2007 -0.2211
 2169SOL    HW218144   4.484   3.700   5.810 -0.1793  0.0686 -0.5033
 2170SOL     OW18145   1.533   4.230   6.019  0.2177 -0.0118  0.1013
 2170SOL    HW118146   1.576   4.310   5.990 -0.2085 -0.4748 -1.7948
 2170SOL    HW218147   1.560   4.215   6.110 -1.7437  1.7607  0.9881
 2171SOL     OW18148   0.460   2.874   7.101 -0.2643  0.7513  0.1411
 2171SOL    HW118149   0.516   2.937   7.147 -0.5812  1.8954 -1.0280
 2171SOL    HW218150   0.521   2.855   7.030  0.4279  0.3063  0.8560
 2172SOL     OW18151   2.231   0.942   5.152 -0.1737  0.8209 -0.0057
 2172SOL    HW118152   2.251   0.902   5.068 -0.1736  1.4989 -0.3263
 2172SOL    HW218153   2.243   1.036   5.136  3.0443  0.4800  0.2579
 2173SOL     OW18154   4.439   1.011   5.735  0.7116 -0.4703  0.3548
 2173SOL    HW118155   4.467   1.102   5.743 -2.0083  0.0871  3.2028
 2173SOL    HW218156   4.525   0.969   5.740  0.9695 -0.1264 -1.0271
 2174SOL     OW18157   4.495   2.333   1.477 -0.1323  0.0367  0.2213
 2174SOL    HW118158   4.496   2.300   1.567 -4.4118  2.7391  1.2274
 2174SOL    HW218159   4.581   2.302   1.449 -0.7230 -1.8972  0.5786
 2175SOL     OW18160   2.143   2.042   3.552 -0.2182 -0.0159 -0.1920
 2175SOL    HW118161   2.098   1.958   3.548  1.4406 -0.9193  0.0246
 2175SOL    HW218162   2.222   2.013   3.597 -0.1164  0.5430 -0.0107
 2176SOL     OW18163   1.201   2.817   4.048 -0.0959  0.5531 -0.3559
 2176SOL    HW118164   1.181   2.821   4.141  1.7585 -0.5177  0.0888
 2176SOL    HW218165   1.297   2.822   4.048 -0.0122 -1.0767  1.0243
 2177SOL     OW18166   3.999   1.526  13.689 -0.3344  0.1306  0.3293
 2177SOL    HW118167   3.911   1.490  13.679 -0.2274  0.3580 -1.2928
 2177SOL    HW218168   3.976   1.618  13.677 -3.5714 -0.4391  2.1454
 2178SOL     OW18169   2.816   1.025  13.356 -0.3245 -0.0658 -0.4419
 2178SOL    HW118170   2.828   1.080  13.279 -1.7153  1.5416  0.5043
 2178SOL    HW218171   2.749   0.962  13.328 -0.1992  0.1406 -1.2053
 2179SOL     OW18172   4.539   2.678  16.784  0.3789 -0.2853  0.5466
 2179SOL    HW118173   4.523   2.769  16.757  0.1605 -0.3537  0.4486
 2179SOL    HW218174   4.470   2.634  16.735 -0.9799  2.6408 -0.1359
 2180SOL     OW18175   0.229   1.552  15.465  0.3412 -0.1196  0.6248
 2180SOL    HW118176   0.189   1.636  15.487  2.0011  1.0935 -1.0588
 2180SOL    HW218177   0.198   1.539  15.375 -3.5369 -0.4671  1.9837
 2181SOL     OW18178   2.386   3.772  15.317  0.0677  0.9180 -0.2176
 2181SOL    HW118179   2.480   3.780  15.331 -0.3503  1.4962  2.3324
 2181SOL    HW218180   2.372   3.780  15.222  1.0471 -2.3242 -0.6251
 2182SOL     OW18181   0.512   0.071   8.842  0.3831 -0.4292  0.3042
 2182SOL    HW118182   0.594   0.117   8.823  2.1081 -2.6513  2.3079
 2182SOL    HW218183   0.499   0.017   8.764  0.4341 -0.7123  0.4907
 2183SOL     OW18184   3.932   2.312   4.653 -0.1920  0.2538  0.2592
 2183SOL    HW118185   3.856   2.320   4.711  0.3973  3.2518  0.6200
 2183SOL    HW218186   3.954   2.403   4.630  0.6323 -0.5669 -2.2288
 2184SOL     OW18187   0.832   2.002  17.245 -0.0729  0.0968  0.1787
 2184SOL    HW118188   0.749   1.995  17.198 -0.5624  0.4195  1.0048
 2184SOL    HW218189   0.841   2.093  17.271  1.2389 -0.5004  1.8206
 2185SOL     OW18190   0.167   2.607   8.819  0.4252  0.3460  0.2589
 2185SOL    HW118191   0.125   2.558   8.890 -0.9774 -0.5679 -1.2050
 2185SOL    HW218192   0.196   2.538   8.761  0.8128  2.3730 -1.9487
 2186SOL     OW18193   2.444   1.925   7.755 -0.0747  0.3135 -0.3910
 2186SOL    HW118194   2.442   1.921   7.659 -1.1095 -0.6025 -0.3233
 2186SOL    HW218195   2.435   1.833   7.777 -1.4464  0.4674 -0.3290
 2187SOL     OW18196   1.869   0.064   0.755 -0.0477 -0.4145  0.6136
 2187SOL    HW118197   1.865   0.081   0.849  2.2733  1.8202  0.2868
 2187SOL    HW218198   1.775   0.042   0.749  0.7600 -3.2160 -1.8354
 2188SOL     OW18199   2.850   1.455   9.288 -0.2406  0.0049 -0.0612
 2188SOL    HW118200   2.814   1.506   9.216 -0.1726  1.1873  0.7469
 2188SOL    HW218201   2.774   1.414   9.329  0.3309 -1.7809 -0.7593
 2189SOL     OW18202   1.683   4.106   7.050  0.9161  0.4702  0.1171
 2189SOL    HW118203   1.658   4.143   7.134  0.2483 -2.5579  1.2228
 2189SOL    HW218204   1.768   4.149   7.038  1.9491 -1.1932  1.5051
 2190SOL     OW18205   3.355   1.386   0.903 -0.0487 -0.7061  0.1250
 2190SOL    HW118206   3.311   1.419   0.824 -1.0314 -1.5592  0.3254
 2190SOL    HW218207   3.356   1.297   0.868 -0.9472 -0.1590 -1.3094
 2191SOL     OW18208   4.158   0.495  15.452  0.0582  0.6313 -0.1029
 2191SOL    HW118209   4.118   0.434  15.390 -2.4992  1.9514  0.2717
 2191SOL    HW218210   4.187   0.441  15.526  2.6510 -1.7481 -2.8255
 2192SOL     OW18211   1.948   1.836   2.449 -0.4807  0.1317 -0.1633
 2192SOL    HW118212   1.984   1.910   2.499 -1.7873  0.4177  0.3542
 2192SOL    HW218213   1.854   1.847   2.462 -0.0026  3.3336  0.6942
 2193SOL     OW18214   1.339   1.255   2.934 -0.1988 -0.8405 -0.0424
 2193SOL    HW118215   1.390   1.335   2.919 -1.3410 -0.3138 -1.1979
 2193SOL    HW218216   1.387   1.227   3.012  1.0254  0.7130 -0.2374
 2194SOL     OW18217   2.203   1.493   4.508  0.6953 -0.0404 -0.3644
 2194SOL    HW118218   2.167   1.578   4.535  2.0379  0.3202  0.2812
 2194SOL    HW218219   2.294   1.520   4.505  1.0325 -1.4103 -1.9446
 2195SOL     OW18220   0.780   2.434   1.678  0.3346 -0.3091  0.2485
 2195SOL    HW118221   0.686   2.428   1.663  0.3914 -2.0644  0.6185
 2195SOL    HW218222   0.788   2.405   1.769  0.7298  1.4059  0.7701
 2196SOL     OW18223   4.249   2.736   1.125  0.7643 -0.4116  0.4316
 2196SOL    HW118224   4.274   2.658   1.075  0.7589 -0.4940  0.5589
 2196SOL    HW218225   4.211   2.698   1.204  0.0147  0.4942  0.5116
 2197SOL     OW18226   0.257   4.483   8.127 -0.0054 -0.1722  0.1368
 2197SOL    HW118227   0.320   4.554   8.121  0.4000 -0.5387  0.0477
 2197SOL    HW218228   0.201   4.508   8.201  0.7924  1.1737  0.2689
 2198SOL     OW18229   4.419   2.515   8.339  0.1198  0.4426  0.5996
 2198SOL    HW118230   4.442   2.564   8.418  1.3531  0.1890  0.3941
 2198SOL    HW218231   4.506   2.481   8.319 -0.3424 -0.4858  0.1434
 2199SOL     OW18232   1.773   0.116   1.010 -0.0735 -0.1610  0.1144
 2199SOL    HW118233   1.715   0.066   1.066  1.3475 -0.0391  1.6841
 2199SOL    HW218234   1.819   0.178   1.067  0.9496  0.0875 -0.9634
 2200SOL     OW18235   2.885   4.002   8.982 -0.2201  0.4775  0.5456
 2200SOL    HW118236   2.974   4.037   8.985  0.7631 -2.0972  1.2165
 2200SOL    HW218237   2.878   3.964   9.069 -1.8466 -1.5160 -0.4470
 2201SOL     OW18238   4.360   0.047  12.768 -0.1754  0.1974  0.5671
 2201SOL    HW118239   4.294   4.717  12.783 -1.1573  1.5992  2.6201
 2201SOL    HW218240   4.438   4.729  12.761  0.8436  1.5614  0.9688
 2202SOL     OW18241   1.157   0.470   6.204 -0.6361 -0.2624 -0.3116
 2202SOL    HW118242   1.152   0.524   6.282 -0.5879 -1.2668  0.3911
 2202SOL    HW218243   1.223   0.406   6.229 -0.6132 -0.0890  0.0639
 2203SOL     OW18244   3.390   2.813   5.176  0.3797  0.0369 -0.3309
 2203SOL    HW118245   3.418   2.881   5.114  0.4531  0.1570 -0.1636
 2203SOL    HW218246   3.382   2.747   5.107 -1.7152 -0.9773  0.8765
 2204SOL     OW18247   2.420   2.813   9.369 -0.2603  0.1086  0.4702
 2204SOL    HW118248   2.371   2.881   9.324 -1.4888 -0.0535  1.5544
 2204SOL    HW218249   2.455   2.864   9.442 -0.5109 -0.1324  0.7564
 2205SOL     OW18250   4.054   3.286   8.458  0.0340 -0.3435  0.1295
 2205SOL    HW118251   3.975   3.322   8.416 -0.4284 -2.1637 -0.5544
 2205SOL    HW218252   4.043   3.290   8.553 -0.1637  1.9257  0.0269
 2206SOL     OW18253   1.451   3.408   9.208 -0.1705 -0.8427  0.1868
 2206SOL    HW118254   1.489   3.343   9.148 -3.1283 -3.5669  1.2776
 2206SOL    HW218255   1.431   3.348   9.279 -0.0826 -0.1967  0.7555
 2207SOL     OW18256   0.783   2.883   9.303  0.1816  0.7310  0.4440
 2207SOL    HW118257   0.697   2.926   9.299  0.4214  1.1043 -0.6194
 2207SOL    HW218258   0.762   2.793   9.275  2.5352 -0.2296  1.7600
 2208SOL     OW18259   2.265   3.166   2.851 -0.0663  0.0568 -0.0039
 2208SOL    HW118260   2.241   3.258   2.845 -0.2164 -0.1048 -2.0323
 2208SOL    HW218261   2.205   3.134   2.784  1.1268  1.7657 -1.9015
 2209SOL     OW18262   2.680   2.686   8.812  0.8123 -0.3054 -0.1520
 2209SOL    HW118263   2.749   2.700   8.747  0.4983  0.5745 -0.2906
 2209SOL    HW218264   2.608   2.716   8.757 -0.1561  1.1199  1.8868
 2210SOL     OW18265   4.689   3.825  17.234  0.3434  0.7532 -0.4708
 2210SOL    HW118266   4.595   3.809  17.242  0.8153 -1.5792  0.4377
 2210SOL    HW218267   4.685   3.842  17.140  0.6919 -0.3279 -0.6859
 2211SOL     OW18268   3.426   2.751   4.743 -0.2016  0.4651  0.0436
 2211SOL    HW118269   3.377   2.713   4.670  1.5601 -1.6075 -0.0454
 2211SOL    HW218270   3.377   2.833   4.755  1.4592  1.7607 -1.9837
 2212SOL     OW18271   1.772   3.823   4.875  0.6616  0.5052  0.2984
 2212SOL    HW118272   1.798   3.853   4.788 -0.5752  2.0776  0.4535
 2212SOL    HW218273   1.847   3.792   4.925  1.3379  1.5147 -0.0894
 2213SOL     OW18274   2.297   2.027  13.466 -0.0106 -0.1238  0.6214
 2213SOL    HW118275   2.366   1.974  13.426  1.0325  0.8116  1.1939
 2213SOL    HW218276   2.292   1.986  13.552  1.1077  1.6514  1.5259
 2214SOL     OW18277   0.285   3.808   0.583  0.1535 -0.3304 -0.3920
 2214SOL    HW118278   0.260   3.721   0.614  0.2962 -0.3943 -0.4545
 2214SOL    HW218279   0.294   3.789   0.489 -0.0462 -2.2798 -0.0228
 2215SOL     OW18280   0.338   2.772   5.721 -0.3779 -0.1527 -0.1296
 2215SOL    HW118281   0.247   2.743   5.722 -0.8537  1.2930 -0.7602
 2215SOL    HW218282   0.362   2.755   5.812  0.3280  3.0131  0.2961
 2216SOL     OW18283   0.591   2.807   5.237  0.2789 -0.0114 -0.6067
 2216SOL    HW118284   0.640   2.836   5.314 -0.3473  0.8611 -0.5355
 2216SOL    HW218285   0.612   2.870   5.169  0.2176  2.2192  1.4668
 2217SOL     OW18286   2.390   0.401  14.915  0.0876  0.0231 -0.1394
 2217SOL    HW118287   2.426   0.340  14.851  0.5305 -0.7306  0.8293
 2217SOL    HW218288   2.337   0.454  14.856  0.1532 -0.5930 -0.7429
 2218SOL     OW18289   2.139   1.239   9.007 -0.1231  0.3192 -0.1039
 2218SOL    HW118290   2.078   1.233   9.080 -0.9326 -1.0758 -0.8998
 2218SOL    HW218291   2.158   1.333   9.010 -0.6895  0.4920 -1.7992
 2219SOL     OW18292   1.034   0.420   6.866  0.3930  0.4690  0.1547
 2219SOL    HW118293   1.077   0.337   6.843  2.2560  1.1646  1.1290
 2219SOL    HW218294   0.948   0.379   6.880  0.0910  0.5323 -1.4489
 2220SOL     OW18295   4.452   2.022   3.263 -0.3773  0.1233  0.6536
 2220SOL    HW118296   4.401   2.073   3.326  1.9462  2.5731  0.5716
 2220SOL    HW218297   4.376   1.970   3.236  0.0848 -0.3033  0.1933
 2221SOL     OW18298   3.873   4.722   7.875 -0.0334  0.0648  0.0413
 2221SOL    HW118299   3.790   0.012   7.835 -1.7747 -1.2475  2.7749
 2221SOL    HW218300   3.922   4.723   7.792  0.5364 -1.8099  0.3609
 2222SOL     OW18301   0.388   2.417   2.645  0.0636 -0.0822  0.3820
 2222SOL    HW118302   0.349   2.358   2.709  0.7451 -2.8548 -1.7634
 2222SOL    HW218303   0.419   2.485   2.706  0.9107 -1.2143  1.2196
 2223SOL     OW18304   1.815   3.247   8.758  0.1234  0.1466 -0.2252
 2223SOL    HW118305   1.806   3.330   8.711  1.2095 -0.4177 -1.4259
 2223SOL    HW218306   1.751   3.262   8.828  0.6178  0.6173  0.1316
 2224SOL     OW18307   3.545   2.646   2.711 -0.1409 -0.3013  0.3681
 2224SOL    HW118308   3.526   2.591   2.636 -1.4402 -0.0442  0.5115
 2224SOL    HW218309   3.456   2.662   2.743 -0.6447 -0.2105 -1.0977
 2225SOL     OW18310   0.357   2.116   3.069  0.4338 -0.2729  0.6157
 2225SOL    HW118311   0.446   2.098   3.038  0.3374 -0.4389  0.4341
 2225SOL    HW218312   0.312   2.048   3.019  0.5460 -1.2254  1.8175
 2226SOL     OW18313   4.568   2.219   4.462 -0.0810  0.6064  0.0515
 2226SOL    HW118314   4.549   2.180   4.377  1.5332 -1.8747  0.8325
 2226SOL    HW218315   4.542   2.150   4.523 -1.0287  0.8563 -0.0761
 2227SOL     OW18316   1.267   3.316   4.773  0.4374  0.5140  0.1691
 2227SOL    HW118317   1.248   3.404   4.743 -0.2238  0.6898  1.1075
 2227SOL    HW218318   1.211   3.284   4.702 -2.1234  0.0206  2.4051
 2228SOL     OW18319   4.687   0.461   1.126  0.6184  0.5582 -0.6055
 2228SOL    HW118320   4.684   0.373   1.163 -1.8010  0.5163 -0.9358
 2228SOL    HW218321   4.596   0.488   1.114  0.2716 -0.4868 -0.2576
 2229SOL     OW18322   0.259   2.457  16.092  0.1919 -0.2147  0.0101
 2229SOL    HW118323   0.222   2.474  16.179 -1.2754 -1.8899 -0.2824
 2229SOL    HW218324   0.326   2.391  16.110 -1.2152 -1.6321  0.0218
 2230SOL     OW18325   2.951   4.525   6.355 -0.2651 -0.2087  0.5055
 2230SOL    HW118326   3.041   4.555   6.339  0.2848 -1.5141  1.2104
 2230SOL    HW218327   2.957   4.449   6.298  2.5914 -0.7513  1.5473
 2231SOL     OW18328   3.386   2.980   2.707  0.0063  0.0400 -0.2373
 2231SOL    HW118329   3.448   2.927   2.756 -0.3556  1.6739  1.9811
 2231SOL    HW218330   3.306   2.961   2.754  0.7234  0.2463  1.0509
 2232SOL     OW18331   1.386   1.239  15.210  0.1655 -0.7486  0.1462
 2232SOL    HW118332   1.307   1.218  15.161  1.6051  0.2451 -2.6160
 2232SOL    HW218333   1.376   1.332  15.228  1.8066 -1.2208  3.5791
 2233SOL     OW18334   0.460   3.835   9.340 -0.6151  0.0382 -0.2165
 2233SOL    HW118335   0.370   3.866   9.356  0.8180  2.2652  3.4866
 2233SOL    HW218336   0.506   3.889   9.404 -0.7162 -1.8281  1.4142
 2234SOL     OW18337   0.715   3.708  10.275  0.5615 -0.4049  0.3969
 2234SOL    HW118338   0.746   3.798  10.287 -2.5134  0.5694  1.0127
 2234SOL    HW218339   0.694   3.684  10.365 -0.4636  1.5021  0.6640
 2235SOL     OW18340   3.626   2.501   8.204  0.1697  0.2742  0.0121
 2235SOL    HW118341   3.566   2.506   8.129 -0.2917  0.0241  0.3708
 2235SOL    HW218342   3.702   2.475   8.151  0.9038 -0.8214  1.6220
 2236SOL     OW18343   0.855   0.117   7.191 -0.4408 -0.2784  0.7070
 2236SOL    HW118344   0.932   0.062   7.179  0.7968  1.7435 -0.6732
 2236SOL    HW218345   0.793   0.062   7.238 -0.1890 -0.2063  1.1266
 2237SOL     OW18346   1.903   0.941  13.044  0.3072  0.0380  0.0999
 2237SOL    HW118347   1.892   0.907  12.955  2.6862  1.4646 -0.7257
 2237SOL    HW218348   1.831   1.004  13.052 -0.9573 -1.5723  1.4090
 2238SOL     OW18349   3.484   3.125  15.191 -0.8223 -0.3242 -0.7771
 2238SOL    HW118350   3.506   3.205  15.144 -0.1379 -1.5372 -2.5455
 2238SOL    HW218351   3.563   3.077  15.166 -1.7353 -1.0640 -2.2273
 2239SOL     OW18352   0.922   4.691   6.793 -0.2674  0.7787 -0.3535
 2239SOL    HW118353   0.828   4.704   6.804 -0.1946  1.4008 -0.4689
 2239SOL    HW218354   0.928   4.604   6.832 -0.5921  0.8585 -0.1265
 2240SOL     OW18355   3.901   3.031  13.710 -0.1287 -0.0861  0.2590
 2240SOL    HW118356   3.961   3.011  13.638 -1.4502 -1.5902 -0.4367
 2240SOL    HW218357   3.905   3.126  13.701 -0.5017  0.0705  1.7689
 2241SOL     OW18358   2.259   1.683   5.887 -0.4531  0.4431 -0.0117
 2241SOL    HW118359   2.192   1.745   5.858  2.6226  2.4716 -2.7011
 2241SOL    HW218360   2.241   1.611   5.827 -0.3997  0.2403  0.2127
 2242SOL     OW18361   4.284   1.283  10.150  0.1652 -0.1687 -0.1294
 2242SOL    HW118362   4.306   1.254  10.061 -1.1560  0.1913 -0.5793
 2242SOL    HW218363   4.218   1.215  10.168 -0.1510  0.0525 -0.4615
 2243SOL     OW18364   1.517   3.015   8.906 -0.1404 -0.7484  0.0843
 2243SOL    HW118365   1.464   3.046   8.979  0.1586  1.6831 -0.7180
 2243SOL    HW218366   1.482   2.929   8.883  1.1407 -1.5383  1.0925
 2244SOL     OW18367   3.567   3.023  11.883  0.1194 -0.2866  0.3680
 2244SOL    HW118368   3.558   2.984  11.796  1.2532 -1.1262  0.6480
 2244SOL    HW218369   3.533   3.113  11.874 -1.5154 -0.9010  0.3556
 2245SOL     OW18370   1.698   1.353   4.917  0.5094  0.0913 -0.5646
 2245SOL    HW118371   1.639   1.409   4.967 -0.1608 -2.2970  1.2617
 2245SOL    HW218372   1.751   1.421   4.874  0.8423  0.4419  0.4010
 2246SOL     OW18373   2.066   4.122   5.494  0.2049  0.0457  0.4079
 2246SOL    HW118374   1.997   4.143   5.558 -0.2090 -0.9371  0.2904
 2246SOL    HW218375   2.134   4.096   5.556  0.4410 -1.0286 -0.3114
 2247SOL     OW18376   1.222   0.688   9.293 -0.2607 -0.2125 -0.5707
 2247SOL    HW118377   1.186   0.600   9.283 -0.9586 -0.2459  2.2341
 2247SOL    HW218378   1.310   0.681   9.257  1.3003  2.6973  2.6549
 2248SOL     OW18379   3.275   4.706  12.861 -0.2116 -0.0084 -0.1295
 2248SOL    HW118380   3.357   4.697  12.908 -1.8389  0.1395  2.7276
 2248SOL    HW218381   3.249   4.614  12.865 -0.7813  0.1680  0.2295
 2249SOL     OW18382   2.931   1.637   8.540 -0.1841  0.2178  0.2469
 2249SOL    HW118383   2.847   1.594   8.520 -1.0896  2.9572 -1.8036
 2249SOL    HW218384   2.987   1.561   8.558  0.5184  1.1719  1.9678
 2250SOL     OW18385   2.713   0.485  14.397 -0.1895  0.1226 -0.5803
 2250SOL    HW118386   2.722   0.402  14.444  0.4310  1.0502  0.9265
 2250SOL    HW218387   2.683   0.452  14.312 -0.6527 -0.2501 -0.2772
 2251SOL     OW18388   2.638   1.183   2.047  0.3800  0.0222  0.0015
 2251SOL    HW118389   2.617   1.228   2.129  0.0133  0.7865 -0.5166
 2251SOL    HW218390   2.709   1.127   2.079  0.4921 -0.5750 -1.2848
 2252SOL     OW18391   2.577   0.208   2.552  0.2911 -0.0426 -0.2481
 2252SOL    HW118392   2.567   0.152   2.476  0.5064  1.6665 -1.5475
 2252SOL    HW218393   2.613   0.155   2.623 -1.8227 -0.3982  0.5564
 2253SOL     OW18394   2.688   2.116  13.188 -0.3444  0.3700  0.1683
 2253SOL    HW118395   2.639   2.071  13.119 -0.8804  2.4785 -0.8329
 2253SOL    HW218396   2.672   2.208  13.168 -1.2629  0.0640 -0.5002
 2254SOL     OW18397   1.204   1.548   4.243 -0.2854  0.7130  0.3088
 2254SOL    HW118398   1.173   1.538   4.153 -0.6216  1.7741  0.3039
 2254SOL    HW218399   1.131   1.601   4.276  0.1067  0.8470  0.9562
 2255SOL     OW18400   3.219   4.115   3.214  0.3487 -0.2241 -0.2448
 2255SOL    HW118401   3.126   4.124   3.193  0.2857 -2.1593 -0.7566
 2255SOL    HW218402   3.214   4.115   3.310 -2.6788  1.2751 -0.4238
 2256SOL     OW18403   3.790   1.046   2.016 -0.9053 -0.0943  0.3543
 2256SOL    HW118404   3.780   1.085   1.930 -0.3793 -1.3880 -0.2894
 2256SOL    HW218405   3.885   1.060   2.021 -0.9931  1.3111 -1.9156
 2257SOL     OW18406   2.484   1.191   9.277 -0.3576 -0.3745  0.3154
 2257SOL    HW118407   2.468   1.140   9.197  0.3633  0.0461 -0.0941
 2257SOL    HW218408   2.408   1.249   9.270 -0.0109  0.0223 -0.1752
 2258SOL     OW18409   1.283   2.731  12.177 -0.2239 -0.2150  0.0140
 2258SOL    HW118410   1.330   2.671  12.235  0.6745  0.0360 -0.4544
 2258SOL    HW218411   1.243   2.662  12.123  0.0630  0.4280 -1.0220
 2259SOL     OW18412   1.635   0.274  13.738 -0.2817 -0.0949 -0.1717
 2259SOL    HW118413   1.608   0.261  13.647  4.0866 -0.7845 -1.3655
 2259SOL    HW218414   1.713   0.328  13.726  1.3267 -2.3665  0.1168
 2260SOL     OW18415   2.709   1.426   8.828  0.0613 -0.3183 -0.5805
 2260SOL    HW118416   2.729   1.368   8.755 -0.9757 -0.0534 -1.0785
 2260SOL    HW218417   2.613   1.421   8.833  0.2033 -0.5820  1.7060
 2261SOL     OW18418   1.379   0.304   3.443 -0.4241  0.0768  0.0616
 2261SOL    HW118419   1.429   0.301   3.524  1.1138 -2.4449 -0.9563
 2261SOL    HW218420   1.305   0.356   3.475  0.0063  1.2159 -0.7983
 2262SOL     OW18421   2.594   3.155   4.910 -0.0482 -0.4059 -0.0802
 2262SOL    HW118422   2.559   3.243   4.925 -0.9230 -0.9210  0.8941
 2262SOL    HW218423   2.676   3.182   4.868  1.3264  0.2146  3.0302
 2263SOL     OW18424   2.096   4.385   7.779  0.3626  0.3246 -0.0809
 2263SOL    HW118425   2.095   4.462   7.836 -1.9636  0.4849 -0.3309
 2263SOL    HW218426   2.182   4.346   7.797 -0.5769 -0.1710  3.2625
 2264SOL     OW18427   1.298   0.977   8.722  0.0303  0.2779 -0.5622
 2264SOL    HW118428   1.351   1.017   8.653  0.6114 -2.3834 -1.6540
 2264SOL    HW218429   1.344   1.014   8.797  0.1313 -0.0481 -0.4649
 2265SOL     OW18430   3.649   2.972   1.665  0.2649  0.0841  0.1694
 2265SOL    HW118431   3.608   2.890   1.694 -4.2300  2.3871  0.4256
 2265SOL    HW218432   3.577   3.006   1.611  0.4985 -0.1342 -0.2769
 2266SOL     OW18433   0.674   2.321   5.586 -0.0322 -0.7561  0.3564
 2266SOL    HW118434   0.734   2.386   5.622 -2.8844  2.2742 -0.2972
 2266SOL    HW218435   0.632   2.302   5.670 -1.4893  1.3132  0.1121
 2267SOL     OW18436   0.703   1.875   2.092 -0.1558 -0.1198 -0.3810
 2267SOL    HW118437   0.636   1.920   2.143  3.3354  1.3278  2.9617
 2267SOL    HW218438   0.783   1.916   2.125 -1.6692  1.3275  1.4957
 2268SOL     OW18439   4.228   3.937   5.074  0.0595  0.0401  0.2729
 2268SOL    HW118440   4.182   3.862   5.036  0.4363 -0.2267  0.3397
 2268SOL    HW218441   4.284   3.895   5.139  1.5280  1.1954 -0.2451
 2269SOL     OW18442   0.056   4.475   3.148  0.3675 -0.1210  0.3204
 2269SOL    HW118443   0.144   4.512   3.142 -0.4575  1.8463  0.2301
 2269SOL    HW218444   0.058   4.418   3.225  0.5274 -0.0886  0.3406
 2270SOL     OW18445   0.523   3.851   5.056  0.8113  0.0212  0.9305
 2270SOL    HW118446   0.572   3.885   4.982 -0.5367 -0.9830 -0.4281
 2270SOL    HW218447   0.591   3.835   5.121  2.2205  2.0376 -0.0572
 2271SOL     OW18448   0.616   3.248   1.265 -0.4651  0.5055 -0.0550
 2271SOL    HW118449   0.654   3.213   1.346 -1.4920 -1.1618 -0.2966
 2271SOL    HW218450   0.529   3.260   1.304 -0.2862  2.8138 -0.4245
 2272SOL     OW18451   0.137   1.501   5.974 -0.6920  0.1690 -0.0432
 2272SOL    HW118452   0.054   1.537   6.004  0.0753  1.1170  0.9198
 2272SOL    HW218453   0.117   1.466   5.887 -2.0469 -0.9432  0.7173
 2273SOL     OW18454   3.138   4.705  13.485 -0.0942  0.3945  0.1724
 2273SOL    HW118455   3.226   4.722  13.451 -0.3516  0.1728 -0.6096
 2273SOL    HW218456   3.156   4.677  13.574 -2.0831  0.8055  0.7041
 2274SOL     OW18457   0.683   3.674   7.428 -0.1433 -0.0591 -0.3002
 2274SOL    HW118458   0.731   3.729   7.367 -2.2088  1.1851 -0.8239
 2274SOL    HW218459   0.642   3.735   7.490 -1.1600  0.0983 -1.1344
 2275SOL     OW18460   3.141   0.395   6.273 -0.1073 -0.9742  0.3419
 2275SOL    HW118461   3.055   0.417   6.237 -0.7723 -1.0701  1.9056
 2275SOL    HW218462   3.160   0.481   6.309  2.0619 -0.7773 -1.2160
 2276SOL     OW18463   3.369   1.445   6.592 -0.4034  0.3021 -0.3357
 2276SOL    HW118464   3.359   1.501   6.669  0.9364  1.0740 -0.7352
 2276SOL    HW218465   3.288   1.396   6.607 -0.7111  2.0207  3.6657
 2277SOL     OW18466   2.707   0.765  17.291 -0.3089 -0.0762 -0.2727
 2277SOL    HW118467   2.647   0.719  17.351 -2.4019  1.4617 -1.1892
 2277SOL    HW218468   2.654   0.839  17.262  0.1455  0.0727 -0.7228
 2278SOL     OW18469   3.550   1.163   6.192  0.1163 -0.1928  0.6142
 2278SOL    HW118470   3.530   1.230   6.258  1.1529 -0.0096  0.7455
 2278SOL    HW218471   3.510   1.089   6.239 -2.2813 -0.0945 -1.2447
 2279SOL     OW18472   3.398   0.038  16.348 -0.4252  0.1422 -0.1628
 2279SOL    HW118473   3.349   0.119  16.360  0.4625  0.8143 -1.0140
 2279SOL    HW218474   3.469   0.074  16.295 -0.9670  0.9301 -0.3502
 2280SOL     OW18475   2.180   1.450  16.938 -0.0334  0.7007 -0.8465
 2280SOL    HW118476   2.258   1.463  16.992 -0.1790  2.1395 -0.9692
 2280SOL    HW218477   2.160   1.358  16.956 -0.3578  0.8958 -0.1974
 2281SOL     OW18478   2.641   4.546   8.281  0.5414  0.0042 -0.7026
 2281SOL    HW118479   2.721   4.580   8.241  1.2342  0.1962  0.8409
 2281SOL    HW218480   2.651   4.602   8.358 -2.6778 -2.3116  1.3940
 2282SOL     OW18481   0.602   2.043   3.007  0.7875 -0.5255 -0.2477
 2282SOL    HW118482   0.666   2.074   3.071  2.1944 -0.6479 -1.5857
 2282SOL    HW218483   0.652   2.065   2.928  0.4800  1.3375  0.0632
 2283SOL     OW18484   1.751   1.314   9.820  0.3050 -0.3161 -0.6500
 2283SOL    HW118485   1.732   1.350   9.907 -1.4573  1.1994 -1.6572
 2283SOL    HW218486   1.751   1.220   9.838 -1.2878 -0.8976 -3.7052
 2284SOL     OW18487   1.103   2.823   1.591  0.2739 -0.0635  0.1145
 2284SOL    HW118488   1.123   2.745   1.642 -4.1382 -1.0718  0.3784
 2284SOL    HW218489   1.190   2.861   1.593  0.0570  0.5626 -2.1283
 2285SOL     OW18490   2.956   3.288   3.110 -0.0246 -0.0080 -0.5477
 2285SOL    HW118491   2.950   3.235   3.031  1.2818  0.3733 -0.9119
 2285SOL    HW218492   3.031   3.248   3.154 -0.2033 -0.5085 -0.6994
 2286SOL     OW18493   3.269   1.977  11.721 -0.5082  0.2449 -0.3391
 2286SOL    HW118494   3.208   1.930  11.664  2.0376 -2.4084 -0.8399
 2286SOL    HW218495   3.257   2.071  11.703  2.3486  0.5471 -0.7081
 2287SOL     OW18496   1.439   3.169   4.002  0.4118  0.0218  0.6929
 2287SOL    HW118497   1.498   3.183   4.075  1.3576  1.0366 -0.2621
 2287SOL    HW218498   1.466   3.240   3.945  0.0351  0.0970  0.6062
 2288SOL     OW18499   4.105   1.538   8.561  0.0566 -0.2725  0.0658
 2288SOL    HW118500   4.052   1.607   8.603  0.1800 -0.7110  0.9418
 2288SOL    HW218501   4.091   1.551   8.467 -1.9370  1.5217  0.6044
 2289SOL     OW18502   4.654   4.670  10.006 -0.7573 -0.2623 -0.7649
 2289SOL    HW118503   4.585   4.727  10.041 -0.1024 -0.4218  0.7532
 2289SOL    HW218504   4.631   4.581  10.030 -1.2760 -0.3193 -1.4529
 2290SOL     OW18505   4.661   2.067  13.851  0.5548 -0.3004  0.6247
 2290SOL    HW118506   4.675   2.128  13.779 -2.7234 -0.5513 -0.2377
 2290SOL    HW218507   4.730   2.098  13.909  1.3802 -1.9548  0.5233
 2291SOL     OW18508   1.491   1.030   7.878  0.4799  0.1034 -0.1012
 2291SOL    HW118509   1.395   1.026   7.887  0.6775  1.9776  2.7208
 2291SOL    HW218510   1.504   0.989   7.792 -0.2612  0.3669 -0.3424
 2292SOL     OW18511   3.486   1.129  12.550 -0.2956 -0.5422 -0.0905
 2292SOL    HW118512   3.432   1.069  12.602 -1.0604  0.7865  0.6501
 2292SOL    HW218513   3.565   1.081  12.526  0.2022  0.6968 -0.9301
 2293SOL     OW18514   3.436   3.340   2.308  0.2445 -0.1236  0.2205
 2293SOL    HW118515   3.437   3.276   2.379 -2.4601 -2.8272 -2.1908
 2293SOL    HW218516   3.507   3.398   2.336  0.4537  0.2996 -1.1768
 2294SOL     OW18517   4.554   3.207   4.041 -0.8097  0.1701 -0.6453
 2294SOL    HW118518   4.547   3.198   3.945 -3.2301 -0.3325 -0.4345
 2294SOL    HW218519   4.461   3.208   4.065 -0.5954 -1.1446  0.1980
 2295SOL     OW18520   2.358   1.647  13.147  0.4161 -0.2405 -0.4189
 2295SOL    HW118521   2.310   1.697  13.082  1.9013  2.2921  0.4102
 2295SOL    HW218522   2.319   1.560  13.138 -1.7699  0.9179 -2.1182
 2296SOL     OW18523   3.873   2.632   9.650  0.6366 -0.2740  0.5381
 2296SOL    HW118524   3.864   2.538   9.668 -0.4400 -0.1580  0.6034
 2296SOL    HW218525   3.910   2.679   9.725  2.5538 -1.8144  0.5767
 2297SOL     OW18526   0.198   3.385   3.458  0.4174  0.1290  0.2621
 2297SOL    HW118527   0.267   3.383   3.392 -0.4527  0.5859 -0.6721
 2297SOL    HW218528   0.237   3.340   3.532 -1.9985 -2.1730  0.1551
 2298SOL     OW18529   0.552   1.249   9.429  0.2641 -0.3290 -0.2367
 2298SOL    HW118530   0.616   1.218   9.494  0.5426 -0.2213 -0.4629
 2298SOL    HW218531   0.604   1.231   9.351 -1.0144 -1.1721 -0.8935
 2299SOL     OW18532   3.500   0.987   1.921 -0.1212  0.1142  0.7264
 2299SOL    HW118533   3.513   0.908   1.868  0.2992  1.6615 -1.4706
 2299SOL    HW218534   3.570   1.039   1.881  1.2255 -0.7622  1.9398
 2300SOL     OW18535   1.068   0.519   7.199 -0.0334  0.0787 -0.2945
 2300SOL    HW118536   1.086   0.613   7.195 -1.5226  0.5118  3.2898
 2300SOL    HW218537   0.993   0.519   7.139 -0.3304  0.1516  0.0774
 2301SOL     OW18538   1.508   2.199   0.067 -0.6008  0.5627 -0.0106
 2301SOL    HW118539   1.486   2.145   0.143  1.2992 -2.0836 -1.3356
 2301SOL    HW218540   1.603   2.197   0.059 -0.7458 -2.4956 -0.9913
 2302SOL     OW18541   3.894   0.825   4.807 -0.3990 -0.1366  0.5994
 2302SOL    HW118542   3.975   0.837   4.757  0.1974 -0.9578  1.3727
 2302SOL    HW218543   3.933   0.855   4.890 -0.7632  1.1829  0.2869
 2303SOL     OW18544   2.457   0.294   8.489  0.2879 -0.4135  0.2127
 2303SOL    HW118545   2.390   0.277   8.554 -0.9794  1.2487 -0.6699
 2303SOL    HW218546   2.404   0.260   8.417 -1.0309 -0.4673  1.2202
 2304SOL     OW18547   3.885   1.516  16.416  0.2780  0.0657 -0.8321
 2304SOL    HW118548   3.859   1.607  16.425 -2.3451 -0.9172  1.6965
 2304SOL    HW218549   3.803   1.473  16.442  1.3240 -1.0790  0.5812
 2305SOL     OW18550   1.852   4.397   8.283  0.2796  0.2433  0.3425
 2305SOL    HW118551   1.840   4.432   8.195  0.4214 -1.0127 -0.1767
 2305SOL    HW218552   1.804   4.467   8.327  3.3123  1.9195  0.9596
 2306SOL     OW18553   0.774   0.483   0.831 -0.1278 -0.4376 -0.1197
 2306SOL    HW118554   0.751   0.461   0.741  1.7234  1.7770 -1.1274
 2306SOL    HW218555   0.757   0.400   0.876  0.6814 -0.6074 -0.1424
 2307SOL     OW18556   1.151   2.364   1.959  0.5419 -0.3674  0.0467
 2307SOL    HW118557   1.129   2.280   1.998  0.3944 -0.2821  0.1456
 2307SOL    HW218558   1.238   2.348   1.921  0.2862 -1.7623  0.0752
 2308SOL     OW18559   3.704   4.638  12.069  0.0471  0.2403 -0.5397
 2308SOL    HW118560   3.732   4.623  11.979  0.5910  0.2535 -0.3703
 2308SOL    HW218561   3.790   4.624  12.109 -0.0752 -0.1059 -0.4012
 2309SOL     OW18562   3.211   2.896   7.530  0.2254  0.5111 -0.6358
 2309SOL    HW118563   3.181   2.843   7.604 -0.1944  1.6402  0.0037
 2309SOL    HW218564   3.132   2.941   7.500  0.9016  1.9224 -0.2638
 2310SOL     OW18565   3.236   0.420   7.675  0.1736 -0.3172  0.1814
 2310SOL    HW118566   3.210   0.499   7.723 -1.0458 -0.5429 -0.0997
 2310SOL    HW218567   3.317   0.395   7.720  0.6464  2.6240  0.9895
 2311SOL     OW18568   1.398   2.555   9.316 -0.6921  0.0293 -0.1055
 2311SOL    HW118569   1.364   2.532   9.402  0.7905  0.8347  0.6834
 2311SOL    HW218570   1.333   2.619   9.286  1.1135  2.2026  0.6501
 2312SOL     OW18571   2.508   2.765  16.124 -0.2694 -0.6684 -0.7979
 2312SOL    HW118572   2.419   2.734  16.141  0.8185 -4.6208 -2.2407
 2312SOL    HW218573   2.553   2.681  16.134 -1.0706 -0.9301  0.6930
 2313SOL     OW18574   1.464   3.281   3.108 -0.3743 -0.6598 -0.4544
 2313SOL    HW118575   1.397   3.245   3.166  0.1008  1.6771  1.5780
 2313SOL    HW218576   1.451   3.374   3.127  3.8384  0.3714 -2.6409
 2314SOL     OW18577   2.032   2.178   9.140 -0.6080 -0.0091 -0.4212
 2314SOL    HW118578   2.100   2.123   9.101 -0.5604  0.5823 -1.1733
 2314SOL    HW218579   2.086   2.224   9.204 -0.4980 -0.4998 -0.1587
 2315SOL     OW18580   4.121   4.226   9.281  0.0771  0.5475 -0.2682
 2315SOL    HW118581   4.102   4.186   9.196 -1.6635  0.9868 -0.1016
 2315SOL    HW218582   4.137   4.318   9.260 -0.3496  0.0488 -2.7069
 2316SOL     OW18583   4.545   4.564   2.951 -0.1951  0.1044  0.3684
 2316SOL    HW118584   4.560   4.480   2.994 -2.0988 -0.4340 -0.0478
 2316SOL    HW218585   4.580   4.552   2.863 -0.4991 -0.1443  0.2812
 2317SOL     OW18586   3.226   0.375   0.507 -0.3589  0.4079  0.2487
 2317SOL    HW118587   3.177   0.456   0.492 -1.5679 -0.2712  0.5612
 2317SOL    HW218588   3.293   0.386   0.440 -0.6482 -1.2126 -0.2935
 2318SOL     OW18589   0.653   0.327  13.168  0.3738 -0.1118 -0.1916
 2318SOL    HW118590   0.696   0.320  13.253 -0.6701  0.4353  0.3837
 2318SOL    HW218591   0.650   0.421  13.147 -0.7380 -0.4794 -1.6151
 2319SOL     OW18592   2.341   2.422   9.077  0.0363 -0.2679  0.2800
 2319SOL    HW118593   2.432   2.415   9.048  0.8765  0.9839  2.6029
 2319SOL    HW218594   2.310   2.490   9.017  1.8338 -0.2689 -0.6410
 2320SOL     OW18595   4.073   2.769   1.813  0.0515  0.3361  0.2777
 2320SOL    HW118596   3.993   2.781   1.866  0.8163  0.6099  1.3684
 2320SOL    HW218597   4.049   2.805   1.728 -1.4378  1.4311  1.1529
 2321SOL     OW18598   2.092   0.052   2.376  0.3119  0.0071 -0.1290
 2321SOL    HW118599   2.148   0.027   2.450 -0.0283 -4.5215 -1.3689
 2321SOL    HW218600   2.121   4.733   2.304  1.1069 -1.7343  1.5534
 2322SOL     OW18601   2.425   3.707   6.107 -0.4939 -0.4370 -0.2476
 2322SOL    HW118602   2.453   3.616   6.103  0.2083 -0.1509 -1.7186
 2322SOL    HW218603   2.330   3.693   6.109 -0.3864 -1.0451  0.4246
 2323SOL     OW18604   0.640   0.280   5.374 -0.5291  0.1139 -0.6878
 2323SOL    HW118605   0.592   0.218   5.429  1.0973 -1.2409 -0.8140
 2323SOL    HW218606   0.603   0.267   5.286 -0.1180 -3.1876 -0.3667
 2324SOL     OW18607   3.049   2.314   5.480  0.2750 -0.3528  0.2906
 2324SOL    HW118608   2.978   2.372   5.453  1.7629  0.4277 -1.8489
 2324SOL    HW218609   3.008   2.229   5.497  0.7082 -0.0656  2.8961
 2325SOL     OW18610   0.870   3.850  11.898  0.6550  0.0960  0.2770
 2325SOL    HW118611   0.958   3.866  11.932  1.2913 -2.2256 -0.2561
 2325SOL    HW218612   0.842   3.801  11.976 -0.6077 -0.4488 -0.5241
 2326SOL     OW18613   1.480   0.615   0.569 -0.6796 -0.6465 -0.4532
 2326SOL    HW118614   1.537   0.572   0.632 -0.6833 -0.4143 -0.2894
 2326SOL    HW218615   1.541   0.615   0.496  1.0528 -4.5218  0.9841
 2327SOL     OW18616   3.619   1.678  15.573 -1.0163 -0.5529 -0.2719
 2327SOL    HW118617   3.695   1.622  15.588  0.3872  0.8409 -2.1402
 2327SOL    HW218618   3.548   1.637  15.623  0.2133  0.8551  2.6149
 2328SOL     OW18619   1.669   2.350   5.996  0.5136  0.4853 -0.1677
 2328SOL    HW118620   1.649   2.327   5.906  1.7785 -1.5740  0.0670
 2328SOL    HW218621   1.613   2.428   6.001  1.6357  1.3413 -0.8953
 2329SOL     OW18622   4.111   3.031   2.041 -0.3888  0.2255 -0.1022
 2329SOL    HW118623   4.052   3.070   1.977 -2.0064 -1.0958  0.5901
 2329SOL    HW218624   4.183   3.093   2.039  0.1493 -0.3559  0.9811
 2330SOL     OW18625   3.800   4.668  11.431 -0.1574  0.7719  0.1648
 2330SOL    HW118626   3.813   4.685  11.338 -0.2256  1.4602  0.2791
 2330SOL    HW218627   3.873   4.718  11.467  0.3503  1.1017 -1.3493
 2331SOL     OW18628   3.127   2.262   0.076 -0.4221  0.5662 -0.9638
 2331SOL    HW118629   3.132   2.357   0.082  0.9009  0.4831 -0.6714
 2331SOL    HW218630   3.175   2.242   0.157 -0.5949  0.8627 -0.7893
 2332SOL     OW18631   0.281   0.161   3.628 -0.3993 -0.2183 -0.4886
 2332SOL    HW118632   0.285   0.228   3.697 -1.0804 -0.6679 -0.0148
 2332SOL    HW218633   0.348   0.189   3.565 -1.3183  1.3441 -0.7618
 2333SOL     OW18634   3.338   2.341   7.760  0.1820 -0.1460 -0.6094
 2333SOL    HW118635   3.304   2.416   7.711  0.5580  1.6313  1.8879
 2333SOL    HW218636   3.430   2.366   7.755  0.0931  0.3678  0.4536
 2334SOL     OW18637   0.504   1.906   4.871 -0.5210 -0.3563 -0.1360
 2334SOL    HW118638   0.437   1.972   4.889 -0.2873  0.1829 -1.2312
 2334SOL    HW218639   0.505   1.891   4.776  0.6517 -0.1507 -0.1475
 2335SOL     OW18640   3.639   2.492   8.471 -0.5413 -0.0627 -0.2810
 2335SOL    HW118641   3.702   2.563   8.482 -2.1475  1.0068  2.0993
 2335SOL    HW218642   3.634   2.493   8.375  0.7710 -0.3606 -0.3493
 2336SOL     OW18643   3.551   3.638  14.391 -0.7626  0.3597 -0.0687
 2336SOL    HW118644   3.566   3.664  14.300  2.7958  2.6357  1.1772
 2336SOL    HW218645   3.460   3.666  14.400 -0.6538  1.0616 -1.1197
 2337SOL     OW18646   0.308   2.792  12.231  0.1544  0.2031 -0.1277
 2337SOL    HW118647   0.324   2.738  12.308 -0.6876  1.0325  0.6389
 2337SOL    HW218648   0.242   2.851  12.268 -1.0004 -1.5603  0.6024
 2338SOL     OW18649   0.909   2.444   7.742  0.6444 -0.3821 -0.0846
 2338SOL    HW118650   1.001   2.443   7.713  0.1202 -2.3899 -1.6881
 2338SOL    HW218651   0.868   2.368   7.700  0.8257 -0.7675  0.4309
 2339SOL     OW18652   0.557   1.721  10.951  0.3594 -0.0228  0.2619
 2339SOL    HW118653   0.648   1.743  10.929 -0.0837  2.4298  0.8551
 2339SOL    HW218654   0.514   1.775  10.884 -0.9354 -3.1404 -1.4292
 2340SOL     OW18655   2.412   1.267  17.097  0.1368 -0.1623 -0.8023
 2340SOL    HW118656   2.368   1.184  17.084 -0.4853 -0.0597  0.6551
 2340SOL    HW218657   2.378   1.284  17.185  2.7992  0.0303  0.2055
 2341SOL     OW18658   0.761   0.557   6.765 -0.3623  0.3421 -0.0942
 2341SOL    HW118659   0.783   0.650   6.759 -0.7527  0.4701  0.5442
 2341SOL    HW218660   0.812   0.534   6.843  0.3436  1.6563 -0.1558
 2342SOL     OW18661   0.760   0.993   8.879  0.1422 -0.0648  0.2438
 2342SOL    HW118662   0.727   1.063   8.823 -2.2651 -1.0701  0.3801
 2342SOL    HW218663   0.851   1.001   8.852  0.2827 -1.0550  0.4142
 2343SOL     OW18664   2.780   4.463  10.510  0.0259 -0.0373  0.6351
 2343SOL    HW118665   2.768   4.368  10.516  1.7620 -0.4801 -2.8175
 2343SOL    HW218666   2.734   4.475  10.427 -0.0229 -2.4265  0.3167
 2344SOL     OW18667   4.402   1.175   9.930  0.2786  0.4424 -0.2860
 2344SOL    HW118668   4.479   1.211   9.885  2.0056 -0.3702  2.0142
 2344SOL    HW218669   4.437   1.089   9.951 -1.2866 -0.3874 -1.1332
 2345SOL     OW18670   3.572   0.738   4.658 -0.3038  0.0899 -0.3660
 2345SOL    HW118671   3.477   0.731   4.643 -0.2335  0.2969 -0.8975
 2345SOL    HW218672   3.588   0.649   4.687  0.2114  0.3198  0.0514
 2346SOL     OW18673   3.020   1.422   6.934  0.0730 -0.5905  0.0670
 2346SOL    HW118674   2.987   1.351   6.991 -0.4578 -0.0971  0.3760
 2346SOL    HW218675   2.947   1.482   6.947 -0.0242 -0.9361  1.1728
 2347SOL     OW18676   3.812   3.778   5.528 -0.2109 -0.4359 -0.0301
 2347SOL    HW118677   3.902   3.781   5.561  0.1235 -1.8646 -0.8394
 2347SOL    HW218678   3.798   3.684   5.518  1.7642 -1.0031  2.4420
 2348SOL     OW18679   4.554   4.516   8.073 -0.5454 -0.4830 -0.2402
 2348SOL    HW118680   4.573   4.584   8.137 -0.9319  1.1020 -1.7918
 2348SOL    HW218681   4.629   4.459   8.087  0.2260  0.8226  0.9405
 2349SOL     OW18682   2.149   1.432   3.019 -0.0828 -0.2839 -0.3880
 2349SOL    HW118683   2.058   1.451   2.997 -0.2441  1.9707  2.1119
 2349SOL    HW218684   2.187   1.405   2.936  3.4706 -0.6733  1.3537
 2350SOL     OW18685   0.977   1.372  12.080  0.0701  0.2461 -0.1756
 2350SOL    HW118686   0.883   1.368  12.065  0.2111  0.7022 -1.1681
 2350SOL    HW218687   0.984   1.365  12.175  0.1957  3.0790  0.0292
 2351SOL     OW18688   0.098   0.813   7.880  0.3531 -0.3199  0.1377
 2351SOL    HW118689   0.186   0.778   7.866  0.2705  0.2600 -1.8497
 2351SOL    HW218690   0.070   0.746   7.943  3.1033 -0.6094  1.0305
 2352SOL     OW18691   4.592   1.711   2.191  0.0467 -0.0286 -0.6037
 2352SOL    HW118692   4.672   1.671   2.157 -0.3830 -1.8226  0.4989
 2352SOL    HW218693   4.558   1.637   2.241 -0.8435  0.0286 -1.1160
 2353SOL     OW18694   2.945   3.474   8.380  0.2929 -0.3333 -0.0969
 2353SOL    HW118695   2.869   3.531   8.368 -0.3319 -0.9581  0.9064
 2353SOL    HW218696   2.941   3.427   8.297 -2.2605  0.7954 -0.6249
 2354SOL     OW18697   1.996   2.458   1.701  0.1675  0.0458  0.2994
 2354SOL    HW118698   2.059   2.387   1.684  0.4344  0.3240  0.1229
 2354SOL    HW218699   2.009   2.470   1.795 -0.6416 -2.2614  0.7232
 2355SOL     OW18700   2.061   3.326  13.503 -0.3311 -0.2132 -0.8950
 2355SOL    HW118701   1.976   3.370  13.513 -0.0945 -0.2425  1.3424
 2355SOL    HW218702   2.038   3.234  13.502 -1.9715  0.1961 -0.6705
 2356SOL     OW18703   3.193   4.407   5.509  0.3628  0.4125 -0.5545
 2356SOL    HW118704   3.148   4.479   5.465  1.1695  1.5766  0.5319
 2356SOL    HW218705   3.247   4.389   5.433 -0.2018 -1.1310 -0.5872
 2357SOL     OW18706   4.586   0.873   8.114  0.0961  0.0192 -0.4929
 2357SOL    HW118707   4.627   0.959   8.111 -0.3847  0.2315 -0.9284
 2357SOL    HW218708   4.622   0.833   8.194 -1.7926 -1.7098 -0.4801
 2358SOL     OW18709   0.633   3.014  16.874 -0.4086 -0.4673  0.4404
 2358SOL    HW118710   0.552   3.062  16.887  0.9992  1.5269  1.9445
 2358SOL    HW218711   0.688   3.076  16.923 -0.1966  0.5726 -1.1138
 2359SOL     OW18712   1.516   0.477  14.417  0.0172  0.0008  0.5429
 2359SOL    HW118713   1.594   0.532  14.424 -0.6481  1.5327 -4.1435
 2359SOL    HW218714   1.527   0.449  14.326 -0.7380 -0.0453  0.4694
 2360SOL     OW18715   4.332   3.483   5.485 -0.4135 -0.0498 -0.1642
 2360SOL    HW118716   4.285   3.553   5.531  1.2018  1.3167 -0.6264
 2360SOL    HW218717   4.342   3.425   5.561  0.3585 -1.2223 -1.1598
 2361SOL     OW18718   4.107   3.636   5.411  0.6378 -0.8467  0.0089
 2361SOL    HW118719   4.035   3.577   5.386  0.3630 -0.6929  0.4361
 2361SOL    HW218720   4.170   3.583   5.363  1.0602  1.0180 -1.5125
 2362SOL     OW18721   2.436   1.330  13.750  0.2611 -0.6780  0.0588
 2362SOL    HW118722   2.496   1.283  13.693 -0.8456 -1.2829 -0.6029
 2362SOL    HW218723   2.354   1.293  13.718 -0.2352  0.6094 -0.1460
 2363SOL     OW18724   2.077   1.548  14.782  0.1744  0.2248 -0.4748
 2363SOL    HW118725   2.124   1.465  14.778  1.1692  0.7420  0.7453
 2363SOL    HW218726   2.056   1.575  14.692 -3.7454 -0.3491  0.2464
 2364SOL     OW18727   3.358   1.598   9.710  0.1201  0.0235 -0.1746
 2364SOL    HW118728   3.340   1.509   9.679 -0.1582  0.1305 -0.3193
 2364SOL    HW218729   3.272   1.637   9.697 -0.3103 -0.3035  1.7332
 2365SOL     OW18730   2.721   3.681   9.466 -0.0077 -0.1843 -0.7645
 2365SOL    HW118731   2.658   3.662   9.535  0.9887 -1.1609 -0.1198
 2365SOL    HW218732   2.784   3.610   9.476  1.0604  1.0886  1.5634
 2366SOL     OW18733   1.667   4.332  14.558  0.0941  0.3222 -0.1892
 2366SOL    HW118734   1.698   4.406  14.506  2.1004 -0.3500  0.0794
 2366SOL    HW218735   1.730   4.265  14.531 -0.3429 -0.7577  1.4853
 2367SOL     OW18736   1.493   2.765   5.648 -0.0663  0.6596 -0.2302
 2367SOL    HW118737   1.588   2.772   5.645 -0.0215  0.6352  1.1228
 2367SOL    HW218738   1.482   2.714   5.567  0.9806  1.9285 -1.1627
 2368SOL     OW18739   1.910   4.697   6.866 -0.7649 -0.4711 -0.5866
 2368SOL    HW118740   1.873   0.010   6.794  3.1030 -0.5995 -2.6650
 2368SOL    HW218741   1.880   4.609   6.846 -0.3173 -1.0346  1.1842
 2369SOL     OW18742   3.857   2.087   4.199  0.3282 -0.1409 -0.1074
 2369SOL    HW118743   3.794   2.136   4.252  1.6876  0.0296  1.3568
 2369SOL    HW218744   3.866   2.009   4.255 -2.4715 -1.9130 -2.1407
 2370SOL     OW18745   4.207   1.298   8.087 -0.2706  0.3251 -0.5839
 2370SOL    HW118746   4.143   1.233   8.058 -0.8510  2.1174 -3.2668
 2370SOL    HW218747   4.265   1.237   8.134  0.4015  1.3633 -0.0694
 2371SOL     OW18748   2.943   0.539   9.144 -1.1053  0.2073 -0.7866
 2371SOL    HW118749   2.876   0.530   9.076  0.1392 -2.2459 -1.7323
 2371SOL    HW218750   2.933   0.455   9.189  2.3895 -0.2602 -0.8329
 2372SOL     OW18751   4.519   2.790  14.692 -0.7524  0.3699  0.4880
 2372SOL    HW118752   4.479   2.738  14.622  0.1289 -2.8434  2.3533
 2372SOL    HW218753   4.576   2.724  14.732 -1.2117 -0.8546 -0.8751
 2373SOL     OW18754   2.438   2.120   4.662  0.4179  0.1373  0.1698
 2373SOL    HW118755   2.438   2.164   4.747  0.6796  1.5690 -0.5705
 2373SOL    HW218756   2.381   2.044   4.673  1.3721 -0.4548  1.0225
 2374SOL     OW18757   3.025   0.267   9.894  0.0436  0.0329  0.0613
 2374SOL    HW118758   3.108   0.295   9.858  1.4267 -2.0251  1.6310
 2374SOL    HW218759   2.967   0.325   9.845 -2.7524 -1.9207  1.0029
 2375SOL     OW18760   2.322   2.846   3.190 -0.0995  0.1550 -0.4796
 2375SOL    HW118761   2.272   2.916   3.233 -0.1298  0.2583 -0.6833
 2375SOL    HW218762   2.354   2.888   3.110  0.5649  0.4537 -0.0583
 2376SOL     OW18763   3.878   0.083   7.332 -0.2061 -0.2500 -0.1178
 2376SOL    HW118764   3.905   4.731   7.356  1.9557  0.6119  0.6520
 2376SOL    HW218765   3.903   0.084   7.240  1.8219 -2.3928  0.4103
 2377SOL     OW18766   1.861   3.855   0.970  0.4716 -0.5448 -0.0386
 2377SOL    HW118767   1.873   3.791   1.040  0.2938 -0.4267  0.1007
 2377SOL    HW218768   1.894   3.808   0.893 -0.4746  1.0625 -1.4161
 2378SOL     OW18769   2.248   3.243   6.593 -1.0708  0.2070 -0.1670
 2378SOL    HW118770   2.222   3.276   6.507  0.3705  0.0317 -0.6803
 2378SOL    HW218771   2.287   3.158   6.570 -0.6343  0.2203  0.5183
 2379SOL     OW18772   0.187   3.529   7.564 -0.2258  0.4204  0.2413
 2379SOL    HW118773   0.188   3.434   7.564 -0.6908  0.4149 -2.4487
 2379SOL    HW218774   0.096   3.551   7.587 -0.5157 -1.4356  0.8164
 2380SOL     OW18775   1.517   3.574   4.909 -0.6254  0.1489  0.0030
 2380SOL    HW118776   1.573   3.561   4.833  0.9986 -0.9119  1.3700
 2380SOL    HW218777   1.439   3.521   4.892 -0.0461  0.2868 -3.0980
 2381SOL     OW18778   3.064   0.519  13.150 -0.2900 -0.2121  0.9287
 2381SOL    HW118779   3.157   0.502  13.138 -0.4425  0.4714 -1.3672
 2381SOL    HW218780   3.065   0.571  13.230  1.8139 -2.2612  2.2293
 2382SOL     OW18781   2.954   4.209   3.183  0.3770  0.4254  0.7750
 2382SOL    HW118782   2.949   4.226   3.277 -1.5726 -1.7721  1.0590
 2382SOL    HW218783   2.880   4.151   3.167 -0.4242  1.4913  0.6318
 2383SOL     OW18784   3.951   0.924   8.484 -0.6781  0.4158 -0.3684
 2383SOL    HW118785   3.971   1.017   8.474  0.3369  0.5642  3.1085
 2383SOL    HW218786   3.916   0.914   8.572  1.7783 -0.8170  0.4874
 2384SOL     OW18787   3.088   4.308   2.980 -0.0319  0.2341  0.3048
 2384SOL    HW118788   3.045   4.284   3.062 -0.0855 -1.7087 -0.2884
 2384SOL    HW218789   3.092   4.398   3.012 -0.2455  0.8027 -1.2569
 2385SOL     OW18790   3.748   0.869   6.177 -0.5660  0.2234 -0.1533
 2385SOL    HW118791   3.743   0.926   6.099  1.8798 -0.2944 -0.6808
 2385SOL    HW218792   3.826   0.903   6.219 -0.3624 -1.4132  0.7557
 2386SOL     OW18793   0.752   4.641  11.309 -0.4809 -0.1305 -0.5680
 2386SOL    HW118794   0.742   4.693  11.389 -1.9327 -0.9650 -0.1928
 2386SOL    HW218795   0.663   4.609  11.294 -0.3688  0.2850 -2.1098
 2387SOL     OW18796   0.945   1.830   3.084  0.7473 -0.4689  0.0044
 2387SOL    HW118797   0.949   1.846   3.179  1.3087  0.3579 -0.1623
 2387SOL    HW218798   0.974   1.913   3.047  2.0383 -1.1549 -0.5010
 2388SOL     OW18799   2.681   3.029   4.190 -0.0062  0.3589 -0.1228
 2388SOL    HW118800   2.634   3.047   4.272  0.8648  1.6759  0.0871
 2388SOL    HW218801   2.627   3.070   4.122  0.5777  1.0182 -0.1804
 2389SOL     OW18802   3.055   2.178   6.534 -0.6754 -0.7164  0.3109
 2389SOL    HW118803   2.981   2.190   6.474 -1.7629  3.1069  2.4327
 2389SOL    HW218804   3.091   2.092   6.513 -0.1608 -0.2531 -0.7282
 2390SOL     OW18805   0.301   0.645   3.712  0.4505  0.0958 -0.1525
 2390SOL    HW118806   0.230   0.595   3.752 -0.9286  1.6664 -0.6815
 2390SOL    HW218807   0.303   0.720   3.771 -1.2817  1.5018 -1.8925
 2391SOL     OW18808   3.571   1.215   8.500 -0.1568  0.2502 -0.1073
 2391SOL    HW118809   3.660   1.218   8.535 -0.0267 -2.4482 -0.2423
 2391SOL    HW218810   3.514   1.244   8.572  0.3579  0.0763  0.3737
 2392SOL     OW18811   4.265   1.408  11.967  0.1029 -0.0091  0.5319
 2392SOL    HW118812   4.344   1.456  11.992  0.6081 -0.2603 -0.6112
 2392SOL    HW218813   4.204   1.482  11.976  0.4520  0.3214  0.1575
 2393SOL     OW18814   4.526   1.194   7.261 -0.3048  0.3983  0.6601
 2393SOL    HW118815   4.548   1.167   7.350  0.8960 -3.1597 -0.7324
 2393SOL    HW218816   4.432   1.179   7.256 -0.0003 -0.9584 -1.0697
 2394SOL     OW18817   2.046   2.056   8.151  0.2515 -0.4418 -0.3176
 2394SOL    HW118818   2.042   1.963   8.131  2.9906  0.0487 -2.9970
 2394SOL    HW218819   2.133   2.065   8.189 -0.7566  0.0363  1.8671
 2395SOL     OW18820   2.781   4.648   6.831 -0.1739  0.1658 -0.1069
 2395SOL    HW118821   2.718   4.599   6.885 -2.1429  0.2874 -2.2906
 2395SOL    HW218822   2.792   4.727   6.884  1.9697  0.6479 -1.2781
 2396SOL     OW18823   1.731   3.780  16.164 -0.2598  0.5613 -0.0315
 2396SOL    HW118824   1.823   3.762  16.143 -0.1994  1.1173 -0.2456
 2396SOL    HW218825   1.683   3.733  16.096 -1.2997  0.1310  1.0085
 2397SOL     OW18826   1.046   4.102   5.589 -0.1338  0.1215 -0.3143
 2397SOL    HW118827   1.043   4.163   5.516 -0.0128 -1.3750 -1.5744
 2397SOL    HW218828   1.124   4.049   5.575  0.4815  1.5631 -2.4052
 2398SOL     OW18829   4.135   4.204   7.307 -0.1069  0.4240  0.6508
 2398SOL    HW118830   4.062   4.185   7.366 -0.7305 -0.4630 -0.4135
 2398SOL    HW218831   4.147   4.125   7.255 -1.8365  0.1009  0.7557
 2399SOL     OW18832   1.582   3.223   8.282 -0.2715  0.1397 -0.1679
 2399SOL    HW118833   1.663   3.174   8.292 -0.4814 -0.1408  0.1572
 2399SOL    HW218834   1.616   3.310   8.303 -0.6523  0.5116 -1.0898
 2400SOL     OW18835   2.244   3.890   2.075  0.3750  0.4768  0.4555
 2400SOL    HW118836   2.247   3.985   2.076 -2.0321  0.5308  0.7256
 2400SOL    HW218837   2.222   3.863   2.165  2.2284  0.4507  0.9000
 2401SOL     OW18838   1.196   3.906  14.940  0.4092 -0.0451  0.1164
 2401SOL    HW118839   1.221   3.920  14.849  3.4662 -0.6289  0.8641
 2401SOL    HW218840   1.232   3.820  14.961 -1.3239 -0.6478  0.6706
 2402SOL     OW18841   3.998   4.623   0.689  0.0560 -0.8871  0.4319
 2402SOL    HW118842   3.957   4.647   0.772 -0.1401  0.3959 -0.0353
 2402SOL    HW218843   4.051   4.703   0.680 -0.4394 -0.8470 -2.1453
 2403SOL     OW18844   2.504   3.876   0.274 -0.0041 -0.3420  0.0979
 2403SOL    HW118845   2.551   3.931   0.337  0.7203  0.4593 -1.1355
 2403SOL    HW218846   2.427   3.845   0.322 -0.5058 -0.5819 -0.8765
 2404SOL     OW18847   3.141   2.169   8.544 -0.1994 -0.4318  0.6858
 2404SOL    HW118848   3.082   2.102   8.578 -0.3429 -0.1117  1.0581
 2404SOL    HW218849   3.185   2.187   8.627 -3.8732 -1.1380  2.8033
 2405SOL     OW18850   4.156   2.479   1.873 -0.1970  0.1619  0.4866
 2405SOL    HW118851   4.226   2.492   1.938  1.1105 -1.1852 -0.6388
 2405SOL    HW218852   4.087   2.541   1.895  0.3728  0.5574  1.1533
 2406SOL     OW18853   3.131   4.517  12.019 -0.1316 -0.4247  0.1877
 2406SOL    HW118854   3.150   4.570  12.096  0.3524 -0.2846 -0.0245
 2406SOL    HW218855   3.166   4.580  11.955 -1.1423 -1.1750 -1.1158
 2407SOL     OW18856   1.920   3.246   2.362 -0.2276  0.0441 -0.3110
 2407SOL    HW118857   1.871   3.240   2.444 -1.3041 -3.1642 -1.1721
 2407SOL    HW218858   1.858   3.297   2.310 -0.6064  0.5001  0.5961
 2408SOL     OW18859   4.465   1.931   2.058  0.1186  0.0761  0.0121
 2408SOL    HW118860   4.511   1.851   2.083 -0.7762 -0.3776  0.2158
 2408SOL    HW218861   4.528   2.000   2.038  0.7280 -0.8422 -1.2412
 2409SOL     OW18862   0.267   2.221   4.520 -0.4452  0.3247 -0.0020
 2409SOL    HW118863   0.243   2.139   4.476  0.0578 -0.0689  0.4507
 2409SOL    HW218864   0.178   2.249   4.539 -1.0612 -3.5082  2.7467
 2410SOL     OW18865   2.862   3.016   9.360  0.0235 -0.2451 -0.0487
 2410SOL    HW118866   2.900   2.951   9.419  0.2602  0.2393  0.3372
 2410SOL    HW218867   2.907   3.093   9.396 -2.0933  2.3222 -2.8433
 2411SOL     OW18868   3.140   4.630   2.768 -0.4616 -0.7623  0.2847
 2411SOL    HW118869   3.230   4.599   2.779 -0.3325 -1.0666 -1.5803
 2411SOL    HW218870   3.144   4.647   2.673 -1.5238  0.1454  0.4043
 2412SOL     OW18871   3.785   2.591   6.826 -0.2832 -0.6393  0.2721
 2412SOL    HW118872   3.717   2.650   6.860 -1.5318 -0.6933 -2.1065
 2412SOL    HW218873   3.864   2.614   6.874 -0.4633 -1.2794  0.8747
 2413SOL     OW18874   3.006   1.695   1.018  0.4133 -0.1711  0.0690
 2413SOL    HW118875   3.063   1.618   1.013 -0.1719 -0.4219 -2.4165
 2413SOL    HW218876   2.983   1.706   0.926 -2.2944  1.7464  0.9905
 2414SOL     OW18877   4.155   3.132   9.982  0.2868  0.0844  0.3377
 2414SOL    HW118878   4.136   3.169   9.896 -0.1763 -0.2277  0.3020
 2414SOL    HW218879   4.065   3.120  10.013  0.4802  0.3424  0.9974
 2415SOL     OW18880   1.276   3.654  13.832 -0.4823  0.3500 -0.2067
 2415SOL    HW118881   1.339   3.635  13.763 -2.9665 -0.3769 -2.2395
 2415SOL    HW218882   1.204   3.664  13.770 -0.4110 -0.5213 -0.4194
 2416SOL     OW18883   2.615   2.350   6.227 -0.5039  0.1857 -0.7444
 2416SOL    HW118884   2.528   2.386   6.212 -0.3357  1.4303  1.2098
 2416SOL    HW218885   2.623   2.265   6.184  0.9383 -0.5076  0.8629
 2417SOL     OW18886   2.332   0.152   8.696 -0.4310  0.0448  0.2517
 2417SOL    HW118887   2.377   0.134   8.779 -1.0073 -0.6881  0.4088
 2417SOL    HW218888   2.244   0.128   8.725 -0.2347 -1.5587 -0.5061
 2418SOL     OW18889   1.683   4.083  16.977  0.3830  0.0358  0.0549
 2418SOL    HW118890   1.603   4.123  17.012 -2.1887 -3.4305 -1.8101
 2418SOL    HW218891   1.725   4.073  17.062  1.1193 -0.1967 -0.3397
 2419SOL     OW18892   0.326   1.940   5.187 -0.0163  0.3511  0.2201
 2419SOL    HW118893   0.238   1.923   5.220 -0.5870 -0.1534 -1.5586
 2419SOL    HW218894   0.327   2.035   5.194  0.7461  0.3703 -0.1401
 2420SOL     OW18895   4.490   3.227   5.155 -0.2756  0.6156 -0.3494
 2420SOL    HW118896   4.528   3.139   5.157  0.5005  0.9626  0.1767
 2420SOL    HW218897   4.551   3.266   5.217 -0.5857  1.5783 -0.6504
 2421SOL     OW18898   0.931   3.238   8.717 -0.4128 -0.2522  0.1358
 2421SOL    HW118899   0.837   3.239   8.735 -1.0806  1.2187 -3.4513
 2421SOL    HW218900   0.932   3.325   8.677 -0.8867  0.0659  0.8083
 2422SOL     OW18901   2.194   1.897   3.046 -0.3967 -0.7468 -0.2061
 2422SOL    HW118902   2.240   1.818   3.073 -2.6066 -1.9680 -0.0597
 2422SOL    HW218903   2.257   1.959   3.083 -1.1437  0.0411 -0.2558
 2423SOL     OW18904   0.441   2.891   8.177 -0.0051  0.6891 -0.7454
 2423SOL    HW118905   0.426   2.935   8.260 -0.6859 -1.3520  0.2312
 2423SOL    HW218906   0.467   2.800   8.193  1.3248  1.4323  1.2180
 2424SOL     OW18907   4.692   1.124  10.208  0.5917 -0.5455  0.1596
 2424SOL    HW118908   4.706   1.218  10.208 -2.1153 -0.1426 -0.0336
 2424SOL    HW218909   0.041   1.088  10.227  1.4307  1.9190  0.9414
 2425SOL     OW18910   1.546   3.985   5.924 -0.0520  0.6804 -0.1808
 2425SOL    HW118911   1.547   4.080   5.916 -2.3047  0.6540 -0.7616
 2425SOL    HW218912   1.638   3.960   5.915  1.0423  4.4676  0.3722
 2426SOL     OW18913   0.741   3.810   4.256 -0.1088 -0.4739 -0.3521
 2426SOL    HW118914   0.648   3.798   4.240 -0.1990 -0.4876  0.1816
 2426SOL    HW218915   0.745   3.881   4.321  1.2389  1.2616 -2.3606
 2427SOL     OW18916   2.492   0.322   0.439  0.4132 -0.5037 -0.3454
 2427SOL    HW118917   2.532   0.395   0.390  3.3607 -2.0411 -0.2008
 2427SOL    HW218918   2.533   0.245   0.399  2.4812  0.7004 -0.5409
 2428SOL     OW18919   0.906   2.239   4.589  0.1747  0.3386  0.5192
 2428SOL    HW118920   0.816   2.249   4.558  0.0070  0.5732  1.0849
 2428SOL    HW218921   0.898   2.169   4.653  0.3455 -0.2879 -0.1382
 2429SOL     OW18922   3.992   3.785  13.364  0.2478 -0.0054  0.8076
 2429SOL    HW118923   3.905   3.795  13.324  0.1692 -3.3354  0.0955
 2429SOL    HW218924   4.034   3.714  13.315 -0.6654 -0.0987  0.1624
 2430SOL     OW18925   1.005   2.763  14.795 -0.2958  0.1845 -0.2594
 2430SOL    HW118926   0.977   2.672  14.781 -2.1610  0.8148 -0.6789
 2430SOL    HW218927   0.971   2.799  14.713 -0.0160 -0.1185 -0.5081
 2431SOL     OW18928   2.312   3.412   2.648 -0.1345 -0.2571 -0.0098
 2431SOL    HW118929   2.232   3.413   2.596 -2.2902  0.2800  3.2963
 2431SOL    HW218930   2.314   3.505   2.673  2.0826 -1.1471  3.1017
 2432SOL     OW18931   0.748   1.192   9.231  0.2315  0.2585 -0.4348
 2432SOL    HW118932   0.840   1.185   9.203  0.6041  1.2118  0.5441
 2432SOL    HW218933   0.719   1.101   9.240  0.0874  0.2992 -0.4947
 2433SOL     OW18934   4.330   3.990   3.064  0.3928  0.3485 -0.1134
 2433SOL    HW118935   4.281   3.931   3.121 -1.0322 -0.4631 -2.1667
 2433SOL    HW218936   4.412   3.998   3.113  0.6913 -0.1509 -0.5196
 2434SOL     OW18937   2.024   2.892   6.524  0.1733 -0.6263 -0.4219
 2434SOL    HW118938   2.032   2.817   6.582  0.0618  1.8697  2.8006
 2434SOL    HW218939   1.998   2.965   6.581 -1.3578 -0.9506 -0.7088
 2435SOL     OW18940   3.153   0.396   1.719 -0.3678 -0.2981 -0.4821
 2435SOL    HW118941   3.178   0.337   1.791  1.8112  0.2584 -0.7829
 2435SOL    HW218942   3.081   0.442   1.762 -0.3394 -0.1184 -0.6288
 2436SOL     OW18943   1.756   3.202  10.622  0.0116 -0.5295  0.2151
 2436SOL    HW118944   1.760   3.243  10.536  0.0139  0.3419  0.6309
 2436SOL    HW218945   1.850   3.200  10.642  0.3523  2.4350 -1.0804
 2437SOL     OW18946   0.673   3.773   7.142 -0.0701  0.2731  0.4054
 2437SOL    HW118947   0.754   3.723   7.139  0.1489  0.6975 -0.8028
 2437SOL    HW218948   0.606   3.714   7.107 -0.4803  0.8553  0.2034
 2438SOL     OW18949   4.687   2.081  12.781  0.0061 -0.5088  0.2936
 2438SOL    HW118950   4.709   2.050  12.693 -1.8642  0.2933 -0.4714
 2438SOL    HW218951   4.734   2.033  12.849  2.4137  1.1330 -0.1855
 2439SOL     OW18952   4.578   2.028  12.294  0.1178 -0.4451  0.1035
 2439SOL    HW118953   4.625   2.056  12.372  0.5000 -1.1085  0.1148
 2439SOL    HW218954   4.541   1.943  12.318 -1.1705 -0.3016 -1.2953
 2440SOL     OW18955   3.930   1.696   7.398 -0.0960 -0.0912  0.3593
 2440SOL    HW118956   3.858   1.758   7.384 -0.6312 -0.4013  1.7601
 2440SOL    HW218957   4.011   1.747   7.397  0.9012 -1.6155  4.2148
 2441SOL     OW18958   1.375   0.627   7.363 -0.3102 -0.6846 -0.4680
 2441SOL    HW118959   1.336   0.544   7.392 -1.2634  0.1198  0.5442
 2441SOL    HW218960   1.336   0.690   7.423  0.5001  0.4326 -1.1048
 2442SOL     OW18961   3.659   2.227   1.213 -0.2669  0.2124  0.6549
 2442SOL    HW118962   3.691   2.137   1.204  0.8428  0.7503 -0.7400
 2442SOL    HW218963   3.565   2.218   1.199 -0.2320  0.1021  0.4956
 2443SOL     OW18964   3.641   3.644   7.405 -0.1415  0.3582 -0.1266
 2443SOL    HW118965   3.551   3.677   7.412 -1.6414 -4.1931  2.3157
 2443SOL    HW218966   3.643   3.576   7.473  1.3478 -1.4256 -1.9645
 2444SOL     OW18967   0.800   3.967   7.001  0.3985 -0.3868 -0.0772
 2444SOL    HW118968   0.744   3.898   7.035 -1.7856  1.4610  0.0502
 2444SOL    HW218969   0.880   3.950   7.050 -0.5921 -0.9741  1.3315
 2445SOL     OW18970   1.252   1.482  15.005 -0.1023  0.0830  0.0158
 2445SOL    HW118971   1.162   1.491  14.972 -0.7444 -2.2582  1.1029
 2445SOL    HW218972   1.267   1.388  15.010  1.3676  0.2986 -0.3560
 2446SOL     OW18973   2.093   3.934   9.614  0.0888 -0.2560 -0.6426
 2446SOL    HW118974   2.182   3.970   9.616  1.2492 -3.0617 -2.2584
 2446SOL    HW218975   2.080   3.957   9.523 -2.1387  2.9799  0.5093
 2447SOL     OW18976   2.738   4.148   6.786 -0.0968  0.8850  0.2971
 2447SOL    HW118977   2.828   4.180   6.790 -0.4220  1.6276  1.8458
 2447SOL    HW218978   2.752   4.099   6.705  1.9100  1.2865  0.3996
 2448SOL     OW18979   1.152   0.094  17.457  0.1568 -0.0030  0.7217
 2448SOL    HW118980   1.193   0.180  17.452  1.1264 -0.6066 -1.4902
 2448SOL    HW218981   1.060   0.119  17.463  0.4965  1.8554 -2.0097
 2449SOL     OW18982   1.873   1.366   8.335  0.1848 -0.1711 -0.9706
 2449SOL    HW118983   1.892   1.435   8.399  0.7569 -0.5172 -0.7680
 2449SOL    HW218984   1.886   1.414   8.252  0.6031  0.0421 -0.7841
 2450SOL     OW18985   1.074   0.794  15.134 -0.3252 -0.1920  0.4957
 2450SOL    HW118986   1.036   0.801  15.046  1.4106 -0.9212 -0.3100
 2450SOL    HW218987   1.127   0.716  15.118 -1.5825 -0.8640 -0.4677
 2451SOL     OW18988   0.378   1.621  16.871  0.1860  0.3808 -0.1353
 2451SOL    HW118989   0.350   1.710  16.894  1.2576 -0.2551  3.5574
 2451SOL    HW218990   0.473   1.626  16.876  0.1936  0.3492 -0.2472
 2452SOL     OW18991   0.476   0.138   3.997 -0.1618  0.0826 -0.2799
 2452SOL    HW118992   0.461   0.097   3.912 -3.6617  1.2489 -0.2390
 2452SOL    HW218993   0.476   0.063   4.056  0.6975  0.1923 -0.1390
 2453SOL     OW18994   0.136   2.081   6.635  0.0020 -0.1670 -0.2731
 2453SOL    HW118995   0.229   2.063   6.650 -0.3036  1.1033  3.0478
 2453SOL    HW218996   0.147   2.093   6.541 -1.5452  1.0756 -0.2980
 2454SOL     OW18997   4.107   2.881   5.350 -0.9753 -0.2771  0.6105
 2454SOL    HW118998   4.086   2.947   5.283  1.2251  0.9206  1.1031
 2454SOL    HW218999   4.163   2.831   5.291 -1.8651 -0.0524 -0.4369
 2455SOL     OW19000   4.714   2.156   6.384 -0.7067  0.4279 -0.4743
 2455SOL    HW119001   4.668   2.156   6.468  0.2249  2.3279  0.0291
 2455SOL    HW219002   4.660   2.115   6.317  0.7615 -0.7134 -0.9609
 2456SOL     OW19003   4.627   2.469   2.450  0.4033 -0.0866  0.2759
 2456SOL    HW119004   4.696   2.441   2.510  1.3690  0.8997 -0.3701
 2456SOL    HW219005   4.638   2.563   2.461 -0.8480  0.2614 -1.4725
 2457SOL     OW19006   0.886   0.310   1.975 -0.6446  0.0818 -0.1208
 2457SOL    HW119007   0.963   0.332   1.924 -0.4096  1.2301  0.7249
 2457SOL    HW219008   0.885   0.214   1.975 -3.7977  0.1074  0.3178
 2458SOL     OW19009   4.672   1.533   5.710 -0.1307 -0.0913  0.0909
 2458SOL    HW119010   4.635   1.591   5.644 -0.5096 -0.0417  0.3409
 2458SOL    HW219011   4.627   1.561   5.790 -2.3217 -3.3129 -0.0006
 2459SOL     OW19012   0.624   3.433  16.033 -0.3490  0.1079 -0.7590
 2459SOL    HW119013   0.644   3.366  15.968 -1.7897 -2.7269  1.7210
 2459SOL    HW219014   0.551   3.472  15.985 -1.0122  0.9297  0.9435
 2460SOL     OW19015   3.763   2.858  12.016 -0.3052 -0.3576 -0.1889
 2460SOL    HW119016   3.698   2.918  11.981  1.2741  1.0266 -0.7530
 2460SOL    HW219017   3.740   2.776  11.972 -0.7871  0.1078 -0.7920
 2461SOL     OW19018   3.477   2.513   2.458 -0.1367 -0.0621  0.2210
 2461SOL    HW119019   3.557   2.552   2.424  0.0021 -0.7502 -0.2455
 2461SOL    HW219020   3.496   2.419   2.450  0.1076  0.0570 -0.5500
 2462SOL     OW19021   2.222   1.456   1.031 -0.7337  0.2867 -0.1088
 2462SOL    HW119022   2.243   1.399   1.105 -1.1040 -1.7037 -1.5281
 2462SOL    HW219023   2.165   1.515   1.081 -3.3780 -0.9539 -1.6567
 2463SOL     OW19024   3.814   4.154  13.363 -0.0117 -0.3154  0.4537
 2463SOL    HW119025   3.783   4.070  13.328 -0.7741 -0.1885  0.8170
 2463SOL    HW219026   3.840   4.117  13.448  1.2372 -2.4859 -0.8427
 2464SOL     OW19027   1.222   1.596   3.055  0.6940 -0.2105 -0.0181
 2464SOL    HW119028   1.297   1.562   3.006  1.2006  1.8604 -0.6822
 2464SOL    HW219029   1.163   1.615   2.982 -0.4331  1.2210  1.2636
 2465SOL     OW19030   1.420   3.684   2.458  0.1872  0.8174 -0.0932
 2465SOL    HW119031   1.394   3.745   2.527 -0.9690 -1.2975  1.3292
 2465SOL    HW219032   1.425   3.741   2.381  0.9499  0.5529 -0.2451
 2466SOL     OW19033   3.149   2.109   2.070 -0.1007  0.1963 -0.1813
 2466SOL    HW119034   3.199   2.186   2.098  1.3901 -0.5182 -0.8618
 2466SOL    HW219035   3.061   2.145   2.069  0.4654  1.6096  0.5686
 2467SOL     OW19036   0.480   2.454   2.920  0.0456 -0.2441 -0.0696
 2467SOL    HW119037   0.515   2.442   3.008 -0.6208 -1.4140  0.0329
 2467SOL    HW219038   0.559   2.493   2.882 -0.6955  1.0408 -0.3030
 2468SOL     OW19039   3.833   2.108  13.232  0.5272 -0.1268 -0.1465
 2468SOL    HW119040   3.896   2.178  13.252 -0.4973  1.1598 -1.4337
 2468SOL    HW219041   3.803   2.140  13.147 -0.2496  2.1542  0.9684
 2469SOL     OW19042   3.783   0.891   6.561 -0.2246  0.4596  0.2992
 2469SOL    HW119043   3.688   0.898   6.573 -0.3351 -0.0439 -0.2716
 2469SOL    HW219044   3.790   0.806   6.604  1.0348 -0.3300 -1.4746
 2470SOL     OW19045   3.313   2.044   3.035 -0.1588  0.0073 -0.2211
 2470SOL    HW119046   3.340   2.136   3.035  0.1162 -0.0686 -0.7703
 2470SOL    HW219047   3.362   2.008   2.960  0.6873 -0.2385  0.4546
 2471SOL     OW19048   1.660   0.301   5.401  0.1694  0.0466  0.3003
 2471SOL    HW119049   1.571   0.322   5.372  0.4287 -0.6924 -1.0330
 2471SOL    HW219050   1.654   0.325   5.493 -1.6585  0.2350  0.1368
 2472SOL     OW19051   4.430   2.643   2.638 -0.4453 -0.2940 -0.2217
 2472SOL    HW119052   4.480   2.672   2.562 -0.3071 -0.0847 -0.0498
 2472SOL    HW219053   4.341   2.617   2.613 -2.0053  3.6148  1.1910
 2473SOL     OW19054   2.187   0.489   7.056  0.7182  0.3126  0.3221
 2473SOL    HW119055   2.270   0.495   7.104  0.0180  1.4935  1.4189
 2473SOL    HW219056   2.118   0.519   7.115 -0.5690 -0.6413 -0.7272
 2474SOL     OW19057   2.982   0.587   8.661 -0.4009  0.1102  0.5658
 2474SOL    HW119058   3.039   0.564   8.734  1.9829 -0.2114 -1.3818
 2474SOL    HW219059   2.952   0.675   8.681 -0.2598  0.2828  0.0103
 2475SOL     OW19060   4.129   4.243   8.889  0.1047 -0.2158 -0.0286
 2475SOL    HW119061   4.124   4.161   8.839 -0.4779 -0.7048  0.8328
 2475SOL    HW219062   4.035   4.263   8.895 -0.5830 -2.8592 -1.4563
 2476SOL     OW19063   1.285   1.827  14.817  0.1540 -0.2531  0.1160
 2476SOL    HW119064   1.374   1.821  14.781  0.1442 -0.0041  0.0501
 2476SOL    HW219065   1.302   1.789  14.903 -1.6357 -0.8055  0.2196
 2477SOL     OW19066   3.226   4.291   0.813  0.0886  0.3611 -0.6597
 2477SOL    HW119067   3.287   4.328   0.749  0.5993 -0.7231 -0.7896
 2477SOL    HW219068   3.242   4.198   0.798 -0.8492 -0.3137  2.5296
 2478SOL     OW19069   1.090   0.511  11.115  1.0589  0.4132  0.0002
 2478SOL    HW119070   1.012   0.464  11.085 -0.2519  1.5621  1.6419
 2478SOL    HW219071   1.044   0.573  11.171 -0.8773 -0.6682 -0.4169
 2479SOL     OW19072   1.818   0.370   5.692  0.3027 -0.1300 -0.0574
 2479SOL    HW119073   1.754   0.299   5.688 -0.7702  1.0369 -3.1602
 2479SOL    HW219074   1.862   0.375   5.607  2.0315 -1.2531  0.7528
 2480SOL     OW19075   3.392   2.570   3.794  0.2458 -0.2685  0.0095
 2480SOL    HW119076   3.469   2.548   3.846 -1.5551  1.1857  3.2645
 2480SOL    HW219077   3.330   2.498   3.810 -0.0475  0.6355  2.8141
 2481SOL     OW19078   0.955   0.643   0.693  0.3456  0.0575  0.0778
 2481SOL    HW119079   0.952   0.710   0.761  0.0900  0.4451 -0.3178
 2481SOL    HW219080   0.886   0.587   0.727  1.4866  0.6084  3.3295
 2482SOL     OW19081   0.457   4.371  16.980 -0.5575 -0.4243 -0.7394
 2482SOL    HW119082   0.473   4.395  16.888 -0.4337 -2.0621 -1.1445
 2482SOL    HW219083   0.374   4.411  17.005  0.9822  1.8999  0.6064
 2483SOL     OW19084   1.946   3.459   3.731  0.2990 -0.2796 -0.1912
 2483SOL    HW119085   2.032   3.501   3.724  0.4249 -0.8522 -2.1346
 2483SOL    HW219086   1.978   3.375   3.765 -1.3063 -0.6233  0.4459
 2484SOL     OW19087   1.456   3.520   8.897 -0.2838 -0.1409 -0.0483
 2484SOL    HW119088   1.475   3.447   8.838 -0.3976 -1.3362  1.4008
 2484SOL    HW219089   1.532   3.513   8.953  2.0573  1.0825 -3.0655
 2485SOL     OW19090   1.288   1.958  16.963  0.2172  0.1844 -0.1745
 2485SOL    HW119091   1.325   1.972  17.050 -0.0068 -1.2618  0.1516
 2485SOL    HW219092   1.211   2.014  16.968  1.5143  1.9458  0.0828
 2486SOL     OW19093   0.061   0.745   0.690 -0.3338  0.6549  0.2495
 2486SOL    HW119094   0.145   0.775   0.654  0.5394 -0.4966  1.2982
 2486SOL    HW219095   0.065   0.812   0.758 -2.4151  0.1594  0.8598
 2487SOL     OW19096   4.225   0.708   2.536 -0.3455  0.4069 -0.3013
 2487SOL    HW119097   4.148   0.653   2.552 -0.0627 -0.0498 -0.5075
 2487SOL    HW219098   4.275   0.662   2.468 -0.9269  0.1256 -0.5338
 2488SOL     OW19099   4.516   3.858   6.566  0.2038  0.3717  0.3899
 2488SOL    HW119100   4.541   3.919   6.496 -0.5813 -1.7271 -1.7095
 2488SOL    HW219101   4.482   3.785   6.515  1.3101  1.7927 -2.4302
 2489SOL     OW19102   3.038   2.507  12.260 -0.5236  0.6182  0.6919
 2489SOL    HW119103   3.065   2.506  12.168 -0.0757  2.5093  0.8065
 2489SOL    HW219104   3.117   2.542  12.302  0.3237 -0.2350 -0.1869
 2490SOL     OW19105   0.240   1.353   8.495  0.2086  0.7588 -0.1452
 2490SOL    HW119106   0.155   1.394   8.510 -1.2533 -2.3374 -0.0630
 2490SOL    HW219107   0.297   1.429   8.509 -0.3155  1.0571  0.3536
 2491SOL     OW19108   2.378   2.390   9.678 -0.1654  0.0013 -0.1023
 2491SOL    HW119109   2.370   2.299   9.651 -0.7483 -0.2572  0.9409
 2491SOL    HW219110   2.293   2.412   9.717  1.1083  3.4023  0.7325
 2492SOL     OW19111   4.651   2.452   0.384  0.2196  0.1054  0.1091
 2492SOL    HW119112   4.630   2.546   0.378 -0.2883  0.0190  0.5919
 2492SOL    HW219113   0.008   2.457   0.375  0.5316 -2.3651  2.2470
 2493SOL     OW19114   4.676   4.436   3.911 -0.3395 -0.0819  0.3636
 2493SOL    HW119115   4.603   4.498   3.904  1.4360  1.8455 -1.1460
 2493SOL    HW219116   4.698   4.420   3.820  0.4915 -2.9809  1.0781
 2494SOL     OW19117   0.905   0.287   3.877 -0.1553 -0.1691  0.0145
 2494SOL    HW119118   0.981   0.239   3.844 -0.9182 -0.4038 -1.4129
 2494SOL    HW219119   0.880   0.225   3.946 -2.5097  0.3771 -0.3220
 2495SOL     OW19120   0.231   2.601   1.541 -0.3515 -0.1445  0.3724
 2495SOL    HW119121   0.269   2.514   1.554 -0.7384 -0.3324  0.2474
 2495SOL    HW219122   0.165   2.584   1.473 -0.1790 -2.1902  0.7089
 2496SOL     OW19123   1.691   2.832   2.382  0.0633 -0.6447 -0.1631
 2496SOL    HW119124   1.730   2.861   2.464  2.0115  0.2355 -1.3973
 2496SOL    HW219125   1.657   2.910   2.338  0.3198 -0.0450  0.7043
 2497SOL     OW19126   4.547   2.775   9.014  0.0655  0.1641 -0.1352
 2497SOL    HW119127   4.565   2.841   9.081 -2.5851 -0.5006  1.2327
 2497SOL    HW219128   4.597   2.700   9.046 -1.8015 -2.0226 -2.3325
 2498SOL     OW19129   0.362   0.377   5.521  0.0641  0.4531  0.5394
 2498SOL    HW119130   0.363   0.290   5.482 -2.0405  0.7701 -0.2753
 2498SOL    HW219131   0.435   0.374   5.582  2.0362  1.7609 -1.7444
 2499SOL     OW19132   4.695   3.665   8.026  0.2841  0.0744  0.5528
 2499SOL    HW119133   4.635   3.638   8.096  1.2314 -0.3384  1.2120
 2499SOL    HW219134   4.643   3.683   7.949 -0.6175 -1.6212  0.7688
 2500SOL     OW19135   0.420   3.430   8.584 -0.6755  0.5143 -0.1365
 2500SOL    HW119136   0.497   3.394   8.629 -1.3218 -1.5255 -0.6700
 2500SOL    HW219137   0.410   3.506   8.641 -1.9328  1.2645 -1.3619
 2501SOL     OW19138   3.269   2.940  15.076  0.4136 -0.6321  0.1931
 2501SOL    HW119139   3.321   3.017  15.096 -2.9160  1.3289  1.2761
 2501SOL    HW219140   3.343   2.887  15.046  1.3851  0.7601  0.1338
 2502SOL     OW19141   1.457   1.710   7.784  0.1644 -0.1909 -0.2721
 2502SOL    HW119142   1.467   1.640   7.848  0.1551 -1.0486 -1.1985
 2502SOL    HW219143   1.528   1.691   7.723  0.0887 -1.1316 -0.0610
 2503SOL     OW19144   1.807   3.182   6.326 -0.1213 -0.1924  0.1640
 2503SOL    HW119145   1.715   3.190   6.301  0.3683  1.9132 -0.8802
 2503SOL    HW219146   1.817   3.244   6.398 -0.3694 -0.6962  0.6441
 2504SOL     OW19147   3.471   2.344   6.740  0.3495  0.1261 -0.2359
 2504SOL    HW119148   3.411   2.271   6.729  0.9824 -0.7617  2.3127
 2504SOL    HW219149   3.546   2.291   6.767 -0.7209 -0.8585  0.7875
 2505SOL     OW19150   2.228   4.328   9.593 -0.5148  0.1854 -0.2648
 2505SOL    HW119151   2.247   4.412   9.637 -0.8667  1.2460 -2.1517
 2505SOL    HW219152   2.133   4.322   9.599 -0.5116  0.6400  0.3242
 2506SOL     OW19153   2.051   1.184   5.941 -0.1537  0.1913 -0.1664
 2506SOL    HW119154   2.049   1.153   5.850  0.5229 -0.6727  0.1053
 2506SOL    HW219155   2.009   1.111   5.986 -2.2858  0.6902 -1.3958
 2507SOL     OW19156   1.576   2.414   9.094 -0.1997  0.1770  0.0232
 2507SOL    HW119157   1.651   2.465   9.063 -0.1804 -0.5170 -1.0672
 2507SOL    HW219158   1.531   2.481   9.145  1.6200  0.9904  0.5860
 2508SOL     OW19159   1.023   4.649   9.271  0.1071  0.1317  0.6936
 2508SOL    HW119160   1.057   4.652   9.181  2.2786 -1.2058  1.4757
 2508SOL    HW219161   1.067   4.726   9.305  0.4273  0.2812 -0.0508
 2509SOL     OW19162   0.869   4.506   5.372 -0.5543 -0.1642  0.1882
 2509SOL    HW119163   0.942   4.568   5.375 -1.8599  1.3559  0.0919
 2509SOL    HW219164   0.807   4.555   5.319 -1.0634 -2.0615 -0.9393
 2510SOL     OW19165   3.093   2.930   5.954 -0.3022 -0.3806  0.1334
 2510SOL    HW119166   3.116   2.967   5.868  1.3426  1.8518  1.5466
 2510SOL    HW219167   3.068   2.841   5.929  0.7980 -0.5995 -0.1811
 2511SOL     OW19168   4.228   2.552   8.146  0.1383 -0.3781 -0.0219
 2511SOL    HW119169   4.284   2.581   8.074 -1.8841 -0.2699 -1.5441
 2511SOL    HW219170   4.293   2.537   8.215  1.3727  0.8666 -0.9026
 2512SOL     OW19171   4.507   1.400   1.877  0.6755  0.1188 -0.2622
 2512SOL    HW119172   4.428   1.446   1.903  1.4494  2.2003 -1.6337
 2512SOL    HW219173   4.566   1.440   1.942 -1.6451 -0.2178  2.0472
 2513SOL     OW19174   3.027   2.182  11.738  0.0342  0.1967  0.1287
 2513SOL    HW119175   3.094   2.243  11.706 -0.2320 -0.5129 -1.8359
 2513SOL    HW219176   3.059   2.167  11.827 -0.0538  1.0074  0.2906
 2514SOL     OW19177   4.664   2.618   9.850  0.2261  0.0013 -0.2265
 2514SOL    HW119178   0.022   2.618   9.857  0.1520 -0.4755  0.8418
 2514SOL    HW219179   4.642   2.554   9.918  0.4742 -0.4900 -0.6080
 2515SOL     OW19180   0.610   2.256  13.579 -0.3081  0.0282 -0.4013
 2515SOL    HW119181   0.554   2.283  13.506 -0.4961 -0.0323 -0.2819
 2515SOL    HW219182   0.556   2.255  13.658 -1.5273 -0.8823 -1.2481
 2516SOL     OW19183   3.678   0.699  16.221  0.2778 -0.6500 -0.2070
 2516SOL    HW119184   3.773   0.706  16.232 -0.2526  0.7856  3.6972
 2516SOL    HW219185   3.649   0.681  16.311 -2.5243  0.4862 -0.8664
 2517SOL     OW19186   4.515   2.652   3.835 -0.0536  0.1304  0.3435
 2517SOL    HW119187   4.448   2.602   3.789  0.4914 -0.0111 -0.2985
 2517SOL    HW219188   4.560   2.577   3.874 -2.0095 -1.1678  0.0978
 2518SOL     OW19189   1.504   0.605   8.567 -0.3937  0.0655 -0.5095
 2518SOL    HW119190   1.560   0.669   8.612  0.8678 -0.8180 -0.8041
 2518SOL    HW219191   1.450   0.566   8.635 -1.1066  3.7613  1.0456
 2519SOL     OW19192   3.896   1.662   3.225  0.2495 -0.1803  0.6004
 2519SOL    HW119193   3.802   1.650   3.211 -0.0943  1.7504  1.1948
 2519SOL    HW219194   3.909   1.757   3.231  0.2669 -0.0613 -1.1116
 2520SOL     OW19195   1.705   4.567  12.570 -0.2320  0.5209 -0.0029
 2520SOL    HW119196   1.669   4.616  12.644 -2.2750 -0.2801 -0.4802
 2520SOL    HW219197   1.736   4.640  12.517  0.4766 -1.3016 -2.1158
 2521SOL     OW19198   0.065   1.931   5.256  0.9186  0.8439  0.7060
 2521SOL    HW119199   0.045   2.018   5.222  0.0143 -0.6125 -2.5176
 2521SOL    HW219200   4.735   1.911   5.321  0.4452  0.2674  0.0411
 2522SOL     OW19201   2.140   3.527   7.232 -0.0899 -0.3767 -0.1898
 2522SOL    HW119202   2.086   3.526   7.153  0.3947  0.1909 -0.5236
 2522SOL    HW219203   2.170   3.618   7.226 -1.6908  0.1781  0.2077
 2523SOL     OW19204   2.726   0.770  14.368 -0.9346  0.1341 -0.3579
 2523SOL    HW119205   2.725   0.771  14.464 -3.2542  1.6950 -0.4052
 2523SOL    HW219206   2.715   0.677  14.350 -1.1771  0.0534  0.2118
 2524SOL     OW19207   3.653   4.529  17.260 -0.0991  0.2418  0.0157
 2524SOL    HW119208   3.589   4.553  17.194  0.1552 -2.4801 -1.2385
 2524SOL    HW219209   3.625   4.451  17.309 -1.0116 -0.1156 -1.0968
 2525SOL     OW19210   1.470   3.233   4.933  0.1212 -0.0637  0.3761
 2525SOL    HW119211   1.418   3.284   4.871  1.1795  2.5927  1.6760
 2525SOL    HW219212   1.525   3.174   4.882  0.1390  0.2540  0.0267
 2526SOL     OW19213   1.197   1.315   6.619  0.1495 -0.3772 -0.2816
 2526SOL    HW119214   1.226   1.241   6.567 -1.1307  0.2364 -1.8490
 2526SOL    HW219215   1.104   1.319   6.598  0.3104 -0.0059 -0.9031
 2527SOL     OW19216   2.793   2.274   8.771 -0.2612 -0.9047  0.4204
 2527SOL    HW119217   2.822   2.344   8.830 -0.1492 -2.2031  1.9147
 2527SOL    HW219218   2.831   2.192   8.801 -0.1350  0.3772  3.7797
 2528SOL     OW19219   1.753   0.755   8.674  0.3878  0.2399 -0.2621
 2528SOL    HW119220   1.826   0.771   8.735 -1.0159  0.5605  1.3323
 2528SOL    HW219221   1.769   0.662   8.660  0.2117 -0.0162  1.1972
 2529SOL     OW19222   1.972   3.541   9.719  0.5162  0.2457 -0.3552
 2529SOL    HW119223   1.998   3.487   9.645  1.5541  1.9655 -1.2481
 2529SOL    HW219224   2.046   3.534   9.779  1.5016  1.0369 -1.4778
 2530SOL     OW19225   4.108   3.652   2.358 -0.9182  0.3539 -0.5313
 2530SOL    HW119226   4.104   3.645   2.453 -0.2847  0.5704 -0.4890
 2530SOL    HW219227   4.141   3.565   2.337  1.0530  0.9665  0.0325
 2531SOL     OW19228   2.733   0.621   2.689  0.5356  0.7099 -0.1896
 2531SOL    HW119229   2.695   0.706   2.666 -0.2202 -0.0986 -1.9286
 2531SOL    HW219230   2.697   0.575   2.613 -0.8638 -1.7499  1.9627
 2532SOL     OW19231   4.704   0.137   2.711  0.4906 -0.1990 -0.3063
 2532SOL    HW119232   4.611   0.156   2.714 -0.1812 -3.8642  2.8608
 2532SOL    HW219233   4.729   0.161   2.622  1.5400  2.7300  0.7802
 2533SOL     OW19234   2.088   2.910  14.187 -0.0701  0.5441 -0.2997
 2533SOL    HW119235   2.054   2.982  14.133 -1.1604 -1.1708 -1.8829
 2533SOL    HW219236   2.021   2.895  14.253  2.4893  0.3566  2.2877
 2534SOL     OW19237   0.218   2.588   6.100  0.1132 -0.3705 -0.3147
 2534SOL    HW119238   0.157   2.642   6.050  1.3078 -0.1852 -1.5611
 2534SOL    HW219239   0.167   2.570   6.179  0.5815  0.7133  0.2363
 2535SOL     OW19240   3.944   3.295   9.757 -0.1187 -0.2489  0.3915
 2535SOL    HW119241   4.016   3.243   9.721  0.3793 -0.6244  1.9463
 2535SOL    HW219242   3.988   3.338   9.830 -0.3210 -0.0997  0.4259
 2536SOL     OW19243   2.854   2.564   8.305  0.1386  0.3753 -0.0908
 2536SOL    HW119244   2.817   2.566   8.216  1.2313 -0.0941 -0.5490
 2536SOL    HW219245   2.941   2.599   8.285  0.1829 -0.6163 -1.6982
 2537SOL     OW19246   3.804   0.703   3.457 -0.2814  0.0717  0.2361
 2537SOL    HW119247   3.897   0.714   3.434 -0.5859  0.1806 -0.9251
 2537SOL    HW219248   3.782   0.616   3.424  1.5592  0.7154 -2.6600
 2538SOL     OW19249   4.368   2.252   1.151 -0.5282  0.2343  0.3377
 2538SOL    HW119250   4.304   2.194   1.110  0.1315  1.1104 -1.9189
 2538SOL    HW219251   4.360   2.231   1.244 -3.0144  3.0234  0.7579
 2539SOL     OW19252   1.222   1.315   8.006  0.1180  0.1263 -0.6751
 2539SOL    HW119253   1.176   1.237   7.977 -0.7614 -1.2106  4.2940
 2539SOL    HW219254   1.276   1.281   8.078 -0.2222  1.6227  0.2829
 2540SOL     OW19255   4.341   2.770   1.826  0.0924 -0.0825 -0.2820
 2540SOL    HW119256   4.246   2.776   1.829  0.1588  0.4812  0.6033
 2540SOL    HW219257   4.363   2.851   1.781  0.4047 -0.1021 -0.1674
 2541SOL     OW19258   1.673   2.847   8.382  1.0529  0.3927  0.0579
 2541SOL    HW119259   1.718   2.798   8.450  0.4264  1.3601  1.1785
 2541SOL    HW219260   1.677   2.783   8.311  0.7569 -0.5676  0.9026
 2542SOL     OW19261   4.317   3.425  10.313  0.3177 -0.3489  0.0379
 2542SOL    HW119262   4.249   3.492  10.311 -0.1217 -0.6782  3.0568
 2542SOL    HW219263   4.388   3.463  10.261 -1.2096  3.4747  0.7645
 2543SOL     OW19264   1.715   0.158   0.092  0.1827  0.0272  0.3266
 2543SOL    HW119265   1.791   0.100   0.100 -1.5395 -2.1647  0.6517
 2543SOL    HW219266   1.756   0.243   0.102 -0.6827  0.5734 -0.7351
 2544SOL     OW19267   4.666   3.291   9.744 -0.4767 -0.1814 -0.0120
 2544SOL    HW119268   4.636   3.381   9.756  0.2811  0.3191 -1.9431
 2544SOL    HW219269   4.680   3.256   9.833  1.6692  1.2546  0.2053
 2545SOL     OW19270   3.218   0.616   7.139 -0.2981 -0.1683 -0.0606
 2545SOL    HW119271   3.135   0.660   7.156 -0.1001  1.1414 -2.5420
 2545SOL    HW219272   3.223   0.572   7.224  1.0329 -1.1070 -0.6275
 2546SOL     OW19273   4.100   2.807   6.527  0.3914  0.0734 -0.0773
 2546SOL    HW119274   4.163   2.795   6.456  1.0649  0.2786  0.4876
 2546SOL    HW219275   4.143   2.881   6.570  1.0631 -0.3823  0.0302
 2547SOL     OW19276   1.836   3.322   2.848  0.6611  0.0960  0.1771
 2547SOL    HW119277   1.847   3.273   2.930  0.4320 -1.0730 -0.4912
 2547SOL    HW219278   1.888   3.401   2.860  0.6869 -0.2630  2.4980
 2548SOL     OW19279   1.204   0.299   2.857 -0.8470 -0.0867 -0.1453
 2548SOL    HW119280   1.270   0.362   2.888 -1.1413 -0.3649  1.0237
 2548SOL    HW219281   1.258   0.242   2.802  1.9394  2.6132 -0.2735
 2549SOL     OW19282   1.709   4.508   1.892 -0.2733  0.3407 -0.0128
 2549SOL    HW119283   1.732   4.445   1.961  0.3459  0.4348 -0.1275
 2549SOL    HW219284   1.763   4.584   1.917 -0.0402  0.2919 -0.3791
 2550SOL     OW19285   4.531   3.127  16.696  0.3090 -0.6266 -0.1746
 2550SOL    HW119286   4.446   3.088  16.675 -0.0302 -0.8921  1.7383
 2550SOL    HW219287   4.515   3.217  16.667 -0.9246 -0.3187  1.4350
 2551SOL     OW19288   0.740   2.865   1.616 -0.3158 -0.0298 -0.2963
 2551SOL    HW119289   0.735   2.869   1.711 -0.7140 -1.1376 -0.2738
 2551SOL    HW219290   0.835   2.874   1.605 -0.8821  3.8351 -1.9401
 2552SOL     OW19291   3.321   2.692   3.562 -0.0714 -0.5774 -0.6728
 2552SOL    HW119292   3.284   2.767   3.608 -0.2990 -1.5612  0.7508
 2552SOL    HW219293   3.354   2.654   3.643 -0.0864 -0.7304 -0.7373
 2553SOL     OW19294   4.234   2.735   8.507  0.2503 -0.0247 -0.3288
 2553SOL    HW119295   4.190   2.708   8.587  0.1875  1.7802  0.2520
 2553SOL    HW219296   4.165   2.741   8.441  0.5052  0.2540 -0.5727
 2554SOL     OW19297   3.528   1.676   2.912 -0.2231  0.0013  0.1563
 2554SOL    HW119298   3.440   1.654   2.941 -1.3198  0.1732 -3.0654
 2554SOL    HW219299   3.517   1.700   2.820  1.3241 -1.2828 -0.3584
 2555SOL     OW19300   0.999   1.092  14.889  0.2149 -0.2589  0.1642
 2555SOL    HW119301   0.983   0.999  14.908  0.1626 -0.4123 -0.6328
 2555SOL    HW219302   1.036   1.091  14.801  0.3617  2.6950  0.1957
 2556SOL     OW19303   3.045   2.761   7.702 -0.2314 -0.1487 -0.0709
 2556SOL    HW119304   3.019   2.692   7.641  0.1432 -1.0039  0.7365
 2556SOL    HW219305   2.962   2.797   7.734 -0.8530 -2.5481  1.0590
 2557SOL     OW19306   3.008   3.509   2.761  0.2436 -1.2715  0.9390
 2557SOL    HW119307   3.029   3.599   2.737 -0.5068 -1.7913 -1.7376
 2557SOL    HW219308   3.012   3.474   2.672 -1.5692  0.7983  0.0448
 2558SOL     OW19309   2.260   1.188   6.259  0.0561  0.2152  0.4182
 2558SOL    HW119310   2.348   1.203   6.223 -0.0125 -1.5114 -0.4701
 2558SOL    HW219311   2.203   1.239   6.201  1.5997  0.7467 -0.6523
 2559SOL     OW19312   3.569   2.733  12.579 -0.6020  0.3827 -0.7809
 2559SOL    HW119313   3.521   2.682  12.514 -0.4014 -0.5106 -0.2153
 2559SOL    HW219314   3.510   2.744  12.654  0.0435 -1.2789 -0.0370
 2560SOL     OW19315   2.651   2.560  14.344  0.0345 -0.2868  1.1572
 2560SOL    HW119316   2.573   2.611  14.320  1.1756  0.6875 -0.4272
 2560SOL    HW219317   2.645   2.485  14.284  2.9083  0.1036  0.3982
 2561SOL     OW19318   2.919   3.475   7.747  0.3083 -0.5661 -0.1010
 2561SOL    HW119319   2.952   3.394   7.784  2.4053 -0.7664 -2.4373
 2561SOL    HW219320   2.826   3.464   7.769  1.2551 -2.9618  2.6381
 2562SOL     OW19321   3.133   2.436   9.416 -0.3003 -0.4554  0.2893
 2562SOL    HW119322   3.213   2.471   9.454 -0.3011  1.3618 -1.4197
 2562SOL    HW219323   3.076   2.430   9.493 -0.5792  1.2205  0.2181
 2563SOL     OW19324   1.039   2.648   2.490  0.4428  0.5116  0.2919
 2563SOL    HW119325   0.976   2.699   2.438  0.4545 -0.5216 -0.7298
 2563SOL    HW219326   0.996   2.562   2.491  0.6897  0.3830 -0.2510
 2564SOL     OW19327   0.617   2.131   9.497  0.3128 -0.2733 -0.5992
 2564SOL    HW119328   0.589   2.041   9.513  2.3847 -0.5387  1.6240
 2564SOL    HW219329   0.700   2.103   9.459  0.5221  0.2687 -0.5404
 2565SOL     OW19330   0.249   2.661   7.582  0.3512  0.3329  0.0156
 2565SOL    HW119331   0.205   2.743   7.558  0.4578  0.4888  0.3556
 2565SOL    HW219332   0.263   2.673   7.676  3.5899 -1.5261 -0.2022
 2566SOL     OW19333   4.358   0.021   7.962  0.6665 -0.2666 -0.3194
 2566SOL    HW119334   4.313   4.678   7.936 -1.6335  0.6914  0.6337
 2566SOL    HW219335   4.389   0.003   8.051  0.4964 -1.1717 -0.4433
 2567SOL     OW19336   1.647   0.990   2.480  0.0560  0.4924 -0.3589
 2567SOL    HW119337   1.639   1.001   2.575  1.2338 -1.2899 -0.0720
 2567SOL    HW219338   1.691   0.906   2.467  1.2508  1.2286 -1.0859
 2568SOL     OW19339   1.985   4.074  12.571  0.2885 -0.3272  0.1211
 2568SOL    HW119340   2.006   4.158  12.530  0.8571 -0.3999  0.2636
 2568SOL    HW219341   2.058   4.092  12.631  0.5539 -1.3708  0.1166
 2569SOL     OW19342   1.124   1.146  14.671  0.2997 -0.1918  0.6941
 2569SOL    HW119343   1.169   1.125  14.589 -0.3973  1.2340 -0.0730
 2569SOL    HW219344   1.118   1.241  14.660  2.7685  0.0060  1.0478
 2570SOL     OW19345   2.162   3.590   3.678  0.0652 -0.7571 -0.2226
 2570SOL    HW119346   2.191   3.667   3.630  0.0688  0.3113  1.5155
 2570SOL    HW219347   2.210   3.521   3.631  2.1279 -0.2396  1.1396
 2571SOL     OW19348   0.006   3.654   9.327  0.1135 -0.5079 -0.5933
 2571SOL    HW119349   4.712   3.582   9.382 -0.8238 -0.2467 -0.7809
 2571SOL    HW219350   0.101   3.641   9.330  0.2090  0.3912  0.8917
 2572SOL     OW19351   2.363   0.818   3.132 -0.7227 -0.3535 -0.1253
 2572SOL    HW119352   2.280   0.830   3.085 -0.0255  2.1246 -0.7379
 2572SOL    HW219353   2.363   0.723   3.128 -0.5205 -0.2913 -1.5873
 2573SOL     OW19354   2.104   0.917   3.415  0.1520 -0.0879  0.3403
 2573SOL    HW119355   2.177   0.963   3.374 -0.9922  1.3878 -0.0499
 2573SOL    HW219356   2.081   0.989   3.474 -0.2104 -0.0112  0.1017
 2574SOL     OW19357   3.077   3.634   3.402 -0.0464 -0.2367 -0.1894
 2574SOL    HW119358   3.028   3.614   3.322 -1.0812 -1.4876  0.7492
 2574SOL    HW219359   3.159   3.591   3.377 -1.4833 -2.1230 -1.6472
 2575SOL     OW19360   2.988   2.283   7.273 -0.0076  0.1009 -0.3563
 2575SOL    HW119361   3.034   2.208   7.311  0.0954  0.7539  0.8131
 2575SOL    HW219362   2.991   2.270   7.178  2.8708  1.2670 -0.4395
 2576SOL     OW19363   0.661   3.419   7.343  0.3064 -0.3602  0.2552
 2576SOL    HW119364   0.706   3.502   7.360 -2.0801  1.0421 -0.2971
 2576SOL    HW219365   0.721   3.354   7.380 -0.6453 -0.9536  0.7347
 2577SOL     OW19366   3.425   4.398   2.754 -0.6142  0.4984 -0.0371
 2577SOL    HW119367   3.417   4.332   2.823  0.5859 -2.5089 -2.7643
 2577SOL    HW219368   3.343   4.389   2.707 -0.9005  0.2149  0.5129
 2578SOL     OW19369   0.643   3.218   3.427  0.2864 -0.8852 -0.2119
 2578SOL    HW119370   0.701   3.145   3.450  1.7958 -0.5469 -2.9308
 2578SOL    HW219371   0.693   3.256   3.354 -0.8950  1.7054  0.3402
 2579SOL     OW19372   4.086   0.629   5.263  0.4747  0.3171  0.5280
 2579SOL    HW119373   4.177   0.601   5.274 -0.5657 -2.6110  1.8196
 2579SOL    HW219374   4.076   0.646   5.357 -2.3078  2.1533 -0.1156
 2580SOL     OW19375   1.371   0.219   3.823  0.1968 -0.6127  0.5415
 2580SOL    HW119376   1.373   0.301   3.774 -1.1046 -0.9621 -0.0947
 2580SOL    HW219377   1.438   0.162   3.785  1.1753  1.2119 -0.4706
 2581SOL     OW19378   0.069   3.547   4.088  0.4053 -0.6835  0.0272
 2581SOL    HW119379   0.053   3.454   4.072 -0.3468 -0.6813  0.7492
 2581SOL    HW219380   0.097   3.552   4.180 -0.2234 -3.0814  0.3410
 2582SOL     OW19381   2.634   0.284  10.036 -0.0398  0.2449 -0.2631
 2582SOL    HW119382   2.592   0.219   9.979 -0.2187  0.9709 -0.9555
 2582SOL    HW219383   2.723   0.247  10.035 -0.0989  0.0058  3.2486
 2583SOL     OW19384   0.972   1.331   6.492  0.6877  0.6825  0.4285
 2583SOL    HW119385   0.887   1.328   6.536  0.4462 -5.0226 -0.4647
 2583SOL    HW219386   0.968   1.415   6.446  2.5784 -0.5659 -1.9610
 2584SOL     OW19387   2.061   0.239   6.081 -0.1295  0.5186  0.3669
 2584SOL    HW119388   2.122   0.230   6.154  1.0178 -1.8009 -0.8958
 2584SOL    HW219389   2.066   0.333   6.063 -1.4008  0.3214 -1.0262
 2585SOL     OW19390   2.197   2.813   5.010 -0.3813 -0.4486 -0.0998
 2585SOL    HW119391   2.152   2.790   5.091  1.0568 -0.0361  0.8139
 2585SOL    HW219392   2.288   2.794   5.029 -0.2529 -0.3538 -0.6339
 2586SOL     OW19393   2.895   3.694   6.730 -0.0324 -0.3435  0.2775
 2586SOL    HW119394   2.922   3.726   6.644 -1.1418  2.0123  0.8136
 2586SOL    HW219395   2.928   3.604   6.727  0.6977 -0.0350 -1.1050
 2587SOL     OW19396   4.258   4.373   5.214 -0.0827 -0.2993  0.2016
 2587SOL    HW119397   4.342   4.326   5.220 -0.2456 -0.5859  0.2246
 2587SOL    HW219398   4.224   4.344   5.129  2.4690  0.7090 -1.1773
 2588SOL     OW19399   1.282   0.158   6.918 -0.3321 -0.3438  0.2269
 2588SOL    HW119400   1.214   0.140   6.852  1.4972 -2.7140 -1.0076
 2588SOL    HW219401   1.315   0.068   6.923  0.9014  0.0548 -0.8304
 2589SOL     OW19402   2.475   1.704   6.141 -0.5871  0.5471 -0.8001
 2589SOL    HW119403   2.457   1.641   6.071 -0.9563  0.0347 -0.2401
 2589SOL    HW219404   2.571   1.706   6.142 -0.5805 -0.0263 -0.0527
 2590SOL     OW19405   0.034   3.630   4.820  0.4623 -0.1739  0.4811
 2590SOL    HW119406   0.094   3.695   4.785  0.1280 -0.4389 -0.5756
 2590SOL    HW219407   4.717   3.608   4.744  0.4820  0.7169  0.2074
 2591SOL     OW19408   4.193   3.982   7.161 -0.0914 -0.4630 -0.2069
 2591SOL    HW119409   4.285   3.981   7.137 -0.2231  1.5198 -0.8037
 2591SOL    HW219410   4.158   3.894   7.174  1.9871 -1.2661 -0.0996
 2592SOL     OW19411   0.737   0.573   9.532  0.4077 -0.1857  0.2184
 2592SOL    HW119412   0.817   0.623   9.544  0.4910  0.0418 -1.3088
 2592SOL    HW219413   0.666   0.634   9.510 -1.7457 -1.9070  2.2957
 2593SOL     OW19414   4.072   0.109  15.392  0.0912 -0.5157  0.6107
 2593SOL    HW119415   4.036   0.189  15.354  0.4108 -1.4155 -1.6046
 2593SOL    HW219416   4.148   0.094  15.335  0.3790  0.2121  0.8040
 2594SOL     OW19417   4.734   3.111  14.992 -0.4245 -0.1498 -0.0455
 2594SOL    HW119418   4.670   3.059  14.944 -2.4402  3.0449 -0.8723
 2594SOL    HW219419   4.737   3.078  15.082  0.9793 -0.6947 -0.2915
 2595SOL     OW19420   3.701   0.942   3.306 -0.2840  0.4798 -0.2996
 2595SOL    HW119421   3.724   1.031   3.333  0.1905  0.7105 -1.4583
 2595SOL    HW219422   3.724   0.889   3.383 -1.7233  2.1010  1.2598
 2596SOL     OW19423   3.620   4.100  16.596  0.0675 -0.2173  0.1989
 2596SOL    HW119424   3.684   4.170  16.603  1.1747 -1.5726  3.3573
 2596SOL    HW219425   3.596   4.090  16.688 -0.1871  1.5211  0.3228
 2597SOL     OW19426   0.433   2.602   6.912  0.3874  0.1230 -0.1673
 2597SOL    HW119427   0.414   2.538   6.842  1.3733 -0.5655  0.1909
 2597SOL    HW219428   0.423   2.538   6.982 -0.2140 -1.2257 -1.4823
 2598SOL     OW19429   0.109   2.070   0.820 -0.2747  0.4837  0.3139
 2598SOL    HW119430   0.018   2.095   0.801 -0.4339  1.2044  1.9945
 2598SOL    HW219431   0.145   2.110   0.740  1.7470  1.6302  1.8032
 2599SOL     OW19432   1.443   2.366   9.726 -0.3893  0.2522  0.3269
 2599SOL    HW119433   1.442   2.369   9.822 -0.5670  0.6994  0.3124
 2599SOL    HW219434   1.520   2.423   9.715 -0.4745  0.3189  0.0734
 2600SOL     OW19435   0.641   1.033   2.621  0.2417  0.0015 -0.3671
 2600SOL    HW119436   0.696   0.956   2.603  1.3154  0.2624  1.8599
 2600SOL    HW219437   0.672   1.033   2.711  0.6560 -0.8588 -0.5092
 2601SOL     OW19438   4.736   4.619   1.968 -0.2406  0.1077  0.2288
 2601SOL    HW119439   0.040   4.700   1.939 -0.5251 -0.0570 -0.6569
 2601SOL    HW219440   4.657   4.610   1.914  0.0672 -0.9355 -0.0494
 2602SOL     OW19441   0.436   0.799   1.917 -0.1285 -0.0529 -0.4826
 2602SOL    HW119442   0.385   0.802   1.837 -0.5311  2.5187 -0.1316
 2602SOL    HW219443   0.370   0.821   1.983  2.8932  2.3986  1.7373
 2603SOL     OW19444   0.246   4.134   1.207 -0.5622 -0.1841 -0.0186
 2603SOL    HW119445   0.155   4.149   1.183 -0.4842  1.3572  0.5914
 2603SOL    HW219446   0.303   4.163   1.135 -0.7537 -0.2326 -0.1892
 2604SOL     OW19447   1.463   3.282   9.498  0.5805 -0.8720 -0.4238
 2604SOL    HW119448   1.475   3.212   9.434  1.9236 -1.3856  0.3854
 2604SOL    HW219449   1.553   3.301   9.526 -0.3901  0.6864  1.6520
 2605SOL     OW19450   3.603   3.454   3.779  0.7786 -0.0896  0.1307
 2605SOL    HW119451   3.554   3.394   3.724  0.0917  0.4870  0.1277
 2605SOL    HW219452   3.535   3.515   3.807  0.6612 -1.0699  1.9998
 2606SOL     OW19453   0.077   0.884  11.719 -0.5450  0.7846 -0.2359
 2606SOL    HW119454   0.172   0.887  11.732 -0.4415  1.1586 -1.0920
 2606SOL    HW219455   0.059   0.977  11.706 -1.5701  0.5794 -0.3191
 2607SOL     OW19456   4.202   4.066   2.777  0.1022  0.3283  0.4735
 2607SOL    HW119457   4.247   4.078   2.861  0.1477 -0.7194  0.5897
 2607SOL    HW219458   4.221   4.146   2.728 -1.6571 -0.0881 -0.8812
 2608SOL     OW19459   3.985   1.267   2.324 -0.3359 -0.0360  0.0102
 2608SOL    HW119460   3.976   1.296   2.415  0.7527  0.0609  0.0861
 2608SOL    HW219461   4.067   1.218   2.336  0.3783  1.0004 -0.6320
 2609SOL     OW19462   0.562   3.903   7.514 -0.4481 -0.5836 -0.5131
 2609SOL    HW119463   0.534   3.927   7.426  0.3362 -0.0585 -0.6221
 2609SOL    HW219464   0.480   3.865   7.547  1.1216 -2.1545  1.5532
 2610SOL     OW19465   4.117   3.919   8.346 -0.2646 -0.5230  0.5732
 2610SOL    HW119466   4.131   4.010   8.371 -0.8393 -0.3929  0.4232
 2610SOL    HW219467   4.044   3.935   8.286  2.4796 -0.0773 -2.6771
 2611SOL     OW19468   2.277   1.990   8.289  0.2538  0.0212 -0.2187
 2611SOL    HW119469   2.267   1.900   8.258 -2.0186  0.2600 -0.1720
 2611SOL    HW219470   2.335   2.026   8.222 -0.6026 -0.6249 -1.3256
 2612SOL     OW19471   0.903   1.891  12.255 -0.1262 -0.3809 -0.2774
 2612SOL    HW119472   0.857   1.813  12.225  3.2811 -3.0183  1.4288
 2612SOL    HW219473   0.834   1.920  12.315  0.1682 -0.6433  0.1855
 2613SOL     OW19474   0.194   4.199   6.322  0.1712  0.2515 -0.2116
 2613SOL    HW119475   0.146   4.275   6.289 -2.0647 -0.2924  1.7452
 2613SOL    HW219476   0.265   4.241   6.371  0.3807 -1.2966  0.7983
 2614SOL     OW19477   0.296   3.927  13.522  0.1934  0.1802  0.0898
 2614SOL    HW119478   0.359   3.890  13.584 -0.1181 -0.3479  0.0876
 2614SOL    HW219479   0.284   4.017  13.555 -2.5828 -0.4901  0.8627
 2615SOL     OW19480   3.385   0.212   9.271 -0.4636  0.2619 -0.0674
 2615SOL    HW119481   3.457   0.148   9.279  0.6283  1.6039  0.8053
 2615SOL    HW219482   3.430   0.296   9.277  0.6769 -0.5097  1.8743
 2616SOL     OW19483   2.981   2.689  16.564  0.1904  0.5860  0.0564
 2616SOL    HW119484   3.025   2.772  16.546  1.5046 -0.3357 -0.9590
 2616SOL    HW219485   2.973   2.647  16.479  1.0878 -1.1045  0.7954
 2617SOL     OW19486   1.067   0.973   3.083 -0.2192  0.5428 -0.0600
 2617SOL    HW119487   1.000   0.907   3.065 -0.0443  0.5904 -0.8839
 2617SOL    HW219488   1.109   0.984   2.997  1.3963  0.1224  0.6717
 2618SOL     OW19489   0.132   1.823   7.006 -0.3023  0.4447  0.1957
 2618SOL    HW119490   0.093   1.759   6.946 -1.1199  3.0157 -2.0466
 2618SOL    HW219491   0.112   1.905   6.961 -0.4992 -0.1216 -0.7453
 2619SOL     OW19492   0.237   4.376  12.475 -0.0578 -0.0662 -0.2026
 2619SOL    HW119493   0.297   4.329  12.417  0.9052  0.5686  0.2901
 2619SOL    HW219494   0.182   4.313  12.521 -1.8823  1.8074  0.1518
 2620SOL     OW19495   2.874   3.610   0.524  0.3177 -0.7314 -0.0208
 2620SOL    HW119496   2.816   3.686   0.521 -0.2289 -1.0972  1.0065
 2620SOL    HW219497   2.817   3.555   0.579 -0.8397 -0.0657 -0.5402
 2621SOL     OW19498   3.805   3.407   2.838 -0.4964  0.6125  0.4048
 2621SOL    HW119499   3.725   3.362   2.811  0.0575 -0.8194  1.1528
 2621SOL    HW219500   3.784   3.465   2.912 -1.2987  0.3278  0.4029
 2622SOL     OW19501   4.272   3.230   0.902 -0.7172 -0.2997  0.3436
 2622SOL    HW119502   4.186   3.195   0.926  0.1353 -1.3891  1.8346
 2622SOL    HW219503   4.259   3.318   0.938  1.9403  0.2937 -0.1388
 2623SOL     OW19504   1.267   1.685   8.519 -0.2661  0.3390 -0.2211
 2623SOL    HW119505   1.214   1.759   8.548 -0.5081  0.5783 -1.2666
 2623SOL    HW219506   1.244   1.628   8.592 -0.6678  1.9320  0.8738
 2624SOL     OW19507   3.336   2.024   5.218 -0.1319 -0.4129 -0.2381
 2624SOL    HW119508   3.244   2.041   5.194  0.1168  3.4593  1.5173
 2624SOL    HW219509   3.330   2.047   5.311  2.0962 -1.2203  0.1051
 2625SOL     OW19510   1.160   1.502   1.244  0.8517  0.0017 -0.3821
 2625SOL    HW119511   1.103   1.573   1.215  0.4414 -0.6346 -1.1159
 2625SOL    HW219512   1.110   1.439   1.296 -0.2765  1.2634  0.0760
 2626SOL     OW19513   2.700   4.635  17.299 -0.0023  0.5481  0.0911
 2626SOL    HW119514   2.696   4.552  17.251 -2.0146  0.1669  0.9224
 2626SOL    HW219515   2.725   4.695  17.229 -1.4511 -0.1344 -1.0019
 2627SOL     OW19516   1.102   2.143   6.974 -0.0168 -0.1293  0.0182
 2627SOL    HW119517   1.084   2.110   7.062 -0.7740  1.9442  0.6518
 2627SOL    HW219518   1.011   2.128   6.946  0.4829 -0.6632 -1.2946
 2628SOL     OW19519   0.493   1.714   1.787  0.2738  0.4651  0.1006
 2628SOL    HW119520   0.525   1.625   1.803 -0.1879 -0.0594 -1.9423
 2628SOL    HW219521   0.409   1.708   1.834  0.9941  2.1077  1.6022
 2629SOL     OW19522   2.804   3.287   5.124  0.4529 -0.3189  0.0020
 2629SOL    HW119523   2.811   3.278   5.029 -1.5040  1.6710 -0.3566
 2629SOL    HW219524   2.735   3.222   5.137 -1.0126  1.3545  0.7287
 2630SOL     OW19525   1.866   3.107   5.993  0.5322 -0.1816 -0.0536
 2630SOL    HW119526   1.933   3.130   6.057  0.1886 -0.7089  0.4975
 2630SOL    HW219527   1.790   3.161   6.017 -0.1357 -0.7730 -0.8414
 2631SOL     OW19528   1.805   0.996   9.940 -0.4020 -0.2944 -0.3088
 2631SOL    HW119529   1.744   0.956  10.002  3.4615 -1.0912  2.9775
 2631SOL    HW219530   1.763   0.984   9.854 -0.6812 -0.5090 -0.1442
 2632SOL     OW19531   0.863   3.070   7.900  0.1240  0.0365 -0.0980
 2632SOL    HW119532   0.945   3.050   7.946  0.9892  0.3948 -1.4667
 2632SOL    HW219533   0.801   3.014   7.947 -1.1637  0.4099 -1.3650
 2633SOL     OW19534   2.002   2.893  17.511  0.1735 -0.7396  0.0473
 2633SOL    HW119535   2.005   2.802  17.481 -1.3612 -1.0552  0.8591
 2633SOL    HW219536   1.994   2.888  17.606 -1.2440  3.3659  0.1584
 2634SOL     OW19537   1.375   0.020  17.614  0.1278 -0.2198  0.2267
 2634SOL    HW119538   1.311   0.032  17.543  1.1592 -0.1003 -0.6796
 2634SOL    HW219539   1.383   4.662  17.604  0.7464 -0.1251 -0.1540
 2635SOL     OW19540   3.229   4.632   4.668  0.5251 -0.0277 -0.3441
 2635SOL    HW119541   3.245   4.724   4.647 -0.4500  0.6969  2.0968
 2635SOL    HW219542   3.157   4.623   4.605  0.3358 -1.7743  0.1302
 2636SOL     OW19543   3.743   0.019   8.619  0.0797  0.0496  0.1579
 2636SOL    HW119544   3.746   4.679   8.563  0.5566  0.9736 -1.1204
 2636SOL    HW219545   3.693   0.085   8.570 -1.9309 -0.6030  1.3325
 2637SOL     OW19546   0.960   2.123  15.834  0.6193 -0.1277 -0.5149
 2637SOL    HW119547   0.950   2.066  15.758 -0.9180  1.7096 -1.7078
 2637SOL    HW219548   0.925   2.203  15.795 -1.4026 -1.0768 -0.6425
 2638SOL     OW19549   4.702   1.645   4.442  0.5053 -0.2023 -0.1558
 2638SOL    HW119550   0.053   1.680   4.453  0.0123  1.0670 -0.3063
 2638SOL    HW219551   4.702   1.609   4.354  2.0881  1.3324 -0.7796
 2639SOL     OW19552   0.314   2.000  13.425 -0.3123 -0.2833 -0.9262
 2639SOL    HW119553   0.402   1.996  13.462 -0.9872  0.4064  0.7157
 2639SOL    HW219554   0.295   1.909  13.449 -0.3098 -0.3618 -1.2171
 2640SOL     OW19555   2.476   2.983  11.345 -0.0497 -0.0388  0.2060
 2640SOL    HW119556   2.567   2.957  11.361 -0.0609 -1.0162 -1.2985
 2640SOL    HW219557   2.451   2.909  11.290  1.6399 -2.9533  3.3440
 2641SOL     OW19558   4.285   0.365   5.085 -0.5013 -0.1685 -0.5353
 2641SOL    HW119559   4.349   0.335   5.021 -1.0045  0.5477 -1.3744
 2641SOL    HW219560   4.335   0.424   5.142 -4.0491  2.0264  0.3311
 2642SOL     OW19561   1.751   0.976   7.189 -0.2932 -0.0090 -0.5400
 2642SOL    HW119562   1.793   0.894   7.164 -1.3750 -0.9494  0.7601
 2642SOL    HW219563   1.707   0.958   7.272 -0.3173 -2.6130 -1.1209
 2643SOL     OW19564   4.371   1.009   9.029  0.5006 -0.1378  0.2079
 2643SOL    HW119565   4.395   0.923   8.995 -0.1831 -1.0120  1.9147
 2643SOL    HW219566   4.305   1.037   8.966 -0.0778 -0.1359  0.8090
 2644SOL     OW19567   2.022   4.483   2.793  0.2461  0.3505 -0.1715
 2644SOL    HW119568   2.071   4.563   2.815  1.0745 -0.3658  0.6063
 2644SOL    HW219569   2.095   4.448   2.741 -0.9036  0.0305 -1.5763
 2645SOL     OW19570   0.781   3.851   2.966  0.4562 -0.4171  0.1813
 2645SOL    HW119571   0.689   3.827   2.952  0.3168 -0.8460  1.8663
 2645SOL    HW219572   0.795   3.780   3.029 -2.0185 -1.6977 -0.6869
 2646SOL     OW19573   1.011   1.097   8.110  0.3872  0.3597  0.5226
 2646SOL    HW119574   1.053   1.117   8.194 -0.2096  2.2281  0.3839
 2646SOL    HW219575   0.970   1.014   8.137 -0.8615  0.8443  0.1223
 2647SOL     OW19576   0.044   1.449  14.103  0.4444  0.3434  0.6159
 2647SOL    HW119577   4.691   1.418  14.102  1.2442 -1.9677  0.5857
 2647SOL    HW219578   0.091   1.366  14.099 -2.7197 -1.2649 -2.9599
 2648SOL     OW19579   2.529   0.527   2.231 -0.0926  0.1916 -0.1288
 2648SOL    HW119580   2.459   0.593   2.232  0.0727  0.3168  2.0550
 2648SOL    HW219581   2.516   0.485   2.145 -0.2678 -0.2019  0.0892
 2649SOL     OW19582   2.161   3.973   6.644 -0.5752 -0.0215 -0.3886
 2649SOL    HW119583   2.122   3.935   6.565  1.6748 -0.2491 -1.3713
 2649SOL    HW219584   2.248   3.983   6.605 -0.4922 -0.1056 -0.2247
 2650SOL     OW19585   2.878   3.522   2.057  0.4711 -0.3814  0.5260
 2650SOL    HW119586   2.872   3.601   2.003  1.2247 -0.7816 -0.1413
 2650SOL    HW219587   2.908   3.552   2.143  1.2699 -0.6497  0.3417
 2651SOL     OW19588   3.589   3.347   4.539 -0.1090  0.1969 -0.1768
 2651SOL    HW119589   3.549   3.277   4.589  0.5290 -1.0926 -1.4481
 2651SOL    HW219590   3.670   3.300   4.517 -1.1524 -1.4308 -0.4713
 2652SOL     OW19591   4.681   0.650   4.149  0.4408  0.2187 -0.3812
 2652SOL    HW119592   4.647   0.603   4.225 -0.2993 -1.7629 -1.9440
 2652SOL    HW219593   4.656   0.740   4.169 -2.4881 -1.0680  1.8065
 2653SOL     OW19594   1.218   2.970   5.770  0.0617 -0.1297 -0.5288
 2653SOL    HW119595   1.137   2.919   5.764 -0.9844  1.7130 -2.1221
 2653SOL    HW219596   1.178   3.054   5.794 -0.2326 -0.6897  0.9494
 2654SOL     OW19597   2.990   3.038  13.594  0.4040 -0.5144 -0.3002
 2654SOL    HW119598   2.933   3.094  13.541  0.7180 -0.6473 -0.7866
 2654SOL    HW219599   2.944   3.037  13.677  2.2549  0.4688  0.7397
 2655SOL     OW19600   0.797   1.185  11.680 -0.3219 -0.0855 -0.2364
 2655SOL    HW119601   0.710   1.221  11.699  0.3565  0.4112  1.8673
 2655SOL    HW219602   0.834   1.241  11.611 -0.7619  0.1605 -0.2786
 2656SOL     OW19603   4.091   2.452  15.375 -0.2376  0.8123 -0.0819
 2656SOL    HW119604   4.146   2.453  15.454 -1.3027 -0.4796  0.6888
 2656SOL    HW219605   4.142   2.505  15.314  3.1187 -1.0313  1.0957
 2657SOL     OW19606   1.308   1.181   7.212 -0.0179 -0.0746  0.2104
 2657SOL    HW119607   1.258   1.203   7.133 -0.9580 -0.6835  0.6404
 2657SOL    HW219608   1.389   1.160   7.165 -0.6942 -0.9149 -0.5772
 2658SOL     OW19609   2.395   2.466   8.188 -0.3071  0.2400  0.0478
 2658SOL    HW119610   2.343   2.386   8.174  1.1784 -0.5846 -0.7306
 2658SOL    HW219611   2.331   2.521   8.143  0.4635  0.3897 -0.8425
 2659SOL     OW19612   3.099   2.558   0.041  0.1147  0.2107  0.2104
 2659SOL    HW119613   3.178   2.550   0.094 -0.2371 -1.3665  0.4867
 2659SOL    HW219614   3.131   2.606  17.712  1.2102  1.4504  1.4501
 2660SOL     OW19615   3.504   1.276  14.915  0.0295  0.1881 -0.8000
 2660SOL    HW119616   3.582   1.271  14.860 -0.4538 -0.2294 -1.4482
 2660SOL    HW219617   3.534   1.346  14.973 -0.6512  0.8779 -1.2670
 2661SOL     OW19618   4.460   0.366  12.889 -0.1374  0.0739  0.2973
 2661SOL    HW119619   4.522   0.354  12.962  0.1982 -0.3090 -0.0531
 2661SOL    HW219620   4.430   0.457  12.897  2.5092  1.0527 -0.6090
 2662SOL     OW19621   3.297   4.500   8.397 -0.3732 -0.5551 -0.2703
 2662SOL    HW119622   3.328   4.475   8.310 -1.7229 -1.4192 -0.5139
 2662SOL    HW219623   3.374   4.485   8.452 -0.9027 -0.4059  0.5135
 2663SOL     OW19624   0.876   0.312   3.338 -0.1313 -0.0871 -0.0776
 2663SOL    HW119625   0.837   0.398   3.330  0.3141  0.1002 -0.2702
 2663SOL    HW219626   0.962   0.323   3.297  0.0124 -0.3206  0.1612
 2664SOL     OW19627   4.015   3.679   2.045  0.6204  0.2194  0.0831
 2664SOL    HW119628   4.006   3.647   2.135 -0.2731  0.8739  0.2341
 2664SOL    HW219629   3.931   3.657   2.006 -0.3859 -0.8029  2.7971
 2665SOL     OW19630   3.337   4.129   8.307  0.1660 -0.0460  0.0412
 2665SOL    HW119631   3.273   4.106   8.240  0.0256 -2.7678  1.1047
 2665SOL    HW219632   3.419   4.095   8.270 -0.7919  0.5685 -2.6436
 2666SOL     OW19633   2.826   0.226   0.987  0.1319 -0.6031 -0.3634
 2666SOL    HW119634   2.791   0.240   1.075  0.5108 -1.2259 -0.1108
 2666SOL    HW219635   2.852   0.314   0.959  1.1755 -0.5760  0.6903
 2667SOL     OW19636   2.578   3.292  10.030  0.4021  0.1569 -0.7293
 2667SOL    HW119637   2.597   3.358   9.963 -0.4871 -0.5216 -1.6380
 2667SOL    HW219638   2.579   3.338  10.115 -3.0702 -1.4599  0.1781
 2668SOL     OW19639   0.046   4.377   3.656 -0.3341  0.4635  0.8031
 2668SOL    HW119640   0.092   4.366   3.573 -0.6675  2.6382  0.3174
 2668SOL    HW219641   4.709   4.320   3.636  0.7832 -0.4278 -0.7943
 2669SOL     OW19642   3.356   1.654   7.795  0.2172 -1.1108 -0.1644
 2669SOL    HW119643   3.374   1.588   7.862 -0.7306 -1.2430 -0.0343
 2669SOL    HW219644   3.436   1.655   7.743  0.4741  0.7958  0.2789
 2670SOL     OW19645   0.600   0.818  12.278  0.4023  0.5380 -0.3787
 2670SOL    HW119646   0.551   0.857  12.206 -2.0081 -1.0886  0.3892
 2670SOL    HW219647   0.686   0.804  12.239 -0.7549 -1.2729 -2.3048
 2671SOL     OW19648   4.544   2.413   3.416  0.1562  0.5906  0.2575
 2671SOL    HW119649   4.578   2.365   3.491  2.2454  1.2874 -0.2307
 2671SOL    HW219650   4.615   2.415   3.352  0.9986 -2.3438  1.0976
 2672SOL     OW19651   1.684   1.906  14.191  0.3013 -0.4644 -0.1614
 2672SOL    HW119652   1.605   1.890  14.139 -1.6115  0.4296  2.4707
 2672SOL    HW219653   1.760   1.876  14.141 -0.2146  1.5754 -2.1467
 2673SOL     OW19654   0.263   0.032   9.302 -0.1636 -0.3782 -0.5032
 2673SOL    HW119655   0.249   4.689   9.351 -2.7888  0.1491 -0.3422
 2673SOL    HW219656   0.327   0.015   9.233  0.0947  1.3834 -0.7042
 2674SOL     OW19657   1.602   3.465   2.413  0.1374  0.3149  0.0043
 2674SOL    HW119658   1.617   3.441   2.505  0.5294  2.6014  0.5439
 2674SOL    HW219659   1.545   3.539   2.434 -1.1996 -0.2222 -1.8223
 2675SOL     OW19660   3.941   3.331   6.743 -0.5861 -0.0104  0.0333
 2675SOL    HW119661   3.869   3.350   6.803 -2.5430 -0.1129 -2.2399
 2675SOL    HW219662   3.903   3.253   6.701 -0.1957  0.3160 -0.9262
 2676SOL     OW19663   3.050   4.588   5.346 -0.1020 -0.2691 -0.2168
 2676SOL    HW119664   2.981   4.560   5.285  0.5520 -2.6122  0.1372
 2676SOL    HW219665   3.125   4.585   5.287 -0.8996 -2.3449 -1.1288
 2677SOL     OW19666   2.203   3.263   9.143  0.2222  0.2046  0.5504
 2677SOL    HW119667   2.249   3.301   9.068  1.3881 -1.0104  0.6450
 2677SOL    HW219668   2.261   3.289   9.214  1.6019 -1.6789  0.1296
 2678SOL     OW19669   1.637   0.657   9.713  0.1230  0.2233 -0.0833
 2678SOL    HW119670   1.634   0.630   9.621  1.5441  2.9628 -0.9280
 2678SOL    HW219671   1.724   0.624   9.735  0.1453  0.2946 -0.0660
 2679SOL     OW19672   3.042   3.097   1.618  0.9473  0.3918 -0.2209
 2679SOL    HW119673   2.955   3.096   1.579  0.6466  1.9109  0.4105
 2679SOL    HW219674   3.103   3.089   1.545  0.5219 -0.4986 -0.4853
 2680SOL     OW19675   0.132   0.464   2.384 -0.3456  0.1478 -0.1549
 2680SOL    HW119676   0.222   0.473   2.417 -0.3020  1.3497 -0.5815
 2680SOL    HW219677   0.118   0.544   2.332  0.3680  0.4947  0.1841
 2681SOL     OW19678   2.850   2.519   7.068  0.4138 -0.2511  0.0411
 2681SOL    HW119679   2.758   2.527   7.042  0.4395 -0.2309 -0.0450
 2681SOL    HW219680   2.876   2.445   7.013 -0.5881 -2.2343  2.2135
 2682SOL     OW19681   4.661   4.417   4.406  0.4019 -0.5355  0.4332
 2682SOL    HW119682   4.697   4.330   4.424  0.4387 -1.0852 -2.2528
 2682SOL    HW219683   4.730   4.453   4.350  0.9273 -1.2146  0.6490
 2683SOL     OW19684   3.107   0.759   5.961 -0.4087  0.2257 -0.3787
 2683SOL    HW119685   3.153   0.679   5.986 -3.2518 -1.0583  0.8147
 2683SOL    HW219686   3.024   0.728   5.924 -0.1167  0.7682 -1.5064
 2684SOL     OW19687   0.264   3.883  13.227 -0.2440  0.4343  0.1575
 2684SOL    HW119688   0.298   3.958  13.178  0.2586 -0.6848 -1.2141
 2684SOL    HW219689   0.257   3.921  13.315  0.0767 -1.7262  1.1029
 2685SOL     OW19690   3.853   1.637   7.048  0.3610 -0.6894 -0.1747
 2685SOL    HW119691   3.823   1.549   7.028 -2.0462 -0.1219  0.9893
 2685SOL    HW219692   3.850   1.623   7.142 -0.9099  0.1902 -0.0815
 2686SOL     OW19693   3.645   4.013  12.427 -0.2231  0.6155 -0.4230
 2686SOL    HW119694   3.671   4.087  12.372  2.6789 -0.8405 -0.9942
 2686SOL    HW219695   3.695   4.029  12.508  0.8122  1.7204 -1.2833
 2687SOL     OW19696   2.662   3.605  17.611  0.3510 -0.4476 -0.2608
 2687SOL    HW119697   2.754   3.622  17.591  0.4887 -0.4432  0.3816
 2687SOL    HW219698   2.639   3.674  17.673  0.2023 -1.2622  0.5966
 2688SOL     OW19699   2.893   4.162  16.219  0.1758 -0.0148 -0.2009
 2688SOL    HW119700   2.950   4.202  16.153 -0.4236 -0.4271 -0.9727
 2688SOL    HW219701   2.805   4.163  16.180 -0.3351  2.2140  1.0040
 2689SOL     OW19702   4.038   3.451  12.811  0.5607  0.2318  0.0162
 2689SOL    HW119703   4.024   3.461  12.717 -1.4052  0.9446  0.3959
 2689SOL    HW219704   4.064   3.536  12.848  1.4350 -0.3043  0.6131
 2690SOL     OW19705   0.741   0.391   5.965 -0.7100 -0.2084 -0.0018
 2690SOL    HW119706   0.748   0.332   6.040  2.4038 -2.6096 -2.1876
 2690SOL    HW219707   0.821   0.443   5.966 -0.8508 -0.0068  0.8962
 2691SOL     OW19708   1.404   4.702   2.435  0.0831  0.1141  0.0578
 2691SOL    HW119709   1.327   4.668   2.388  0.2900  0.6271 -0.6608
 2691SOL    HW219710   1.444   4.634   2.489 -0.7925 -0.3897  0.0676
 2692SOL     OW19711   0.491   3.791  16.588  0.1790 -0.2433 -0.2691
 2692SOL    HW119712   0.504   3.875  16.631 -1.1417  0.1831 -0.6894
 2692SOL    HW219713   0.395   3.788  16.593  0.2309  0.9698  1.7034
 2693SOL     OW19714   1.160   4.327   2.353 -0.1728  0.4222 -0.0204
 2693SOL    HW119715   1.129   4.318   2.444  0.7368  3.0107  0.5531
 2693SOL    HW219716   1.245   4.370   2.361 -2.2123  4.2925  0.5506
 2694SOL     OW19717   3.565   2.317  12.489  0.1840 -0.1924 -0.3604
 2694SOL    HW119718   3.546   2.242  12.545 -0.4329  0.0330 -0.2688
 2694SOL    HW219719   3.611   2.267  12.421  0.8953  0.5380 -0.4138
 2695SOL     OW19720   1.132   2.457  13.477 -0.7378  0.5853 -0.8534
 2695SOL    HW119721   1.193   2.430  13.546 -0.6201 -0.4245 -1.3594
 2695SOL    HW219722   1.060   2.397  13.497 -0.2865  0.0399 -0.8960
 2696SOL     OW19723   2.505   3.132   5.185  0.1965 -0.3305  0.5764
 2696SOL    HW119724   2.571   3.063   5.191  0.4041 -0.2394 -0.7732
 2696SOL    HW219725   2.452   3.109   5.109  1.3436 -2.1390  0.3207
 2697SOL     OW19726   4.207   4.590  11.513  0.2754  0.0294  0.1474
 2697SOL    HW119727   4.119   4.628  11.522 -0.2354 -0.3169 -3.3641
 2697SOL    HW219728   4.199   4.527  11.584 -1.0645 -2.5474 -2.2933
 2698SOL     OW19729   0.400   1.032  10.883 -0.2682 -0.0817 -0.1232
 2698SOL    HW119730   0.367   1.086  10.811  0.4197  0.4361 -0.0560
 2698SOL    HW219731   0.373   0.941  10.872 -2.2577  0.3487  1.2512
 2699SOL     OW19732   0.796   2.307   4.260  0.2356  0.2388  0.3213
 2699SOL    HW119733   0.753   2.281   4.341  0.0391 -0.3763  0.0275
 2699SOL    HW219734   0.724   2.361   4.230 -0.7120  0.1634  2.5260
 2700SOL     OW19735   2.180   0.141   9.050  0.1883  0.1495 -0.2067
 2700SOL    HW119736   2.203   0.115   9.139 -1.3438 -3.0146 -0.7317
 2700SOL    HW219737   2.142   0.225   9.074 -0.9289 -0.3233 -0.3427
 2701SOL     OW19738   2.736   4.260   3.613 -0.0544 -0.1543  0.0236
 2701SOL    HW119739   2.825   4.279   3.585 -0.2954  1.6925  0.5142
 2701SOL    HW219740   2.709   4.343   3.652  2.4937  0.8568 -0.3663
 2702SOL     OW19741   1.047   0.235  11.592 -0.7789 -0.2540  0.2215
 2702SOL    HW119742   0.992   0.307  11.562 -0.8328 -0.5351 -0.3620
 2702SOL    HW219743   1.076   0.210  11.504  0.2693 -0.9863  0.7726
 2703SOL     OW19744   1.329   0.150   7.459 -1.3171 -0.3683  0.3427
 2703SOL    HW119745   1.330   0.181   7.550 -0.3894 -0.5271  0.3822
 2703SOL    HW219746   1.268   0.077   7.456 -0.5718 -0.9722 -0.0130
 2704SOL     OW19747   2.675   3.812   0.078 -0.0553  0.0131 -0.2527
 2704SOL    HW119748   2.626   3.870   0.019  0.9170  0.7119 -0.3694
 2704SOL    HW219749   2.626   3.833   0.157  0.5377  3.5892 -0.7954
 2705SOL     OW19750   1.622   1.037   9.714  0.1906  0.4019 -0.6603
 2705SOL    HW119751   1.575   1.075   9.788 -1.7807 -0.2072 -1.5744
 2705SOL    HW219752   1.546   0.993   9.674 -1.1650  0.1258  2.2455
 2706SOL     OW19753   3.455   3.340  13.099  0.6117  0.5650  0.2746
 2706SOL    HW119754   3.542   3.379  13.109 -0.0637  1.6757  1.8588
 2706SOL    HW219755   3.468   3.295  13.016  0.1716  2.2502 -0.7211
 2707SOL     OW19756   3.314   2.880  11.679  0.0231  0.0994 -0.0344
 2707SOL    HW119757   3.245   2.945  11.692 -0.8705 -1.6958  4.1978
 2707SOL    HW219758   3.330   2.886  11.585  2.2821 -0.3160  0.3287
 2708SOL     OW19759   2.403   4.347   7.778 -0.0994  0.5585  0.5837
 2708SOL    HW119760   2.396   4.437   7.747  0.7181  0.0706 -1.0012
 2708SOL    HW219761   2.457   4.346   7.857 -0.7127  1.3996  1.0136
 2709SOL     OW19762   4.192   2.146   4.190  0.1349  0.5009 -0.2594
 2709SOL    HW119763   4.182   2.223   4.247 -0.0133  2.0265 -2.3516
 2709SOL    HW219764   4.200   2.074   4.252  3.7654  2.0769  1.1135
 2710SOL     OW19765   0.176   1.181   8.098 -0.2855  0.1980  0.6038
 2710SOL    HW119766   0.106   1.233   8.059  0.6998  0.5651 -0.6545
 2710SOL    HW219767   0.245   1.242   8.072 -0.4307  0.8089  1.6548
 2711SOL     OW19768   1.553   4.431  14.967 -0.2155 -0.4034  0.5055
 2711SOL    HW119769   1.526   4.408  14.879 -2.5224 -0.2812  1.1769
 2711SOL    HW219770   1.473   4.472  14.998 -1.5920 -0.8570 -2.4817
 2712SOL     OW19771   1.930   1.763   3.029  0.2631 -0.2642 -0.4927
 2712SOL    HW119772   1.900   1.854   3.026  0.5391 -0.1181  1.3590
 2712SOL    HW219773   2.020   1.774   3.062 -0.0573  1.0140 -0.0295
 2713SOL     OW19774   3.678   2.469   4.779  0.1879 -0.3455  0.4087
 2713SOL    HW119775   3.586   2.467   4.808  0.4062  1.9733  1.2609
 2713SOL    HW219776   3.692   2.564   4.786 -0.4120 -0.2273  0.0303
 2714SOL     OW19777   3.011   4.311   4.761 -0.1060  0.2139 -0.4342
 2714SOL    HW119778   2.989   4.264   4.680  2.6743 -1.4649 -0.2382
 2714SOL    HW219779   2.972   4.267   4.836 -1.4379  0.2713 -1.0985
 2715SOL     OW19780   3.684   0.473   3.050  0.3061 -0.0043  0.1267
 2715SOL    HW119781   3.746   0.546   3.054 -0.7894  0.9873 -0.8876
 2715SOL    HW219782   3.667   0.463   2.957  0.3801 -0.1546  0.1301
 2716SOL     OW19783   2.236   0.215   7.589  0.1986  0.1763  0.2925
 2716SOL    HW119784   2.288   0.287   7.624 -1.1122  0.5918  1.3836
 2716SOL    HW219785   2.170   0.261   7.537 -0.0006  2.9235  2.9624
 2717SOL     OW19786   0.949   3.736   6.310  0.1720 -0.5069  0.5756
 2717SOL    HW119787   0.863   3.738   6.351  1.3863  0.3050  3.0962
 2717SOL    HW219788   0.995   3.810   6.351 -1.1330  1.2545 -1.1140
 2718SOL     OW19789   4.670   0.881  15.993 -0.1686  0.0424  0.5916
 2718SOL    HW119790   4.621   0.955  15.957 -1.0476 -0.5350  0.6096
 2718SOL    HW219791   0.013   0.892  15.942 -0.9089 -0.1139 -0.6199
 2719SOL     OW19792   2.189   2.914   8.951 -0.1251  0.0886  0.3238
 2719SOL    HW119793   2.211   2.892   8.860  0.7465 -1.9783  1.0365
 2719SOL    HW219794   2.276   2.923   8.990  0.2209 -2.5241  0.1508
 2720SOL     OW19795   1.940   1.514   7.577 -0.3511  0.3870 -0.0929
 2720SOL    HW119796   1.964   1.557   7.496 -0.7488 -0.9143 -0.8957
 2720SOL    HW219797   2.010   1.550   7.631 -1.2113  2.0162 -0.0464
 2721SOL     OW19798   2.775   1.788   2.657 -0.6520  0.1708 -0.3281
 2721SOL    HW119799   2.799   1.778   2.564 -0.4301  0.3477 -0.2893
 2721SOL    HW219800   2.745   1.699   2.679 -0.1166  0.1732  0.4110
 2722SOL     OW19801   2.358   3.354   7.304 -0.1687  0.4169  0.3761
 2722SOL    HW119802   2.432   3.397   7.262  1.7665 -3.0057  0.2869
 2722SOL    HW219803   2.290   3.418   7.283 -0.1580  0.6894  1.1806
 2723SOL     OW19804   2.378   1.940   3.693 -0.2201  0.3362  0.0397
 2723SOL    HW119805   2.431   1.905   3.622 -2.6872 -2.0647 -0.6015
 2723SOL    HW219806   2.393   1.880   3.766 -0.4072  0.1568 -0.0694
 2724SOL     OW19807   3.795   4.534   7.313 -0.3151  0.5580 -0.2187
 2724SOL    HW119808   3.842   4.534   7.230  1.9130 -2.2678  1.0774
 2724SOL    HW219809   3.863   4.504   7.373 -0.2178 -0.5465 -0.8990
 2725SOL     OW19810   2.408   3.515   9.675  0.3246  0.4855  0.3258
 2725SOL    HW119811   2.476   3.505   9.741 -0.4491  2.9231  1.4788
 2725SOL    HW219812   2.427   3.601   9.638 -1.5632  0.6903 -0.1585
 2726SOL     OW19813   4.335   1.903   5.552 -0.5320  0.4835 -0.1355
 2726SOL    HW119814   4.292   1.880   5.470  0.7558  1.4062 -1.0689
 2726SOL    HW219815   4.332   1.822   5.604  0.1999  0.4593 -0.1335
 2727SOL     OW19816   3.256   0.763   2.578 -0.6123 -0.0292 -0.3511
 2727SOL    HW119817   3.220   0.706   2.646  2.2247 -0.0590  1.1056
 2727SOL    HW219818   3.306   0.698   2.528  0.1868  0.3389 -0.0191
 2728SOL     OW19819   1.950   3.252   9.247 -0.3560 -0.5461  0.3262
 2728SOL    HW119820   1.903   3.181   9.202  0.3186 -0.8809  0.1538
 2728SOL    HW219821   2.035   3.229   9.210  0.5024  1.0306  1.3417
 2729SOL     OW19822   1.596   1.907  11.544  0.1394  0.3951 -0.0929
 2729SOL    HW119823   1.626   1.871  11.627  0.5880  2.1416  0.4946
 2729SOL    HW219824   1.509   1.870  11.529 -0.8967  2.5547  0.5103
 2730SOL     OW19825   0.808   1.635   9.001  0.1014  0.1639  0.2701
 2730SOL    HW119826   0.828   1.613   9.092  2.1561  1.2670  0.0914
 2730SOL    HW219827   0.750   1.561   8.985  1.5913 -0.6172 -1.5384
 2731SOL     OW19828   4.476   2.046  11.839  0.2434  0.0563  0.0623
 2731SOL    HW119829   4.508   2.007  11.921 -1.4429 -3.1713 -0.8129
 2731SOL    HW219830   4.397   2.086  11.876 -0.0632  0.1709 -0.7138
 2732SOL     OW19831   4.656   1.537   4.192  0.2838  1.0251 -0.2162
 2732SOL    HW119832   4.650   1.593   4.115 -0.0543  1.9901  0.4989
 2732SOL    HW219833   4.731   1.480   4.179 -1.6232 -1.0911 -1.9369
 2733SOL     OW19834   4.073   0.299   3.025 -0.2214  0.2168  0.0743
 2733SOL    HW119835   4.049   0.239   3.095 -0.5932 -0.0850 -0.3066
 2733SOL    HW219836   4.089   0.245   2.947 -1.5140 -1.2393  0.8204
 2734SOL     OW19837   2.417   0.190   3.038 -0.4782  0.0009 -0.6129
 2734SOL    HW119838   2.498   0.140   3.034 -0.5068 -0.0297 -0.8398
 2734SOL    HW219839   2.457   0.272   3.067 -0.6261 -1.3467  3.3511
 2735SOL     OW19840   1.470   4.293   4.902 -0.1718 -0.1052 -0.3040
 2735SOL    HW119841   1.539   4.232   4.876  0.6695  0.8102 -0.2190
 2735SOL    HW219842   1.520   4.343   4.967 -1.2258  2.4255 -1.4563
 2736SOL     OW19843   4.571   0.950  13.122 -0.3317  0.1130  0.0642
 2736SOL    HW119844   4.511   0.924  13.192  0.2402  0.2428  0.5987
 2736SOL    HW219845   4.596   0.862  13.092 -2.4905 -0.5066  0.1108
 2737SOL     OW19846   3.258   2.800  16.712 -0.1629  0.0153 -0.0279
 2737SOL    HW119847   3.275   2.894  16.705 -1.0210 -0.0082 -2.7370
 2737SOL    HW219848   3.196   2.789  16.640 -1.0011  1.3880  0.4898
 2738SOL     OW19849   1.694   0.015   0.452  0.1413 -0.1212  0.1118
 2738SOL    HW119850   1.654   0.033   0.536  1.4103 -1.2224  0.9493
 2738SOL    HW219851   1.677   0.097   0.405  0.0042 -0.4747 -0.4570
 2739SOL     OW19852   3.312   3.755   8.869  0.2717  0.5887 -0.2407
 2739SOL    HW119853   3.310   3.839   8.823  2.7474  0.3986 -0.7296
 2739SOL    HW219854   3.262   3.696   8.813 -0.6537  0.6982  0.4659
 2740SOL     OW19855   1.068   2.640   5.684  0.1319  0.1771  0.0917
 2740SOL    HW119856   1.019   2.559   5.670 -0.5749  0.8426 -1.2467
 2740SOL    HW219857   1.010   2.711   5.711  0.8938  1.0336 -0.5323
 2741SOL     OW19858   2.205   4.629   2.600 -0.1025  0.0794 -0.0712
 2741SOL    HW119859   2.293   4.596   2.581  1.1663  2.3403  1.9272
 2741SOL    HW219860   2.214   4.668   2.686 -0.9411  0.0498  0.0228
 2742SOL     OW19861   2.071   2.241   0.426  0.2414 -0.2357 -0.1232
 2742SOL    HW119862   2.082   2.146   0.430 -0.1704 -0.3439 -1.5379
 2742SOL    HW219863   2.153   2.271   0.466 -0.9600  0.9443  1.4265
 2743SOL     OW19864   1.423   4.040   8.295 -0.1454  0.7213 -0.1545
 2743SOL    HW119865   1.452   3.991   8.372 -0.3844 -0.1401 -0.6102
 2743SOL    HW219866   1.479   4.008   8.225  0.7926  0.8051  0.5623
 2744SOL     OW19867   0.414   0.459   6.444  0.2733 -0.5231  0.0206
 2744SOL    HW119868   0.455   0.527   6.390  1.6910 -0.1776  1.5416
 2744SOL    HW219869   0.345   0.433   6.382 -0.3861  0.4315  0.3600
 2745SOL     OW19870   2.634   0.475   0.864 -0.2809  0.8014  0.4405
 2745SOL    HW119871   2.553   0.512   0.830 -0.6580 -0.8428 -0.4539
 2745SOL    HW219872   2.668   0.554   0.906  0.1769  1.3734 -1.0088
 2746SOL     OW19873   4.431   0.883  13.326 -0.0152 -0.6484  0.3353
 2746SOL    HW119874   4.359   0.835  13.366 -1.6950 -0.0584 -1.9734
 2746SOL    HW219875   4.468   0.912  13.409  3.4051 -0.4002 -1.2862
 2747SOL     OW19876   2.717   1.539  12.476 -0.0219 -0.7100 -0.1639
 2747SOL    HW119877   2.676   1.624  12.494 -0.0400 -1.0554  1.4080
 2747SOL    HW219878   2.643   1.479  12.469 -0.6953 -0.2129  2.7002
 2748SOL     OW19879   0.764   1.168   0.683 -0.4523 -0.1405  0.0423
 2748SOL    HW119880   0.834   1.224   0.717 -0.0498 -0.3797 -0.3913
 2748SOL    HW219881   0.775   1.093   0.741  1.0045  0.8596  1.0609
 2749SOL     OW19882   2.484   0.571   1.728 -0.5292  0.1728  0.7006
 2749SOL    HW119883   2.448   0.573   1.817  0.7636  0.4703  1.2221
 2749SOL    HW219884   2.527   0.656   1.718 -0.1625  0.0492  1.2049
 2750SOL     OW19885   4.267   3.913   7.820  0.2414 -0.2327 -0.0689
 2750SOL    HW119886   4.231   3.828   7.797  0.1217  0.1362 -1.2319
 2750SOL    HW219887   4.207   3.955   7.882  1.3966 -1.1859  1.6875
 2751SOL     OW19888   0.579   0.130   6.999 -0.5051 -0.3670 -0.2514
 2751SOL    HW119889   0.522   0.190   7.046  0.9287  1.6209 -1.0787
 2751SOL    HW219890   0.516   0.088   6.940 -0.8221 -0.1666 -0.0577
 2752SOL     OW19891   3.353   0.944  12.718 -0.5533  0.9647 -0.2706
 2752SOL    HW119892   3.334   0.998  12.794 -1.6943  0.3006 -0.0810
 2752SOL    HW219893   3.360   0.855  12.754 -0.7760  0.4409 -1.5092
 2753SOL     OW19894   0.161   3.451  11.990 -0.5191 -0.3433  0.0788
 2753SOL    HW119895   0.190   3.401  11.914 -0.7018  1.3195 -1.0770
 2753SOL    HW219896   0.237   3.499  12.022  0.8444 -3.1619  1.0060
 2754SOL     OW19897   1.506   4.477   5.422 -0.0143  0.2402 -0.3694
 2754SOL    HW119898   1.506   4.458   5.516 -0.9410  0.0852 -0.3971
 2754SOL    HW219899   1.596   4.507   5.406 -0.1177  0.7941  0.0754
 2755SOL     OW19900   0.365   1.090   3.673 -0.9523 -0.5035  0.0868
 2755SOL    HW119901   0.399   1.002   3.692 -3.3597 -1.7571 -1.3631
 2755SOL    HW219902   0.418   1.122   3.600  3.1256 -1.2139  2.7601
 2756SOL     OW19903   0.060   1.697  12.304 -0.0512  1.0340 -0.8639
 2756SOL    HW119904   4.723   1.684  12.245  0.1659  1.9633 -1.3476
 2756SOL    HW219905   0.034   1.629  12.365  2.1568  0.9060 -0.0786
 2757SOL     OW19906   4.437   1.993  13.104  0.1275  0.1714 -0.0213
 2757SOL    HW119907   4.369   2.060  13.094 -0.2493 -0.1562  0.3681
 2757SOL    HW219908   4.435   1.974  13.197  0.6120  1.2966  0.2196
 2758SOL     OW19909   2.918   4.468   9.325  0.7943 -0.6374 -0.0219
 2758SOL    HW119910   2.925   4.561   9.348  2.5093 -0.5121 -1.0300
 2758SOL    HW219911   2.867   4.475   9.245  1.2696 -0.4201 -0.3090
 2759SOL     OW19912   3.404   0.925   3.622  0.2083  0.4919  0.4774
 2759SOL    HW119913   3.320   0.881   3.614 -0.3528  1.7482 -0.3839
 2759SOL    HW219914   3.469   0.854   3.619 -0.1323  0.1828  0.3909
 2760SOL     OW19915   3.216   1.668   5.063  0.2101  0.8925 -0.3527
 2760SOL    HW119916   3.309   1.685   5.070  0.3054  0.7968 -1.3056
 2760SOL    HW219917   3.203   1.576   5.037  2.6857 -0.3150  2.6868
 2761SOL     OW19918   3.827   2.707   5.369  0.2596 -0.2495  0.0220
 2761SOL    HW119919   3.866   2.764   5.435  1.4356 -3.3797  2.0534
 2761SOL    HW219920   3.833   2.622   5.413  1.5139  0.8826  1.9992
 2762SOL     OW19921   2.185   3.184  16.898  0.3043 -0.3165 -0.4341
 2762SOL    HW119922   2.198   3.106  16.952  0.0881  0.3838  0.6371
 2762SOL    HW219923   2.172   3.148  16.810 -2.3620 -1.4770  0.4196
 2763SOL     OW19924   1.561   2.948   6.122 -0.0426  0.1175  0.2248
 2763SOL    HW119925   1.568   2.933   6.028  0.4096  0.1165  0.2602
 2763SOL    HW219926   1.482   2.899   6.144  0.5022 -1.0209 -0.3236
 2764SOL     OW19927   3.977   1.913   9.752  0.0922  0.4033  0.1943
 2764SOL    HW119928   3.985   1.983   9.816  1.7704  2.8409 -2.6622
 2764SOL    HW219929   4.068   1.885   9.760  0.3384  1.0323 -0.3090
 2765SOL     OW19930   2.146   1.523   6.514  0.4924 -0.2039  0.0958
 2765SOL    HW119931   2.182   1.579   6.583  0.0497  1.9762 -1.4188
 2765SOL    HW219932   2.206   1.523   6.439  1.7031 -0.8238  1.0766
 2766SOL     OW19933   2.726   1.279  17.340  0.0308 -0.7453  0.5500
 2766SOL    HW119934   2.708   1.306  17.250 -1.2526  0.0517  1.0396
 2766SOL    HW219935   2.643   1.302  17.383  1.0307  1.0753  1.5460
 2767SOL     OW19936   0.172   0.762   2.323 -0.0866  0.0274  0.0180
 2767SOL    HW119937   0.106   0.828   2.340 -0.9973 -0.4848 -1.5139
 2767SOL    HW219938   0.249   0.820   2.327 -1.0876  1.3279  0.2888
 2768SOL     OW19939   0.782   0.580   3.373  0.1031 -0.2842  0.4188
 2768SOL    HW119940   0.827   0.662   3.393  2.8420 -1.3206 -1.4768
 2768SOL    HW219941   0.705   0.625   3.338  0.2619 -0.8231 -0.6092
 2769SOL     OW19942   2.598   0.236   9.495  0.5948  0.6257  0.2681
 2769SOL    HW119943   2.627   0.159   9.543 -0.9668 -0.7412 -0.9704
 2769SOL    HW219944   2.683   0.273   9.470  0.9580 -0.3606  0.0407
 2770SOL     OW19945   1.670   0.656  17.596 -0.3809 -0.0592  0.1395
 2770SOL    HW119946   1.623   0.738  17.614 -2.3090 -0.7719 -1.6819
 2770SOL    HW219947   1.599   0.593  17.609 -1.3596  1.4378  2.0953
 2771SOL     OW19948   1.751   3.683   0.669 -0.1699 -0.2110  0.0442
 2771SOL    HW119949   1.684   3.650   0.729 -0.7495  1.5192  0.3340
 2771SOL    HW219950   1.687   3.713   0.605 -1.4331 -0.1887  1.3140
 2772SOL     OW19951   2.303   3.276   5.444  0.0721  0.2244 -1.1505
 2772SOL    HW119952   2.353   3.322   5.377 -2.0881  1.0081 -2.2412
 2772SOL    HW219953   2.278   3.352   5.495 -2.0189 -1.2251  0.0118
 2773SOL     OW19954   1.690   0.406  12.285  0.0936  0.0549 -0.0909
 2773SOL    HW119955   1.765   0.399  12.226  0.4905 -1.3506  0.5837
 2773SOL    HW219956   1.639   0.330  12.260 -1.1785  0.6911  0.5210
 2774SOL     OW19957   2.356   3.149   7.027  0.2087 -0.0540 -0.2845
 2774SOL    HW119958   2.336   3.084   6.960 -2.8033  0.6057 -0.0548
 2774SOL    HW219959   2.430   3.197   6.992  0.6455  0.1267  0.8737
 2775SOL     OW19960   1.685   1.475   4.140 -0.4579 -0.4901  0.0078
 2775SOL    HW119961   1.660   1.541   4.076  0.6383 -2.2294 -2.2430
 2775SOL    HW219962   1.737   1.530   4.197 -0.0483  1.1491 -1.9421
 2776SOL     OW19963   0.319   2.448   6.712 -0.0705  0.3469 -0.1524
 2776SOL    HW119964   0.348   2.376   6.656 -1.2935 -1.6899  1.8256
 2776SOL    HW219965   0.228   2.422   6.729  1.3212 -4.0254  0.6722
 2777SOL     OW19966   0.826   4.213   7.304  0.2829  0.3247 -0.4011
 2777SOL    HW119967   0.769   4.190   7.230 -0.8097  0.3527  0.4322
 2777SOL    HW219968   0.849   4.133   7.351  1.9219  2.4111  2.3306
 2778SOL     OW19969   0.399   0.133   0.742 -0.9850  0.5390  0.0676
 2778SOL    HW119970   0.436   0.097   0.823  0.5876  0.1819 -0.8066
 2778SOL    HW219971   0.484   0.133   0.697 -1.0251 -0.4666  0.0015
 2779SOL     OW19972   0.071   2.050   4.695  0.0920 -0.0551  0.2713
 2779SOL    HW119973   0.071   2.123   4.756  0.7875 -0.8717  1.2627
 2779SOL    HW219974   4.734   2.063   4.636 -0.1244  0.2022  0.5999
 2780SOL     OW19975   3.771   1.820   6.862 -0.1897  0.0804  0.4604
 2780SOL    HW119976   3.692   1.814   6.916  0.3248 -2.5260  0.9015
 2780SOL    HW219977   3.815   1.741   6.893 -1.7181 -1.2794 -0.8743
 2781SOL     OW19978   2.273   4.197   6.823  0.1210  0.0649  0.1972
 2781SOL    HW119979   2.222   4.143   6.763 -1.0083  1.5604 -0.1941
 2781SOL    HW219980   2.342   4.222   6.761 -1.4195  2.0258 -0.7087
 2782SOL     OW19981   1.522   3.228   5.763  1.0315 -0.2412 -0.1255
 2782SOL    HW119982   1.500   3.143   5.801  0.0028 -0.1197 -0.4575
 2782SOL    HW219983   1.595   3.207   5.704  0.6765 -0.0641 -0.6325
 2783SOL     OW19984   1.135   3.779   5.824  0.0145  0.3190 -0.4745
 2783SOL    HW119985   1.092   3.863   5.837  0.5336  1.0279 -3.3692
 2783SOL    HW219986   1.063   3.718   5.838 -1.5074  1.5969 -2.7522
 2784SOL     OW19987   2.376   3.021   6.543 -0.3137  0.1580  0.4709
 2784SOL    HW119988   2.355   2.952   6.480  3.1880 -0.8249  0.3613
 2784SOL    HW219989   2.453   3.060   6.501 -0.0353 -0.7120  0.1747
 2785SOL     OW19990   2.262   2.700   9.756  0.5130 -0.1593  0.3920
 2785SOL    HW119991   2.277   2.727   9.847  1.4024  1.9778 -0.3895
 2785SOL    HW219992   2.167   2.685   9.757  0.4411  0.1274 -1.4161
 2786SOL     OW19993   1.320   1.857   6.740 -0.5051  0.3975 -0.1863
 2786SOL    HW119994   1.324   1.771   6.698 -2.7575  0.3882 -0.4104
 2786SOL    HW219995   1.231   1.858   6.776 -0.7409  0.8439 -0.7822
 2787SOL     OW19996   3.603   2.158  16.250  0.0089 -0.0107  0.1009
 2787SOL    HW119997   3.583   2.154  16.344 -1.3552  0.3707 -0.1710
 2787SOL    HW219998   3.620   2.066  16.230 -1.3227 -0.5606  1.5081
 2788SOL     OW19999   1.835   2.691   3.108  0.1607 -0.2231  0.1100
 2788SOL    HW120000   1.919   2.661   3.144  0.3347 -1.1578 -1.0843
 2788SOL    HW220001   1.833   2.639   3.028  1.0475 -1.4241  0.8769
 2789SOL     OW20002   3.593   2.227   8.965 -0.0634 -0.0560 -0.5765
 2789SOL    HW120003   3.585   2.150   9.022 -2.6019  0.2235 -0.5427
 2789SOL    HW220004   3.552   2.297   9.016  1.9345  0.1872  0.6818
 2790SOL     OW20005   4.716   2.282   2.976 -0.1468  0.0945 -0.4492
 2790SOL    HW120006   0.028   2.362   2.960  2.2562 -1.4912 -1.0523
 2790SOL    HW220007   0.024   2.226   2.912  3.8548  0.9129  1.6479
 2791SOL     OW20008   1.723   1.755   8.298 -0.1730 -0.0779 -0.0262
 2791SOL    HW120009   1.643   1.703   8.313  1.3355 -1.9573  1.5488
 2791SOL    HW220010   1.707   1.799   8.382  2.0689  0.5773  0.0371
 2792SOL     OW20011   0.779   0.341   7.348 -0.7488  0.7655 -0.0745
 2792SOL    HW120012   0.804   0.277   7.281  0.0268 -0.4652  1.3907
 2792SOL    HW220013   0.699   0.371   7.305  0.3243  1.3359 -1.6547
 2793SOL     OW20014   2.183   2.682   4.235  0.2733 -0.1231 -0.2234
 2793SOL    HW120015   2.230   2.707   4.315  0.7945  1.2527 -0.9636
 2793SOL    HW220016   2.175   2.587   4.233  0.0228 -0.0652 -1.7990
 2794SOL     OW20017   3.930   3.152   5.571  0.6649  0.3606 -0.0227
 2794SOL    HW120018   3.870   3.205   5.624  3.7437  2.8754  0.9882
 2794SOL    HW220019   4.016   3.191   5.586  0.6966 -0.2553  1.4424
 2795SOL     OW20020   4.716   2.939   2.233  0.2880  0.5686 -0.5082
 2795SOL    HW120021   4.661   3.010   2.199 -1.7367 -0.2981  0.9234
 2795SOL    HW220022   0.066   2.962   2.202 -0.6037  0.9537 -2.7348
 2796SOL     OW20023   4.531   3.542   8.564 -0.2287  0.3104 -0.0238
 2796SOL    HW120024   4.460   3.495   8.519  0.3602  0.0011 -0.6301
 2796SOL    HW220025   4.595   3.514   8.498 -1.3301  0.7341 -1.2920
 2797SOL     OW20026   4.669   4.567   5.661 -0.1431  0.2836  0.9960
 2797SOL    HW120027   4.734   4.529   5.602  1.3187  0.9336  2.1880
 2797SOL    HW220028   4.600   4.500   5.660 -0.3014  0.4708 -0.9515
 2798SOL     OW20029   3.225   1.151  15.718 -0.4110  0.0840  0.1383
 2798SOL    HW120030   3.276   1.085  15.766 -0.1435  0.8835  0.9606
 2798SOL    HW220031   3.291   1.212  15.685 -0.4714 -0.5899 -1.1974
 2799SOL     OW20032   4.130   4.350   8.143 -0.1979 -0.1248  0.0064
 2799SOL    HW120033   4.190   4.275   8.141 -0.1927 -0.0638 -2.4015
 2799SOL    HW220034   4.192   4.420   8.166  0.6358 -0.6940 -0.4887
 2800SOL     OW20035   3.201   2.569   2.519 -0.2320  0.8726 -0.2939
 2800SOL    HW120036   3.157   2.549   2.437 -2.6167 -1.2853  1.5050
 2800SOL    HW220037   3.293   2.574   2.491 -0.0661 -2.7528 -0.4003
 2801SOL     OW20038   0.623   0.580   4.128  0.5648 -0.1443  0.0935
 2801SOL    HW120039   0.688   0.512   4.147  1.7385  0.7900 -0.5698
 2801SOL    HW220040   0.555   0.526   4.087  0.1514  0.8147 -0.4910
 2802SOL     OW20041   0.733   2.735   7.618 -0.0460 -0.0139  0.0229
 2802SOL    HW120042   0.663   2.678   7.650 -0.8174  0.7592 -0.2916
 2802SOL    HW220043   0.747   2.791   7.694  2.6712 -0.3461 -0.2377
 2803SOL     OW20044   4.030   0.500   2.540 -0.6794  0.0315  0.1711
 2803SOL    HW120045   3.990   0.530   2.622 -0.4780  0.3803  0.1437
 2803SOL    HW220046   3.973   0.546   2.478  1.2959  0.9073 -0.9679
 2804SOL     OW20047   4.100   1.176   7.787 -0.6379 -0.5679  0.0888
 2804SOL    HW120048   4.107   1.140   7.875  0.3232  0.2014  0.3202
 2804SOL    HW220049   4.104   1.096   7.734 -0.3540 -0.1433 -0.5281
 2805SOL     OW20050   1.390   3.792   5.725 -0.5570 -0.3559  0.1472
 2805SOL    HW120051   1.434   3.748   5.797 -0.8076 -2.3893 -0.9588
 2805SOL    HW220052   1.302   3.796   5.760 -0.5429  2.6381 -0.1069
 2806SOL     OW20053   2.442   1.396  14.208  0.0209 -0.2507  0.1725
 2806SOL    HW120054   2.473   1.334  14.274 -0.5686 -1.3361 -0.5695
 2806SOL    HW220055   2.373   1.341  14.171 -1.3444  0.3421  1.7880
 2807SOL     OW20056   3.972   2.927  13.985  0.0748  0.0723 -0.0180
 2807SOL    HW120057   4.023   2.945  13.905  2.4513 -2.3284  0.9483
 2807SOL    HW220058   3.891   2.977  13.973  0.2644  0.6976  1.2844
 2808SOL     OW20059   0.709   1.038  11.280  0.2915 -0.0295 -0.3955
 2808SOL    HW120060   0.632   1.055  11.226 -0.0251 -2.3025 -0.6677
 2808SOL    HW220061   0.766   1.018  11.205 -0.3502  0.4047 -0.9951
 2809SOL     OW20062   1.013   2.367   0.866  0.3356  0.0061 -0.6788
 2809SOL    HW120063   1.026   2.319   0.784 -2.3475  0.5439 -1.4183
 2809SOL    HW220064   1.001   2.456   0.832  0.1523  0.6554  1.1169
 2810SOL     OW20065   4.551   4.072   3.222  0.1839 -0.8226  0.2358
 2810SOL    HW120066   4.642   4.041   3.224  0.1973 -0.9038 -1.5406
 2810SOL    HW220067   4.503   4.011   3.278  0.5832  0.3642  1.8944
 2811SOL     OW20068   4.504   3.196   1.594  0.9005  0.0492 -0.5092
 2811SOL    HW120069   4.481   3.107   1.620  2.5086  0.0058  0.8162
 2811SOL    HW220070   4.420   3.240   1.588  1.9571  2.2611  0.9221
 2812SOL     OW20071   2.176   2.727   3.934  0.3653  0.1830  0.2275
 2812SOL    HW120072   2.153   2.639   3.905 -1.0498  0.1500  1.4083
 2812SOL    HW220073   2.239   2.719   4.006  0.4638  1.4883  0.2958
 2813SOL     OW20074   3.924   3.644  13.942 -0.3213  0.0204 -0.4614
 2813SOL    HW120075   3.867   3.579  13.983 -0.4170  0.1838 -0.3353
 2813SOL    HW220076   3.894   3.722  13.989 -3.0162 -2.5182  1.9417
 2814SOL     OW20077   4.183   2.442   3.946 -0.6064 -0.2653  0.1121
 2814SOL    HW120078   4.119   2.386   3.989  0.7310 -2.1933 -0.4109
 2814SOL    HW220079   4.164   2.527   3.987  1.5711 -0.7032  2.0231
 2815SOL     OW20080   2.555   1.531  12.188  0.6245  0.8336  0.2140
 2815SOL    HW120081   2.593   1.610  12.227  0.2267  0.9477  0.3649
 2815SOL    HW220082   2.640   1.491  12.166  0.1118  0.8207 -1.7050
 2816SOL     OW20083   0.475   3.640   3.076 -0.0042 -0.4459  0.4073
 2816SOL    HW120084   0.528   3.569   3.042 -0.7981 -0.7320 -0.2322
 2816SOL    HW220085   0.493   3.707   3.010  1.7232 -0.5192  0.8055
 2817SOL     OW20086   3.837   3.726   6.141 -0.1285  0.2243 -0.4469
 2817SOL    HW120087   3.798   3.809   6.167  0.2761  0.1612  0.3968
 2817SOL    HW220088   3.866   3.690   6.225  0.5366  1.0981 -0.2941
 2818SOL     OW20089   1.070   0.798   7.190 -0.4661  0.2475 -0.1498
 2818SOL    HW120090   1.160   0.796   7.157 -0.8536 -1.4515 -1.0642
 2818SOL    HW220091   1.064   0.882   7.237 -2.2794 -0.2918  0.5715
 2819SOL     OW20092   0.603   3.331   4.584  0.4083 -0.0507  0.8341
 2819SOL    HW120093   0.598   3.401   4.519  0.5828  1.8201  2.8289
 2819SOL    HW220094   0.670   3.376   4.636  0.1097  0.5804  0.6742
 2820SOL     OW20095   1.263   4.398   8.829  0.3731  0.2481 -0.4564
 2820SOL    HW120096   1.233   4.401   8.920 -1.3898 -2.7850 -0.9487
 2820SOL    HW220097   1.190   4.367   8.775  1.8198 -2.0531 -1.1077
 2821SOL     OW20098   2.053   2.278   9.564 -0.3096 -0.0563  0.3466
 2821SOL    HW120099   2.139   2.237   9.572 -0.5097 -0.5606 -0.0714
 2821SOL    HW220100   2.018   2.218   9.497 -1.2972 -1.3074  1.9726
 2822SOL     OW20101   3.181   0.115   9.120 -0.3592 -0.7100  0.3514
 2822SOL    HW120102   3.226   0.171   9.182  0.1925  0.4522 -1.0910
 2822SOL    HW220103   3.236   0.036   9.119 -1.3762 -1.4303  1.4742
 2823SOL     OW20104   1.182   1.330   6.237  0.1355  0.1991  0.3050
 2823SOL    HW120105   1.208   1.411   6.282  0.2784  0.1330  0.3412
 2823SOL    HW220106   1.087   1.344   6.231 -0.0030 -0.6433  0.5568
 2824SOL     OW20107   0.098   3.826   7.354  0.2834 -0.1025 -0.0530
 2824SOL    HW120108   0.155   3.830   7.431  1.4048  0.5250 -0.9187
 2824SOL    HW220109   0.024   3.774   7.384  0.2758 -0.0411  0.0357
 2825SOL     OW20110   4.650   1.597   4.720 -0.1279 -0.0136 -0.0502
 2825SOL    HW120111   0.004   1.613   4.744 -0.0786 -0.0473 -0.2188
 2825SOL    HW220112   4.647   1.639   4.634 -0.9023 -2.8399 -1.4131
 2826SOL     OW20113   2.837   0.985   1.307  0.3043  0.2919 -0.4204
 2826SOL    HW120114   2.896   0.918   1.342 -1.1250 -0.1095  1.1573
 2826SOL    HW220115   2.761   0.965   1.360  0.4647  1.8045  0.3860
 2827SOL     OW20116   1.080   1.056   7.284 -0.3333 -0.1689 -0.2328
 2827SOL    HW120117   1.155   1.096   7.240  0.1134 -2.5033 -1.6230
 2827SOL    HW220118   1.033   1.132   7.317 -1.8426 -1.4426  0.5389
 2828SOL     OW20119   0.796   0.682   2.473  0.4405  0.3129 -0.1921
 2828SOL    HW120120   0.889   0.667   2.457 -0.4334 -2.8315 -2.4137
 2828SOL    HW220121   0.788   0.732   2.554 -0.0043 -0.2536  0.1153
 2829SOL     OW20122   4.388   2.579   7.128 -0.5648 -0.1587 -0.3028
 2829SOL    HW120123   4.350   2.524   7.197  0.4736  1.0963  1.2693
 2829SOL    HW220124   4.479   2.589   7.158 -1.5266  0.7509  2.2974
 2830SOL     OW20125   1.833   3.084   8.241 -0.0326  0.2775 -0.4368
 2830SOL    HW120126   1.817   3.005   8.293 -0.3415  2.0976  2.2326
 2830SOL    HW220127   1.866   3.042   8.161 -1.4990 -2.7826  0.5384
 2831SOL     OW20128   4.408   0.866   8.309  0.1972 -0.1910  0.1351
 2831SOL    HW120129   4.465   0.874   8.232 -0.2390 -1.1723 -0.2832
 2831SOL    HW220130   4.373   0.777   8.305 -0.2979 -0.0131  0.5555
 2832SOL     OW20131   0.967   4.698   3.247  0.6411  0.1316  0.8946
 2832SOL    HW120132   1.029   4.730   3.312  2.1802 -2.3476  0.6468
 2832SOL    HW220133   0.887   4.671   3.293  0.5177 -2.0908 -0.5943
 2833SOL     OW20134   0.848   3.389   2.987 -0.3175 -0.9039 -0.5430
 2833SOL    HW120135   0.887   3.302   2.979  0.8721 -0.3480 -0.8231
 2833SOL    HW220136   0.921   3.429   3.035 -0.0497 -2.0681  0.0154
 2834SOL     OW20137   2.000   3.316  16.614  0.5036 -0.0716  0.4503
 2834SOL    HW120138   1.913   3.350  16.589  0.5562  0.3714  0.8820
 2834SOL    HW220139   2.051   3.320  16.534 -0.2188 -1.3781 -0.0719
 2835SOL     OW20140   2.057   0.881  13.396 -0.6044 -0.0771 -0.0272
 2835SOL    HW120141   2.010   0.899  13.478 -3.0779  1.7948 -1.8708
 2835SOL    HW220142   2.081   0.789  13.410 -2.4922 -0.6246 -0.3438
 2836SOL     OW20143   4.592   2.745   2.398 -0.0226 -0.3124 -0.7127
 2836SOL    HW120144   4.520   2.731   2.336 -0.2854 -0.2366 -0.4255
 2836SOL    HW220145   4.653   2.802   2.349  1.2115  0.1591  1.3679
 2837SOL     OW20146   2.741   4.675  16.874  0.8928  0.7485 -0.2153
 2837SOL    HW120147   2.776   4.711  16.956 -0.0037 -2.2660  1.5061
 2837SOL    HW220148   2.816   4.626  16.839  1.1055  1.6258 -0.9663
 2838SOL     OW20149   2.611   0.458  10.969 -0.0844  0.0894  0.1230
 2838SOL    HW120150   2.616   0.482  11.062 -1.6739 -2.6028  0.8830
 2838SOL    HW220151   2.556   0.529  10.937  0.5514  0.4786 -0.1100
 2839SOL     OW20152   2.606   0.731  10.002 -0.5042  0.0410 -0.1947
 2839SOL    HW120153   2.548   0.656   9.994 -1.3461  0.4238  2.1660
 2839SOL    HW220154   2.684   0.684  10.030 -1.8294 -1.8850  0.2256
 2840SOL     OW20155   3.602   2.497   4.473 -0.2685 -0.3294 -0.0967
 2840SOL    HW120156   3.543   2.471   4.544  0.4012 -0.5964  0.3652
 2840SOL    HW220157   3.661   2.559   4.517 -1.1854  0.0741  0.5690
 2841SOL     OW20158   1.306   4.618   7.012  0.1293 -0.1239  0.5608
 2841SOL    HW120159   1.306   4.558   6.937  1.0194  0.5781 -0.0031
 2841SOL    HW220160   1.390   4.594   7.050  0.7744 -0.1020 -0.8467
 2842SOL     OW20161   1.345   4.163   7.022  0.4191  0.5120 -0.0317
 2842SOL    HW120162   1.359   4.070   7.038  1.0452  0.3180 -1.7160
 2842SOL    HW220163   1.373   4.199   7.106  0.8642 -2.0221  0.9201
 2843SOL     OW20164   4.160   1.225  17.057  0.3854 -0.0095  0.1468
 2843SOL    HW120165   4.122   1.200  17.141  0.3684 -1.1630 -0.2088
 2843SOL    HW220166   4.093   1.186  17.001  0.7572  0.1285 -0.3985
 2844SOL     OW20167   2.928   2.744   4.780 -0.0054 -0.5919  0.0064
 2844SOL    HW120168   2.854   2.770   4.836  2.3688  3.1151  1.4177
 2844SOL    HW220169   2.989   2.719   4.849  1.0960 -1.4071 -1.2665
 2845SOL     OW20170   3.300   2.223  13.917 -0.5919  0.0224 -0.1889
 2845SOL    HW120171   3.220   2.195  13.873 -1.8269  0.3090  1.8807
 2845SOL    HW220172   3.269   2.291  13.977 -1.6066  1.7523 -2.7072
 2846SOL     OW20173   0.397   1.422  11.206 -0.0942  0.2751  0.0176
 2846SOL    HW120174   0.359   1.492  11.152 -3.0863 -0.6044  0.9591
 2846SOL    HW220175   0.478   1.399  11.160 -0.5319 -0.7995 -0.2199
 2847SOL     OW20176   1.864   4.606   4.345  0.0608 -0.5105 -0.5774
 2847SOL    HW120177   1.958   4.601   4.362  0.0099 -0.7739 -0.3607
 2847SOL    HW220178   1.854   4.684   4.291  0.5684 -0.4107 -0.5299
 2848SOL     OW20179   3.326   1.972   2.226 -0.2104  0.0518  0.4415
 2848SOL    HW120180   3.293   1.983   2.315  1.0155  2.0412  0.6539
 2848SOL    HW220181   3.278   2.034   2.170  1.1265 -0.6895 -1.5256
 2849SOL     OW20182   0.880   4.059  11.477  0.3554  0.1231  0.1959
 2849SOL    HW120183   0.898   3.990  11.540 -0.6481  0.3498  0.7356
 2849SOL    HW220184   0.964   4.099  11.455  0.5947  0.1297  1.1219
 2850SOL     OW20185   2.275   0.593   0.998 -0.3041  0.1627  0.3915
 2850SOL    HW120186   2.313   0.508   1.021 -1.7854 -0.5519  0.2006
 2850SOL    HW220187   2.232   0.573   0.915  0.4640 -0.3916  0.1359
 2851SOL     OW20188   4.321   0.247   8.236  0.9013  0.0556  0.1026
 2851SOL    HW120189   4.230   0.271   8.220  0.2112 -2.4270  0.4127
 2851SOL    HW220190   4.349   0.218   8.149  0.3596  0.3879 -0.1868
 2852SOL     OW20191   0.594   0.891   7.799 -0.1684 -0.4821 -0.3125
 2852SOL    HW120192   0.604   0.951   7.873  0.2346  0.9994 -1.5627
 2852SOL    HW220193   0.624   0.943   7.724  1.3771 -1.8071 -0.5997
 2853SOL     OW20194   2.420   0.583   5.878  0.1256  0.0011 -0.3169
 2853SOL    HW120195   2.348   0.640   5.906 -0.7417 -1.0403 -0.4352
 2853SOL    HW220196   2.422   0.512   5.942 -1.1948  1.0774  0.9178
 2854SOL     OW20197   0.008   1.488   6.266  0.5295  0.0346 -0.4165
 2854SOL    HW120198   4.730   1.395   6.249  1.2822 -0.4978  1.7237
 2854SOL    HW220199   0.093   1.507   6.227  0.9952 -0.7335  0.1922
 2855SOL     OW20200   2.972   0.461   1.913  0.3650 -0.1226  0.2876
 2855SOL    HW120201   3.016   0.504   1.987 -0.0257  0.7788 -0.0061
 2855SOL    HW220202   2.958   0.373   1.948 -0.6465 -0.0278  0.1299
 2856SOL     OW20203   0.356   2.325   6.083 -0.3868  0.0534  0.2385
 2856SOL    HW120204   0.436   2.374   6.102 -1.3504  1.2279  1.2422
 2856SOL    HW220205   0.296   2.399   6.084 -0.6799 -0.1852  0.4257
 2857SOL     OW20206   3.920   0.901   8.212 -0.0651 -0.1258 -0.1389
 2857SOL    HW120207   3.947   0.904   8.304  2.8144  0.8602 -0.9959
 2857SOL    HW220208   3.952   0.814   8.190  1.8634  0.7600 -0.8462
 2858SOL     OW20209   0.236   0.444   9.793  0.6759 -0.7537  0.5758
 2858SOL    HW120210   0.150   0.462   9.754  2.2347  1.5810 -1.7441
 2858SOL    HW220211   0.257   0.531   9.827  0.0488 -0.3382 -0.0822
 2859SOL     OW20212   3.935   0.383  13.610  0.5840 -0.0749  0.7219
 2859SOL    HW120213   3.974   0.393  13.696  1.0271  0.6389  0.4384
 2859SOL    HW220214   4.000   0.330  13.564  0.8235  0.4774  0.4170
 2860SOL     OW20215   3.236   4.006   1.927 -0.1211 -0.4669  0.5110
 2860SOL    HW120216   3.207   4.058   1.852  1.2729  1.4513  1.2894
 2860SOL    HW220217   3.152   3.978   1.962  0.4270 -0.0324  2.1871
 2861SOL     OW20218   4.105   4.242   2.483 -0.7244  0.0443  0.4613
 2861SOL    HW120219   4.064   4.163   2.518  0.6148  0.0624  2.0482
 2861SOL    HW220220   4.189   4.213   2.518 -1.3004  0.6234  2.3024
 2862SOL     OW20221   4.433   0.786   7.241  0.2691 -0.0771  0.7240
 2862SOL    HW120222   4.389   0.825   7.166 -2.4389  0.5347  2.6637
 2862SOL    HW220223   4.367   0.787   7.310 -1.0322 -0.3020 -0.5211
 2863SOL     OW20224   3.318   4.065   1.319 -0.4572 -0.2551 -0.3170
 2863SOL    HW120225   3.281   3.980   1.342 -1.1025  0.2873  0.6897
 2863SOL    HW220226   3.251   4.104   1.263 -0.0358 -1.7271 -1.8460
 2864SOL     OW20227   3.936   2.403   4.343  0.1874  1.2308  0.4840
 2864SOL    HW120228   3.861   2.349   4.367  1.1099 -1.0283 -1.7708
 2864SOL    HW220229   4.006   2.347   4.376 -1.8758 -2.0160 -0.6519
 2865SOL     OW20230   3.511   2.725   9.415 -0.3956  0.3334  0.0080
 2865SOL    HW120231   3.514   2.630   9.422  0.6114  0.4880  1.5434
 2865SOL    HW220232   3.491   2.742   9.323  0.3187 -0.7127 -0.3484
 2866SOL     OW20233   1.580   4.295  10.612  0.2750 -0.3098 -0.1687
 2866SOL    HW120234   1.498   4.268  10.571 -0.5782 -0.2304  1.4821
 2866SOL    HW220235   1.541   4.288  10.699 -0.2950  0.7037 -0.3336
 2867SOL     OW20236   1.890   1.541  11.257 -0.3069 -0.4282 -0.2884
 2867SOL    HW120237   1.895   1.482  11.333 -0.3884 -1.2842 -0.9487
 2867SOL    HW220238   1.797   1.563  11.259 -0.6123 -1.8295  1.3755
 2868SOL     OW20239   1.156   2.763  11.471 -0.3180  0.4785  0.0059
 2868SOL    HW120240   1.088   2.751  11.537  0.7862  0.1180  1.0651
 2868SOL    HW220241   1.215   2.822  11.517 -0.1368  2.6280 -2.9642
 2869SOL     OW20242   0.419   1.324   3.878 -0.3054 -0.0901  0.8440
 2869SOL    HW120243   0.421   1.256   3.811  0.9022  0.1798  0.6068
 2869SOL    HW220244   0.429   1.287   3.966 -1.1704 -1.4031  0.3842
 2870SOL     OW20245   3.650   0.834   3.050  0.0181 -0.1200 -0.1710
 2870SOL    HW120246   3.647   0.856   3.143  1.2489 -1.1312  0.1037
 2870SOL    HW220247   3.724   0.774   3.048 -0.5780 -0.8892  0.8891
 2871SOL     OW20248   3.835   3.203   7.377  0.0845  0.1268  0.4966
 2871SOL    HW120249   3.919   3.241   7.352  0.4200 -0.7130  0.3450
 2871SOL    HW220250   3.842   3.226   7.470  1.1060 -1.4342  0.8216
 2872SOL     OW20251   4.675   3.169  16.226 -0.2580 -0.5190  0.0463
 2872SOL    HW120252   4.600   3.213  16.267  0.8571  2.1170 -0.7526
 2872SOL    HW220253   4.657   3.196  16.136  0.5954  0.6046  0.2125
 2873SOL     OW20254   3.071   1.450   6.403  0.6145 -0.0708  0.2381
 2873SOL    HW120255   3.133   1.377   6.403 -1.2499 -1.6440  0.4063
 2873SOL    HW220256   3.053   1.454   6.309  0.0219  2.3301  0.4507
 2874SOL     OW20257   2.335   0.587  10.185  0.4891  0.0376  0.0066
 2874SOL    HW120258   2.310   0.655  10.122 -3.7569 -2.2770 -0.7869
 2874SOL    HW220259   2.404   0.543  10.135  1.2320  0.2103  0.8720
 2875SOL     OW20260   1.833   0.376  13.243  0.1812  0.0213  0.4884
 2875SOL    HW120261   1.893   0.449  13.252  0.6495  0.0997 -3.2340
 2875SOL    HW220262   1.769   0.418  13.185 -1.4842 -0.0997  2.2301
 2876SOL     OW20263   4.676   2.441   8.282 -0.5861  0.2084  0.8313
 2876SOL    HW120264   0.031   2.467   8.280 -0.6211  0.2973  0.2475
 2876SOL    HW220265   4.687   2.347   8.288 -3.6370 -0.4754 -3.7251
 2877SOL     OW20266   0.239   2.056  13.137 -0.3425 -0.6512  0.0569
 2877SOL    HW120267   0.275   2.026  13.221  0.4542  0.5937  0.1617
 2877SOL    HW220268   0.268   2.147  13.140 -3.0221  0.0922  2.4682
 2878SOL     OW20269   3.300   1.226  12.377 -0.1353  0.0770  0.3078
 2878SOL    HW120270   3.321   1.315  12.349 -0.6631 -0.3146 -1.3545
 2878SOL    HW220271   3.375   1.196  12.429  0.9454  1.1479 -0.6174
 2879SOL     OW20272   3.342   3.092   6.383  0.0910  0.6650  0.3772
 2879SOL    HW120273   3.283   3.166   6.399  0.6855  1.3320 -0.4810
 2879SOL    HW220274   3.411   3.096   6.449 -0.2083  2.3365  0.5931
 2880SOL     OW20275   4.686   0.022   4.389  0.0549 -0.7210  0.0614
 2880SOL    HW120276   4.734   4.681   4.364 -0.5243 -0.2698 -2.4251
 2880SOL    HW220277   0.010   0.080   4.345  0.6837  0.1522  2.0466
 2881SOL     OW20278   2.160   4.676  17.361  0.7191 -0.4738  0.6151
 2881SOL    HW120279   2.217   4.637  17.427  1.0789  2.1070  1.8380
 2881SOL    HW220280   2.092   4.721  17.412 -0.4925  0.2213 -1.6239
 2882SOL     OW20281   0.311   2.642   4.690  0.1732 -0.1924  0.2941
 2882SOL    HW120282   0.369   2.602   4.626  1.0977  0.3081  0.8290
 2882SOL    HW220283   0.226   2.643   4.646 -1.6989 -0.1659  3.9346
 2883SOL     OW20284   3.347   3.695   8.509  0.3247  0.0234  0.5898
 2883SOL    HW120285   3.385   3.764   8.454 -0.4753 -0.6191 -0.7745
 2883SOL    HW220286   3.350   3.736   8.595  1.6967  0.0850  0.5174
 2884SOL     OW20287   2.203   3.449   9.529  0.0903  0.1157 -0.9017
 2884SOL    HW120288   2.220   3.506   9.454 -0.4048  3.1115  1.2769
 2884SOL    HW220289   2.275   3.472   9.587  2.1302  1.7168 -4.0572
 2885SOL     OW20290   0.960   1.797   9.327 -0.4334  0.1666 -0.0949
 2885SOL    HW120291   1.015   1.783   9.404  0.9323  1.2208 -0.8785
 2885SOL    HW220292   0.873   1.773   9.361 -0.6968 -2.3971 -2.6379
 2886SOL     OW20293   3.306   0.064  12.588 -0.4600  0.5111  0.1990
 2886SOL    HW120294   3.352   4.722  12.559 -1.0331  1.2960 -2.8774
 2886SOL    HW220295   3.288   0.038  12.678  0.5626 -0.4425  0.1247
 2887SOL     OW20296   1.215   2.227   4.322  0.5244 -0.0851  0.0846
 2887SOL    HW120297   1.230   2.233   4.416 -1.4296  2.2238  0.2800
 2887SOL    HW220298   1.171   2.310   4.300  0.8418  0.6688  2.2920
 2888SOL     OW20299   3.487   0.626   2.497 -0.2048  0.6214 -0.5159
 2888SOL    HW120300   3.577   0.634   2.528 -0.4456  0.0680  0.3456
 2888SOL    HW220301   3.474   0.541   2.454 -0.7586  0.1744  0.5127
 2889SOL     OW20302   0.859   3.759   3.978 -0.3465 -0.3200  0.5183
 2889SOL    HW120303   0.843   3.824   4.046 -1.8247  0.8652 -0.9918
 2889SOL    HW220304   0.944   3.782   3.939 -0.6429  1.0725  0.6888
 2890SOL     OW20305   4.659   2.132   2.056 -0.0961  0.3766  0.2066
 2890SOL    HW120306   4.592   2.197   2.036  0.2146  0.6547  0.0605
 2890SOL    HW220307   4.715   2.180   2.118  1.1766 -1.2936  0.3534
 2891SOL     OW20308   3.035   1.237   3.755 -0.5771  0.1382 -0.3399
 2891SOL    HW120309   3.117   1.256   3.710 -1.3741  1.7774 -1.1244
 2891SOL    HW220310   3.032   1.142   3.757  0.5564  0.1130  0.4567
 2892SOL     OW20311   0.739   1.976   7.172  0.3505  0.3581 -0.2916
 2892SOL    HW120312   0.753   2.036   7.099 -2.5243 -1.1410 -2.0747
 2892SOL    HW220313   0.649   1.949   7.156 -0.0482  1.6937 -0.3115
 2893SOL     OW20314   4.536   0.494   1.986  0.1310  0.6993 -0.0617
 2893SOL    HW120315   4.628   0.469   1.979 -0.4599 -1.5766  0.3028
 2893SOL    HW220316   4.544   0.589   1.979 -1.8085  0.9335  0.8376
 2894SOL     OW20317   3.873   1.632  10.893  0.2668 -0.5782 -0.0299
 2894SOL    HW120318   3.830   1.634  10.978  0.3262 -2.5285  0.0594
 2894SOL    HW220319   3.797   1.638  10.834  0.1209 -0.4456  0.1719
 2895SOL     OW20320   3.717   1.039  16.951  0.0392 -0.0855 -0.0336
 2895SOL    HW120321   3.660   1.115  16.946 -0.9639 -0.7872  0.6176
 2895SOL    HW220322   3.657   0.984  17.001 -0.5903 -0.9578 -1.7594
 2896SOL     OW20323   2.032   2.997  15.910  0.1820  0.1398 -0.0281
 2896SOL    HW120324   2.111   2.957  15.874  0.7022  1.1652  0.0007
 2896SOL    HW220325   2.058   3.088  15.915 -0.5952  0.4638 -1.6460
 2897SOL     OW20326   0.404   0.287   7.135 -0.9015  0.2765 -0.0971
 2897SOL    HW120327   0.329   0.233   7.159 -0.4395  0.9304  2.7109
 2897SOL    HW220328   0.427   0.306   7.226 -0.6888  0.8219 -0.2630
 2898SOL     OW20329   3.569   3.915   5.605 -0.3809  0.0809  0.0696
 2898SOL    HW120330   3.486   3.886   5.566  0.3254  0.2017 -1.5227
 2898SOL    HW220331   3.637   3.858   5.570 -2.9158 -1.9798 -1.5628
 2899SOL     OW20332   0.971   1.947   4.468 -0.2201 -0.7683  0.4861
 2899SOL    HW120333   1.045   1.926   4.525  1.4886  1.3585 -0.9396
 2899SOL    HW220334   0.916   2.005   4.520  0.1688  1.5736 -1.7282
 2900SOL     OW20335   2.851   0.601  17.145  0.4974  0.3805 -0.2634
 2900SOL    HW120336   2.805   0.663  17.202 -0.6577 -2.0777  1.5008
 2900SOL    HW220337   2.943   0.626  17.148  0.8454 -0.9077 -0.3893
 2901SOL     OW20338   2.922   3.007   3.878  0.2554  0.2996  0.4915
 2901SOL    HW120339   2.882   2.955   3.948  2.2288  0.1295  1.4866
 2901SOL    HW220340   2.987   2.948   3.840 -1.2857  0.7400 -2.8514
 2902SOL     OW20341   2.214   3.390   3.960  0.5334  0.0531 -0.3150
 2902SOL    HW120342   2.196   3.479   3.989  0.8408 -0.5212  1.6248
 2902SOL    HW220343   2.245   3.364   4.046  1.3689  1.9259 -0.0405
 2903SOL     OW20344   0.024   0.037   8.006  0.7254  0.4502  0.4525
 2903SOL    HW120345   4.701   4.729   8.065  0.1083  1.9871  0.9958
 2903SOL    HW220346   4.725   0.125   8.014 -2.3810 -0.8396  0.7780
 2904SOL     OW20347   1.273   3.764   3.135 -0.1028 -0.0107  0.7650
 2904SOL    HW120348   1.251   3.847   3.092 -1.1728 -1.5397 -1.6430
 2904SOL    HW220349   1.277   3.789   3.227 -0.6538  1.1086  0.4826
 2905SOL     OW20350   4.336   4.380  16.697 -0.0377 -0.0792  0.4690
 2905SOL    HW120351   4.250   4.340  16.685 -0.1376 -0.3786  2.2057
 2905SOL    HW220352   4.309   4.465  16.731 -1.5029 -0.1735 -0.4575
 2906SOL     OW20353   1.965   4.551   0.313 -0.1302 -0.1632 -0.0624
 2906SOL    HW120354   1.948   4.582   0.402  0.6288  2.2082 -0.7280
 2906SOL    HW220355   1.876   4.539   0.281 -0.0598  2.4848 -1.3031
 2907SOL     OW20356   2.563   3.103   2.481 -0.3938  0.1080 -0.0131
 2907SOL    HW120357   2.495   3.075   2.543 -0.1933 -1.0099 -0.2913
 2907SOL    HW220358   2.520   3.181   2.445  0.4648  0.7911  0.4644
 2908SOL     OW20359   2.640   2.476   5.570 -0.7555 -0.4628  0.0664
 2908SOL    HW120360   2.614   2.387   5.593 -2.2183 -0.4248 -1.3673
 2908SOL    HW220361   2.703   2.464   5.499  1.1048 -1.0236  1.8370
 2909SOL     OW20362   1.967   0.650   2.227 -0.4448  0.3619 -0.2835
 2909SOL    HW120363   2.025   0.619   2.157 -1.2605 -0.7626 -0.4555
 2909SOL    HW220364   1.967   0.745   2.218  0.7960  0.4260  0.4772
 2910SOL     OW20365   4.578   2.459  10.073  0.1106 -0.2604  0.1313
 2910SOL    HW120366   4.601   2.516  10.146  0.7558  1.1500 -1.1845
 2910SOL    HW220367   4.559   2.370  10.104 -0.3644  0.1407  0.9895
 2911SOL     OW20368   4.330   3.423   1.138  0.0311  0.1558 -0.8859
 2911SOL    HW120369   4.424   3.427   1.157 -0.3390 -2.2689  1.3408
 2911SOL    HW220370   4.310   3.338   1.177  1.9922  1.5725  3.2377
 2912SOL     OW20371   2.959   3.517   2.346 -0.1975 -0.3445 -0.1654
 2912SOL    HW120372   2.959   3.421   2.350  0.2373 -0.2508  2.1275
 2912SOL    HW220373   3.040   3.532   2.395 -0.6478 -1.4448  0.9273
 2913SOL     OW20374   2.744   4.706  14.945 -0.4910  0.1010 -0.1501
 2913SOL    HW120375   2.676   4.666  14.999 -2.3357 -0.4164 -2.8788
 2913SOL    HW220376   2.688   4.737  14.874  0.4798  2.7042  0.2327
 2914SOL     OW20377   1.274   2.969   7.945  0.6911 -0.1497  0.0007
 2914SOL    HW120378   1.181   2.961   7.967  0.5071 -2.6022 -1.6595
 2914SOL    HW220379   1.310   2.892   7.989 -1.3233 -0.7685  0.5618
 2915SOL     OW20380   2.114   4.522   7.469  0.5555  0.2586 -0.3216
 2915SOL    HW120381   2.188   4.465   7.449  2.4417  2.0279  1.5875
 2915SOL    HW220382   2.050   4.458   7.500 -0.4707  2.7647  2.7553
 2916SOL     OW20383   2.979   2.283   4.379 -0.2285 -0.0446 -0.1940
 2916SOL    HW120384   2.986   2.373   4.410 -0.3869 -1.0943  2.8974
 2916SOL    HW220385   2.960   2.243   4.464  0.1192 -0.1121 -0.1477
 2917SOL     OW20386   1.007   0.409   8.223 -0.3330  0.5223  0.4389
 2917SOL    HW120387   0.962   0.467   8.162 -0.9196  0.5380  0.8886
 2917SOL    HW220388   0.950   0.424   8.298 -0.1657  3.2141  0.0274
 2918SOL     OW20389   4.690   0.103   5.726  0.0622 -0.4303  0.8246
 2918SOL    HW120390   4.595   0.102   5.719  0.2705  0.1362 -1.9550
 2918SOL    HW220391   4.701   0.008   5.724 -0.0169 -0.4947  2.9677
 2919SOL     OW20392   3.046   2.286   9.167  0.6819  0.7776 -0.8154
 2919SOL    HW120393   3.076   2.336   9.242 -0.2145  2.0448 -1.2987
 2919SOL    HW220394   3.119   2.284   9.105  0.7805  3.9955 -0.8007
 2920SOL     OW20395   1.347   3.990   9.060  0.3380 -0.1691 -0.1419
 2920SOL    HW120396   1.342   4.032   9.146 -0.1318 -0.0621 -0.2233
 2920SOL    HW220397   1.287   3.917   9.073 -1.0473  0.6615 -1.8330
 2921SOL     OW20398   0.374   4.616   2.390 -0.2075 -0.2333  0.4343
 2921SOL    HW120399   0.427   4.689   2.421 -0.5478  0.5068 -0.7534
 2921SOL    HW220400   0.418   4.533   2.409  0.2115  0.1708  1.2093
 2922SOL     OW20401   2.164   1.651   0.487 -0.1608  0.1675 -0.0538
 2922SOL    HW120402   2.197   1.663   0.576 -0.4675 -1.6053  0.2932
 2922SOL    HW220403   2.236   1.689   0.437 -1.5230  1.5799 -0.9339
 2923SOL     OW20404   3.189   1.953   6.481 -0.2582 -0.3906 -0.3009
 2923SOL    HW120405   3.272   1.998   6.464 -0.4459 -0.1507 -0.5910
 2923SOL    HW220406   3.196   1.875   6.425  0.1238 -0.7173  0.2082
 2924SOL     OW20407   3.388   3.662   7.554 -0.4290 -0.1076 -0.2958
 2924SOL    HW120408   3.386   3.664   7.649 -2.9058  2.5053 -0.4065
 2924SOL    HW220409   3.315   3.603   7.532 -2.0437  2.0350 -0.7066
 2925SOL     OW20410   1.294   0.431   1.299 -0.4977  0.1547 -0.3684
 2925SOL    HW120411   1.204   0.428   1.268 -0.0318  1.5852 -1.8774
 2925SOL    HW220412   1.290   0.482   1.380 -0.7748 -0.2914 -0.0995
 2926SOL     OW20413   3.286   1.562   9.116 -0.4711  0.6303  0.1113
 2926SOL    HW120414   3.236   1.542   9.196  0.4001  1.2809  0.8237
 2926SOL    HW220415   3.346   1.488   9.110  0.2158  0.9431  2.8429
 2927SOL     OW20416   3.427   1.748   2.110  0.3437 -0.3818 -0.3700
 2927SOL    HW120417   3.375   1.667   2.111 -0.7621  0.3275 -2.0894
 2927SOL    HW220418   3.376   1.816   2.155  0.0358 -1.0542  0.3051
 2928SOL     OW20419   0.891   2.052  16.707 -0.1442 -0.1972 -0.4352
 2928SOL    HW120420   0.936   1.972  16.678 -1.6734 -0.8524 -0.9844
 2928SOL    HW220421   0.834   2.064  16.631 -0.4759 -0.8370 -0.2896
 2929SOL     OW20422   3.269   1.245   6.347 -0.0688 -0.6442  0.0469
 2929SOL    HW120423   3.231   1.173   6.398 -0.5430  0.1141  0.7685
 2929SOL    HW220424   3.352   1.249   6.395 -0.4851  0.4050  0.6877
 2930SOL     OW20425   4.650   2.235  16.852 -0.2657  0.1030  0.0149
 2930SOL    HW120426   4.680   2.322  16.878 -0.7361  0.7629 -1.7103
 2930SOL    HW220427   4.730   2.208  16.808 -0.4971 -0.2371 -0.2010
 2931SOL     OW20428   0.895   0.975  11.021  0.2093 -0.1297  0.0666
 2931SOL    HW120429   0.925   0.907  10.961 -2.4284 -0.5174 -0.8359
 2931SOL    HW220430   0.848   1.024  10.953  1.4800  0.2941 -0.5119
 2932SOL     OW20431   0.507   4.046   5.511  0.2167  0.1987  0.4041
 2932SOL    HW120432   0.506   4.139   5.537 -0.0126  0.1011  0.7355
 2932SOL    HW220433   0.501   4.058   5.416  1.6205 -0.0736  0.2801
 2933SOL     OW20434   4.339   1.426  17.186  0.3575 -0.2168 -0.0775
 2933SOL    HW120435   4.344   1.510  17.140 -1.3641 -0.9263 -1.5845
 2933SOL    HW220436   4.267   1.389  17.135  0.9881  0.0184 -1.1319
 2934SOL     OW20437   1.365   0.891   7.448 -0.0797 -0.3950 -0.5168
 2934SOL    HW120438   1.296   0.957   7.441 -1.4963 -1.8556 -0.2251
 2934SOL    HW220439   1.382   0.860   7.359 -0.0228 -1.6805 -0.0544
 2935SOL     OW20440   1.626   4.618   2.780  0.3251 -0.6745  0.2389
 2935SOL    HW120441   1.538   4.583   2.765 -1.1937  2.0935  2.6834
 2935SOL    HW220442   1.606   4.687   2.844  1.8477 -2.4093  2.6093
 2936SOL     OW20443   1.286   0.368  11.230 -0.4584  0.0118 -0.2132
 2936SOL    HW120444   1.224   0.423  11.184 -0.1085 -0.4164 -1.2035
 2936SOL    HW220445   1.358   0.430  11.242 -0.5951 -0.1444  1.4085
 2937SOL     OW20446   0.876   3.745   6.025  0.3053  0.3875 -0.7743
 2937SOL    HW120447   0.902   3.735   6.116  0.4417  0.0449 -0.8525
 2937SOL    HW220448   0.788   3.707   6.036  0.9115 -1.3673 -1.9615
 2938SOL     OW20449   1.058   1.649  17.018  0.0571 -0.0104 -0.1792
 2938SOL    HW120450   1.112   1.682  17.090  0.2003  0.3426 -0.4524
 2938SOL    HW220451   0.968   1.670  17.045  0.2934  3.3719 -2.0499
 2939SOL     OW20452   4.441   4.212   4.788  0.7056  0.0898  0.4434
 2939SOL    HW120453   4.467   4.175   4.872  0.8304 -1.6902 -0.3697
 2939SOL    HW220454   4.523   4.241   4.747  0.0410  0.8525 -0.3430
 2940SOL     OW20455   2.952   0.008  16.398 -0.2322 -0.5519  0.0412
 2940SOL    HW120456   2.883   4.712  16.454  0.0235 -0.0684  0.6441
 2940SOL    HW220457   2.973   4.664  16.353  1.0147 -1.5179  2.3637
 2941SOL     OW20458   3.575   3.408   7.110  0.1805  0.2477  0.2910
 2941SOL    HW120459   3.585   3.355   7.189  3.7464 -0.2893 -0.5396
 2941SOL    HW220460   3.480   3.407   7.096  0.0809 -0.6358  1.0644
 2942SOL     OW20461   1.399   3.272  15.365 -0.0629  0.2700  0.5843
 2942SOL    HW120462   1.394   3.190  15.415  1.2310 -1.4219 -2.0691
 2942SOL    HW220463   1.311   3.275  15.328  1.3498  3.4549 -2.5122
 2943SOL     OW20464   4.576   2.199  10.199 -0.2427  0.0423 -0.0596
 2943SOL    HW120465   4.598   2.145  10.123  0.6706 -0.1837  0.3638
 2943SOL    HW220466   4.645   2.164  10.256 -0.3163 -3.9585 -2.4176
 2944SOL     OW20467   4.007   2.493   9.010 -0.6212  0.0590  0.4631
 2944SOL    HW120468   3.935   2.542   9.049 -0.7641  0.6667 -0.5994
 2944SOL    HW220469   3.953   2.417   8.987  0.1578  0.0425 -1.2909
 2945SOL     OW20470   3.313   3.218   8.331  0.2071  0.0582  0.0646
 2945SOL    HW120471   3.372   3.144   8.346  1.7054  1.5116  1.2811
 2945SOL    HW220472   3.252   3.169   8.276 -0.0151 -0.4513  0.7663
 2946SOL     OW20473   4.356   2.559  16.654  0.1611  0.1677 -0.2425
 2946SOL    HW120474   4.347   2.561  16.559 -1.4603  2.3302 -0.0303
 2946SOL    HW220475   4.370   2.466  16.672 -2.2293  0.2412  1.9840
 2947SOL     OW20476   1.295   2.269   8.981 -0.3995 -0.5698 -0.2006
 2947SOL    HW120477   1.256   2.205   9.041 -0.8154  1.2743  1.4886
 2947SOL    HW220478   1.263   2.353   9.015 -0.7531 -0.1934 -1.4331
 2948SOL     OW20479   0.753   1.913   7.451  0.0499 -0.0394  0.0399
 2948SOL    HW120480   0.796   1.998   7.458  0.1550 -0.3459  2.7599
 2948SOL    HW220481   0.724   1.913   7.359 -0.8322 -2.2238  0.3198
 2949SOL     OW20482   2.880   3.254   2.647 -0.3601  0.6956 -0.2183
 2949SOL    HW120483   2.785   3.269   2.644 -0.2492  1.0073 -2.3699
 2949SOL    HW220484   2.907   3.270   2.557 -1.2360  1.3070 -0.3750
 2950SOL     OW20485   3.527   1.443  10.029 -0.2852  0.0821  0.0068
 2950SOL    HW120486   3.498   1.358   9.996 -1.5462 -0.0680  1.4936
 2950SOL    HW220487   3.579   1.471   9.954 -0.9582  1.5174  0.0759
 2951SOL     OW20488   2.245   0.280  16.978  0.1130 -0.4336 -0.2164
 2951SOL    HW120489   2.239   0.308  16.886  1.1894  2.0740  0.4858
 2951SOL    HW220490   2.217   0.189  16.965  2.4754 -1.3703  1.3088
 2952SOL     OW20491   3.583   1.622   1.286 -0.4261 -0.0326 -0.1053
 2952SOL    HW120492   3.511   1.607   1.225 -1.1933  0.1095  0.7763
 2952SOL    HW220493   3.544   1.607   1.372  1.1827 -0.9273  0.4751
 2953SOL     OW20494   4.542   2.005   2.808  0.0779 -0.9157 -0.0113
 2953SOL    HW120495   4.504   1.979   2.724 -1.0072  2.5181 -0.5794
 2953SOL    HW220496   4.468   1.981   2.864 -0.7701  1.5446 -0.0743
 2954SOL     OW20497   1.889   3.299  10.151  0.1146 -0.2950 -0.9750
 2954SOL    HW120498   1.895   3.394  10.151 -0.3426 -0.2461  1.1449
 2954SOL    HW220499   1.846   3.281  10.067  3.4899 -2.2165 -2.2910
 2955SOL     OW20500   1.375   3.427   2.702 -0.0789 -0.3824  0.5463
 2955SOL    HW120501   1.453   3.474   2.674 -0.4071 -0.8936 -1.2089
 2955SOL    HW220502   1.339   3.497   2.756  1.9434  1.6757 -0.7673
 2956SOL     OW20503   0.647   2.306   6.166  0.0630  0.0147 -0.6057
 2956SOL    HW120504   0.695   2.275   6.242 -0.8419 -1.0030 -0.4459
 2956SOL    HW220505   0.641   2.231   6.106  2.3544 -0.7538  0.1365
 2957SOL     OW20506   4.121   2.292  12.933  1.0962  0.0795 -0.2057
 2957SOL    HW120507   4.103   2.372  12.885 -0.7733 -0.6548 -0.7516
 2957SOL    HW220508   4.069   2.238  12.873 -1.0317  0.1580  1.5444
 2958SOL     OW20509   3.833   2.682   8.518  0.9870 -0.3544  0.1799
 2958SOL    HW120510   3.893   2.704   8.590 -0.0259  1.4341  0.4649
 2958SOL    HW220511   3.895   2.707   8.450  0.5155 -0.0714 -0.1410
 2959SOL     OW20512   3.287   3.357   8.565 -0.3646 -0.3670 -0.1583
 2959SOL    HW120513   3.253   3.353   8.476  2.4787 -0.1863 -1.2780
 2959SOL    HW220514   3.381   3.349   8.547 -0.0917  0.4297  0.9243
 2960SOL     OW20515   0.132   2.427  10.718 -0.1617 -0.2531  0.1208
 2960SOL    HW120516   0.136   2.471  10.803 -1.1202 -0.5405  0.3243
 2960SOL    HW220517   0.222   2.400  10.705  0.2805  1.9585 -1.4180
 2961SOL     OW20518   2.199   0.462   1.787  0.1068 -0.0235 -0.0038
 2961SOL    HW120519   2.192   0.535   1.849 -0.7672  1.3852 -1.7838
 2961SOL    HW220520   2.110   0.460   1.752  1.4260  0.5766 -3.3522
 2962SOL     OW20521   3.191   1.435   0.694  0.0528 -0.4300  0.1371
 2962SOL    HW120522   3.237   1.392   0.621  1.8326  0.0009  1.0078
 2962SOL    HW220523   3.099   1.411   0.682  0.2635 -1.3296  0.3469
 2963SOL     OW20524   1.562   3.923   2.930  0.0078 -0.2363 -0.1076
 2963SOL    HW120525   1.631   3.975   2.971 -2.7568  3.2948  0.0713
 2963SOL    HW220526   1.485   3.959   2.973 -0.6432  0.8779 -2.2192
 2964SOL     OW20527   2.461   3.019  13.124  0.1555 -0.1396 -0.8088
 2964SOL    HW120528   2.488   3.021  13.033 -1.2469 -0.7984 -1.2490
 2964SOL    HW220529   2.376   3.061  13.135 -0.2247 -0.8324 -1.0709
 2965SOL     OW20530   0.730   0.075   5.020 -0.2278  0.2063 -0.0543
 2965SOL    HW120531   0.677   0.047   4.945  1.4838 -2.1006 -0.4096
 2965SOL    HW220532   0.809   0.025   4.998 -0.3287  0.3568 -0.7638
 2966SOL     OW20533   3.037   2.017   7.309  0.5839  0.5022  0.0895
 2966SOL    HW120534   2.980   1.957   7.357 -0.9808  1.8835 -0.0693
 2966SOL    HW220535   3.043   1.965   7.229  0.8757  1.4654 -0.5074
 2967SOL     OW20536   0.662   4.143   8.097  0.0238 -0.2179 -0.5267
 2967SOL    HW120537   0.712   4.169   8.173 -0.6319  0.6146 -0.3859
 2967SOL    HW220538   0.581   4.192   8.109 -0.0979 -0.9893  1.7500
 2968SOL     OW20539   0.384   1.367   7.032  0.4654  0.1221  0.2139
 2968SOL    HW120540   0.343   1.319   6.960  0.3021 -2.0196  1.7522
 2968SOL    HW220541   0.320   1.357   7.102 -0.3137  0.4260 -0.4531
 2969SOL     OW20542   0.285   1.050   8.780 -0.8254  0.2292  0.2568
 2969SOL    HW120543   0.254   1.117   8.842 -2.7350 -0.6064  0.2090
 2969SOL    HW220544   0.323   0.989   8.844  0.1075  0.3286 -0.2093
 2970SOL     OW20545   1.852   1.021  16.668 -0.0637  0.6143 -0.4467
 2970SOL    HW120546   1.887   1.107  16.644 -1.0423  0.6162 -1.9008
 2970SOL    HW220547   1.861   0.970  16.587  0.6875 -0.4964  0.3445
 2971SOL     OW20548   1.286   1.286  12.327  0.1524 -0.6111 -0.1211
 2971SOL    HW120549   1.232   1.344  12.274 -1.3004 -0.2122  1.8051
 2971SOL    HW220550   1.309   1.221  12.260  0.3204  0.1220 -0.7675
 2972SOL     OW20551   3.140   2.440   4.084 -0.0458 -0.1356  0.1613
 2972SOL    HW120552   3.212   2.500   4.104  0.5842 -1.2736  1.3784
 2972SOL    HW220553   3.067   2.481   4.130  1.0710  1.0393  0.9018
 2973SOL     OW20554   3.659   2.756   3.118 -0.2131  0.4316  0.6003
 2973SOL    HW120555   3.738   2.713   3.088 -0.2171  1.0332 -0.2815
 2973SOL    HW220556   3.704   2.818   3.175  0.6883  1.8986 -1.7083
 2974SOL     OW20557   1.159   1.898   2.752  0.3313  0.4713 -0.1097
 2974SOL    HW120558   1.105   1.931   2.823  0.6989  2.7138 -0.8873
 2974SOL    HW220559   1.117   1.947   2.682  1.3674  0.6604 -0.6058
 2975SOL     OW20560   4.458   3.613   5.044  0.4207 -0.1283 -0.4183
 2975SOL    HW120561   4.454   3.671   4.969  0.1346 -0.3039 -0.5414
 2975SOL    HW220562   4.443   3.532   4.995  0.9628 -1.8679  2.3024
 2976SOL     OW20563   2.770   1.341   3.807 -0.0577 -0.6657 -0.0037
 2976SOL    HW120564   2.862   1.320   3.790  0.2554  0.4434  0.3289
 2976SOL    HW220565   2.739   1.299   3.727 -2.0144 -0.0237  0.4194
 2977SOL     OW20566   2.328   3.745  15.056 -0.8965 -0.4062 -0.0913
 2977SOL    HW120567   2.293   3.780  14.975 -0.8491 -1.9197 -0.7548
 2977SOL    HW220568   2.331   3.654  15.025 -1.0151 -0.4380 -0.0112
 2978SOL     OW20569   4.480   3.573   8.182 -0.1158 -0.1762  0.5444
 2978SOL    HW120570   4.468   3.480   8.198 -0.3264 -0.1814  0.3622
 2978SOL    HW220571   4.395   3.611   8.206 -0.3489 -0.9318  0.8996
 2979SOL     OW20572   3.334   0.215  15.433 -0.3229 -0.7503  0.1301
 2979SOL    HW120573   3.244   0.245  15.426 -0.2859 -0.6715 -0.0047
 2979SOL    HW220574   3.352   0.225  15.340  2.6608  0.6391  0.8370
 2980SOL     OW20575   4.390   4.145   0.746  0.1503  0.2002 -0.2640
 2980SOL    HW120576   4.419   4.056   0.729 -0.2762  0.4577 -2.3438
 2980SOL    HW220577   4.368   4.173   0.657  0.7075  0.6118 -0.2727
 2981SOL     OW20578   3.254   1.202   0.242 -0.5765 -0.2982  0.4183
 2981SOL    HW120579   3.316   1.216   0.171 -1.0857 -0.6085 -0.0876
 2981SOL    HW220580   3.176   1.180   0.191  1.0112 -2.7320 -0.9409
 2982SOL     OW20581   3.721   3.073   1.939  0.3998 -0.4373  0.3350
 2982SOL    HW120582   3.692   3.075   1.848  0.4493 -0.4567  0.3191
 2982SOL    HW220583   3.648   3.123   1.976  0.0059 -1.4383  0.9074
 2983SOL     OW20584   1.040   2.909   8.039  0.3525 -0.5074 -0.1180
 2983SOL    HW120585   1.012   2.824   8.005  2.8801 -1.6761  0.7247
 2983SOL    HW220586   0.983   2.920   8.116 -0.5927 -1.3258 -0.7030
 2984SOL     OW20587   4.378   0.936   2.159 -0.0671  0.3999 -0.1055
 2984SOL    HW120588   4.415   0.917   2.073 -0.6578 -1.1373 -0.0233
 2984SOL    HW220589   4.388   1.031   2.157 -1.6506  0.5847  0.7906
 2985SOL     OW20590   4.423   1.831  10.499 -0.4832 -0.2664  0.6029
 2985SOL    HW120591   4.440   1.845  10.405  0.7601  1.8749  1.1282
 2985SOL    HW220592   4.353   1.766  10.500 -0.2929 -0.4886 -0.0720
 2986SOL     OW20593   1.965   1.960   7.688  0.0062  0.2788 -0.2383
 2986SOL    HW120594   1.984   1.897   7.758  0.2904  0.0408 -0.5317
 2986SOL    HW220595   1.882   1.993   7.723 -0.4753  0.1497 -1.2653
 2987SOL     OW20596   3.421   4.539  12.574  0.2590  0.1761  0.8381
 2987SOL    HW120597   3.371   4.490  12.640  0.5699 -1.4460 -0.1418
 2987SOL    HW220598   3.419   4.492  12.490  1.2062  1.1369  0.2949
 2988SOL     OW20599   4.637   4.331   4.664  0.3365  0.0582 -0.1965
 2988SOL    HW120600   4.639   4.391   4.589 -1.8781  0.7325  0.2651
 2988SOL    HW220601   4.725   4.294   4.655  0.3188  0.1972 -0.9732
 2989SOL     OW20602   3.782   2.483   5.501  0.3436  0.1978 -0.5757
 2989SOL    HW120603   3.829   2.455   5.580 -2.6510 -0.8254  0.8226
 2989SOL    HW220604   3.710   2.420   5.501  0.0563  0.5481  1.9857
 2990SOL     OW20605   1.147   3.949   7.457  0.0702  0.6965 -0.7873
 2990SOL    HW120606   1.066   3.910   7.488  0.5133  0.2452 -0.1991
 2990SOL    HW220607   1.169   4.008   7.529 -0.5154  0.3325 -0.3189
 2991SOL     OW20608   1.186   1.212  15.022 -0.0336 -0.4986  0.2012
 2991SOL    HW120609   1.111   1.189  14.967 -0.6611 -2.4095  1.8527
 2991SOL    HW220610   1.159   1.151  15.091 -2.0505 -1.4359 -1.4036
 2992SOL     OW20611   3.741   4.544   8.028  0.3731  0.4097  0.0170
 2992SOL    HW120612   3.682   4.602   8.075 -1.7825  0.3058 -2.5646
 2992SOL    HW220613   3.782   4.610   7.972  2.3795 -2.3552 -1.7988
 2993SOL     OW20614   4.515   3.089  14.535  0.0886 -0.4284  0.5092
 2993SOL    HW120615   4.595   3.115  14.488 -0.9742 -2.4256 -2.4165
 2993SOL    HW220616   4.459   3.057  14.464  1.0352 -0.0944 -0.3903
 2994SOL     OW20617   1.504   2.779   6.453 -0.0335 -0.5466 -0.8453
 2994SOL    HW120618   1.587   2.810   6.417  1.2263 -2.9409  0.0356
 2994SOL    HW220619   1.447   2.850   6.423  0.6776  0.2546 -0.3066
 2995SOL     OW20620   3.822   4.318  12.775  0.6196  0.2403 -0.5996
 2995SOL    HW120621   3.888   4.350  12.714  2.8740  0.7023  2.0775
 2995SOL    HW220622   3.756   4.387  12.771  2.0320  1.6221  0.2738
 2996SOL     OW20623   4.429   2.819   5.493  0.3700 -0.4094 -0.2367
 2996SOL    HW120624   4.393   2.761   5.426  2.5778  0.3531 -2.0992
 2996SOL    HW220625   4.362   2.888   5.495 -0.3734 -1.1679  0.6174
 2997SOL     OW20626   1.410   4.433   1.976  0.0901  0.1465  0.4289
 2997SOL    HW120627   1.419   4.523   1.944 -1.4801  0.6254  1.3231
 2997SOL    HW220628   1.492   4.395   1.946  0.2294 -0.2620  1.3423
 2998SOL     OW20629   3.528   4.482   8.516  0.2559 -0.4379 -0.1334
 2998SOL    HW120630   3.569   4.409   8.564  0.1396 -0.4501 -0.0526
 2998SOL    HW220631   3.599   4.507   8.457  1.0819 -1.1669  0.5403
 2999SOL     OW20632   0.750   2.499  12.480 -0.3484 -0.7463 -0.6779
 2999SOL    HW120633   0.809   2.550  12.424 -0.2427 -0.1557 -0.0271
 2999SOL    HW220634   0.729   2.565  12.546 -0.1698 -0.3221 -1.0408
 3000SOL     OW20635   1.397   0.418   4.808 -0.3191  0.3961 -0.0363
 3000SOL    HW120636   1.468   0.480   4.823 -1.2066  1.3990  0.0902
 3000SOL    HW220637   1.341   0.456   4.876 -1.5677  0.3962 -1.0433
 3001SOL     OW20638   0.676   0.847  10.002  0.4953  0.8484  0.3281
 3001SOL    HW120639   0.672   0.751  10.004 -0.0980  0.9148  2.2668
 3001SOL    HW220640   0.646   0.868  10.091 -0.9446 -2.6598  0.6946
 3002SOL     OW20641   3.882   2.157   1.884 -0.2336  0.4081  0.0353
 3002SOL    HW120642   3.971   2.170   1.852  0.9070  0.3196  3.1742
 3002SOL    HW220643   3.898   2.151   1.978 -0.1449 -2.8378 -0.2142
 3003SOL     OW20644   2.726   1.146   3.019  0.6543  0.1304  0.1421
 3003SOL    HW120645   2.675   1.077   3.061 -0.1141  0.7578  0.2485
 3003SOL    HW220646   2.818   1.124   3.031  0.2763 -1.8843 -0.7948
 3004SOL     OW20647   2.038   2.535   5.073 -0.2241 -0.3450 -0.1944
 3004SOL    HW120648   1.999   2.520   4.986  1.4624 -0.9548 -0.8372
 3004SOL    HW220649   1.982   2.602   5.112  0.8689 -0.0945  0.9039
 3005SOL     OW20650   1.826   0.285  12.535 -0.6153 -0.0398 -0.3200
 3005SOL    HW120651   1.900   0.335  12.500  0.1018 -0.7108  0.2412
 3005SOL    HW220652   1.791   0.352  12.595  1.1280  1.6112 -1.1430
 3006SOL     OW20653   0.428   1.148   8.566  0.7421  0.0994 -0.2766
 3006SOL    HW120654   0.376   1.220   8.529  1.3851  0.4552 -0.4963
 3006SOL    HW220655   0.379   1.133   8.647  0.5423 -0.2812 -0.4692
 3007SOL     OW20656   3.755   0.365   3.853  0.2439  0.2169  0.7937
 3007SOL    HW120657   3.664   0.346   3.830  0.0343  0.2962  1.5597
 3007SOL    HW220658   3.736   0.420   3.929  0.6086 -0.2001  1.1850
 3008SOL     OW20659   2.656   0.269   3.218 -0.4758  0.6056  0.2405
 3008SOL    HW120660   2.681   0.361   3.227  1.4340 -0.1190  2.3672
 3008SOL    HW220661   2.732   0.237   3.169 -0.0435 -0.7389  1.8000
 3009SOL     OW20662   3.222   1.025   5.248  0.3011 -0.0129  0.5208
 3009SOL    HW120663   3.165   1.042   5.323  0.0135 -0.0154  0.3058
 3009SOL    HW220664   3.176   0.957   5.197 -3.6305  2.9377  0.1027
 3010SOL     OW20665   1.872   1.262   6.992  0.0789  0.2685  0.2587
 3010SOL    HW120666   1.889   1.280   7.085  1.3794  2.3511 -0.3839
 3010SOL    HW220667   1.836   1.174   6.990  0.3724  0.0366  3.9099
 3011SOL     OW20668   1.576   1.353   2.624 -0.4325 -0.1295  0.1208
 3011SOL    HW120669   1.512   1.366   2.554 -0.0216  0.5261 -0.1319
 3011SOL    HW220670   1.546   1.265   2.644  3.8724 -1.8045 -0.6346
 3012SOL     OW20671   1.968   1.965   2.146 -0.3063  0.0448  0.0194
 3012SOL    HW120672   1.967   1.909   2.068 -1.3406 -1.2097  0.9219
 3012SOL    HW220673   1.906   1.926   2.208  0.6344 -0.5007  0.6190
 3013SOL     OW20674   4.557   0.020   8.729  0.0482 -0.9188  0.4581
 3013SOL    HW120675   4.502   0.098   8.721 -0.1919 -1.0913  0.4395
 3013SOL    HW220676   4.625   0.038   8.664 -1.4619  1.1424 -0.5538
 3014SOL     OW20677   3.498   0.332   6.945 -0.0268 -0.3124  0.0416
 3014SOL    HW120678   3.466   0.267   6.882 -0.9152 -0.0695  0.2531
 3014SOL    HW220679   3.438   0.401   6.917 -1.0540 -2.1110 -2.2493
 3015SOL     OW20680   0.794   2.409   9.775  0.2014 -0.3747  0.0766
 3015SOL    HW120681   0.812   2.393   9.868  0.5935  1.2007  0.2718
 3015SOL    HW220682   0.757   2.496   9.783  2.1778  0.1133  4.1247
 3016SOL     OW20683   1.968   2.059   3.015  0.0812 -0.0906  0.4685
 3016SOL    HW120684   2.050   2.011   3.019 -0.1130 -0.2824  2.2529
 3016SOL    HW220685   2.000   2.136   2.969  0.7157 -0.9646 -0.5607
 3017SOL     OW20686   1.456   0.227   1.807  0.0960 -0.0663  0.0684
 3017SOL    HW120687   1.406   0.229   1.726  0.7743  0.9896 -0.3329
 3017SOL    HW220688   1.445   0.137   1.839  1.0826  0.7939  2.8897
 3018SOL     OW20689   4.666   2.116   5.088 -0.4428 -0.0402  0.1462
 3018SOL    HW120690   4.620   2.037   5.058 -0.7140 -0.9467  2.9754
 3018SOL    HW220691   4.737   2.134   5.027  0.5520  1.6777  1.7897
 3019SOL     OW20692   0.161   1.313   5.754 -0.1558 -0.1097 -0.2361
 3019SOL    HW120693   0.086   1.299   5.697  0.3199  1.1086 -1.1647
 3019SOL    HW220694   0.226   1.355   5.697 -0.3737 -0.7199 -0.9339
 3020SOL     OW20695   3.957   0.181   3.914  0.5816 -0.3449  0.1177
 3020SOL    HW120696   3.890   0.246   3.892  1.4369  0.4419 -0.1465
 3020SOL    HW220697   3.973   0.140   3.829 -2.3994 -0.7526 -0.2573
 3021SOL     OW20698   0.382   0.115   0.087  0.3375  0.6305 -0.1799
 3021SOL    HW120699   0.336   0.032   0.071  1.2403  0.1971 -0.5101
 3021SOL    HW220700   0.429   0.110   0.170 -0.9523 -0.9517  0.4597
 3022SOL     OW20701   0.479   4.646   5.519  0.1012 -0.1425 -0.1420
 3022SOL    HW120702   0.517   4.690   5.594 -0.7894 -0.2595  0.3810
 3022SOL    HW220703   0.523   4.562   5.530  0.4898  0.3537  1.9895
 3023SOL     OW20704   3.889   1.088  11.299  0.1905 -0.1261  0.3743
 3023SOL    HW120705   3.948   1.015  11.280 -0.1406 -0.4139  0.4459
 3023SOL    HW220706   3.875   1.078  11.393 -3.4191  2.1567  0.0999
 3024SOL     OW20707   1.576   3.811  12.549 -0.0691 -0.6569  0.0431
 3024SOL    HW120708   1.603   3.791  12.460  1.9117 -1.1845  0.7583
 3024SOL    HW220709   1.611   3.899  12.565 -1.1471  0.0728 -1.6797
 3025SOL     OW20710   4.436   2.364   2.712  0.0635 -0.3586  0.0120
 3025SOL    HW120711   4.351   2.339   2.676 -0.6153  1.2272  0.5049
 3025SOL    HW220712   4.437   2.457   2.689 -1.2986 -0.5975 -0.9886
 3026SOL     OW20713   3.232   4.645   9.425  0.0346  0.0533 -0.2110
 3026SOL    HW120714   3.266   4.734   9.438  2.1581 -1.0404  1.7249
 3026SOL    HW220715   3.139   4.663   9.413  0.1023  1.5624  1.4296
 3027SOL     OW20716   0.327   2.145   8.059  0.3546 -0.0776 -0.0660
 3027SOL    HW120717   0.240   2.138   8.019  0.1014 -0.4285  0.5428
 3027SOL    HW220718   0.391   2.102   8.003  0.5107  0.6162 -0.4166
 3028SOL     OW20719   1.072   2.482   6.843  0.0489 -0.1800  0.3644
 3028SOL    HW120720   1.103   2.428   6.916 -2.0778 -0.9666  0.6960
 3028SOL    HW220721   1.058   2.416   6.775  3.0526 -0.7682  0.3127
 3029SOL     OW20722   2.526   1.366   0.728  0.8088  0.6973  0.4465
 3029SOL    HW120723   2.535   1.333   0.638 -1.0351 -3.3236  1.7347
 3029SOL    HW220724   2.551   1.300   0.793 -1.8360 -0.4522  0.2823
 3030SOL     OW20725   1.216   0.248   8.416  0.3061  0.4861  0.2511
 3030SOL    HW120726   1.296   0.297   8.400  1.4369 -1.1303  0.9334
 3030SOL    HW220727   1.161   0.305   8.363  1.3030  0.5086 -0.7580
 3031SOL     OW20728   4.277   0.108   7.507 -0.2340  0.1380  0.2204
 3031SOL    HW120729   4.226   0.185   7.529 -1.2478 -0.1618 -1.0905
 3031SOL    HW220730   4.284   0.069   7.594  3.0897 -1.0001 -0.5360
 3032SOL     OW20731   2.172   3.282   4.654 -0.3243  0.2123 -0.3598
 3032SOL    HW120732   2.100   3.229   4.687 -1.6551  0.7008 -2.5111
 3032SOL    HW220733   2.204   3.320   4.737 -1.9354  0.4568  0.1379
 3033SOL     OW20734   1.844   1.594   8.539  0.5597 -0.8580 -0.0642
 3033SOL    HW120735   1.776   1.622   8.600 -0.1667  0.1693 -1.3141
 3033SOL    HW220736   1.888   1.679   8.533  2.0458 -1.6434 -0.2024
 3034SOL     OW20737   1.021   3.444  12.143  0.0585  0.5395  0.3443
 3034SOL    HW120738   0.943   3.500  12.147 -0.0984  0.3531 -0.1478
 3034SOL    HW220739   1.056   3.454  12.232 -0.7443  0.5881  0.6508
 3035SOL     OW20740   1.627   1.973   3.001  0.3587  0.4044 -0.5217
 3035SOL    HW120741   1.639   2.048   2.944 -1.5325  2.0258  1.2173
 3035SOL    HW220742   1.642   1.897   2.945  1.3155 -0.1325  0.4573
 3036SOL     OW20743   4.569   3.997   2.885  0.1554 -0.1023  0.4361
 3036SOL    HW120744   4.619   3.924   2.922 -0.4781 -0.1802  1.1557
 3036SOL    HW220745   4.493   4.006   2.944 -2.8814 -0.3585 -3.4329
 3037SOL     OW20746   0.297   0.013   4.843 -0.1037  0.2619 -0.4022
 3037SOL    HW120747   0.286   0.077   4.914 -0.7609 -1.4130  1.0202
 3037SOL    HW220748   0.252   0.059   4.772 -1.4730 -0.2154  0.1564
 3038SOL     OW20749   0.493   3.074   6.123  0.3050 -0.5759 -0.1259
 3038SOL    HW120750   0.535   3.006   6.177 -1.1481 -0.3195  1.3288
 3038SOL    HW220751   0.574   3.112   6.091  0.2603  2.0239  2.9299
 3039SOL     OW20752   1.720   2.089   6.625 -0.8423  0.4518  0.1237
 3039SOL    HW120753   1.635   2.103   6.666 -0.9897 -1.3579  0.4399
 3039SOL    HW220754   1.710   1.994   6.626 -1.9080  0.5534 -0.7847
 3040SOL     OW20755   4.496   3.978   7.333  0.1744  0.0271  0.0628
 3040SOL    HW120756   4.577   3.930   7.320 -0.8413 -1.7378  0.2130
 3040SOL    HW220757   4.475   4.003   7.243 -3.3145  1.6592  1.3087
 3041SOL     OW20758   2.426   4.389   8.360  0.4365 -0.1315 -0.0075
 3041SOL    HW120759   2.375   4.448   8.304 -0.5890 -0.2841  0.7605
 3041SOL    HW220760   2.507   4.438   8.372  1.0686 -0.9890 -0.7417
 3042SOL     OW20761   2.487   4.221   5.091 -0.3198  0.1063 -0.0367
 3042SOL    HW120762   2.464   4.226   4.999  1.2725 -0.1004 -0.4410
 3042SOL    HW220763   2.404   4.185   5.122 -0.7362 -1.2052 -2.6651
 3043SOL     OW20764   2.911   4.125   2.122 -0.0421 -0.7529  0.3913
 3043SOL    HW120765   2.847   4.190   2.151  2.5715  2.4691 -1.0780
 3043SOL    HW220766   2.870   4.038   2.123 -2.0937  0.2497  3.2871
 3044SOL     OW20767   0.664   4.472   4.797 -0.2613  0.0839  0.3144
 3044SOL    HW120768   0.639   4.564   4.783  3.2745  1.2351  1.6980
 3044SOL    HW220769   0.682   4.471   4.891  0.4476  0.2435  0.1761
 3045SOL     OW20770   2.080   1.053   4.740  0.2659  0.1423  0.3485
 3045SOL    HW120771   2.028   1.031   4.663  0.8153  0.1338 -0.0235
 3045SOL    HW220772   2.132   0.973   4.749 -2.2687 -1.4746  0.4853
 3046SOL     OW20773   2.658   1.934  13.801  0.0582  0.1108 -0.2253
 3046SOL    HW120774   2.626   1.877  13.871  1.9030 -0.4088  0.1986
 3046SOL    HW220775   2.642   1.881  13.723  0.7590  0.3996 -0.5603
 3047SOL     OW20776   0.685   1.704   5.393  0.1783 -0.4338  0.0447
 3047SOL    HW120777   0.592   1.687   5.408 -0.0218 -0.1744 -0.8853
 3047SOL    HW220778   0.680   1.793   5.357 -2.0964 -0.1999  0.9371
 3048SOL     OW20779   3.729   1.121   2.550 -0.2895  0.4673  0.3114
 3048SOL    HW120780   3.767   1.037   2.578  0.1364 -0.6846 -3.7478
 3048SOL    HW220781   3.718   1.103   2.456  0.8731  0.7236  0.1260
 3049SOL     OW20782   0.018   1.475   3.288  0.2901 -0.4867 -0.3058
 3049SOL    HW120783   0.052   1.402   3.339  0.2180  0.6130  1.3266
 3049SOL    HW220784   4.689   1.509   3.347  1.6913 -0.6648  1.3568
 3050SOL     OW20785   4.178   3.678   6.188  0.2480 -0.2723  0.6698
 3050SOL    HW120786   4.104   3.671   6.248  0.9487  1.1524  1.7108
 3050SOL    HW220787   4.199   3.591   6.154  0.3372  0.2003 -0.4941
 3051SOL     OW20788   1.500   0.002  14.707 -0.4549  0.5011  0.5598
 3051SOL    HW120789   1.537   4.658  14.672 -1.2916  0.4827 -0.2830
 3051SOL    HW220790   1.416   4.698  14.726 -0.1732 -0.1929  0.2861
 3052SOL     OW20791   3.579   4.267   1.825  0.6173 -0.2265  0.2943
 3052SOL    HW120792   3.644   4.203   1.797  0.2764 -0.8508  0.9124
 3052SOL    HW220793   3.528   4.205   1.878  0.5089 -0.3249  0.0712
 3053SOL     OW20794   0.601   4.347  11.922 -0.1500  0.2082 -0.4254
 3053SOL    HW120795   0.627   4.256  11.931 -2.4668 -0.4292 -0.1000
 3053SOL    HW220796   0.563   4.339  11.835 -0.0506  0.6102 -0.5073
 3054SOL     OW20797   0.968   0.551   6.006  0.0047  0.3564  0.1956
 3054SOL    HW120798   1.004   0.573   5.920 -0.9880 -0.3595 -0.4054
 3054SOL    HW220799   1.043   0.532   6.063 -0.7289 -1.3669  0.6068
 3055SOL     OW20800   3.490   2.067   8.710 -0.1934 -0.8423 -0.4767
 3055SOL    HW120801   3.402   2.100   8.731 -0.0383  0.1415 -1.3598
 3055SOL    HW220802   3.544   2.139   8.743  0.4866 -0.8048 -1.6626
 3056SOL     OW20803   3.283   1.936   6.860 -0.2577 -0.3904 -0.2709
 3056SOL    HW120804   3.273   1.988   6.940  1.7876  2.2664 -1.7343
 3056SOL    HW220805   3.215   1.869   6.865  2.8793 -3.6894 -2.3823
 3057SOL     OW20806   0.282   4.018  13.831  0.4415  0.5062 -0.1282
 3057SOL    HW120807   0.324   4.000  13.915 -2.6324  0.5223  1.4082
 3057SOL    HW220808   0.190   3.996  13.846  0.6862 -0.9248 -0.7123
 3058SOL     OW20809   4.357   4.468  17.096 -0.0276 -0.7386  0.0843
 3058SOL    HW120810   4.414   4.476  17.020  0.9463  1.7319  1.0656
 3058SOL    HW220811   4.383   4.384  17.135 -2.0677 -1.4228 -0.0421
 3059SOL     OW20812   4.512   3.501   2.977 -0.6490  0.6176 -0.0734
 3059SOL    HW120813   4.518   3.418   2.930  1.4088  1.8203 -1.9449
 3059SOL    HW220814   4.475   3.462   3.056 -0.0028  1.2293  0.5330
 3060SOL     OW20815   1.780   0.124   2.877  0.1178 -0.1031  0.3921
 3060SOL    HW120816   1.813   0.103   2.790 -1.1911 -0.5979  0.0142
 3060SOL    HW220817   1.713   0.192   2.865 -1.1981 -1.8394 -1.9755
 3061SOL     OW20818   2.610   3.950   3.945  0.3238 -0.3258 -0.0884
 3061SOL    HW120819   2.664   3.986   4.015 -2.0699  0.9510  1.1092
 3061SOL    HW220820   2.662   3.871   3.932  0.6064 -0.1993  0.2948
 3062SOL     OW20821   1.137   0.637  10.425 -0.2339  0.8270 -0.0922
 3062SOL    HW120822   1.230   0.620  10.443  0.1995  1.5586 -1.5979
 3062SOL    HW220823   1.139   0.733  10.416 -2.5345  0.9077  0.3651
 3063SOL     OW20824   1.083   1.791   6.170  0.2022  0.0209 -0.3574
 3063SOL    HW120825   1.121   1.817   6.254 -0.5422 -1.6250  0.4986
 3063SOL    HW220826   1.135   1.835   6.102 -0.7683  0.0764 -1.0591
 3064SOL     OW20827   4.197   2.767   4.840  0.0133 -1.1725 -0.1473
 3064SOL    HW120828   4.134   2.805   4.779 -1.0046  0.5544  2.0154
 3064SOL    HW220829   4.219   2.846   4.888 -0.3010  0.7951 -3.2467
 3065SOL     OW20830   0.532   0.864   5.311 -0.0204  0.2888  0.6295
 3065SOL    HW120831   0.558   0.902   5.227  1.6221 -1.5911  0.3093
 3065SOL    HW220832   0.458   0.920   5.334  1.9397  2.6259  1.2308
 3066SOL     OW20833   1.771   0.185   7.335  0.3042 -0.2580  0.7033
 3066SOL    HW120834   1.676   0.180   7.326  0.2544  0.4670  0.7674
 3066SOL    HW220835   1.789   0.141   7.252 -1.7348 -1.2416  0.7822
 3067SOL     OW20836   2.997   3.376  10.800 -0.4926 -0.0872 -0.7526
 3067SOL    HW120837   3.019   3.383  10.708 -1.1622  0.9203 -0.8428
 3067SOL    HW220838   2.930   3.308  10.800  0.5358 -1.0909 -0.9890
 3068SOL     OW20839   2.017   3.080   8.577  0.0423  0.0773 -0.4714
 3068SOL    HW120840   1.952   3.074   8.507 -1.8743 -0.1248  1.3467
 3068SOL    HW220841   2.082   3.015   8.548 -0.0383  0.2473 -1.0362
 3069SOL     OW20842   3.482   1.935   8.403 -0.3761 -0.5736 -0.5381
 3069SOL    HW120843   3.468   2.029   8.393 -1.2506 -0.6329  0.1509
 3069SOL    HW220844   3.475   1.944   8.498 -0.8652  2.1299 -0.8284
 3070SOL     OW20845   3.305   3.381   7.093 -0.5980  1.1642  0.0353
 3070SOL    HW120846   3.297   3.344   7.181 -0.8675 -2.6368 -1.5613
 3070SOL    HW220847   3.223   3.431   7.086 -0.0738  2.2409  1.6887
 3071SOL     OW20848   0.280   3.293   9.571  0.2108 -0.3463  0.2004
 3071SOL    HW120849   0.239   3.327   9.651 -0.6594  3.2094 -1.7473
 3071SOL    HW220850   0.366   3.272   9.607 -1.0743 -4.0925  1.0528
 3072SOL     OW20851   3.023   2.871   8.823  0.5019 -0.1301 -0.1107
 3072SOL    HW120852   3.106   2.827   8.839 -0.8122 -2.8633 -0.7782
 3072SOL    HW220853   2.985   2.812   8.758 -1.2034  0.9768 -0.1359
 3073SOL     OW20854   0.823   1.761   0.190  0.4660  0.7901 -0.1027
 3073SOL    HW120855   0.841   1.794   0.102  0.5558 -0.3279 -0.4920
 3073SOL    HW220856   0.898   1.778   0.248  1.6990 -2.3778 -0.8007
 3074SOL     OW20857   3.094   3.813   5.545  0.4000 -0.3029 -0.7033
 3074SOL    HW120858   3.026   3.807   5.612  0.3585  3.0311 -0.4246
 3074SOL    HW220859   3.035   3.810   5.471 -0.4509  2.7205 -0.1453
 3075SOL     OW20860   4.233   1.425   1.481  0.5818  0.3974  0.2939
 3075SOL    HW120861   4.144   1.398   1.458  1.5012 -0.3663 -2.3313
 3075SOL    HW220862   4.275   1.380   1.407  2.1752  0.3155  1.2387
 3076SOL     OW20863   2.408   0.820  12.830  0.4461  0.2365 -0.0510
 3076SOL    HW120864   2.449   0.734  12.819 -2.2868 -1.4050  2.4947
 3076SOL    HW220865   2.342   0.822  12.760 -0.4180  0.4076  0.7640
 3077SOL     OW20866   0.668   0.568  15.641 -0.0008  0.5843  0.3660
 3077SOL    HW120867   0.741   0.523  15.684 -1.2742  0.0511  1.9787
 3077SOL    HW220868   0.608   0.561  15.715 -0.3950 -1.3800 -0.1278
 3078SOL     OW20869   3.222   0.119   0.606  0.0594 -0.5397 -0.1213
 3078SOL    HW120870   3.203   0.200   0.557  0.7097  0.2640  0.9451
 3078SOL    HW220871   3.136   0.095   0.639  0.5564 -1.1516  0.7078
 3079SOL     OW20872   0.354   4.327   2.511  0.3607 -0.8309 -0.6337
 3079SOL    HW120873   0.291   4.344   2.580  1.4861  1.8095 -0.2796
 3079SOL    HW220874   0.299   4.279   2.449  0.5738 -1.1784 -0.5524
 3080SOL     OW20875   2.069   0.022  12.921  0.6459 -0.1348  0.3291
 3080SOL    HW120876   2.156   0.004  12.957  0.1660 -0.6833  1.2131
 3080SOL    HW220877   2.015   4.701  12.974  0.9017 -1.6196 -1.0566
 3081SOL     OW20878   3.252   0.692  12.869 -0.0336 -0.1753 -0.2966
 3081SOL    HW120879   3.223   0.741  12.946  2.5165 -1.4780  1.4835
 3081SOL    HW220880   3.174   0.660  12.822  0.6407 -0.3902 -1.2637
 3082SOL     OW20881   1.421   4.166   2.753  0.3430  0.2121 -0.1129
 3082SOL    HW120882   1.355   4.221   2.795  0.5878 -1.1594  2.0596
 3082SOL    HW220883   1.482   4.144   2.823  0.2342 -0.1807 -0.1475
 3083SOL     OW20884   2.636   3.797   1.428  1.0360  0.8418  0.1177
 3083SOL    HW120885   2.560   3.793   1.485  1.2922  0.2117  0.4270
 3083SOL    HW220886   2.704   3.759   1.484 -0.1504 -0.8637  0.4228
 3084SOL     OW20887   4.254   3.390  17.108 -0.2666  0.3162  0.2861
 3084SOL    HW120888   4.209   3.411  17.026  0.0653  2.3497  0.6198
 3084SOL    HW220889   4.304   3.463  17.146  2.2187 -0.0897 -2.2402
 3085SOL     OW20890   3.385   4.287   0.119 -0.1349  0.3184 -0.2661
 3085SOL    HW120891   3.329   4.354   0.081 -1.7804 -2.0937 -2.1263
 3085SOL    HW220892   3.376   4.216   0.055 -3.4401  0.7183 -0.2531
 3086SOL     OW20893   4.221   3.646   8.218 -0.1730  0.9417 -0.2095
 3086SOL    HW120894   4.191   3.678   8.303  0.1792  0.4555  0.0900
 3086SOL    HW220895   4.141   3.614   8.176  0.8156 -0.0482 -1.3470
 3087SOL     OW20896   3.044   4.541   4.887 -0.3090 -0.1482  0.1564
 3087SOL    HW120897   3.038   4.447   4.870  0.2205 -0.1862  0.1903
 3087SOL    HW220898   3.094   4.563   4.809  0.1639  0.5169  0.6443
 3088SOL     OW20899   2.470   3.468   6.253 -0.2069  0.3325 -0.2094
 3088SOL    HW120900   2.463   3.394   6.193 -0.5260  0.1136  0.0989
 3088SOL    HW220901   2.506   3.427   6.332 -1.1152  0.2544  0.1567
 3089SOL     OW20902   0.383   2.048  14.086  0.3051 -0.0680 -0.6564
 3089SOL    HW120903   0.342   1.973  14.128 -0.9190  0.9282 -0.0924
 3089SOL    HW220904   0.415   2.092  14.164 -0.4283 -3.1103  1.3448
 3090SOL     OW20905   1.774   4.052   4.210 -0.1725 -0.4115 -0.2586
 3090SOL    HW120906   1.697   4.043   4.154  0.5679 -0.3951 -1.2716
 3090SOL    HW220907   1.831   4.122   4.180 -3.5211  1.9731 -1.0853
 3091SOL     OW20908   0.908   3.546   2.544 -0.0973  0.5705  0.0933
 3091SOL    HW120909   1.001   3.532   2.529 -0.0274  0.1302  0.9439
 3091SOL    HW220910   0.903   3.599   2.624 -1.3723 -1.1135  1.1190
 3092SOL     OW20911   2.530   0.578   8.765  0.2658 -0.4527 -0.2484
 3092SOL    HW120912   2.479   0.646   8.723  3.1229  0.6662 -1.9116
 3092SOL    HW220913   2.554   0.623   8.846  2.9296 -1.5694 -0.4068
 3093SOL     OW20914   2.672   2.498   8.500 -0.0108 -0.5909 -0.9263
 3093SOL    HW120915   2.690   2.511   8.407 -0.2231  3.2333 -0.4066
 3093SOL    HW220916   2.755   2.490   8.548 -1.9150 -0.6638  2.3667
 3094SOL     OW20917   2.136   3.659  15.699  0.5865  0.3866 -0.5542
 3094SOL    HW120918   2.048   3.664  15.662  0.6669  1.4750 -0.5962
 3094SOL    HW220919   2.172   3.634  15.614  0.8849  0.3426 -0.4140
 3095SOL     OW20920   2.707   0.379   7.126 -0.5118 -0.0556  0.1222
 3095SOL    HW120921   2.677   0.352   7.213 -0.6242  0.6288  0.2909
 3095SOL    HW220922   2.626   0.398   7.079 -1.6040  1.4722  2.6433
 3096SOL     OW20923   2.680   3.990   3.663  0.6068 -0.4054  0.0085
 3096SOL    HW120924   2.646   3.958   3.747  2.4450 -1.3627  0.3747
 3096SOL    HW220925   2.649   4.080   3.658  0.1975 -0.5315  0.2799
 3097SOL     OW20926   3.752   1.523   6.688  0.3877  0.5014  0.2518
 3097SOL    HW120927   3.677   1.569   6.727 -2.7200 -1.5572 -3.2578
 3097SOL    HW220928   3.756   1.555   6.599  0.4340 -0.2392 -0.0163
 3098SOL     OW20929   4.452   4.035   7.073  0.6150  0.1815 -0.0931
 3098SOL    HW120930   4.418   4.015   6.986 -0.0576  2.0599 -0.2614
 3098SOL    HW220931   4.495   4.118   7.055 -0.0637  0.4494 -0.4581
 3099SOL     OW20932   2.276   3.555   7.989  0.2522  0.0634  0.1628
 3099SOL    HW120933   2.192   3.521   7.959  0.9322 -1.6513  0.1912
 3099SOL    HW220934   2.301   3.597   7.907 -1.2935 -0.7054 -0.7043
 3100SOL     OW20935   2.801   0.881   9.046  0.0921 -0.5519  0.4407
 3100SOL    HW120936   2.807   0.968   9.008  2.1577 -0.4958  0.8833
 3100SOL    HW220937   2.890   0.848   9.031  0.1003 -0.3284  0.0119
 3101SOL     OW20938   1.597   0.959   6.012  0.0204 -0.1526  0.0619
 3101SOL    HW120939   1.602   0.993   6.101  1.6521 -3.0463  1.1121
 3101SOL    HW220940   1.688   0.936   5.994 -0.5386 -1.7007 -0.8783
 3102SOL     OW20941   4.462   1.455   6.817  0.2855  0.3243  0.2407
 3102SOL    HW120942   4.460   1.378   6.875  0.3644 -0.8291 -1.2923
 3102SOL    HW220943   4.490   1.414   6.735 -1.5489  1.3420 -0.8869
 3103SOL     OW20944   3.444   3.266   1.773  0.4023 -0.3363  0.4184
 3103SOL    HW120945   3.416   3.283   1.683  1.9003 -0.0249  0.0234
 3103SOL    HW220946   3.381   3.206   1.814  0.2613 -0.7046 -0.3360
 3104SOL     OW20947   3.042   1.018   7.566 -0.3943  0.1124 -0.0688
 3104SOL    HW120948   2.974   0.972   7.615 -0.2395  0.9821  0.9544
 3104SOL    HW220949   2.985   1.079   7.520 -0.3480 -0.0706 -0.3729
 3105SOL     OW20950   1.093   1.044  16.727  0.2355 -0.0599 -0.6536
 3105SOL    HW120951   1.184   1.072  16.725 -0.2592  1.7083  0.7163
 3105SOL    HW220952   1.077   1.043  16.822  0.1234 -0.1014 -0.6724
 3106SOL     OW20953   0.063   0.306   9.004 -0.3018 -0.3593  0.0413
 3106SOL    HW120954   0.082   0.385   8.955 -0.4362 -1.9007 -2.5182
 3106SOL    HW220955   0.054   0.338   9.094  0.4334 -0.1412  0.0360
 3107SOL     OW20956   4.276   3.267   2.083  0.2420  0.2856 -0.8978
 3107SOL    HW120957   4.262   3.336   2.018  0.1312 -0.2931 -1.4906
 3107SOL    HW220958   4.309   3.323   2.154  2.2111 -1.0135 -0.7820
 3108SOL     OW20959   2.804   3.728   2.422  0.0974  0.4362 -0.5106
 3108SOL    HW120960   2.738   3.728   2.353  1.5193  0.8265 -1.8758
 3108SOL    HW220961   2.857   3.652   2.396 -0.6990 -0.1924 -0.2944
 3109SOL     OW20962   1.423   4.008   8.795 -0.4217 -0.3954 -0.0307
 3109SOL    HW120963   1.518   4.005   8.809 -0.2415  0.3145 -1.1291
 3109SOL    HW220964   1.382   4.012   8.881  0.5800  0.9813  0.3872
 3110SOL     OW20965   3.625   2.506   5.822 -0.5413  0.7330  0.9389
 3110SOL    HW120966   3.638   2.447   5.897  0.6973 -0.4933 -0.2394
 3110SOL    HW220967   3.624   2.440   5.753  0.3972  0.9396  0.7275
 3111SOL     OW20968   1.383   3.181   2.827  0.1896  0.3810 -0.3404
 3111SOL    HW120969   1.377   3.272   2.796  0.0089  0.4226 -0.1864
 3111SOL    HW220970   1.402   3.202   2.919 -2.2230  1.1678 -0.0133
 3112SOL     OW20971   1.531   1.598   7.310 -0.5362  0.1069 -0.4326
 3112SOL    HW120972   1.473   1.522   7.304 -0.9226  0.4153 -0.5645
 3112SOL    HW220973   1.520   1.635   7.223  1.5866  3.2862  0.6414
 3113SOL     OW20974   2.199   0.088   4.850  1.2074 -0.0611 -0.2466
 3113SOL    HW120975   2.228   4.735   4.837  1.7110  0.0518  0.1015
 3113SOL    HW220976   2.226   0.105   4.940 -0.1747 -3.2464  0.7925
 3114SOL     OW20977   4.535   2.227   1.710 -0.2354  0.4351 -0.2290
 3114SOL    HW120978   4.509   2.243   1.801  1.0805  0.0110  0.2216
 3114SOL    HW220979   4.549   2.133   1.714  1.1129  0.7072  1.4847
 3115SOL     OW20980   2.748   3.737  11.816  0.4455 -0.0165  0.0003
 3115SOL    HW120981   2.733   3.730  11.722  1.8198 -0.5347 -0.1723
 3115SOL    HW220982   2.817   3.671  11.818  0.9533  0.4478 -2.2766
 3116SOL     OW20983   2.004   3.632   9.063  0.4785  0.3787 -0.6133
 3116SOL    HW120984   1.948   3.655   9.136 -1.4138  0.2558 -2.0269
 3116SOL    HW220985   2.087   3.677   9.081 -0.6226  2.9703 -1.9638
 3117SOL     OW20986   3.244   0.242  13.186 -0.3061 -0.5327 -0.8516
 3117SOL    HW120987   3.288   0.322  13.215 -0.3519 -1.3730  1.5912
 3117SOL    HW220988   3.240   0.264  13.093  0.4225  1.6266 -0.3644
 3118SOL     OW20989   4.004   0.526   1.220 -0.1892  0.5556 -0.3462
 3118SOL    HW120990   4.091   0.492   1.241 -0.4877 -0.1088 -0.2116
 3118SOL    HW220991   3.978   0.479   1.141  1.1605 -0.6327 -0.0812
 3119SOL     OW20992   3.929   3.290   0.821  0.0314  0.2182 -0.1287
 3119SOL    HW120993   3.984   3.334   0.885  0.6801 -0.8346  0.0409
 3119SOL    HW220994   3.872   3.361   0.792 -1.4523 -1.1636 -0.5994
 3120SOL     OW20995   4.054   1.010   3.849  0.5108 -0.0527  0.0961
 3120SOL    HW120996   4.091   0.923   3.842  0.6622 -0.0617  1.0506
 3120SOL    HW220997   4.108   1.032   3.925 -1.2157  0.7950  1.0836
 3121SOL     OW20998   3.486   3.634   3.534 -0.1130 -0.5788  0.1172
 3121SOL    HW120999   3.531   3.696   3.477  0.0970 -1.1918 -0.3827
 3121SOL    HW221000   3.552   3.565   3.534  2.4108  1.8284 -1.3818
 3122SOL     OW21001   0.974   3.541   7.427  0.3543  0.1033 -0.4111
 3122SOL    HW121002   0.993   3.448   7.442  2.1546  0.5576  0.1316
 3122SOL    HW221003   0.960   3.580   7.514  0.1270 -0.6502 -0.1025
 3123SOL     OW21004   1.141   4.037   2.070 -0.3329  0.1893  0.0459
 3123SOL    HW121005   1.184   4.111   2.028 -2.3681  1.5847  0.4178
 3123SOL    HW221006   1.065   4.082   2.108 -2.1640 -1.4788 -1.6382
 3124SOL     OW21007   3.792   4.360   6.884 -0.1555 -0.4151 -0.0524
 3124SOL    HW121008   3.716   4.333   6.936  0.1258 -0.2457  0.4436
 3124SOL    HW221009   3.857   4.333   6.948  0.3129  0.0010 -0.3466
 3125SOL     OW21010   1.728   3.176   5.262 -0.1059 -0.6943  0.2922
 3125SOL    HW121011   1.644   3.197   5.223 -1.1357 -0.2307  2.7701
 3125SOL    HW221012   1.787   3.181   5.187  1.2218 -1.4035  1.2819
 3126SOL     OW21013   3.278   1.525   2.110  0.5114  0.0493 -0.2033
 3126SOL    HW121014   3.273   1.436   2.145 -1.8395 -0.5478 -2.0788
 3126SOL    HW221015   3.282   1.529   2.015  0.9223 -2.2249 -0.2692
 3127SOL     OW21016   0.980   0.923   3.610  0.3005  0.0295 -0.0922
 3127SOL    HW121017   1.031   0.991   3.566  1.6673 -1.1640 -0.3403
 3127SOL    HW221018   0.972   0.863   3.535  1.6425  1.0077 -1.0195
 3128SOL     OW21019   1.335   1.536   9.210 -0.4753 -0.3334 -0.2112
 3128SOL    HW121020   1.337   1.617   9.159 -1.0568  0.5856  1.2328
 3128SOL    HW221021   1.379   1.557   9.292 -1.0968  0.2076 -0.0193
 3129SOL     OW21022   2.606   3.912  16.229  0.1264  0.2340  0.0061
 3129SOL    HW121023   2.538   3.934  16.293  1.4712 -0.6322  1.7393
 3129SOL    HW221024   2.632   3.999  16.200 -0.2069  0.5567  0.6819
 3130SOL     OW21025   0.864   3.093   5.530 -0.1184  0.4180 -0.2173
 3130SOL    HW121026   0.904   3.109   5.445  0.1078 -0.0817 -0.2038
 3130SOL    HW221027   0.879   3.181   5.566  0.6890 -0.3496  1.3144
 3131SOL     OW21028   2.557   0.343   7.378  0.4863 -0.5258  0.0333
 3131SOL    HW121029   2.602   0.333   7.462  1.3911 -2.3095 -0.6541
 3131SOL    HW221030   2.549   0.251   7.353  0.2485 -0.2780 -0.8125
 3132SOL     OW21031   2.585   4.545  15.106  0.0442 -0.0509  0.0578
 3132SOL    HW121032   2.589   4.456  15.143 -1.9635  0.5138  1.6122
 3132SOL    HW221033   2.534   4.589  15.174  0.2642  1.8134 -1.0130
 3133SOL     OW21034   2.922   1.695   4.997  0.5081 -0.0415  0.3379
 3133SOL    HW121035   3.010   1.656   4.997 -0.7721 -2.9398 -0.8507
 3133SOL    HW221036   2.875   1.613   5.010  1.2822 -0.7249 -1.1372
 3134SOL     OW21037   0.774   1.026  12.829 -0.9146  0.0158 -0.8664
 3134SOL    HW121038   0.710   1.082  12.872 -0.8711 -1.2148  0.8055
 3134SOL    HW221039   0.853   1.079  12.834 -0.0454 -1.3011 -0.6023
 3135SOL     OW21040   3.210   2.043  17.245 -0.0127 -0.1872  0.2646
 3135SOL    HW121041   3.238   1.988  17.318  2.8800 -1.5948 -1.9364
 3135SOL    HW221042   3.284   2.103  17.242  0.1337 -0.2925  2.0662
 3136SOL     OW21043   3.581   2.049   2.785 -0.8034 -0.4319  0.4443
 3136SOL    HW121044   3.676   2.041   2.774 -0.9288 -0.6914 -0.5028
 3136SOL    HW221045   3.560   2.141   2.770  1.3305 -0.0948 -0.4247
 3137SOL     OW21046   4.323   4.082  15.572  0.9539  0.1517 -0.2640
 3137SOL    HW121047   4.382   4.118  15.639  1.6946 -0.3501 -0.6622
 3137SOL    HW221048   4.381   4.050  15.504  1.0166  0.7721 -0.5028
 3138SOL     OW21049   3.450   4.059   4.631 -0.3123 -0.1193  0.7993
 3138SOL    HW121050   3.464   4.154   4.628 -2.6859  0.2674  2.3746
 3138SOL    HW221051   3.538   4.029   4.608 -0.4423 -2.0813  2.8977
 3139SOL     OW21052   1.026   0.259   4.337 -0.8835  0.4123  0.0238
 3139SOL    HW121053   1.056   0.204   4.264  1.2369 -0.6171  1.6544
 3139SOL    HW221054   1.108   0.274   4.385 -0.0726 -2.0839 -0.5847
 3140SOL     OW21055   1.559   1.735   0.078 -0.0821  0.1635  0.2258
 3140SOL    HW121056   1.489   1.672   0.097  0.8851 -0.7657  0.7048
 3140SOL    HW221057   1.641   1.691   0.101 -0.3803 -0.8988 -0.7361
 3141SOL     OW21058   3.205   2.474   6.459 -0.3024 -0.0936  0.4832
 3141SOL    HW121059   3.178   2.382   6.462  1.7858 -0.7210  0.4498
 3141SOL    HW221060   3.238   2.483   6.370 -0.2061  1.1163  0.6412
 3142SOL     OW21061   4.579   2.964   1.947 -0.3981  0.3685 -0.0454
 3142SOL    HW121062   4.628   2.882   1.957 -0.2780  0.4960  0.3714
 3142SOL    HW221063   4.539   2.948   1.861  0.1148 -0.3826 -0.1520
 3143SOL     OW21064   1.856   2.181   7.253  0.2908 -0.1808 -0.0743
 3143SOL    HW121065   1.782   2.200   7.310 -1.6479 -0.3836 -2.5114
 3143SOL    HW221066   1.936   2.215   7.293  0.1309  1.5327 -1.1785
 3144SOL     OW21067   3.478   4.036   9.090 -0.0415  0.6246 -0.0826
 3144SOL    HW121068   3.439   4.115   9.053 -0.0500  0.1041 -1.1836
 3144SOL    HW221069   3.402   3.978   9.091 -0.4702  1.1308 -3.4609
 3145SOL     OW21070   4.368   2.934   3.067 -0.2979  0.2296  0.0316
 3145SOL    HW121071   4.449   2.984   3.060  0.8799 -1.2810  2.5732
 3145SOL    HW221072   4.340   2.959   3.156  0.0525  1.7451 -0.2907
 3146SOL     OW21073   4.481   2.834   4.129 -0.2299  0.1047  0.1194
 3146SOL    HW121074   4.498   2.878   4.212 -2.4568 -0.4879  0.8890
 3146SOL    HW221075   4.557   2.860   4.077 -0.1626  1.1192  0.7243
 3147SOL     OW21076   0.403   1.693   7.950  0.2998 -0.3347 -0.3752
 3147SOL    HW121077   0.474   1.640   7.986  0.0421 -2.0452 -2.3529
 3147SOL    HW221078   0.342   1.628   7.914 -0.3637 -1.0946  2.1376
 3148SOL     OW21079   2.462   2.841   7.456 -0.0700  0.0154  0.5771
 3148SOL    HW121080   2.381   2.809   7.496  0.8301 -0.4504  2.0437
 3148SOL    HW221081   2.438   2.912   7.397 -2.1024  0.1771  1.6071
 3149SOL     OW21082   0.067   2.054   8.933 -0.0959  0.2485 -0.1200
 3149SOL    HW121083   0.161   2.068   8.928  0.0882 -0.8256  0.4052
 3149SOL    HW221084   0.027   2.138   8.909  0.2336 -0.2040 -2.3059
 3150SOL     OW21085   2.612   4.449  10.023  0.4122  0.6082 -0.1878
 3150SOL    HW121086   2.687   4.407   9.981 -0.6573 -1.7891  0.3387
 3150SOL    HW221087   2.636   4.539  10.001  1.2226  0.1996 -0.9383
 3151SOL     OW21088   0.404   0.856   1.055 -0.3104  0.2127  0.1285
 3151SOL    HW121089   0.452   0.800   0.993 -0.3372  0.3820 -0.0443
 3151SOL    HW221090   0.460   0.932   1.072 -1.0868  0.7736  0.1430
 3152SOL     OW21091   1.139   2.776   8.531  0.1173 -0.4757 -0.4640
 3152SOL    HW121092   1.150   2.808   8.620  1.7028  0.6316 -1.0446
 3152SOL    HW221093   1.227   2.751   8.503  0.0006  0.7541 -1.9609
 3153SOL     OW21094   4.481   3.951   8.217  0.3678 -0.5525  0.3161
 3153SOL    HW121095   4.575   3.940   8.229  0.2018 -0.0881  2.0286
 3153SOL    HW221096   4.441   3.868   8.244 -0.1078 -1.0096 -1.7559
 3154SOL     OW21097   3.836   3.258   3.224 -0.5093 -0.3055  0.2825
 3154SOL    HW121098   3.919   3.215   3.203  0.2183  1.3224 -0.2026
 3154SOL    HW221099   3.772   3.191   3.201 -1.3268  1.0203 -1.2983
 3155SOL     OW21100   2.450   3.061   7.271 -0.8903 -0.0097 -0.4791
 3155SOL    HW121101   2.403   3.133   7.314  0.6118 -0.1730  1.4646
 3155SOL    HW221102   2.425   3.092   7.184 -1.5349 -0.5322 -0.4836
 3156SOL     OW21103   2.890   2.092   5.572  0.0765  1.3853  0.1414
 3156SOL    HW121104   2.809   2.042   5.563  0.0892  1.4602 -0.3711
 3156SOL    HW221105   2.948   2.016   5.567 -1.0314  0.6482 -1.6034
 3157SOL     OW21106   1.754   0.049  15.021  0.7710  0.4941  0.2488
 3157SOL    HW121107   1.783   4.697  15.002  1.9816  1.2147 -1.2522
 3157SOL    HW221108   1.770   0.045  15.116 -0.3721  0.9752  0.4605
 3158SOL     OW21109   4.560   3.535   7.227 -0.0102  0.5378  0.5191
 3158SOL    HW121110   4.620   3.469   7.261 -2.0607 -2.3854 -1.5365
 3158SOL    HW221111   4.599   3.553   7.142  1.7470  0.0462  1.2347
 3159SOL     OW21112   2.900   0.397   8.468 -0.0390 -0.3240  0.1210
 3159SOL    HW121113   2.928   0.467   8.528  2.0793 -0.5410 -0.6137
 3159SOL    HW221114   2.818   0.383   8.515  2.2924 -0.8718  4.0694
 3160SOL     OW21115   4.196   1.915   8.424  0.4332  0.2303  0.0068
 3160SOL    HW121116   4.191   2.007   8.396 -0.2883 -0.0229 -0.6913
 3160SOL    HW221117   4.152   1.903   8.509  1.4223 -0.6415  0.3860
 3161SOL     OW21118   1.984   0.009   8.272  0.3093 -0.3026 -0.2570
 3161SOL    HW121119   2.012   0.019   8.363 -1.7327  2.0212  0.1268
 3161SOL    HW221120   1.940   4.662   8.280 -0.6339  0.2802  0.8532
 3162SOL     OW21121   0.855   2.590   3.970  0.5535 -0.5459  0.0123
 3162SOL    HW121122   0.773   2.619   3.930  1.4266 -0.8672 -1.9890
 3162SOL    HW221123   0.843   2.495   3.965  0.4509 -0.5767  0.7347
 3163SOL     OW21124   4.437   0.339  17.585  0.6849  0.3210  0.0243
 3163SOL    HW121125   4.494   0.381  17.520  1.6430 -0.8022  0.1305
 3163SOL    HW221126   4.421   0.253  17.548  0.5372  0.1045  0.5928
 3164SOL     OW21127   3.819   1.693   7.757  0.5035 -0.3118  0.1613
 3164SOL    HW121128   3.861   1.744   7.827  0.0928 -1.7548  1.4516
 3164SOL    HW221129   3.821   1.768   7.697  0.5651  0.1969  0.7866
 3165SOL     OW21130   0.018   0.586  11.910 -0.0048 -0.1204 -0.3304
 3165SOL    HW121131   0.058   0.533  11.840 -0.3382 -0.5062 -0.2245
 3165SOL    HW221132   4.664   0.592  11.884 -0.6533  3.3759  2.7969
 3166SOL     OW21133   3.520   4.021   2.390  0.0673 -0.2334  0.0331
 3166SOL    HW121134   3.611   4.000   2.407 -0.4361 -2.7335 -0.3482
 3166SOL    HW221135   3.490   3.958   2.325 -1.0149  0.5035 -0.2033
 3167SOL     OW21136   3.997   2.830   3.576  0.5497 -0.3272  0.1124
 3167SOL    HW121137   4.058   2.758   3.590  0.8086  0.1690  1.6262
 3167SOL    HW221138   3.916   2.799   3.617 -0.3446  1.9667  0.0978
 3168SOL     OW21139   4.491   3.506  10.105 -0.2506 -0.3650  0.1229
 3168SOL    HW121140   4.441   3.481  10.028 -0.4002  1.0497 -0.2429
 3168SOL    HW221141   4.527   3.590  10.075  0.7074 -1.5048 -1.9534
 3169SOL     OW21142   0.696   2.925   0.225 -0.4837  0.0125 -1.2694
 3169SOL    HW121143   0.687   3.020   0.226 -1.4417 -0.1039  0.5303
 3169SOL    HW221144   0.653   2.899   0.306  0.3864  1.4892 -0.3409
 3170SOL     OW21145   4.202   1.937   3.168  0.3486  0.0472 -0.2094
 3170SOL    HW121146   4.113   1.952   3.199  1.3613  1.2368  2.1483
 3170SOL    HW221147   4.198   1.981   3.083 -1.3034 -0.0624 -0.1790
 3171SOL     OW21148   1.944   4.175   4.482  0.5757 -0.2155  0.1341
 3171SOL    HW121149   1.914   4.170   4.391  1.2886 -2.5627  0.0077
 3171SOL    HW221150   1.891   4.244   4.521  1.1124  0.8698 -1.0339
 3172SOL     OW21151   2.178   0.850   0.753  0.5842  0.0167  0.1436
 3172SOL    HW121152   2.160   0.858   0.846 -1.1086  1.7405 -0.3486
 3172SOL    HW221153   2.170   0.754   0.745  3.2789 -0.1853 -0.2676
 3173SOL     OW21154   2.509   3.410   4.842  0.4248  0.1038  0.0178
 3173SOL    HW121155   2.540   3.500   4.853  0.4288  0.2235 -0.9658
 3173SOL    HW221156   2.416   3.431   4.830  0.7595  1.3617 -0.3919
 3174SOL     OW21157   3.986   2.302   0.590  0.3916 -0.0303  0.4768
 3174SOL    HW121158   4.017   2.242   0.658  2.8810  2.0344  1.1478
 3174SOL    HW221159   3.959   2.372   0.649  1.3317 -0.9366  1.9890
 3175SOL     OW21160   4.333   1.861   9.576  0.5598  0.1562  0.0221
 3175SOL    HW121161   4.278   1.939   9.572  1.2526  0.7508  1.7735
 3175SOL    HW221162   4.416   1.885   9.535  0.2502  1.3211  0.0866
 3176SOL     OW21163   2.117   3.579   6.705 -0.1066  0.4270 -0.0046
 3176SOL    HW121164   2.076   3.643   6.762 -2.4656 -0.3173 -0.8618
 3176SOL    HW221165   2.060   3.586   6.628 -0.8868  1.8804  0.7106
 3177SOL     OW21166   1.662   1.478   5.891 -0.2643  0.1390 -0.4287
 3177SOL    HW121167   1.675   1.554   5.949 -0.5150 -1.2082  1.3941
 3177SOL    HW221168   1.600   1.508   5.825  1.7688  0.1654 -2.3445
 3178SOL     OW21169   3.260   4.617  15.448  0.5809  0.3428 -0.0119
 3178SOL    HW121170   3.193   4.652  15.388  1.6757  2.3254 -0.0910
 3178SOL    HW221171   3.337   4.608  15.392  1.4684 -0.0642  1.2833
 3179SOL     OW21172   2.747   2.622   8.064  0.2166  0.1399 -0.1727
 3179SOL    HW121173   2.758   2.624   7.969  1.1739 -0.4688 -0.0710
 3179SOL    HW221174   2.668   2.675   8.070 -0.8465 -1.4421 -0.1000
 3180SOL     OW21175   1.609   2.972   3.711 -0.1272  0.1183  0.3008
 3180SOL    HW121176   1.559   2.898   3.743 -1.9043 -0.2579 -3.3270
 3180SOL    HW221177   1.690   2.955   3.757  1.6530  0.2846 -2.7647
 3181SOL     OW21178   2.791   3.265  15.217  0.5823 -0.3043 -0.2020
 3181SOL    HW121179   2.813   3.320  15.292 -0.4564  0.2415 -0.2988
 3181SOL    HW221180   2.779   3.181  15.263 -0.9540 -0.3241 -0.6368
 3182SOL     OW21181   0.591   3.898  12.596 -0.1264  0.2577  0.2547
 3182SOL    HW121182   0.500   3.871  12.603  0.2499 -1.1717 -0.3031
 3182SOL    HW221183   0.592   3.984  12.552 -2.6356  1.1539  2.0022
 3183SOL     OW21184   0.508   2.434  12.612  0.4035 -0.2778  0.2744
 3183SOL    HW121185   0.437   2.467  12.559  1.3106  1.3819  0.1013
 3183SOL    HW221186   0.581   2.456  12.554  0.8653  0.2191  1.0371
 3184SOL     OW21187   1.212   1.409   2.632 -0.0300 -0.2400 -0.1025
 3184SOL    HW121188   1.286   1.461   2.662 -1.3319  1.9542 -0.6846
 3184SOL    HW221189   1.239   1.408   2.540 -0.3926  2.2414 -0.2407
 3185SOL     OW21190   4.223   0.594  13.133  0.4506  0.0651  0.1986
 3185SOL    HW121191   4.236   0.650  13.209  1.9076 -1.4308  1.0369
 3185SOL    HW221192   4.301   0.611  13.081  0.2120  1.5269  0.3229
 3186SOL     OW21193   1.232   0.998   7.985 -0.1573  0.0864  0.0772
 3186SOL    HW121194   1.156   1.009   8.042  0.4789  0.9492  0.7473
 3186SOL    HW221195   1.208   0.915   7.943  1.0721 -0.2727  0.0775
 3187SOL     OW21196   2.353   1.974  13.995 -0.0157  0.4909 -0.0694
 3187SOL    HW121197   2.413   1.900  13.988 -0.0869  0.4626 -0.3888
 3187SOL    HW221198   2.268   1.933  14.015  1.2624 -2.2278 -0.2124
 3188SOL     OW21199   3.838   2.060   9.526 -0.3601  0.3727  0.4658
 3188SOL    HW121200   3.931   2.078   9.509 -0.4777  0.2711 -0.2863
 3188SOL    HW221201   3.818   2.060   9.619 -1.7889  0.0289  0.1574
 3189SOL     OW21202   4.252   1.707   2.305 -0.1771  0.3895 -0.3117
 3189SOL    HW121203   4.196   1.633   2.282  1.9565 -0.2646 -3.4380
 3189SOL    HW221204   4.340   1.685   2.275 -0.1718 -1.1633  0.7835
 3190SOL     OW21205   1.538   4.178  14.136  0.5249  0.1344 -0.0997
 3190SOL    HW121206   1.578   4.150  14.219  0.1329 -2.6175 -0.8121
 3190SOL    HW221207   1.516   4.092  14.100  1.2849 -0.2418  0.3378
 3191SOL     OW21208   1.721   3.085  12.954  0.2214  0.2075 -0.0439
 3191SOL    HW121209   1.710   2.993  12.977  3.4165  0.5987  3.1270
 3191SOL    HW221210   1.758   3.075  12.867 -0.0889  0.0614 -0.1602
 3192SOL     OW21211   1.795   0.928   3.678  0.0504 -0.3616 -0.1100
 3192SOL    HW121212   1.811   0.846   3.725  1.1482 -0.2005 -0.1989
 3192SOL    HW221213   1.702   0.918   3.656 -0.0288  1.5238 -0.6550
 3193SOL     OW21214   3.704   0.034   6.526  0.2792  0.4048 -0.2849
 3193SOL    HW121215   3.615   4.737   6.521 -0.4098  2.0766  0.6442
 3193SOL    HW221216   3.747   4.689   6.502  0.7459  0.1358  1.4954
 3194SOL     OW21217   3.503   3.802  12.348 -0.0311  0.1553  0.3183
 3194SOL    HW121218   3.490   3.758  12.264 -0.4939 -0.0260  0.4857
 3194SOL    HW221219   3.583   3.851  12.327  0.8916 -2.0584 -1.4644
 3195SOL     OW21220   4.139   2.111   9.316 -0.3788 -0.1219 -0.3392
 3195SOL    HW121221   4.192   2.184   9.285  0.5713 -0.2292  1.0303
 3195SOL    HW221222   4.158   2.128   9.408  0.4442  0.4362 -0.6150
 3196SOL     OW21223   3.374   3.862   2.203  0.2778 -0.2006  0.3623
 3196SOL    HW121224   3.400   3.777   2.169 -1.8374 -0.4901 -0.5285
 3196SOL    HW221225   3.279   3.851   2.205  0.1437  0.9102  0.3788
 3197SOL     OW21226   0.367   1.850  10.803 -0.1325 -0.0465 -0.0425
 3197SOL    HW121227   0.382   1.944  10.801 -1.3719  0.1890  1.0989
 3197SOL    HW221228   0.307   1.840  10.878  1.5502  3.6681  1.7912
 3198SOL     OW21229   3.687   0.279  10.781  0.4020 -0.3877  0.0004
 3198SOL    HW121230   3.772   0.245  10.754  0.1677 -0.4212 -0.6898
 3198SOL    HW221231   3.665   0.195  10.822 -1.0170 -0.3667 -0.7120
 3199SOL     OW21232   1.037   1.661  15.743 -0.3406  0.4181 -0.1190
 3199SOL    HW121233   1.003   1.645  15.655  0.9894  2.6650 -1.0607
 3199SOL    HW221234   1.094   1.737  15.729 -1.3816  1.4632  1.3523
 3200SOL     OW21235   2.114   0.021   8.810 -0.4852 -0.1196 -0.3030
 3200SOL    HW121236   2.164   4.680   8.832  1.0997  1.0034  0.0861
 3200SOL    HW221237   2.102   0.059   8.897  0.3104 -1.7931  0.5350
 3201SOL     OW21238   1.829   1.795  13.988  0.4983 -0.2071  0.7454
 3201SOL    HW121239   1.918   1.810  14.019  1.0047 -1.3324 -0.1739
 3201SOL    HW221240   1.844   1.726  13.923 -1.6601  1.6979 -1.7406
 3202SOL     OW21241   3.535   0.272   7.972  0.2617 -0.0515 -0.6047
 3202SOL    HW121242   3.556   0.260   8.065  1.1476  0.7401 -0.7025
 3202SOL    HW221243   3.447   0.308   7.974  0.4456  0.3287  0.7467
 3203SOL     OW21244   4.728   2.654   6.974  0.0917  0.2284 -0.2201
 3203SOL    HW121245   0.018   2.698   6.894 -0.7824 -0.5399 -0.9548
 3203SOL    HW221246   4.669   2.588   6.937 -0.3225  0.2245  0.4430
 3204SOL     OW21247   2.555   4.662   2.999 -0.0470 -0.4272  0.8772
 3204SOL    HW121248   2.614   4.587   3.008  0.7037 -0.2948 -2.8128
 3204SOL    HW221249   2.500   4.661   3.077 -0.4262  2.5965  0.6468
 3205SOL     OW21250   3.115   3.930   5.015  0.0835  0.4730  0.2328
 3205SOL    HW121251   3.137   3.949   5.106  2.1420 -0.8191  0.0191
 3205SOL    HW221252   3.154   4.000   4.964 -0.9213  0.6656 -0.2611
 3206SOL     OW21253   1.424   1.990   5.186  0.5126 -0.0025 -0.5884
 3206SOL    HW121254   1.495   2.053   5.169  0.8694 -0.0720  0.6513
 3206SOL    HW221255   1.413   1.992   5.281 -2.3572 -1.2329 -0.9024
 3207SOL     OW21256   2.542   1.718   9.506 -0.2291  0.3402  0.1809
 3207SOL    HW121257   2.523   1.774   9.581 -0.2694  1.7928 -0.9191
 3207SOL    HW221258   2.506   1.636   9.539  1.5944 -0.8879 -0.9275
 3208SOL     OW21259   4.340   2.584   7.892 -0.0886 -0.1011 -0.0373
 3208SOL    HW121260   4.374   2.495   7.900 -0.0225 -0.0051  0.8094
 3208SOL    HW221261   4.303   2.585   7.804  0.7497 -0.2574 -0.3926
 3209SOL     OW21262   1.751   1.094   4.963  0.0762 -0.1127  0.0418
 3209SOL    HW121263   1.687   1.061   4.899  0.0786 -2.0103  1.0168
 3209SOL    HW221264   1.725   1.184   4.945 -1.2095 -0.5475 -0.2848
 3210SOL     OW21265   0.429   1.264   2.770  0.4346 -0.4292  0.3283
 3210SOL    HW121266   0.385   1.198   2.823 -0.0529 -0.5104 -0.1694
 3210SOL    HW221267   0.475   1.312   2.839  1.5333 -0.2367 -0.5327
 3211SOL     OW21268   4.327   0.525   4.420 -0.0028 -0.1607  0.4889
 3211SOL    HW121269   4.304   0.535   4.513  2.2673 -1.3034  1.1927
 3211SOL    HW221270   4.276   0.446   4.403  0.3954 -0.1100 -0.9262
 3212SOL     OW21271   4.305   1.360  15.615 -0.0085 -0.1742  0.5537
 3212SOL    HW121272   4.376   1.416  15.584  0.2599 -1.4242 -1.0610
 3212SOL    HW221273   4.329   1.333  15.703  1.8949  1.4743  0.5249
 3213SOL     OW21274   2.446   4.557   5.597  0.2288 -0.5616  0.2927
 3213SOL    HW121275   2.459   4.462   5.596 -0.2380 -0.6244  0.1287
 3213SOL    HW221276   2.369   4.564   5.541  0.3269 -2.5763 -0.0923
 3214SOL     OW21277   4.391   3.408  13.784 -0.1664  0.5690 -0.3428
 3214SOL    HW121278   4.307   3.362  13.782 -0.5334  1.1513  1.8153
 3214SOL    HW221279   4.364   3.493  13.748  0.6429  0.1202 -2.0214
 3215SOL     OW21280   3.784   2.353   1.537 -0.4928  0.3418  0.0739
 3215SOL    HW121281   3.715   2.310   1.487  1.5733 -2.0589 -0.7353
 3215SOL    HW221282   3.863   2.349   1.483  0.1859  0.5211  1.0610
 3216SOL     OW21283   3.139   0.591   7.868 -0.1575 -0.0232 -0.1766
 3216SOL    HW121284   3.109   0.681   7.868  0.6280  0.2439  0.3126
 3216SOL    HW221285   3.052   0.551   7.875  0.0160 -0.8172 -2.5456
 3217SOL     OW21286   4.227   2.666   5.716  0.0297 -0.0606 -0.1720
 3217SOL    HW121287   4.300   2.624   5.671  2.1471  0.4354  2.7787
 3217SOL    HW221288   4.161   2.636   5.654  0.3655  0.0219 -0.5705
 3218SOL     OW21289   0.008   0.692  11.512 -0.9899  0.4136  0.0646
 3218SOL    HW121290   0.097   0.665  11.531 -0.8391  1.1174  0.3727
 3218SOL    HW221291   4.733   0.759  11.579  2.1637  1.7462 -0.6881
 3219SOL     OW21292   1.918   0.631   4.688 -0.3391  0.1853  0.3633
 3219SOL    HW121293   1.926   0.654   4.595 -1.3012  0.5997  0.3862
 3219SOL    HW221294   1.892   0.538   4.686  0.0849  0.0778 -0.1459
 3220SOL     OW21295   0.635   4.426  14.196 -0.2102  0.5526  0.5311
 3220SOL    HW121296   0.687   4.467  14.265 -0.8591  1.7954  0.2852
 3220SOL    HW221297   0.554   4.410  14.244 -0.5545 -0.2006 -0.2847
 3221SOL     OW21298   2.919   4.178   0.528  0.5522  0.2042 -0.5871
 3221SOL    HW121299   2.973   4.255   0.508 -1.4459  1.9188  0.5145
 3221SOL    HW221300   2.900   4.203   0.619 -0.0179 -1.4673 -0.2588
 3222SOL     OW21301   1.984   2.296   5.931  0.1244  0.4295  0.3999
 3222SOL    HW121302   1.988   2.348   5.851  3.0688 -0.4200 -0.0346
 3222SOL    HW221303   1.895   2.314   5.960 -0.4954 -0.3101 -1.0680
 3223SOL     OW21304   0.676   3.964  17.628 -0.3473 -0.1355 -0.4098
 3223SOL    HW121305   0.748   3.946  17.567 -1.7307 -0.0179 -2.0713
 3223SOL    HW221306   0.620   4.010  17.566 -1.9956 -1.3458  0.1619
 3224SOL     OW21307   0.215   0.896   3.379 -0.1507 -0.3877 -0.2143
 3224SOL    HW121308   0.239   0.804   3.389 -0.5612 -0.7144 -2.1259
 3224SOL    HW221309   0.150   0.894   3.309 -0.9256 -1.5106  0.5439
 3225SOL     OW21310   2.284   0.548   3.159 -0.0181 -0.1397 -0.2819
 3225SOL    HW121311   2.215   0.482   3.149 -1.6835  1.8136 -1.6165
 3225SOL    HW221312   2.267   0.580   3.248 -1.9252  0.9001 -1.0210
 3226SOL     OW21313   0.298   4.615   3.235 -0.0986  0.3923  0.5894
 3226SOL    HW121314   0.322   4.584   3.323 -0.0037  0.6876  0.6682
 3226SOL    HW221315   0.385   4.623   3.197 -0.6170 -0.7348 -0.8124
 3227SOL     OW21316   2.160   0.462   4.976 -0.0778 -0.0670 -0.2412
 3227SOL    HW121317   2.110   0.538   4.948 -0.2382 -0.5357 -1.2356
 3227SOL    HW221318   2.186   0.484   5.065  1.0228 -1.8524 -0.1209
 3228SOL     OW21319   4.257   1.065   6.471  0.2923 -0.1872  0.5796
 3228SOL    HW121320   4.268   0.972   6.491 -0.6768 -0.7409 -1.4730
 3228SOL    HW221321   4.165   1.053   6.446  0.5925  0.2137 -0.7050
 3229SOL     OW21322   1.648   1.709   8.686  0.0077 -0.2183 -0.1813
 3229SOL    HW121323   1.581   1.729   8.751  2.3671  2.9839  1.2828
 3229SOL    HW221324   1.667   1.791   8.642 -1.4451 -0.2857 -0.9283
 3230SOL     OW21325   1.021   1.892   5.748  0.3181 -0.5519  0.5668
 3230SOL    HW121326   0.946   1.838   5.774  0.0089 -0.4461 -0.1107
 3230SOL    HW221327   1.055   1.835   5.679  1.6817  1.1629 -0.1643
 3231SOL     OW21328   2.211   1.494   9.100  0.2313 -0.1060  0.0546
 3231SOL    HW121329   2.256   1.555   9.042 -0.6754 -0.6282 -1.2059
 3231SOL    HW221330   2.136   1.550   9.122  1.6814  2.1828 -0.8976
 3232SOL     OW21331   2.123   1.253   0.721 -0.3258  0.1055 -1.1290
 3232SOL    HW121332   2.152   1.343   0.740  1.3151 -0.8486  0.9020
 3232SOL    HW221333   2.042   1.252   0.772 -1.0011  0.2971 -2.1830
 3233SOL     OW21334   4.532   4.426  12.632  0.6066  0.3363  0.1994
 3233SOL    HW121335   4.577   4.493  12.683 -0.9507  2.1393 -0.7813
 3233SOL    HW221336   4.580   4.428  12.549 -2.9607  0.7745 -1.8593
 3234SOL     OW21337   0.792   3.619   8.720 -0.2749 -0.5450 -0.4027
 3234SOL    HW121338   0.791   3.711   8.744  0.5364 -0.8172  0.6429
 3234SOL    HW221339   0.700   3.595   8.731 -0.4938  1.1578  1.3077
 3235SOL     OW21340   3.434   3.888   3.755 -0.2125 -0.5862 -0.1421
 3235SOL    HW121341   3.346   3.898   3.719 -0.6803 -1.2516  0.8259
 3235SOL    HW221342   3.422   3.955   3.823 -0.4552  1.0770 -1.8271
 3236SOL     OW21343   4.342   3.389  12.469 -0.0828 -0.5823  0.5037
 3236SOL    HW121344   4.323   3.295  12.470  0.8501 -0.7522  1.5656
 3236SOL    HW221345   4.425   3.408  12.425 -0.7653 -0.7376 -0.8477
 3237SOL     OW21346   4.228   1.195  12.791  0.0827 -0.9253 -0.5186
 3237SOL    HW121347   4.269   1.281  12.801 -3.2896  0.6584 -0.5038
 3237SOL    HW221348   4.255   1.171  12.702  1.9523 -4.9183  1.0999
 3238SOL     OW21349   3.375   1.322   2.887  0.6055 -0.1532  0.0969
 3238SOL    HW121350   3.434   1.265   2.839  2.2754 -2.2940  4.6679
 3238SOL    HW221351   3.297   1.327   2.832 -0.1942 -0.1911  1.2239
 3239SOL     OW21352   0.631   2.516   4.258 -0.2931 -0.3513  0.3029
 3239SOL    HW121353   0.636   2.583   4.190  0.2956 -0.8960 -0.1911
 3239SOL    HW221354   0.586   2.566   4.325 -2.5131 -1.6089 -0.2632
 3240SOL     OW21355   3.977   0.683   2.772  0.1670 -0.1698  0.2443
 3240SOL    HW121356   4.047   0.625   2.803 -0.9885 -0.7731  1.7417
 3240SOL    HW221357   3.904   0.656   2.828 -0.6763  0.1150 -0.7069
 3241SOL     OW21358   3.402   4.503   0.301 -0.4869  0.3078 -0.1295
 3241SOL    HW121359   3.491   4.495   0.335 -0.5761  0.5301  0.1479
 3241SOL    HW221360   3.389   4.429   0.241 -0.2272 -0.6173  0.9481
 3242SOL     OW21361   3.526   2.282  11.192 -0.1659 -0.2698  0.4361
 3242SOL    HW121362   3.479   2.259  11.112 -1.6358  0.3618  1.1235
 3242SOL    HW221363   3.591   2.212  11.188  0.0952  0.1486 -2.3877
 3243SOL     OW21364   0.063   2.260   1.684 -0.4357 -0.1538  0.0861
 3243SOL    HW121365   4.708   2.283   1.700 -0.6749 -0.2342 -1.1833
 3243SOL    HW221366   0.055   2.236   1.592  0.1211 -1.0005  0.2646
 3244SOL     OW21367   0.128   3.276   4.044  0.1376  0.0681  0.1913
 3244SOL    HW121368   0.067   3.211   4.079  0.2484  0.4567  1.0806
 3244SOL    HW221369   0.212   3.232   4.034 -0.9906 -2.1218  0.3441
 3245SOL     OW21370   3.776   2.880   5.146 -0.1313 -0.3419  0.4280
 3245SOL    HW121371   3.857   2.852   5.103 -0.0259  1.5096 -0.6054
 3245SOL    HW221372   3.782   2.832   5.228 -2.0533  0.5933  1.1032
 3246SOL     OW21373   3.443   3.658   6.986  0.3703  0.2329 -1.0527
 3246SOL    HW121374   3.437   3.611   6.903 -1.7486  1.5512 -1.6330
 3246SOL    HW221375   3.502   3.730   6.962  0.7408 -0.1330 -1.2364
 3247SOL     OW21376   1.499   2.697   2.739  0.1557  0.3149 -0.4979
 3247SOL    HW121377   1.553   2.661   2.809  0.6335  0.3045 -0.8727
 3247SOL    HW221378   1.474   2.780   2.781 -0.1419 -0.6966  1.3443
 3248SOL     OW21379   4.078   3.481   0.963  0.4667 -0.5090 -0.5630
 3248SOL    HW121380   4.048   3.571   0.959  1.1565 -0.3674 -2.3173
 3248SOL    HW221381   4.130   3.479   1.043 -2.9122 -0.8485  1.6122
 3249SOL     OW21382   3.256   2.199  12.881  0.5604  0.0571 -0.3468
 3249SOL    HW121383   3.343   2.173  12.910  0.7088  1.3980  0.4324
 3249SOL    HW221384   3.245   2.127  12.819 -0.0423 -0.7733  0.7188
 3250SOL     OW21385   0.969   3.304   5.315  0.1750  0.4512  0.6568
 3250SOL    HW121386   0.974   3.396   5.343  1.9781  0.9188 -1.1666
 3250SOL    HW221387   0.880   3.304   5.279 -0.0489  0.4247  1.2096
 3251SOL     OW21388   2.910   3.210   7.012  0.3017  0.0916  0.1153
 3251SOL    HW121389   2.924   3.121   6.979 -0.9938 -0.0366 -0.0664
 3251SOL    HW221390   2.960   3.203   7.094  0.5709  1.1781  0.0407
 3252SOL     OW21391   3.732   4.419   2.525  0.0010  0.0923  0.4799
 3252SOL    HW121392   3.820   4.439   2.557  0.1406  0.1023  0.0911
 3252SOL    HW221393   3.668   4.460   2.585 -1.5453 -3.0423  0.9591
 3253SOL     OW21394   3.401   1.225   2.474  0.6373  0.2895  0.2535
 3253SOL    HW121395   3.402   1.320   2.480  1.6851  0.2655  0.5235
 3253SOL    HW221396   3.420   1.204   2.566 -0.9212 -1.0441  0.2653
 3254SOL     OW21397   0.134   3.346   6.135  0.1900 -0.1823  0.7660
 3254SOL    HW121398   0.215   3.394   6.152 -0.2571  1.1269 -0.9041
 3254SOL    HW221399   0.127   3.350   6.040  0.6522  0.0523  0.7403
 3255SOL     OW21400   0.172   4.384   7.418  0.1853  0.4489 -0.1427
 3255SOL    HW121401   0.144   4.346   7.502  1.4968 -0.6487 -0.1912
 3255SOL    HW221402   0.265   4.364   7.428 -0.2415 -1.7068 -0.5174
 3256SOL     OW21403   3.533   1.504  10.288  0.9769 -0.3517  0.1503
 3256SOL    HW121404   3.476   1.577  10.308  0.4959 -0.2543 -1.5414
 3256SOL    HW221405   3.528   1.499  10.192  1.4488 -1.7686  0.2006
 3257SOL     OW21406   4.657   1.293  13.779 -0.7776  0.0831  0.2719
 3257SOL    HW121407   4.571   1.264  13.751  0.1682 -1.6263 -0.8259
 3257SOL    HW221408   4.669   1.240  13.858 -0.8865 -2.0077 -1.1303
 3258SOL     OW21409   3.713   0.350   9.126  0.6490 -0.1414 -0.1528
 3258SOL    HW121410   3.785   0.387   9.073 -0.4458 -0.0409 -1.5715
 3258SOL    HW221411   3.688   0.287   9.059  0.5806 -0.0779 -0.1876
 3259SOL     OW21412   2.319   0.405  15.179 -0.8051 -0.0141  0.0972
 3259SOL    HW121413   2.354   0.400  15.090  0.4406 -2.2203  0.7092
 3259SOL    HW221414   2.276   0.320  15.171  0.4126 -0.6450  0.1771
 3260SOL     OW21415   0.473   3.788  11.906  0.1017  0.1131  1.1382
 3260SOL    HW121416   0.435   3.702  11.925 -1.1262  0.1141 -1.3023
 3260SOL    HW221417   0.432   3.837  11.978 -0.9939 -1.0148  1.2837
 3261SOL     OW21418   2.458   0.628   0.689 -0.1173  0.0526  0.5625
 3261SOL    HW121419   2.365   0.606   0.700  0.3162 -1.4247  1.4028
 3261SOL    HW221420   2.477   0.626   0.595  0.9059 -0.1522  0.7732
 3262SOL     OW21421   2.554   3.369  16.689  0.0002  0.2273 -0.0323
 3262SOL    HW121422   2.490   3.309  16.651 -2.0794  3.0534 -0.9641
 3262SOL    HW221423   2.616   3.390  16.620  0.7466 -0.5053  0.4171
 3263SOL     OW21424   2.091   2.330   4.714 -0.0443  0.8557 -0.1367
 3263SOL    HW121425   2.047   2.415   4.713  2.3257  2.0599 -2.3464
 3263SOL    HW221426   2.145   2.338   4.793 -1.4920  0.7856  0.8723
 3264SOL     OW21427   0.053   0.592   3.826 -0.3798  0.1023  0.1991
 3264SOL    HW121428   0.011   0.660   3.879 -0.6563 -1.5043  2.0494
 3264SOL    HW221429   0.008   0.513   3.857 -1.0289  1.3731  2.5278
 3265SOL     OW21430   1.362   0.423   5.381  0.5121  0.1966 -0.3095
 3265SOL    HW121431   1.431   0.475   5.423  0.3401  0.2686 -0.1136
 3265SOL    HW221432   1.300   0.494   5.366  2.0643  1.5453 -0.3938
 3266SOL     OW21433   1.512   1.361   8.430 -0.5762 -1.0920  0.0918
 3266SOL    HW121434   1.566   1.299   8.383 -1.7223  0.4173 -3.1908
 3266SOL    HW221435   1.556   1.354   8.515  1.7202  0.2040 -1.0180
 3267SOL     OW21436   1.013   1.754   8.060 -0.2010 -0.6034  0.1508
 3267SOL    HW121437   1.037   1.702   7.984  0.2316  1.0498 -0.8636
 3267SOL    HW221438   1.093   1.778   8.107 -0.4491  1.4577 -0.4718
 3268SOL     OW21439   3.516   2.367  15.367  0.0557 -0.3479  0.1253
 3268SOL    HW121440   3.459   2.442  15.386  0.3709  0.0800 -0.6355
 3268SOL    HW221441   3.482   2.346  15.280 -1.0524  0.1723  0.4227
 3269SOL     OW21442   3.979   0.026  17.518 -0.4096 -0.5570  0.4037
 3269SOL    HW121443   4.073   0.011  17.509 -0.4565  0.9070 -2.4336
 3269SOL    HW221444   3.948   4.729  17.434 -0.9524 -0.8538  0.7273
 3270SOL     OW21445   2.944   3.527   4.706 -0.2209  0.0894  0.4351
 3270SOL    HW121446   2.890   3.499   4.633 -0.1904 -0.8556  0.7804
 3270SOL    HW221447   3.016   3.570   4.660 -0.8004 -0.7518 -1.2449
 3271SOL     OW21448   2.558   3.076   9.376 -0.4000  0.3257 -0.9042
 3271SOL    HW121449   2.602   2.996   9.407 -1.3182 -0.1403 -0.8070
 3271SOL    HW221450   2.592   3.075   9.286  1.8318  0.1540 -0.0608
 3272SOL     OW21451   1.344   2.776   6.725  0.2634 -0.0483  0.3407
 3272SOL    HW121452   1.432   2.783   6.687 -0.5812  0.7577 -1.4645
 3272SOL    HW221453   1.289   2.788   6.648 -1.3550  0.9767  1.6614
 3273SOL     OW21454   2.197   2.113   6.810 -0.1067  0.2756 -0.0971
 3273SOL    HW121455   2.203   2.189   6.751 -0.4379  1.0181  0.8292
 3273SOL    HW221456   2.129   2.071   6.756 -0.6497  1.2907 -0.2096
 3274SOL     OW21457   0.021   1.352   8.873  0.5166  0.0914 -0.2509
 3274SOL    HW121458   4.730   1.300   8.798  1.4402  1.8644 -1.8368
 3274SOL    HW221459   0.083   1.285   8.903 -1.2891 -1.7391 -0.6037
 3275SOL     OW21460   1.661   0.430  10.441  0.3915  0.1345 -0.0104
 3275SOL    HW121461   1.683   0.384  10.522 -2.0572  0.2005  0.7076
 3275SOL    HW221462   1.565   0.421  10.443  0.4643 -0.5227  0.3716
 3276SOL     OW21463   0.160   4.548   8.376  0.4625 -0.0922 -0.4914
 3276SOL    HW121464   0.148   4.641   8.395 -0.7196 -0.0873 -1.2662
 3276SOL    HW221465   0.147   4.504   8.460 -1.9218  1.9716  0.2417
 3277SOL     OW21466   4.051   1.288   8.801 -0.3285 -0.1880  0.0307
 3277SOL    HW121467   4.061   1.315   8.892  0.3237 -0.1977 -0.0387
 3277SOL    HW221468   4.073   1.370   8.756 -1.7189 -0.2895 -0.8484
 3278SOL     OW21469   1.471   2.572   2.510 -0.4123 -0.7121 -0.7301
 3278SOL    HW121470   1.534   2.599   2.443  1.1361 -1.8708  0.2561
 3278SOL    HW221471   1.483   2.630   2.586  2.2257  0.2464 -1.8886
 3279SOL     OW21472   1.152   0.503   7.688  0.1165 -0.3160  0.2346
 3279SOL    HW121473   1.141   0.474   7.597  1.6812 -0.4176  0.0665
 3279SOL    HW221474   1.248   0.505   7.689  0.1074  0.6627 -0.5572
 3280SOL     OW21475   1.454   2.342   7.714  0.1845  0.3430  0.2030
 3280SOL    HW121476   1.505   2.309   7.788 -1.1873 -1.2400  0.4174
 3280SOL    HW221477   1.474   2.436   7.711 -0.7554  0.5356  0.0692
 3281SOL     OW21478   2.025   2.699   0.547  0.0882 -0.5616  0.2213
 3281SOL    HW121479   1.987   2.646   0.477 -1.7935 -0.6895  1.3349
 3281SOL    HW221480   2.096   2.644   0.578 -0.3452 -0.5944  1.1666
 3282SOL     OW21481   0.220   3.576   8.004 -0.1948 -0.5122  0.0207
 3282SOL    HW121482   0.171   3.511   7.955  3.1756 -2.8937 -0.1852
 3282SOL    HW221483   0.149   3.640   8.001 -0.5939 -0.9498  0.1721
 3283SOL     OW21484   2.096   2.403   6.192  0.5507 -0.4454 -0.1333
 3283SOL    HW121485   2.084   2.372   6.102 -0.2170 -0.3884 -0.0520
 3283SOL    HW221486   2.023   2.466   6.197  0.7456 -0.4101  1.9789
 3284SOL     OW21487   4.469   3.086   9.659  0.2027  0.2894  0.0514
 3284SOL    HW121488   4.497   2.995   9.668 -0.4232  0.1078  0.1537
 3284SOL    HW221489   4.526   3.118   9.729 -1.9178 -1.0884  2.4080
 3285SOL     OW21490   4.712   2.684   5.139  0.4296 -0.1379 -0.2192
 3285SOL    HW121491   4.689   2.632   5.216  1.4863 -2.0590 -1.1973
 3285SOL    HW221492   0.067   2.710   5.149  0.4249 -0.3907  0.4512
 3286SOL     OW21493   4.249   2.186  11.880 -0.1975  0.0981 -0.0377
 3286SOL    HW121494   4.251   2.267  11.931 -1.4434  0.3507 -0.3850
 3286SOL    HW221495   4.177   2.203  11.820 -2.7595 -5.1810  1.5564
 3287SOL     OW21496   0.790   0.600  14.147  0.1231 -0.0284  0.1187
 3287SOL    HW121497   0.854   0.618  14.215  0.1384 -0.8266  0.3200
 3287SOL    HW221498   0.745   0.523  14.182 -1.3970 -0.2521 -2.3142
 3288SOL     OW21499   0.584   1.678   8.235 -0.0008 -0.1533  0.0548
 3288SOL    HW121500   0.659   1.726   8.199  0.7515 -0.1864  1.6076
 3288SOL    HW221501   0.621   1.595   8.266  0.1728  0.3766  1.2671
 3289SOL     OW21502   0.688   3.467  12.555  0.8545  0.0181 -0.3369
 3289SOL    HW121503   0.697   3.373  12.573 -1.0567  0.0922  1.0204
 3289SOL    HW221504   0.655   3.497  12.640  1.0571 -0.9109  0.0759
 3290SOL     OW21505   0.237   3.285  10.967 -0.9457  0.3311 -0.4296
 3290SOL    HW121506   0.294   3.241  10.904 -1.5137 -0.9437 -0.0618
 3290SOL    HW221507   0.260   3.240  11.049  0.1146 -0.0706 -0.9513
 3291SOL     OW21508   3.177   3.565   8.719  0.2183 -0.0252 -0.0071
 3291SOL    HW121509   3.105   3.623   8.694 -0.1154 -0.2600  0.4309
 3291SOL    HW221510   3.196   3.500   8.651  0.4990  1.5840 -1.4822
 3292SOL     OW21511   3.276   1.013   6.842  0.1192  0.4252  0.2501
 3292SOL    HW121512   3.347   1.076   6.852  1.5769 -0.9707 -1.4064
 3292SOL    HW221513   3.285   0.966   6.925 -1.3546 -0.6763 -0.2012
 3293SOL     OW21514   2.388   0.865  14.078  0.0860  0.2530 -0.2039
 3293SOL    HW121515   2.398   0.938  14.016  0.4869 -1.1225 -1.7755
 3293SOL    HW221516   2.372   0.906  14.162 -1.4196  0.6161 -0.6503
 3294SOL     OW21517   1.271   0.619   5.015  0.1496  0.8345 -0.0761
 3294SOL    HW121518   1.304   0.694   4.966  1.7484  0.1859 -0.0032
 3294SOL    HW221519   1.201   0.659   5.066 -0.1175 -0.1091  0.2952
 3295SOL     OW21520   3.002   0.386   5.235 -0.3353 -0.4070  0.1358
 3295SOL    HW121521   3.075   0.353   5.184  1.3575 -0.0162  2.3268
 3295SOL    HW221522   3.013   0.327   5.309  0.5391 -2.2708 -1.4619
 3296SOL     OW21523   3.445   0.147   2.497  0.0162  0.5394 -0.6392
 3296SOL    HW121524   3.468   0.146   2.404  4.1764 -0.9786  0.4229
 3296SOL    HW221525   3.532   0.142   2.537 -0.1103 -1.5668 -0.6654
 3297SOL     OW21526   1.885   1.733   5.410 -0.3179  0.0349  0.4689
 3297SOL    HW121527   1.859   1.776   5.328  1.1604  0.5600  0.2741
 3297SOL    HW221528   1.822   1.771   5.471  1.5062  1.3187  1.5633
 3298SOL     OW21529   1.674   1.133  10.198 -0.1731 -0.2748  0.4212
 3298SOL    HW121530   1.666   1.156  10.291  1.9382  0.8667  0.3346
 3298SOL    HW221531   1.701   1.042  10.191  0.3354  0.0467 -1.7484
 3299SOL     OW21532   2.281   2.956   9.645 -0.5111  0.3164 -0.0161
 3299SOL    HW121533   2.201   2.941   9.594 -1.8798  1.3926  1.8277
 3299SOL    HW221534   2.279   2.875   9.695  0.0823 -0.7577 -1.7124
 3300SOL     OW21535   0.708   2.549   5.315 -0.1509 -0.4094  0.2542
 3300SOL    HW121536   0.777   2.533   5.250 -0.4306  2.7365 -0.8127
 3300SOL    HW221537   0.645   2.606   5.271 -0.9178 -1.4016  0.0655
 3301SOL     OW21538   2.759   2.879  13.141 -0.3159  0.0848  0.2125
 3301SOL    HW121539   2.718   2.962  13.116  2.8203  1.3152 -0.9196
 3301SOL    HW221540   2.686   2.818  13.130  0.1614 -0.6481  1.0412
 3302SOL     OW21541   2.988   2.684   3.886  0.3004 -0.1380  0.2508
 3302SOL    HW121542   2.942   2.731   3.956  0.9493  0.5014  0.2484
 3302SOL    HW221543   3.077   2.719   3.894 -0.2402  0.7772  2.2120
 3303SOL     OW21544   3.247   2.103   7.084  0.0775 -0.1694 -0.1879
 3303SOL    HW121545   3.292   2.187   7.076 -1.4081  0.5948 -0.5335
 3303SOL    HW221546   3.271   2.071   7.171 -0.1262  2.9513  0.9955
 3304SOL     OW21547   0.728   4.176   6.819 -0.0422  0.0573 -0.5278
 3304SOL    HW121548   0.755   4.108   6.881  2.1897  0.2484 -1.2893
 3304SOL    HW221549   0.783   4.153   6.744 -0.7117  0.6866 -1.2157
 3305SOL     OW21550   2.682   1.654   4.572 -0.4857  0.1972  0.4750
 3305SOL    HW121551   2.704   1.646   4.665  0.2031 -2.1140  0.1115
 3305SOL    HW221552   2.747   1.720   4.546  1.0738 -1.8712 -0.8071
 3306SOL     OW21553   1.237   4.363   5.674  0.0418  0.3094  0.4927
 3306SOL    HW121554   1.286   4.422   5.731  0.0466 -0.5916  1.4208
 3306SOL    HW221555   1.274   4.279   5.698  0.8827 -0.2464 -2.7118
 3307SOL     OW21556   1.237   4.722  14.492  0.9400 -0.4660 -0.6384
 3307SOL    HW121557   1.293   0.044  14.541  2.5940 -2.3556 -0.2308
 3307SOL    HW221558   1.259   0.016  14.404 -0.5943  0.3124 -0.7501
 3308SOL     OW21559   3.482   1.281  15.722  0.0851  0.0761  0.0076
 3308SOL    HW121560   3.465   1.374  15.736 -1.8422 -0.1143 -0.9987
 3308SOL    HW221561   3.529   1.254  15.800 -0.2480  0.7218  0.4295
 3309SOL     OW21562   0.813   1.470   9.234 -0.2610  0.4425  0.0578
 3309SOL    HW121563   0.797   1.376   9.227 -0.8679  0.5044  0.6407
 3309SOL    HW221564   0.901   1.472   9.270 -0.4088 -0.1380  0.4654
 3310SOL     OW21565   2.033   1.997  13.809 -0.1894  0.9032  0.0062
 3310SOL    HW121566   2.123   1.966  13.794  0.4964  3.0436 -0.3178
 3310SOL    HW221567   1.986   1.917  13.833  0.6363  0.1415 -0.9399
 3311SOL     OW21568   0.470   2.283   5.044  0.2767 -0.3633  0.4828
 3311SOL    HW121569   0.456   2.377   5.052  0.0414 -0.2541 -1.2143
 3311SOL    HW221570   0.566   2.281   5.039  0.2769  1.6026 -0.5017
 3312SOL     OW21571   2.540   1.690   4.113 -0.1540  0.1564 -0.3889
 3312SOL    HW121572   2.571   1.777   4.086 -1.9433  0.3192 -1.9138
 3312SOL    HW221573   2.589   1.676   4.194  0.2039  2.3747 -0.2238
 3313SOL     OW21574   0.181   2.723   8.374  0.6313 -0.6294 -0.3339
 3313SOL    HW121575   0.144   2.728   8.462 -1.0054  2.4655 -1.1753
 3313SOL    HW221576   0.148   2.802   8.331  1.5543  0.5873  1.1953
 3314SOL     OW21577   2.241   2.116   1.000  0.3708  0.1088  0.3313
 3314SOL    HW121578   2.189   2.118   0.919  0.7499  2.8301  0.1803
 3314SOL    HW221579   2.275   2.029   0.979  0.6447  0.4123 -0.4891
 3315SOL     OW21580   1.299   1.724  15.093 -0.3482  0.9457 -0.3288
 3315SOL    HW121581   1.305   1.632  15.069 -1.9670 -0.1119  3.2990
 3315SOL    HW221582   1.391   1.743  15.115  0.2427 -0.6081 -1.4607
 3316SOL     OW21583   3.523   3.155   2.104  0.1981 -0.7977  0.0690
 3316SOL    HW121584   3.551   3.212   2.175 -0.1779  0.5083 -0.8385
 3316SOL    HW221585   3.451   3.122   2.159 -1.3660  0.4367 -1.2309
 3317SOL     OW21586   3.887   0.812  16.517  0.0293  0.1564  0.3347
 3317SOL    HW121587   3.888   0.799  16.422  1.3786 -0.1365  0.3873
 3317SOL    HW221588   3.838   0.733  16.538 -1.4593  1.0772  0.3220
 3318SOL     OW21589   1.822   3.122   1.613  0.2954 -0.2492 -0.1431
 3318SOL    HW121590   1.895   3.061   1.627  1.4785  0.9004 -1.3267
 3318SOL    HW221591   1.872   3.190   1.568  0.8919  0.1663  1.1658
 3319SOL     OW21592   1.997   0.551   9.404 -0.3035  0.0972  0.2317
 3319SOL    HW121593   1.911   0.592   9.393  0.3880  1.5393  0.1378
 3319SOL    HW221594   2.062   0.621   9.401 -1.2965  1.0037  0.0742
 3320SOL     OW21595   2.151   2.180  17.252  0.4798 -0.4619  0.2621
 3320SOL    HW121596   2.092   2.242  17.295  1.7392  0.1814  1.0620
 3320SOL    HW221597   2.173   2.116  17.320 -2.4406 -0.7573  0.9465
 3321SOL     OW21598   2.827   4.352   9.925 -0.0718 -0.0307  0.0520
 3321SOL    HW121599   2.864   4.264   9.923  0.2057  0.1490 -2.6079
 3321SOL    HW221600   2.905   4.396   9.892 -1.1680  0.6923 -1.5492
 3322SOL     OW21601   3.511   1.315   0.384  0.2257 -0.5208 -0.3028
 3322SOL    HW121602   3.437   1.256   0.395 -0.1511 -0.3440 -1.7684
 3322SOL    HW221603   3.541   1.320   0.474  2.0119  0.6848 -0.9694
 3323SOL     OW21604   4.236   0.029   2.222 -0.3068  0.2902 -0.2653
 3323SOL    HW121605   4.209   4.710   2.293 -2.0313  2.1559  0.5546
 3323SOL    HW221606   4.159   0.084   2.206  1.0801  1.8332 -1.8313
 3324SOL     OW21607   2.816   0.476  16.351 -0.1175  0.2928 -0.8823
 3324SOL    HW121608   2.875   0.401  16.345 -0.8423 -0.7144  4.4782
 3324SOL    HW221609   2.733   0.446  16.315 -0.1658  0.2447 -0.7304
 3325SOL     OW21610   3.395   1.885  16.124  0.1802  0.3197  0.3969
 3325SOL    HW121611   3.491   1.887  16.133  0.2537 -4.1830  0.6255
 3325SOL    HW221612   3.372   1.960  16.069  2.2785  0.0597 -0.8570
 3326SOL     OW21613   3.512   0.850  16.024  0.2878 -0.0949  0.2377
 3326SOL    HW121614   3.589   0.835  15.969  0.7543  0.4531  0.7459
 3326SOL    HW221615   3.533   0.790  16.096 -0.6341 -0.0612  0.5384
 3327SOL     OW21616   1.063   1.230   8.340 -0.2853  0.5829  0.4589
 3327SOL    HW121617   1.121   1.278   8.400 -1.4041  0.7216  1.4192
 3327SOL    HW221618   1.059   1.300   8.275 -0.5171  0.8497  0.7634
 3328SOL     OW21619   2.989   1.955   8.618 -0.1486 -0.0339  0.0368
 3328SOL    HW121620   2.898   1.965   8.646  1.3753  2.7305  3.8859
 3328SOL    HW221621   2.968   1.954   8.524 -0.5941 -0.8427  0.1435
 3329SOL     OW21622   3.360   2.392  17.028  0.5379  0.4612 -0.4658
 3329SOL    HW121623   3.310   2.468  17.058  0.1106  0.3379 -0.8745
 3329SOL    HW221624   3.443   2.433  17.002  1.6098 -2.0474 -1.0771
 3330SOL     OW21625   0.776   2.721   6.187  0.2001 -0.3231  0.2694
 3330SOL    HW121626   0.700   2.662   6.186 -1.2405  1.5077  0.7429
 3330SOL    HW221627   0.786   2.749   6.278  0.7542  0.1076  0.0784
 3331SOL     OW21628   1.643   1.518  17.557 -0.1560  0.6767 -0.2571
 3331SOL    HW121629   1.581   1.455  17.593 -0.1513  3.2131  4.1078
 3331SOL    HW221630   1.730   1.481  17.571  0.0150  1.5638  0.9576
 3332SOL     OW21631   3.612   0.765   3.661  0.0823 -0.5354  0.3831
 3332SOL    HW121632   3.660   0.740   3.582 -0.5158 -0.6092  0.0477
 3332SOL    HW221633   3.688   0.803   3.705 -0.3879  0.5268  0.2783
 3333SOL     OW21634   1.762   4.150   8.200  0.5881  0.0932 -0.3039
 3333SOL    HW121635   1.815   4.228   8.215  0.7701 -0.2095  0.6403
 3333SOL    HW221636   1.805   4.108   8.126 -1.7112 -0.6288 -1.2455
 3334SOL     OW21637   2.605   1.629   7.502  0.3552 -0.1495 -0.4764
 3334SOL    HW121638   2.511   1.648   7.505  0.5277  0.4116  1.1610
 3334SOL    HW221639   2.601   1.554   7.443  1.0569 -0.0619 -0.6361
 3335SOL     OW21640   3.598   2.463   9.392 -0.4617 -0.2908 -0.4828
 3335SOL    HW121641   3.550   2.410   9.329  0.3944 -0.7413 -0.7515
 3335SOL    HW221642   3.690   2.449   9.369 -0.8514 -2.9432 -0.4339
 3336SOL     OW21643   3.840   2.558  13.983 -0.1298  0.2858  0.2069
 3336SOL    HW121644   3.786   2.628  13.946  1.9074  1.0017 -1.4522
 3336SOL    HW221645   3.839   2.492  13.914 -1.9468  1.4502 -0.8805
 3337SOL     OW21646   2.148   3.920   0.729  0.0344 -0.1290  0.5844
 3337SOL    HW121647   2.074   3.945   0.673  0.3673  0.4491  0.4066
 3337SOL    HW221648   2.212   3.987   0.705  0.1363 -1.0390 -1.6241
 3338SOL     OW21649   2.188   3.235   9.984  0.3965 -0.0327 -0.1692
 3338SOL    HW121650   2.230   3.194  10.060 -2.8230 -0.6382  1.3024
 3338SOL    HW221651   2.107   3.184   9.979  0.2112  0.3484 -0.9755
 3339SOL     OW21652   1.210   4.492   5.410  0.2868 -0.0483 -0.9062
 3339SOL    HW121653   1.187   4.459   5.497  0.0044  2.9374  0.1800
 3339SOL    HW221654   1.306   4.486   5.411  0.1786 -1.3087  0.9734
 3340SOL     OW21655   3.155   0.298   8.549  0.7640  0.2487 -0.2354
 3340SOL    HW121656   3.074   0.332   8.511 -1.2617 -3.0209  1.1380
 3340SOL    HW221657   3.163   0.364   8.617 -1.8093  0.4542 -0.1243
 3341SOL     OW21658   1.079   0.485   4.081 -0.4651 -0.0353 -0.2678
 3341SOL    HW121659   1.066   0.576   4.055 -0.5419 -0.7154 -2.6182
 3341SOL    HW221660   1.039   0.478   4.168  0.5956  2.8845  0.4450
 3342SOL     OW21661   1.701   4.086   5.057 -0.3124  0.2181  0.6041
 3342SOL    HW121662   1.761   4.093   4.982  1.7370 -2.1733  2.0265
 3342SOL    HW221663   1.692   3.991   5.049  0.9608  0.2832 -1.9112
 3343SOL     OW21664   1.509   0.454  17.655  0.4056  0.0959  0.1638
 3343SOL    HW121665   1.439   0.519  17.654 -0.0709 -0.4842 -3.3782
 3343SOL    HW221666   1.495   0.415  17.741 -2.9945 -0.6241 -0.7324
 3344SOL     OW21667   1.212   1.269   6.948  0.4884  0.0899 -0.5448
 3344SOL    HW121668   1.293   1.229   6.917  0.9251  1.4183 -1.1199
 3344SOL    HW221669   1.159   1.218   6.887 -0.2714  1.1320 -0.7581
 3345SOL     OW21670   0.794   2.961   3.377 -0.7175 -0.3803 -0.4139
 3345SOL    HW121671   0.705   2.931   3.357 -1.1762  0.8865 -0.2566
 3345SOL    HW221672   0.847   2.881   3.379 -0.4309 -0.2131 -1.4111
 3346SOL     OW21673   2.125   1.936   7.458 -0.3965  0.0778 -0.7440
 3346SOL    HW121674   2.080   1.936   7.543  0.9119  0.7142 -0.0460
 3346SOL    HW221675   2.068   1.887   7.398  0.7740 -2.1428 -0.0692
 3347SOL     OW21676   2.227   3.710   5.745  0.2831 -0.4036  0.2573
 3347SOL    HW121677   2.166   3.750   5.807  0.8283  0.2627  0.3615
 3347SOL    HW221678   2.217   3.616   5.760  0.6494 -0.5798 -0.5652
 3348SOL     OW21679   0.133   4.252   3.421  0.1056  0.4241 -0.6075
 3348SOL    HW121680   0.159   4.173   3.468 -2.0276 -0.4493 -0.8975
 3348SOL    HW221681   0.206   4.254   3.360  0.4273 -2.5054 -0.2966
 3349SOL     OW21682   4.462   1.567  14.145  0.0525 -0.6251 -0.1611
 3349SOL    HW121683   4.468   1.547  14.239  0.7308  0.7601  0.0976
 3349SOL    HW221684   4.368   1.572  14.131 -0.4255 -3.4015  2.0128
 3350SOL     OW21685   4.492   2.375   7.870 -0.2446  0.2042  0.1921
 3350SOL    HW121686   4.475   2.336   7.785 -2.5555  0.6537  0.4492
 3350SOL    HW221687   4.587   2.363   7.864 -0.1910  0.3823  0.6641
 3351SOL     OW21688   2.220   1.914   0.696  0.2073  0.4227  0.3071
 3351SOL    HW121689   2.273   1.993   0.707 -0.7459  0.9559  1.0605
 3351SOL    HW221690   2.133   1.941   0.725 -1.1051 -2.8958 -0.4765
 3352SOL     OW21691   1.731   2.975   4.247 -0.0688 -0.0770  0.2464
 3352SOL    HW121692   1.671   2.944   4.315 -0.9468  0.9388 -0.0620
 3352SOL    HW221693   1.745   2.891   4.205  0.3119  0.7620 -1.2806
 3353SOL     OW21694   0.737   2.344   3.905 -0.2030 -0.2309 -0.3859
 3353SOL    HW121695   0.773   2.368   3.820 -0.5488  2.1231  0.1235
 3353SOL    HW221696   0.731   2.249   3.909 -0.2403 -0.1892  0.7110
 3354SOL     OW21697   2.728   4.512   9.644 -0.4761  0.5713  0.5622
 3354SOL    HW121698   2.683   4.447   9.699 -1.0765  0.7103  0.2448
 3354SOL    HW221699   2.821   4.505   9.665  0.1782 -1.9796 -3.1332
 3355SOL     OW21700   0.316   1.595   8.595  0.3670  0.5697 -0.0872
 3355SOL    HW121701   0.399   1.642   8.593  0.6167  0.0115 -2.7758
 3355SOL    HW221702   0.272   1.663   8.646 -0.7307 -0.6022  0.5305
 3356SOL     OW21703   4.688   4.705   2.222 -0.3429  0.4313 -0.1737
 3356SOL    HW121704   4.628   0.031   2.183 -0.4726  0.3574 -0.0936
 3356SOL    HW221705   4.709   4.665   2.137  1.0813  0.2641  0.2615
 3357SOL     OW21706   4.627   3.838   4.367 -0.0468 -0.2472  0.4500
 3357SOL    HW121707   4.618   3.746   4.344 -2.4399  0.3407 -0.8895
 3357SOL    HW221708   4.602   3.876   4.283  0.9306  0.5926  0.5360
 3358SOL     OW21709   0.332   2.597  12.467  0.6927 -0.6468 -0.1900
 3358SOL    HW121710   0.245   2.566  12.492 -0.4366  2.4935 -0.3652
 3358SOL    HW221711   0.336   2.679  12.516 -0.1501  0.1374 -1.4680
 3359SOL     OW21712   0.279   3.016   9.428 -0.2892  0.3120  0.2693
 3359SOL    HW121713   0.291   3.107   9.455  3.0014  0.2097 -0.9050
 3359SOL    HW221714   0.259   3.027   9.335  0.7724  2.0837  0.2563
 3360SOL     OW21715   3.497   3.675   6.226  1.1996 -0.4429  0.1648
 3360SOL    HW121716   3.506   3.770   6.214  0.8307 -0.7175 -2.2567
 3360SOL    HW221717   3.570   3.649   6.170 -0.1399 -2.5780 -0.5658
 3361SOL     OW21718   0.356   0.902   9.034 -0.4287  0.8632  0.0334
 3361SOL    HW121719   0.412   0.864   8.966  0.7619  0.4037  1.2685
 3361SOL    HW221720   0.285   0.839   9.045 -0.5609  1.2687  1.5126
 3362SOL     OW21721   1.580   3.724  13.356  0.3660 -0.0783 -0.1778
 3362SOL    HW121722   1.587   3.735  13.261  0.9928 -1.2243 -0.2626
 3362SOL    HW221723   1.653   3.664  13.373  0.5636  0.4068  0.7087
 3363SOL     OW21724   4.299   0.148  12.194  0.2100 -0.1908  0.2288
 3363SOL    HW121725   4.249   0.118  12.271  0.8046 -1.1785  0.2283
 3363SOL    HW221726   4.223   0.176  12.142  0.0748  0.2743  0.6762
 3364SOL     OW21727   2.464   1.042   9.046  0.1309 -0.3439  0.5252
 3364SOL    HW121728   2.414   0.966   9.017 -0.0222 -0.0764  0.0981
 3364SOL    HW221729   2.550   1.003   9.064 -0.5218 -1.7266  0.6682
 3365SOL     OW21730   3.788   1.699   4.933 -0.5171  0.0192  0.6922
 3365SOL    HW121731   3.697   1.697   4.902  0.5215 -1.5329 -2.2735
 3365SOL    HW221732   3.809   1.606   4.929  0.3380  0.2733 -0.8810
 3366SOL     OW21733   0.134   1.672   7.351 -0.0273 -0.2268 -0.3404
 3366SOL    HW121734   0.092   1.660   7.436 -0.2165 -0.3473 -0.4535
 3366SOL    HW221735   0.090   1.750   7.318 -0.6804 -0.7005 -0.5669
 3367SOL     OW21736   2.771   2.120   9.492 -0.2200 -0.3165 -0.1847
 3367SOL    HW121737   2.725   2.201   9.514 -0.0725  0.5938 -3.1495
 3367SOL    HW221738   2.700   2.060   9.512  1.0242 -1.7414 -0.0681
 3368SOL     OW21739   0.785   3.473   4.993 -0.4470 -0.7591 -0.1870
 3368SOL    HW121740   0.808   3.469   4.900 -0.4060 -1.2707 -0.1558
 3368SOL    HW221741   0.788   3.566   5.014  0.6103 -0.9360  0.4426
 3369SOL     OW21742   2.959   4.535   4.482  0.1000  0.1374 -0.2772
 3369SOL    HW121743   3.021   4.472   4.445 -2.7014 -2.1022 -1.0911
 3369SOL    HW221744   2.883   4.478   4.493  0.5468 -0.5083 -0.5741
 3370SOL     OW21745   1.461   1.617  17.183 -0.3668  0.1184 -0.3872
 3370SOL    HW121746   1.522   1.553  17.219 -2.2718 -0.8209  1.1932
 3370SOL    HW221747   1.437   1.566  17.107  1.6730  0.8507 -1.5230
 3371SOL     OW21748   3.304   4.649   8.035 -0.6343  0.2514  0.7674
 3371SOL    HW121749   3.233   4.709   8.058 -1.7650 -1.7273  2.4893
 3371SOL    HW221750   3.282   4.636   7.943 -0.9763 -1.7351  1.1118
 3372SOL     OW21751   4.571   3.942   4.625 -0.5855 -0.2048 -0.1187
 3372SOL    HW121752   4.614   3.893   4.555  0.3835  0.0030  0.3217
 3372SOL    HW221753   4.509   3.996   4.577  0.4672  0.3339 -0.8929
 3373SOL     OW21754   2.322   0.719   6.818  0.4803 -0.6932 -0.4549
 3373SOL    HW121755   2.294   0.657   6.752 -2.0278  0.5649 -0.5789
 3373SOL    HW221756   2.313   0.672   6.901  2.2520  0.0220  0.1441
 3374SOL     OW21757   3.270   3.243  13.875 -0.1571 -0.3345 -0.4665
 3374SOL    HW121758   3.201   3.215  13.936  1.1230  1.0447  1.5968
 3374SOL    HW221759   3.228   3.261  13.790 -0.4671 -1.4798 -0.5609
 3375SOL     OW21760   2.458   4.537   2.434  0.0363  0.4650  0.5435
 3375SOL    HW121761   2.521   4.533   2.506  0.3857  1.9910  0.3321
 3375SOL    HW221762   2.438   4.444   2.436 -1.2571  0.7727  2.5047
 3376SOL     OW21763   2.964   2.574  13.383 -0.3752 -0.0597 -0.0440
 3376SOL    HW121764   2.984   2.644  13.321  1.6521  0.9707  1.7650
 3376SOL    HW221765   2.911   2.629  13.441  0.2307 -0.4626  0.9056
 3377SOL     OW21766   2.480   1.330   6.442  0.5940  0.1943 -0.3428
 3377SOL    HW121767   2.524   1.306   6.361  0.7071 -0.8157  0.0184
 3377SOL    HW221768   2.431   1.408   6.415 -1.0872 -0.2507  1.3820
 3378SOL     OW21769   4.505   2.016   5.881 -0.0670  0.3868  0.4858
 3378SOL    HW121770   4.578   2.015   5.943 -0.2355  0.2025  0.6807
 3378SOL    HW221771   4.430   2.041   5.936 -0.6932 -1.4089  0.4537
 3379SOL     OW21772   4.469   1.894   6.234  0.0662 -0.3376 -0.1992
 3379SOL    HW121773   4.399   1.960   6.239  1.0522  0.6284  0.9220
 3379SOL    HW221774   4.474   1.877   6.328 -1.2475 -2.9934 -0.6088
 3380SOL     OW21775   0.776   3.508   7.639 -0.7293  0.5539 -0.1898
 3380SOL    HW121776   0.763   3.580   7.701  3.0360  0.4464  0.7016
 3380SOL    HW221777   0.727   3.550   7.568 -0.3994  1.4473  0.1012
 3381SOL     OW21778   1.400   1.135  15.757 -0.0496  0.5526  0.5643
 3381SOL    HW121779   1.463   1.188  15.709 -1.6620  1.3622 -0.6525
 3381SOL    HW221780   1.369   1.070  15.694  1.5912 -0.4558  0.7748
 3382SOL     OW21781   3.360   0.627  11.572 -0.4034  0.4033 -0.1278
 3382SOL    HW121782   3.328   0.633  11.482 -0.2520  1.0422 -0.1408
 3382SOL    HW221783   3.278   0.632  11.622 -0.6138 -0.0309 -0.4284
 3383SOL     OW21784   0.533   3.899   8.003 -0.5334 -0.2472 -0.1021
 3383SOL    HW121785   0.560   3.989   8.019  1.1430 -0.9837  1.3405
 3383SOL    HW221786   0.543   3.853   8.086 -0.8573 -1.3061 -0.6477
 3384SOL     OW21787   3.933   4.263   1.796 -0.0467 -0.1542  0.0394
 3384SOL    HW121788   3.994   4.190   1.794 -0.0358 -0.1017 -1.2293
 3384SOL    HW221789   3.854   4.219   1.766 -1.3394  3.0175 -1.2613
 3385SOL     OW21790   4.224   4.410   2.143 -0.7932 -0.3089  0.8607
 3385SOL    HW121791   4.144   4.405   2.091  0.3766 -2.1835 -0.7290
 3385SOL    HW221792   4.234   4.318   2.166  1.2900 -0.5806 -1.1337
 3386SOL     OW21793   0.198   0.982   9.429 -0.1820  0.3903 -0.1160
 3386SOL    HW121794   0.192   1.069   9.467 -0.4628 -0.0502  0.8721
 3386SOL    HW221795   0.285   0.981   9.387 -0.8150 -2.4427 -1.3535
 3387SOL     OW21796   3.761   4.156   5.583 -0.2405  0.5830  0.2729
 3387SOL    HW121797   3.698   4.100   5.537 -0.7393 -0.7158  2.5269
 3387SOL    HW221798   3.726   4.243   5.562  1.3988  0.8262 -1.4451
 3388SOL     OW21799   2.655   3.535   9.090  0.0402 -0.4685 -0.7634
 3388SOL    HW121800   2.724   3.482   9.050  0.5255 -0.3621 -0.0644
 3388SOL    HW221801   2.647   3.512   9.183 -0.5772  0.8121 -0.5030
 3389SOL     OW21802   1.428   4.457  17.657 -0.2622  0.3602  0.0247
 3389SOL    HW121803   1.436   4.448  17.562 -1.4152  1.4963 -0.1800
 3389SOL    HW221804   1.351   4.400  17.664  0.6897 -1.0580 -0.9106
 3390SOL     OW21805   0.706   3.778   2.426 -0.5338  0.5225 -0.3211
 3390SOL    HW121806   0.709   3.831   2.505 -0.2811  1.2944 -0.8434
 3390SOL    HW221807   0.761   3.702   2.441 -2.1680 -0.1115  2.3908
 3391SOL     OW21808   1.412   4.721   6.336 -0.2554 -0.3693 -0.3873
 3391SOL    HW121809   1.351   4.702   6.265 -0.3061 -2.1141  0.1372
 3391SOL    HW221810   1.355   4.732   6.412 -0.7447 -0.7937 -0.6928
 3392SOL     OW21811   1.412   0.546  12.790 -0.1476  0.0490 -0.1271
 3392SOL    HW121812   1.444   0.623  12.835 -0.4106  0.7706 -1.1730
 3392SOL    HW221813   1.390   0.582  12.704  2.7880 -0.1915 -0.9666
 3393SOL     OW21814   2.436   3.649  16.880 -0.3689 -0.0203  0.0138
 3393SOL    HW121815   2.396   3.736  16.886 -0.5496 -0.0112 -1.2547
 3393SOL    HW221816   2.428   3.625  16.787  3.4788  1.1884 -0.6242
 3394SOL     OW21817   1.032   2.900   2.127  0.2746  0.1999  0.1070
 3394SOL    HW121818   0.957   2.842   2.142  0.8647 -0.8081 -0.8437
 3394SOL    HW221819   1.055   2.880   2.036 -2.0736 -1.4712 -0.1152
 3395SOL     OW21820   4.089   3.359   5.028 -0.0287 -0.0337  0.5700
 3395SOL    HW121821   4.149   3.410   5.082 -1.1391  0.8946  0.9288
 3395SOL    HW221822   4.133   3.345   4.944 -3.6367 -0.9036 -1.1817
 3396SOL     OW21823   1.489   2.423   5.268  0.5620  0.3954 -0.3827
 3396SOL    HW121824   1.416   2.483   5.283 -0.1687 -0.2445 -1.4098
 3396SOL    HW221825   1.474   2.402   5.176 -2.3272  0.5685  0.0526
 3397SOL     OW21826   2.440   4.592  15.326 -0.6069 -0.1645 -0.0836
 3397SOL    HW121827   2.412   4.663  15.384 -1.6131  0.1137 -0.8992
 3397SOL    HW221828   2.363   4.540  15.349 -0.4329 -0.4399 -0.1359
 3398SOL     OW21829   2.170   3.514  15.932 -0.3849 -0.2684 -0.0986
 3398SOL    HW121830   2.189   3.429  15.891  1.6041  0.2730 -0.2920
 3398SOL    HW221831   2.165   3.581  15.865  1.6712  0.5646  0.5793
 3399SOL     OW21832   4.369   4.549   8.726  0.0120  0.5409 -0.0760
 3399SOL    HW121833   4.399   4.485   8.791 -0.1531  0.5849  0.0436
 3399SOL    HW221834   4.436   4.617   8.735  0.8948 -0.2023 -0.9986
 3400SOL     OW21835   0.178   2.774   2.631 -0.6196 -0.7220 -0.5623
 3400SOL    HW121836   0.143   2.859   2.606 -0.0560 -0.2357  0.3099
 3400SOL    HW221837   0.213   2.753   2.544 -0.5711 -1.2944 -0.4078
 3401SOL     OW21838   1.308   1.750   5.541  0.3614  0.4621 -0.2761
 3401SOL    HW121839   1.318   1.844   5.556 -0.8037  0.6000 -0.3471
 3401SOL    HW221840   1.213   1.748   5.532  0.0725  3.5954  1.8831
 3402SOL     OW21841   3.765   1.140   6.447 -0.5613 -0.0460 -0.1683
 3402SOL    HW121842   3.684   1.154   6.495  1.7641 -0.6156  3.8625
 3402SOL    HW221843   3.785   1.053   6.481 -0.9364  0.3858  1.1285
 3403SOL     OW21844   1.789   1.396   2.324 -0.3436  0.4196  0.7569
 3403SOL    HW121845   1.702   1.358   2.333 -0.3935  0.5759  0.9337
 3403SOL    HW221846   1.754   1.484   2.338 -3.0482 -0.5915  0.2825
 3404SOL     OW21847   0.571   2.830  13.898 -0.2609 -0.1007  0.0489
 3404SOL    HW121848   0.643   2.770  13.878  1.4225  1.2409  2.0910
 3404SOL    HW221849   0.523   2.786  13.968 -1.3048  2.2558  0.8242
 3405SOL     OW21850   0.816   1.697  11.988 -0.8211 -1.2909  0.7535
 3405SOL    HW121851   0.754   1.754  11.943  0.6618 -1.3473 -1.3389
 3405SOL    HW221852   0.823   1.617  11.935  0.6137  0.2622 -1.3903
 3406SOL     OW21853   0.278   3.001   3.447  0.1169  0.5117 -0.4061
 3406SOL    HW121854   0.200   2.987   3.500 -0.2666 -0.3560 -1.1962
 3406SOL    HW221855   0.241   3.040   3.368 -2.0201  0.4033  0.5503
 3407SOL     OW21856   2.985   2.549   4.499 -0.0939  0.3195 -0.3806
 3407SOL    HW121857   3.014   2.637   4.524 -2.3541  0.0671  3.0697
 3407SOL    HW221858   3.006   2.487   4.568  0.0328 -0.4008 -1.0717
 3408SOL     OW21859   3.851   1.209   8.611 -0.2811 -0.4807  0.6538
 3408SOL    HW121860   3.832   1.119   8.637 -0.3695 -0.3190  1.1678
 3408SOL    HW221861   3.904   1.239   8.685  1.8813 -1.2289 -0.5822
 3409SOL     OW21862   1.057   1.608   0.084 -0.1501  0.6857 -0.1108
 3409SOL    HW121863   1.042   1.532   0.029  1.5417  1.0109 -1.0234
 3409SOL    HW221864   0.967   1.640   0.088  0.0129  1.0640  0.5421
 3410SOL     OW21865   1.519   3.720   0.531  0.6326 -0.2529  0.3154
 3410SOL    HW121866   1.503   3.723   0.437  2.0281 -0.2456  0.0783
 3410SOL    HW221867   1.473   3.637   0.547  1.1475 -0.3717  1.1783
 3411SOL     OW21868   3.268   1.002   0.516  0.6226 -0.0704  0.0575
 3411SOL    HW121869   3.203   0.954   0.464 -0.0739  0.1545  0.7290
 3411SOL    HW221870   3.341   0.940   0.508  1.4014  0.9356 -0.7490
 3412SOL     OW21871   0.552   3.507   6.648  0.7727  0.3227  0.0374
 3412SOL    HW121872   0.539   3.412   6.651 -0.7109  0.5728  0.9713
 3412SOL    HW221873   0.489   3.530   6.580  0.8114 -0.4227 -0.2608
 3413SOL     OW21874   0.211   4.005   3.540 -0.3549  0.2437 -0.3726
 3413SOL    HW121875   0.142   3.948   3.574  1.3310 -2.4088 -1.3874
 3413SOL    HW221876   0.258   3.944   3.484  1.6119  1.4561 -0.0633
 3414SOL     OW21877   2.963   2.836   5.483 -0.1180  0.1587 -0.0087
 3414SOL    HW121878   2.917   2.790   5.413 -1.7116 -0.5857  1.5173
 3414SOL    HW221879   3.028   2.881   5.430 -2.2203  3.7357  0.4326
 3415SOL     OW21880   4.111   3.853  15.801  0.1508  0.3880 -0.2384
 3415SOL    HW121881   4.127   3.760  15.820 -3.4872 -0.0634  0.5654
 3415SOL    HW221882   4.146   3.897  15.878 -0.6552 -2.3299  1.6754
 3416SOL     OW21883   3.408   1.650   9.368  0.0250 -0.3515 -0.2131
 3416SOL    HW121884   3.316   1.634   9.386 -0.3941 -0.0670 -2.1073
 3416SOL    HW221885   3.417   1.746   9.370 -0.6897 -0.3068  0.9598
 3417SOL     OW21886   1.072   2.569   3.197 -0.4738  0.4693  0.5414
 3417SOL    HW121887   1.143   2.604   3.143  1.7341 -0.3359  2.9451
 3417SOL    HW221888   1.128   2.529   3.263 -0.1071  2.3730  1.3656
 3418SOL     OW21889   3.780   2.078   0.842 -0.3363  0.1812 -0.5288
 3418SOL    HW121890   3.818   2.150   0.893  0.4170 -0.1339 -0.6424
 3418SOL    HW221891   3.737   2.028   0.912  1.6584  0.0225  0.5641
 3419SOL     OW21892   3.921   0.394   9.493 -0.3305 -0.1768 -0.2412
 3419SOL    HW121893   3.942   0.332   9.424 -1.8280 -1.5555  0.5462
 3419SOL    HW221894   3.877   0.463   9.444 -2.5185 -1.9769 -0.7954
 3420SOL     OW21895   2.125   4.023   3.909  0.3186  0.1872 -0.2290
 3420SOL    HW121896   2.210   3.996   3.873 -0.6476 -2.0901 -0.7651
 3420SOL    HW221897   2.125   4.109   3.867  1.5985  0.7587  0.9281
 3421SOL     OW21898   4.068   1.833  15.956  0.5327  0.2116 -0.3180
 3421SOL    HW121899   4.159   1.847  15.927  0.8492 -1.2535 -0.0250
 3421SOL    HW221900   4.078   1.803  16.046  2.6509 -0.9016 -0.9182
 3422SOL     OW21901   2.824   4.485   7.152  0.1385 -0.5481  0.4953
 3422SOL    HW121902   2.744   4.483   7.099 -1.2827  0.7520  2.5991
 3422SOL    HW221903   2.818   4.563   7.208 -1.4622 -1.7668  2.0477
 3423SOL     OW21904   3.309   1.705   4.129  0.3466  0.3756  0.1228
 3423SOL    HW121905   3.301   1.799   4.116 -0.2681  0.6621  2.4895
 3423SOL    HW221906   3.320   1.676   4.039  2.2522 -0.0013  0.4837
 3424SOL     OW21907   1.973   4.362   4.987  0.9985 -0.0954  0.0992
 3424SOL    HW121908   1.996   4.275   4.953  2.0209 -0.1002  0.8015
 3424SOL    HW221909   1.981   4.344   5.080 -1.8160 -1.9439 -0.0254
 3425SOL     OW21910   1.337   4.636  10.634 -0.3971  0.6247  0.5878
 3425SOL    HW121911   1.296   4.644  10.547  2.6596 -0.3453 -0.9587
 3425SOL    HW221912   1.273   4.585  10.683  1.1350 -1.3217  0.5583
 3426SOL     OW21913   1.293   3.822   5.074  0.1500  0.8460 -0.2343
 3426SOL    HW121914   1.230   3.873   5.126  0.0835  0.5024  0.0212
 3426SOL    HW221915   1.252   3.736   5.071 -0.3500  1.1512 -2.0839
 3427SOL     OW21916   2.832   1.452  11.777 -0.0490  0.0276 -0.0759
 3427SOL    HW121917   2.872   1.381  11.727  1.4604 -0.1624  1.4219
 3427SOL    HW221918   2.872   1.528  11.734  0.9524 -1.4006 -1.6649
 3428SOL     OW21919   1.974   2.185   6.670  0.0118 -0.6350 -0.4972
 3428SOL    HW121920   1.888   2.158   6.701  0.8727 -0.0633  2.3733
 3428SOL    HW221921   1.969   2.169   6.576  0.7206  1.1947 -0.8452
 3429SOL     OW21922   0.952   0.477   5.140  0.1881 -0.0092 -0.0685
 3429SOL    HW121923   0.968   0.395   5.093 -1.3874 -1.4343  1.8497
 3429SOL    HW221924   0.973   0.465   5.233  0.8705  0.2664 -0.1868
 3430SOL     OW21925   4.334   3.342   3.658 -1.0449  0.3712 -0.2825
 3430SOL    HW121926   4.409   3.300   3.616 -1.0494  0.4741 -0.3960
 3430SOL    HW221927   4.356   3.435   3.655  0.2463  0.1071  1.0062
 3431SOL     OW21928   0.619   4.115   2.242 -0.0759 -0.7329  0.7527
 3431SOL    HW121929   0.609   4.138   2.334  0.1263  1.2572  0.2773
 3431SOL    HW221930   0.684   4.181   2.216 -2.3969  0.6917 -1.4039
 3432SOL     OW21931   2.978   0.270   5.490 -0.1475 -0.3825 -0.0516
 3432SOL    HW121932   3.028   0.192   5.515  0.3029  0.0041  0.2508
 3432SOL    HW221933   3.024   0.333   5.546 -1.1533 -1.0672  1.5514
 3433SOL     OW21934   3.566   3.272   2.782  0.1328 -0.4057  0.7876
 3433SOL    HW121935   3.571   3.262   2.687 -0.1525 -1.5271  0.8843
 3433SOL    HW221936   3.473   3.251   2.783  0.8638 -3.7630 -0.9498
 3434SOL     OW21937   4.183   4.604  16.775  0.3604 -0.5176  0.4721
 3434SOL    HW121938   4.093   4.615  16.744  0.3854 -2.1611 -0.1354
 3434SOL    HW221939   4.213   4.695  16.774 -1.1441 -0.0132  0.7597
 3435SOL     OW21940   1.331   2.736   8.088  0.0209  0.1152  0.4104
 3435SOL    HW121941   1.325   2.641   8.099 -1.8299  0.3520  1.4580
 3435SOL    HW221942   1.261   2.753   8.151 -0.8437 -0.3880 -0.4126
 3436SOL     OW21943   0.566   3.682   6.857  0.0122 -0.5043  0.2103
 3436SOL    HW121944   0.545   3.628   6.933  1.0655 -0.4364  0.5486
 3436SOL    HW221945   0.550   3.616   6.789  0.8953 -2.8466  2.2946
 3437SOL     OW21946   0.908   4.165   2.233  0.0198 -0.6114 -0.3362
 3437SOL    HW121947   0.940   4.132   2.317 -0.2186 -0.6380 -0.2565
 3437SOL    HW221948   0.918   4.257   2.256 -0.2920 -0.5607 -0.4052
 3438SOL     OW21949   0.893   1.815   8.393 -0.0717  0.7129 -0.0751
 3438SOL    HW121950   0.882   1.720   8.394 -2.8601  1.0318  0.1793
 3438SOL    HW221951   0.856   1.844   8.309  1.4818  0.4906 -0.8359
 3439SOL     OW21952   0.532   2.419   1.554 -0.7893  0.0447  0.1753
 3439SOL    HW121953   0.518   2.474   1.477 -1.8800  0.2649  0.5321
 3439SOL    HW221954   0.460   2.360   1.532 -2.3916  1.6375  1.2091
 3440SOL     OW21955   1.986   1.536   0.740 -0.4283  0.0280 -0.3311
 3440SOL    HW121956   1.951   1.530   0.829  0.4797 -2.3811 -0.1339
 3440SOL    HW221957   2.081   1.536   0.749 -0.2827  2.8192 -1.7818
 3441SOL     OW21958   1.009   4.343   6.113  0.0291  0.0862 -0.4864
 3441SOL    HW121959   0.943   4.302   6.169 -1.9009  1.3295 -1.8558
 3441SOL    HW221960   1.074   4.274   6.098 -0.8409 -0.4981 -1.6180
 3442SOL     OW21961   1.757   4.191   2.335  0.2689  0.0351  0.0244
 3442SOL    HW121962   1.739   4.183   2.429 -2.3282 -0.4365 -0.5136
 3442SOL    HW221963   1.699   4.124   2.298  0.7456 -1.2057  1.5278
 3443SOL     OW21964   3.300   3.367   5.119 -0.0716  0.1611 -0.6563
 3443SOL    HW121965   3.256   3.352   5.036 -0.1384  1.8709 -0.9259
 3443SOL    HW221966   3.243   3.322   5.182  1.0204 -0.9219 -0.4191
 3444SOL     OW21967   2.652   0.215   2.078  0.2357  0.4151 -0.3189
 3444SOL    HW121968   2.737   0.230   2.035  0.3074  2.3516  0.5337
 3444SOL    HW221969   2.640   0.122   2.060 -1.2236  0.0030  2.9217
 3445SOL     OW21970   2.466   1.509   4.488  0.2539 -0.0653  0.0829
 3445SOL    HW121971   2.495   1.458   4.564 -5.6883 -0.3798  2.1510
 3445SOL    HW221972   2.533   1.576   4.499 -0.5102  0.5865  0.8092
 3446SOL     OW21973   2.543   4.117   9.299  0.0723  0.5602 -0.7716
 3446SOL    HW121974   2.566   4.043   9.243 -1.5638 -0.7430  0.2528
 3446SOL    HW221975   2.603   4.110   9.373  0.3859  0.7890 -1.0020
 3447SOL     OW21976   1.071   3.198   5.794  0.1453  0.0251 -0.0144
 3447SOL    HW121977   1.089   3.234   5.881 -0.6302 -3.3327  1.5526
 3447SOL    HW221978   1.018   3.264   5.751  1.2293  0.0517 -1.3276
 3448SOL     OW21979   4.113   1.886   8.160  0.3428  0.9672 -0.1794
 3448SOL    HW121980   4.121   1.884   8.256 -0.6428 -0.9234 -0.1407
 3448SOL    HW221981   4.108   1.979   8.137 -0.6031  0.5439 -1.6251
 3449SOL     OW21982   2.226   4.520   8.887 -0.3579  0.1568  0.0616
 3449SOL    HW121983   2.318   4.498   8.877 -1.2791 -2.6053 -2.3376
 3449SOL    HW221984   2.220   4.508   8.981 -1.7490 -0.5674 -0.1193
 3450SOL     OW21985   0.013   4.314   8.062  0.0512 -0.0280  0.1150
 3450SOL    HW121986   4.719   4.253   7.995  3.2653 -1.5943  0.0039
 3450SOL    HW221987   0.102   4.332   8.031  0.1833 -0.3581  0.3003
 3451SOL     OW21988   4.523   3.842   8.577  0.0517 -0.0974  0.1607
 3451SOL    HW121989   4.566   3.864   8.494  0.6794  1.3969  0.8899
 3451SOL    HW221990   4.519   3.747   8.568 -1.1328 -0.4970  4.7363
 3452SOL     OW21991   3.226   3.300   5.969 -0.2032 -0.0701 -0.1302
 3452SOL    HW121992   3.140   3.259   5.962 -0.6263  0.6198  0.9954
 3452SOL    HW221993   3.281   3.223   5.955  0.8195  0.5056  0.7433
 3453SOL     OW21994   0.105   3.030   3.235 -0.1639 -0.3497 -0.2102
 3453SOL    HW121995   0.041   2.995   3.297  1.7821 -2.0596  0.8370
 3453SOL    HW221996   0.162   2.954   3.222 -0.0925 -0.5887  1.5418
 3454SOL     OW21997   1.918   2.080   4.790 -0.1706 -0.2441  0.5641
 3454SOL    HW121998   1.973   2.128   4.727  0.0886  1.4514  2.0693
 3454SOL    HW221999   1.857   2.150   4.815  1.2294  2.4070 -3.4218
 3455SOL     OW22000   1.021   1.347   8.742  0.6398 -0.2431  0.4305
 3455SOL    HW122001   1.025   1.324   8.834 -0.3642  0.4365  0.6478
 3455SOL    HW222002   1.109   1.325   8.711  1.6900 -0.3623  3.5701
 3456SOL     OW22003   1.221   4.714   2.204  0.7268  0.2998  1.0882
 3456SOL    HW122004   1.212   0.061   2.248  3.3021  1.1269  0.0078
 3456SOL    HW222005   1.205   4.728   2.111  3.0682 -1.7370  0.3557
 3457SOL     OW22006   0.788   1.861   8.142  0.0432  0.1348  0.6974
 3457SOL    HW122007   0.725   1.890   8.076 -0.0542 -1.5870  0.0134
 3457SOL    HW222008   0.861   1.813   8.102 -1.0358  1.9410 -3.4008
 3458SOL     OW22009   1.370   1.260   4.026 -0.3633 -0.3224 -0.4257
 3458SOL    HW122010   1.465   1.269   4.036 -0.2228 -2.5313  0.2653
 3458SOL    HW222011   1.349   1.194   4.093  1.3595 -1.6971 -1.2148
 3459SOL     OW22012   3.886   1.385   9.895 -0.0968  0.3735  0.0162
 3459SOL    HW122013   3.933   1.430   9.824 -0.5517  1.7799  0.5945
 3459SOL    HW222014   3.811   1.443   9.907 -1.2855 -1.6203  2.1958
 3460SOL     OW22015   3.354   1.281   2.196 -0.3706 -0.1822 -0.4162
 3460SOL    HW122016   3.365   1.267   2.290 -2.1157  0.0779 -0.1672
 3460SOL    HW222017   3.427   1.231   2.162  0.3198 -0.6805  1.7806
 3461SOL     OW22018   4.413   4.474  14.531 -0.1639  0.3497 -0.0339
 3461SOL    HW122019   4.352   4.533  14.576 -0.6394  0.0977 -0.3461
 3461SOL    HW222020   4.452   4.524  14.459 -0.0013 -1.6437 -1.3336
 3462SOL     OW22021   2.401   1.737   8.664 -0.2992  0.0536 -0.6201
 3462SOL    HW122022   2.411   1.794   8.741  1.4324  2.3829 -2.5916
 3462SOL    HW222023   2.380   1.806   8.602 -0.7152  1.2432  0.8370
 3463SOL     OW22024   2.218   3.966   9.075  0.2761  0.0739  1.0171
 3463SOL    HW122025   2.126   3.984   9.096  0.4150  0.9176  0.8949
 3463SOL    HW222026   2.239   4.048   9.031 -1.2041  0.3256  0.7892
 3464SOL     OW22027   3.497   0.358   3.762 -0.2989  0.5348 -0.1046
 3464SOL    HW122028   3.492   0.453   3.772 -1.5010  0.7684 -2.7214
 3464SOL    HW222029   3.453   0.338   3.679 -0.9825 -0.8450  0.5946
 3465SOL     OW22030   1.536   1.296   7.702  0.1465  0.2336  0.5587
 3465SOL    HW122031   1.546   1.385   7.736 -0.9359  1.1162 -1.4304
 3465SOL    HW222032   1.534   1.243   7.782 -0.0884  0.0499  0.4276
 3466SOL     OW22033   2.165   3.882   4.386  0.2121  0.2718 -0.0072
 3466SOL    HW122034   2.073   3.854   4.393  0.4231 -0.2547  0.6248
 3466SOL    HW222035   2.150   3.973   4.359  3.4935  0.7275 -0.3488
 3467SOL     OW22036   0.616   3.382   3.170  0.4347 -0.1469 -0.4668
 3467SOL    HW122037   0.648   3.459   3.124  1.0888  0.8829  1.7516
 3467SOL    HW222038   0.674   3.311   3.144 -0.2735 -1.2683  0.9731
 3468SOL     OW22039   1.713   1.923   8.530 -0.0108 -0.0053  0.2999
 3468SOL    HW122040   1.776   1.981   8.573 -0.1011  0.0312  0.3825
 3468SOL    HW222041   1.636   1.977   8.547 -0.1383  0.1821 -0.8852
 3469SOL     OW22042   1.007   0.568  12.047 -0.2588 -0.2478 -0.0959
 3469SOL    HW122043   1.080   0.524  12.005  0.3795 -0.3502  1.1210
 3469SOL    HW222044   1.012   0.526  12.133  0.3755 -0.8012 -0.4061
 3470SOL     OW22045   4.677   3.111  10.367 -0.1355 -0.6716  0.5222
 3470SOL    HW122046   4.619   3.179  10.402  0.8900  0.9399 -0.8574
 3470SOL    HW222047   0.019   3.146  10.409  0.4270  0.2603 -1.2878
 3471SOL     OW22048   3.724   4.530   2.032  0.0773  0.6241 -0.4545
 3471SOL    HW122049   3.711   4.618   2.067  2.2785  2.7933 -5.0330
 3471SOL    HW222050   3.643   4.492   2.065  0.1749  1.0933  0.3269
 3472SOL     OW22051   0.251   1.234   6.307 -0.3280 -0.1898  0.2787
 3472SOL    HW122052   0.256   1.244   6.402  2.0095 -4.0893  0.5456
 3472SOL    HW222053   0.161   1.202   6.304 -0.7521  0.9355  0.8052
 3473SOL     OW22054   2.235   3.808   2.941  0.2305 -0.2223  0.1388
 3473SOL    HW122055   2.239   3.724   2.895  1.2050 -0.5335  0.8048
 3473SOL    HW222056   2.316   3.850   2.915 -0.4357 -1.6606 -4.3284
 3474SOL     OW22057   1.449   1.146   9.183 -0.7850  0.4892 -0.1578
 3474SOL    HW122058   1.511   1.127   9.253  0.0601  0.4337 -0.9115
 3474SOL    HW222059   1.374   1.105   9.226  0.4405 -0.5427  1.0069
 3475SOL     OW22060   4.135   4.189   5.016 -0.1939 -0.1138 -0.7643
 3475SOL    HW122061   4.180   4.105   5.015 -0.0541 -0.0464 -0.0532
 3475SOL    HW222062   4.129   4.190   4.921 -1.8950 -3.3655 -0.6770
 3476SOL     OW22063   1.023   1.957   7.735 -0.5216 -0.6595 -0.3624
 3476SOL    HW122064   1.059   1.883   7.687  1.8998 -0.5041  1.2316
 3476SOL    HW222065   1.097   2.016   7.746 -0.8298 -0.5136  1.0327
 3477SOL     OW22066   3.917   4.523  16.434 -0.5627  0.1053  0.4909
 3477SOL    HW122067   3.886   4.539  16.345  1.0091  1.7346  0.2531
 3477SOL    HW222068   4.008   4.500  16.418 -0.5516 -0.1570  0.9217
 3478SOL     OW22069   2.564   1.394   6.692 -0.8304  0.9147  0.1583
 3478SOL    HW122070   2.542   1.376   6.601 -0.3257 -1.2446  0.4686
 3478SOL    HW222071   2.573   1.489   6.700  0.4435  0.8248 -0.3220
 3479SOL     OW22072   4.392   1.261  13.667  0.0748 -0.2164  0.4238
 3479SOL    HW122073   4.352   1.323  13.728  0.6937  0.8419 -0.2273
 3479SOL    HW222074   4.416   1.328  13.602  0.6316 -1.8543 -1.0526
 3480SOL     OW22075   0.665   4.709   6.629 -0.5525 -0.5275  0.3970
 3480SOL    HW122076   0.646   4.708   6.535 -1.5993  0.3975  0.5901
 3480SOL    HW222077   0.657   4.615   6.644 -0.9231 -0.7829 -1.3874
 3481SOL     OW22078   0.682   4.593   6.097 -0.9097 -0.2650 -0.3501
 3481SOL    HW122079   0.665   4.548   6.014  2.8921 -0.4695 -1.0179
 3481SOL    HW222080   0.776   4.612   6.094 -0.9433 -0.0804 -0.2304
 3482SOL     OW22081   4.242   3.858   4.077  0.1167 -0.4263  0.1933
 3482SOL    HW122082   4.159   3.818   4.051 -0.8198  1.5756  0.0750
 3482SOL    HW222083   4.220   3.888   4.165  2.3208 -0.9320  0.9297
 3483SOL     OW22084   1.426   3.915   4.368 -0.4804  0.1123  0.1430
 3483SOL    HW122085   1.360   3.953   4.310  1.8919  0.3183 -2.3805
 3483SOL    HW222086   1.369   3.902   4.445 -2.1070  0.8303 -0.9393
 3484SOL     OW22087   3.053   0.584   2.147 -0.3369 -0.6282 -0.0904
 3484SOL    HW122088   3.091   0.659   2.192 -1.5558 -0.1823  0.1918
 3484SOL    HW222089   2.964   0.572   2.180  0.2628 -2.5977  0.8385
 3485SOL     OW22090   0.523   0.182   2.851  0.4328  0.7632 -0.0156
 3485SOL    HW122091   0.593   0.118   2.840  1.5838  2.2908 -1.5632
 3485SOL    HW222092   0.486   0.196   2.764  0.7049  0.2695 -0.2122
 3486SOL     OW22093   2.955   0.779   4.570  0.3052 -0.3315  0.3899
 3486SOL    HW122094   3.040   0.762   4.611  0.0335 -0.9080  0.7065
 3486SOL    HW222095   2.917   0.850   4.621 -1.9224 -2.4032  1.5750
 3487SOL     OW22096   4.322   1.944  12.591 -0.4327  0.2893  0.4112
 3487SOL    HW122097   4.403   1.905  12.559 -0.8576 -0.1215 -0.1608
 3487SOL    HW222098   4.355   1.959  12.680  3.1229  2.9780 -1.3504
 3488SOL     OW22099   2.347   1.348  13.172  0.0944 -0.0716  0.4678
 3488SOL    HW122100   2.280   1.322  13.109  0.1403 -1.9231  1.1964
 3488SOL    HW222101   2.329   1.289  13.246 -0.4478 -0.1916  0.2421
 3489SOL     OW22102   4.640   4.262   2.840 -0.2236 -0.1519 -0.1697
 3489SOL    HW122103   4.621   4.168   2.847  2.5499 -0.7545 -0.7915
 3489SOL    HW222104   4.640   4.274   2.745 -0.4745 -0.4637 -0.2087
 3490SOL     OW22105   3.284   3.617  14.433 -0.5206 -0.4588 -0.3073
 3490SOL    HW122106   3.197   3.654  14.413 -0.4652  0.6043  1.5001
 3490SOL    HW222107   3.247   3.528  14.434 -1.6644  0.0447  1.9213
 3491SOL     OW22108   0.358   1.343   5.540  0.2702 -0.0461 -0.0918
 3491SOL    HW122109   0.382   1.351   5.448  0.2530  0.9573 -0.0129
 3491SOL    HW222110   0.386   1.252   5.547 -1.3203 -0.5647 -0.6027
 3492SOL     OW22111   0.265   0.148   8.173  0.0565  0.4818  0.1860
 3492SOL    HW122112   0.184   0.100   8.186  0.7914 -1.1588 -1.3128
 3492SOL    HW222113   0.338   0.088   8.157 -0.2369 -0.1323  1.1037
 3493SOL     OW22114   0.731   3.167   6.014  0.1081  0.2962 -0.0257
 3493SOL    HW122115   0.731   3.076   5.986 -0.3925  0.5659 -0.9110
 3493SOL    HW222116   0.822   3.194   6.006 -0.0464  0.9684  0.4854
 3494SOL     OW22117   3.210   0.714  11.332  0.4456 -0.5553 -0.2008
 3494SOL    HW122118   3.174   0.789  11.380  1.7463  0.0857 -0.2306
 3494SOL    HW222119   3.142   0.709  11.264  0.7580  0.6574 -0.5980
 3495SOL     OW22120   1.487   3.757   6.685 -0.0143  0.2187  0.7244
 3495SOL    HW122121   1.556   3.808   6.642 -0.8771  0.9769  0.2207
 3495SOL    HW222122   1.417   3.818   6.709 -0.8134 -0.4116  0.0026
 3496SOL     OW22123   4.291   0.938   5.176 -0.5575  0.6956  0.0531
 3496SOL    HW122124   4.318   0.901   5.260  0.0775 -0.0946 -0.5045
 3496SOL    HW222125   4.359   1.004   5.162  1.5189 -1.3752  0.5552
 3497SOL     OW22126   2.560   3.375   4.552 -0.4656  0.1701  0.1150
 3497SOL    HW122127   2.500   3.450   4.548  1.3380  1.5245 -1.8038
 3497SOL    HW222128   2.532   3.341   4.637  0.2591 -2.1986 -0.6024
 3498SOL     OW22129   3.747   3.492  16.548 -0.2456 -0.1444  0.3709
 3498SOL    HW122130   3.718   3.548  16.620  0.7623  0.0700  0.6107
 3498SOL    HW222131   3.812   3.547  16.506  1.1676 -2.1395 -0.0679
 3499SOL     OW22132   3.892   4.006   8.231  0.1494  0.0193 -0.3875
 3499SOL    HW122133   3.906   4.065   8.156  0.7390  1.2565  0.7050
 3499SOL    HW222134   3.879   4.065   8.305  0.3392 -0.4308  0.0003
 3500SOL     OW22135   0.911   0.850   6.394  0.0529  0.5171  0.5217
 3500SOL    HW122136   0.898   0.905   6.316 -1.1428 -0.4080  0.0687
 3500SOL    HW222137   0.828   0.854   6.440 -0.4224 -0.5234 -0.2328
 3501SOL     OW22138   4.505   1.995   4.612 -0.2269 -0.3468  0.2288
 3501SOL    HW122139   4.456   1.937   4.555 -0.8492 -1.0221  1.4621
 3501SOL    HW222140   4.507   1.945   4.694  0.6779  1.6946  1.4626
 3502SOL     OW22141   0.355   0.261   2.197  0.3762 -0.3219  0.1948
 3502SOL    HW122142   0.431   0.216   2.235  1.3607  1.3019  0.1237
 3502SOL    HW222143   0.369   0.348   2.233  1.2860  0.2292 -1.4933
 3503SOL     OW22144   4.457   0.685   6.959  0.0417  0.2648  0.0233
 3503SOL    HW122145   4.503   0.652   7.036 -0.2729 -0.2922 -0.0315
 3503SOL    HW222146   4.395   0.615   6.943 -0.1676  0.1352  1.3588
 3504SOL     OW22147   3.741   1.237   1.083  0.0105  0.5576 -0.5046
 3504SOL    HW122148   3.729   1.157   1.032 -1.0310 -0.8801  2.0007
 3504SOL    HW222149   3.826   1.267   1.049  0.2398 -1.5082 -1.7410
 3505SOL     OW22150   0.321   2.919   6.478  0.4345  0.0921  0.5219
 3505SOL    HW122151   0.308   2.841   6.532 -1.9975 -0.7723 -1.3274
 3505SOL    HW222152   0.315   2.984   6.548  0.1594 -0.6816  1.2141
 3506SOL     OW22153   1.288   4.028   2.997 -0.3192  0.4014  0.2616
 3506SOL    HW122154   1.273   4.102   3.055 -1.7420  0.9410 -0.7752
 3506SOL    HW222155   1.238   4.036   2.915 -3.1254 -0.0400  1.9254
 3507SOL     OW22156   4.314   0.935   7.968 -0.2432 -0.2007 -0.3941
 3507SOL    HW122157   4.407   0.954   7.960 -0.5187  1.5824  0.6766
 3507SOL    HW222158   4.274   1.021   7.952  1.5233  0.7979  0.5369
 3508SOL     OW22159   2.522   3.276   2.760 -0.3267 -0.5807  0.3055
 3508SOL    HW122160   2.456   3.318   2.705  3.0730  2.7642 -1.2396
 3508SOL    HW222161   2.472   3.209   2.807 -2.5967  0.6221 -0.3816
 3509SOL     OW22162   0.277   1.262   6.599  0.1151 -0.0870  0.2155
 3509SOL    HW122163   0.326   1.341   6.622 -0.1226  0.0110  0.3941
 3509SOL    HW222164   0.207   1.269   6.665  0.8623 -1.1297  1.1351
 3510SOL     OW22165   2.225   3.472   4.842  0.3329  0.8716 -0.1340
 3510SOL    HW122166   2.227   3.564   4.818 -0.7279  0.6044 -1.2136
 3510SOL    HW222167   2.150   3.469   4.902  1.7754  0.1341  1.6520
 3511SOL     OW22168   1.495   0.871   4.660  0.1286 -0.4463 -0.7413
 3511SOL    HW122169   1.555   0.930   4.615 -1.1165  0.6307 -0.9682
 3511SOL    HW222170   1.408   0.900   4.634  0.4379 -0.7187 -2.0830
 3512SOL     OW22171   2.971   0.421   7.994  0.2981 -0.5196 -1.0797
 3512SOL    HW122172   2.954   0.422   8.088  4.1987 -0.3255 -0.3814
 3512SOL    HW222173   2.885   0.456   7.970 -0.3824 -1.2565  0.3121
 3513SOL     OW22174   3.394   1.494   2.465  0.7848  0.0636 -0.1626
 3513SOL    HW122175   3.382   1.580   2.426 -0.9027  0.1118  0.4537
 3513SOL    HW222176   3.455   1.520   2.534  1.1602  0.0047 -0.4732
 3514SOL     OW22177   3.705   0.239   3.181  0.1376  0.6486  0.8019
 3514SOL    HW122178   3.705   0.315   3.124  2.3303  0.4318  0.5054
 3514SOL    HW222179   3.761   0.189   3.122 -0.4999 -3.0494  3.2583
 3515SOL     OW22180   2.240   3.396  13.701  0.7371 -0.5202 -0.2880
 3515SOL    HW122181   2.184   3.355  13.635  1.1899  0.1731 -1.1066
 3515SOL    HW222182   2.288   3.451  13.639 -0.2501 -0.6839 -1.1953
 3516SOL     OW22183   3.224   3.332   7.589  0.6382 -0.6955  0.2324
 3516SOL    HW122184   3.242   3.308   7.498  2.3043 -0.4757  0.5198
 3516SOL    HW222185   3.193   3.422   7.578 -0.5729 -1.3750 -1.8871
 3517SOL     OW22186   3.469   4.440   2.101 -0.4820 -0.2743  0.0637
 3517SOL    HW122187   3.422   4.419   2.020 -2.0906 -0.8716  1.1754
 3517SOL    HW222188   3.457   4.353   2.140 -0.7091 -0.6970 -0.9412
 3518SOL     OW22189   3.383   4.406   1.422  0.0193 -0.0084  0.6269
 3518SOL    HW122190   3.296   4.445   1.429 -0.8635 -1.8431 -0.1274
 3518SOL    HW222191   3.408   4.431   1.334  0.7079  0.6520  1.0069
 3519SOL     OW22192   4.511   0.535  11.795 -0.2382  0.0217  0.5933
 3519SOL    HW122193   4.567   0.507  11.722 -1.4529  1.5775 -0.9528
 3519SOL    HW222194   4.470   0.610  11.752  2.5525  0.7897 -0.7652
 3520SOL     OW22195   2.126   3.010   5.273 -0.6858  0.0328  0.1255
 3520SOL    HW122196   2.084   3.057   5.345 -1.2981  0.3273 -0.4242
 3520SOL    HW222197   2.116   3.080   5.209 -0.2956 -0.1356 -0.1187
 3521SOL     OW22198   0.741   3.108   2.860  0.3579  0.0524 -0.0778
 3521SOL    HW122199   0.661   3.152   2.830  1.3254  2.0141  0.2150
 3521SOL    HW222200   0.745   3.142   2.949  4.1843  0.2914 -0.3511
 3522SOL     OW22201   0.545   4.067  16.974  0.0751 -0.1522 -0.5987
 3522SOL    HW122202   0.514   4.157  16.985 -0.6812 -0.1971 -2.3679
 3522SOL    HW222203   0.640   4.075  16.977 -0.0455  1.3326 -0.4799
 3523SOL     OW22204   1.339   4.587   6.691  0.5538  0.5044  0.2830
 3523SOL    HW122205   1.420   4.539   6.673  0.8969  1.7700 -1.5005
 3523SOL    HW222206   1.289   4.511   6.722  1.2309 -0.2221 -0.3962
 3524SOL     OW22207   1.600   1.198   2.331  0.2334  0.1684 -0.1500
 3524SOL    HW122208   1.511   1.179   2.301 -0.1121 -0.5291  1.3136
 3524SOL    HW222209   1.618   1.119   2.382  1.9237  0.5859 -0.0898
 3525SOL     OW22210   1.400   1.931   6.262  0.4972  0.1738 -0.2882
 3525SOL    HW122211   1.485   1.918   6.304  1.8780  1.1374 -2.8068
 3525SOL    HW222212   1.419   2.002   6.201 -1.1691  0.3773 -0.5558
 3526SOL     OW22213   3.165   4.142   6.326  0.1789 -0.1517  0.1968
 3526SOL    HW122214   3.252   4.169   6.298  0.0697 -0.4316 -0.3995
 3526SOL    HW222215   3.195   4.094   6.404  0.3276 -1.4621 -0.6688
 3527SOL     OW22216   3.402   2.840   6.220 -0.6719  0.0291  0.5880
 3527SOL    HW122217   3.424   2.844   6.313 -0.9529  0.7097  0.6252
 3527SOL    HW222218   3.360   2.926   6.222  0.6803  0.7081 -0.0530
 3528SOL     OW22219   2.866   1.470   0.806 -0.2057  0.6485 -0.1909
 3528SOL    HW122220   2.810   1.417   0.749 -0.8834  1.9131 -0.6785
 3528SOL    HW222221   2.862   1.418   0.887  0.3824 -0.8815 -1.1311
 3529SOL     OW22222   0.701   0.726   6.046 -0.5777  0.2710  0.0967
 3529SOL    HW122223   0.788   0.688   6.034 -0.3054  0.9678 -0.1203
 3529SOL    HW222224   0.678   0.713   6.138 -0.5003  0.6711  0.1747
 3530SOL     OW22225   0.253   0.337  14.997 -0.0990  0.0160 -0.1700
 3530SOL    HW122226   0.158   0.335  14.988 -0.1699 -2.3388  1.1435
 3530SOL    HW222227   0.261   0.338  15.092 -1.2497 -0.8858 -0.0647
 3531SOL     OW22228   0.590   3.018   7.740  0.1787 -0.4630  0.3427
 3531SOL    HW122229   0.629   3.100   7.711 -2.5073  0.9014  0.5689
 3531SOL    HW222230   0.552   3.040   7.825  0.6267 -1.7473  0.8843
 3532SOL     OW22231   4.420   3.940  13.564 -0.0194 -0.1785  0.9850
 3532SOL    HW122232   4.488   3.939  13.496 -0.4011  0.6577  0.5855
 3532SOL    HW222233   4.340   3.947  13.512 -0.1445  0.5346  1.2647
 3533SOL     OW22234   4.100   1.650   9.317  0.0815  0.7972  0.2444
 3533SOL    HW122235   4.166   1.653   9.387 -1.2722 -0.8797  1.5812
 3533SOL    HW222236   4.133   1.593   9.247 -1.0463  0.9225 -0.3938
 3534SOL     OW22237   1.206   0.742   3.589  0.2135  0.2826  0.3560
 3534SOL    HW122238   1.159   0.716   3.669  0.9805 -3.3673 -0.3793
 3534SOL    HW222239   1.191   0.836   3.595 -1.9156  0.0373 -0.8707
 3535SOL     OW22240   2.031   2.543   7.239 -0.7435  0.5340  0.1493
 3535SOL    HW122241   2.022   2.621   7.184  0.0130  1.1917  0.9514
 3535SOL    HW222242   1.964   2.556   7.306 -0.9889  1.4649 -0.2733
 3536SOL     OW22243   1.827   2.250   8.551 -0.4655 -0.0284  0.0972
 3536SOL    HW122244   1.852   2.175   8.605  0.2466 -0.8675 -1.3823
 3536SOL    HW222245   1.822   2.220   8.460  1.5870  1.2886 -0.4527
 3537SOL     OW22246   0.463   4.106   3.519 -0.0792 -0.7432 -0.2996
 3537SOL    HW122247   0.444   4.175   3.455 -0.8794  1.9872  2.8782
 3537SOL    HW222248   0.377   4.076   3.547 -0.4083  0.7495  0.2760
 3538SOL     OW22249   3.153   2.538   3.037  0.5346  0.4414 -0.0030
 3538SOL    HW122250   3.168   2.555   3.130  1.3917  0.2726 -0.1145
 3538SOL    HW222251   3.073   2.485   3.039  1.2553 -0.5255  2.7848
 3539SOL     OW22252   3.496   4.099  10.908  0.2997  0.2124 -0.0328
 3539SOL    HW122253   3.565   4.128  10.968 -0.5824  1.5970  0.3204
 3539SOL    HW222254   3.480   4.177  10.855  0.7857 -0.4143 -1.1052
 3540SOL     OW22255   0.914   4.648   2.221 -0.1774 -0.0115  0.2523
 3540SOL    HW122256   0.861   4.591   2.276  0.2482  0.7734  1.4828
 3540SOL    HW222257   1.005   4.629   2.242 -0.2384  0.6247  1.0903
 3541SOL     OW22258   4.226   4.657   8.515 -0.0974  0.1448 -0.5774
 3541SOL    HW122259   4.273   4.620   8.589 -3.1537 -0.5381  1.0116
 3541SOL    HW222260   4.163   4.713   8.560  0.7438  0.3877  0.3044
 3542SOL     OW22261   4.705   1.267   2.180 -0.5128 -0.4305  0.0336
 3542SOL    HW122262   4.728   1.174   2.187  0.4408 -0.0595  2.0349
 3542SOL    HW222263   4.669   1.281   2.268 -1.1821 -0.9820 -0.1528
 3543SOL     OW22264   3.734   1.942  16.798 -0.2667 -0.0397  0.2247
 3543SOL    HW122265   3.684   2.006  16.850  0.1291  0.1553  0.3622
 3543SOL    HW222266   3.808   1.999  16.774  0.3078 -1.8226 -2.2380
 3544SOL     OW22267   4.410   0.241   8.757 -0.4363 -0.2149  0.6094
 3544SOL    HW122268   4.322   0.238   8.795  0.1707 -0.6219  2.0024
 3544SOL    HW222269   4.406   0.336   8.743 -0.2068 -0.5100 -1.4586
 3545SOL     OW22270   4.092   1.220   5.240  0.1870 -0.1684  0.3235
 3545SOL    HW122271   4.108   1.130   5.270  2.0888  1.2069  3.4852
 3545SOL    HW222272   4.128   1.268   5.315  3.0359 -1.8943  0.0932
 3546SOL     OW22273   1.175   1.280  11.901  0.1330  0.0649  0.4788
 3546SOL    HW122274   1.100   1.296  11.959 -1.9645  0.0959 -2.2452
 3546SOL    HW222275   1.217   1.221  11.963 -2.0435 -2.1488 -0.1556
 3547SOL     OW22276   1.599   1.533   6.589 -0.0866 -0.2281 -0.4071
 3547SOL    HW122277   1.647   1.464   6.635  0.8599  1.3837  1.0403
 3547SOL    HW222278   1.588   1.492   6.503  0.7956  1.5563 -1.3849
 3548SOL     OW22279   0.315   4.644   7.066  0.7617 -0.4067  0.1231
 3548SOL    HW122280   0.284   4.554   7.065  0.5204 -0.3268  0.5169
 3548SOL    HW222281   0.360   4.644   7.150 -0.7165  0.1697  0.9010
 3549SOL     OW22282   1.011   4.381   7.187  0.3651 -0.0437  0.4677
 3549SOL    HW122283   1.092   4.362   7.235  0.6469 -1.6061 -0.6379
 3549SOL    HW222284   0.955   4.327   7.242  0.1493 -0.8728 -0.5953
 3550SOL     OW22285   2.368   1.493   4.003  0.8242  0.3857  0.1913
 3550SOL    HW122286   2.382   1.405   4.038 -0.9492  1.1578  2.7980
 3550SOL    HW222287   2.432   1.547   4.048  1.1716  0.0023  0.1622
 3551SOL     OW22288   2.005   0.238   6.540  0.2650 -0.0881 -1.0788
 3551SOL    HW122289   2.064   0.166   6.517 -0.0133 -0.2998 -1.1343
 3551SOL    HW222290   2.027   0.307   6.477 -2.4093  1.5086 -0.2514
 3552SOL     OW22291   0.863   4.371   6.668 -0.3859  0.4603 -0.2162
 3552SOL    HW122292   0.776   4.331   6.670 -0.0956 -0.2560 -1.8970
 3552SOL    HW222293   0.880   4.384   6.761 -1.9065 -0.6899  0.2283
 3553SOL     OW22294   2.283   3.360  13.347  0.1093 -0.4343  0.4762
 3553SOL    HW122295   2.191   3.357  13.373  0.3112 -0.8775  1.1452
 3553SOL    HW222296   2.331   3.330  13.424  1.6680  0.2766 -0.2187
 3554SOL     OW22297   2.891   2.863  11.610 -0.0819  0.0754  0.0117
 3554SOL    HW122298   2.943   2.900  11.681  2.3873  1.9214 -2.7485
 3554SOL    HW222299   2.898   2.779  11.654  0.9815  1.6550  2.8647
 3555SOL     OW22300   0.377   2.534   5.523 -0.1097 -0.1000  0.2822
 3555SOL    HW122301   0.470   2.543   5.543 -0.1230 -3.3482  1.9075
 3555SOL    HW222302   0.384   2.462   5.459 -0.3270 -0.2068  0.3784
 3556SOL     OW22303   1.712   1.795   0.427  0.2687 -0.1659 -0.4443
 3556SOL    HW122304   1.736   1.749   0.346  1.1853 -2.2996  1.0464
 3556SOL    HW222305   1.655   1.728   0.465 -1.2810 -0.5422 -3.4092
 3557SOL     OW22306   3.649   4.024   8.841 -0.1957 -0.0500 -0.3377
 3557SOL    HW122307   3.619   4.039   8.930  0.4874 -1.9718  0.2223
 3557SOL    HW222308   3.628   3.932   8.827  0.5129 -0.0147 -1.6200
 3558SOL     OW22309   4.128   2.304   2.719  0.4364  0.3206  0.1374
 3558SOL    HW122310   4.179   2.250   2.659 -0.7383  1.7676 -2.1671
 3558SOL    HW222311   4.140   2.268   2.807 -0.9754  0.5044  0.3941
 3559SOL     OW22312   0.989   1.100   4.733 -0.0348  0.0405 -0.6800
 3559SOL    HW122313   0.912   1.046   4.712 -0.2451 -0.0406  0.2839
 3559SOL    HW222314   0.957   1.142   4.813  3.0828  0.1437  0.5119
 3560SOL     OW22315   2.966   0.869  17.261  0.0949 -0.1286 -0.0968
 3560SOL    HW122316   2.873   0.864  17.236 -0.2238 -2.8631  1.6112
 3560SOL    HW222317   2.961   0.947  17.316  0.4229  1.0109 -1.6787
 3561SOL     OW22318   1.467   1.142   5.000 -0.4822 -0.3233  0.1775
 3561SOL    HW122319   1.463   1.202   5.074 -1.2972 -0.8527  0.5643
 3561SOL    HW222320   1.481   1.058   5.044  2.9278  0.3259  0.3507
 3562SOL     OW22321   1.265   0.589  15.430 -0.1594  0.3151 -0.2091
 3562SOL    HW122322   1.197   0.649  15.460 -0.7703  0.2773 -1.5287
 3562SOL    HW222323   1.335   0.654  15.428 -0.6354  0.8721  1.5541
 3563SOL     OW22324   3.431   3.024  15.448  0.0640  0.3917 -0.2790
 3563SOL    HW122325   3.454   3.068  15.366  1.3373  1.2751  0.5395
 3563SOL    HW222326   3.517   3.038  15.489  0.7960 -1.1776 -1.2832
 3564SOL     OW22327   4.299   1.873   2.873 -0.3789 -0.4634  0.7560
 3564SOL    HW122328   4.339   1.796   2.914 -1.2465 -1.6650 -0.6291
 3564SOL    HW222329   4.246   1.840   2.800 -1.7636 -0.1201  1.6099
 3565SOL     OW22330   3.244   4.397   2.452 -0.2368  0.5628 -0.1671
 3565SOL    HW122331   3.288   4.470   2.409  0.2686 -0.0977 -0.7774
 3565SOL    HW222332   3.301   4.323   2.427  0.3799  1.0241 -0.1248
 3566SOL     OW22333   1.002   1.143   9.179 -0.9699 -0.5803  0.4702
 3566SOL    HW122334   1.081   1.098   9.209  0.4266  2.6110  1.5875
 3566SOL    HW222335   1.043   1.191   9.107 -0.1744 -0.4933  0.9838
 3567SOL     OW22336   0.174   0.074   7.787 -0.3259 -0.2223  0.2304
 3567SOL    HW122337   0.146   0.002   7.732 -1.0016  0.6466 -0.5685
 3567SOL    HW222338   0.135   0.057   7.873  0.0419 -0.2923  0.3806
 3568SOL     OW22339   0.435   0.337   0.503  0.3242  0.3414  0.2141
 3568SOL    HW122340   0.417   0.431   0.502  0.0076  0.2902  0.8189
 3568SOL    HW222341   0.377   0.307   0.574  1.1631 -0.5607  0.5096
 3569SOL     OW22342   0.005   1.547   7.871 -0.6241 -0.6579  0.5137
 3569SOL    HW122343   4.724   1.595   7.790  1.4159  0.2649  0.5984
 3569SOL    HW222344   0.039   1.617   7.927  0.0895 -0.1433 -0.5643
 3570SOL     OW22345   4.128   2.643   6.751  0.1022 -0.6026 -0.2315
 3570SOL    HW122346   4.159   2.589   6.678  1.2621  0.2085 -0.3377
 3570SOL    HW222347   4.099   2.722   6.706  0.4888  0.1278  0.7789
 3571SOL     OW22348   2.943   3.219   7.851  0.4498 -0.4183  0.0672
 3571SOL    HW122349   3.022   3.168   7.836 -0.0578 -0.6457 -1.9162
 3571SOL    HW222350   2.870   3.158   7.839 -2.0936  2.4017  1.1453
 3572SOL     OW22351   1.979   1.009  10.703 -0.5702 -0.3757 -0.2585
 3572SOL    HW122352   1.946   1.074  10.765 -2.6115 -0.9294 -0.7621
 3572SOL    HW222353   2.072   1.030  10.712 -0.1428 -2.4703  0.1516
 3573SOL     OW22354   2.365   0.440   9.307 -0.1487 -0.1333 -0.3908
 3573SOL    HW122355   2.348   0.520   9.356  1.1631  0.0621 -0.2555
 3573SOL    HW222356   2.334   0.374   9.369 -2.7920  0.9638 -0.5269
 3574SOL     OW22357   1.137   1.063  15.222  0.2874 -0.3215  0.4529
 3574SOL    HW122358   1.129   1.053  15.317  2.1481 -0.5523  0.5940
 3574SOL    HW222359   1.134   0.972  15.190  0.0247  0.2951 -1.2946
 3575SOL     OW22360   1.764   2.450  15.101  0.0849  0.2877 -0.2357
 3575SOL    HW122361   1.812   2.527  15.131 -0.6917 -0.3902  2.7234
 3575SOL    HW222362   1.697   2.447  15.170  2.2624  0.9117  1.9034
 3576SOL     OW22363   4.482   4.011   9.434  0.0507  0.2319 -0.3661
 3576SOL    HW122364   4.407   4.026   9.377 -0.2536  0.5796  0.1164
 3576SOL    HW222365   4.540   3.954   9.384 -0.6325 -0.7905  0.0091
 3577SOL     OW22366   3.528   1.743   6.579  0.1565  0.1252 -0.6172
 3577SOL    HW122367   3.488   1.703   6.656 -0.3199 -2.9649 -2.4617
 3577SOL    HW222368   3.519   1.831   6.615 -3.3019  0.0776 -1.3577
 3578SOL     OW22369   4.687   2.012   6.074 -0.2385  0.2825  0.1740
 3578SOL    HW122370   4.622   1.957   6.120  0.3173 -1.4464 -1.1266
 3578SOL    HW222371   4.686   2.088   6.132  0.1587 -0.6995  1.4769
 3579SOL     OW22372   3.241   2.196   6.728  0.1829 -0.2165 -0.4284
 3579SOL    HW122373   3.249   2.103   6.748 -3.8205 -0.3643  0.5085
 3579SOL    HW222374   3.164   2.199   6.671 -1.3534 -0.6819  1.5963
 3580SOL     OW22375   4.355   2.965   6.150  0.0250 -0.4136 -0.3143
 3580SOL    HW122376   4.312   3.004   6.074  0.3784 -1.6255 -1.1302
 3580SOL    HW222377   4.445   2.944   6.124  0.4063  0.0163  0.6666
 3581SOL     OW22378   2.676   4.031   7.279  0.4533  0.6215 -0.1740
 3581SOL    HW122379   2.675   3.955   7.220 -0.4582 -0.9224  1.7934
 3581SOL    HW222380   2.640   3.996   7.361 -0.7252 -0.1335 -1.0127
 3582SOL     OW22381   2.852   2.894   2.241 -0.5123 -0.1376 -0.5102
 3582SOL    HW122382   2.792   2.865   2.310 -1.8883  1.3307 -1.1013
 3582SOL    HW222383   2.808   2.861   2.162 -1.1473  1.8185 -0.9547
 3583SOL     OW22384   1.129   2.639   6.143 -0.3717  0.3325 -0.6084
 3583SOL    HW122385   1.054   2.695   6.126 -1.0560  0.1489  1.8284
 3583SOL    HW222386   1.085   2.562   6.107  2.1204 -1.4867  0.1667
 3584SOL     OW22387   3.199   1.671   1.867  0.2076 -0.0178  0.2788
 3584SOL    HW122388   3.113   1.708   1.846 -0.8282 -2.1763  0.6918
 3584SOL    HW222389   3.260   1.739   1.840 -0.2022  0.7851  1.4112
 3585SOL     OW22390   2.902   3.283   8.101 -0.3262 -0.9263 -0.0237
 3585SOL    HW122391   2.904   3.275   8.006  1.6867  4.3637 -0.4381
 3585SOL    HW222392   2.808   3.303   8.109  0.3281  1.8121  0.8800
 3586SOL     OW22393   0.687   1.084   7.229 -0.0069  0.0316  0.1456
 3586SOL    HW122394   0.601   1.047   7.247 -0.6058  1.2702 -0.2216
 3586SOL    HW222395   0.747   1.031   7.281  0.3213  0.7596  0.5202
 3587SOL     OW22396   2.741   4.084   5.759  0.0493  0.4049  0.5054
 3587SOL    HW122397   2.803   4.143   5.717  0.0862 -0.2369 -0.3570
 3587SOL    HW222398   2.696   4.142   5.820 -1.4912  0.1094 -0.3404
 3588SOL     OW22399   3.376   2.050   7.321  0.3776  0.0818  0.0903
 3588SOL    HW122400   3.318   2.115   7.361  0.0441  0.2750 -0.7116
 3588SOL    HW222401   3.375   1.978   7.385  0.0129  0.4253  0.4676
 3589SOL     OW22402   0.893   1.310  11.451 -0.2440  0.1553 -0.0168
 3589SOL    HW122403   0.869   1.282  11.362  0.2821  0.5703 -0.2875
 3589SOL    HW222404   0.950   1.381  11.424 -0.1609  0.6002  1.3498
 3590SOL     OW22405   1.932   3.912   4.664  0.2398  0.5814  0.3326
 3590SOL    HW122406   1.983   3.970   4.608 -2.5949  3.1901  0.3937
 3590SOL    HW222407   1.843   3.919   4.629  0.3529  0.7965  0.0898
 3591SOL     OW22408   3.281   4.566   6.704 -0.4383  0.4278  0.1770
 3591SOL    HW122409   3.309   4.584   6.615  1.8727 -0.5411  0.6934
 3591SOL    HW222410   3.196   4.523   6.707 -1.1814  1.8935  0.3814
 3592SOL     OW22411   0.778   3.848   6.767 -0.0034 -0.3375 -0.0638
 3592SOL    HW122412   0.776   3.888   6.854 -1.8862  1.3871 -0.8933
 3592SOL    HW222413   0.693   3.803   6.764  0.5026 -1.3579  1.2169
 3593SOL     OW22414   0.025   3.996   4.827  0.4963  0.2558 -0.3468
 3593SOL    HW122415   0.088   3.932   4.793 -0.5628  0.8473 -3.4335
 3593SOL    HW222416   4.709   4.011   4.749 -0.2269  0.7687  0.2451
 3594SOL     OW22417   0.759   0.621  13.609 -0.0151 -0.1664 -0.0315
 3594SOL    HW122418   0.836   0.657  13.564 -1.1845 -3.2387 -4.4969
 3594SOL    HW222419   0.783   0.615  13.701  3.3459  1.6982 -0.8022
 3595SOL     OW22420   2.515   3.679   4.969  0.3128 -0.0715 -0.5032
 3595SOL    HW122421   2.442   3.716   4.919  2.1238  2.4782 -1.2537
 3595SOL    HW222422   2.472   3.693   5.054 -0.9553  0.4641 -1.2305
 3596SOL     OW22423   1.219   4.007   4.222 -0.1627  0.1740  0.0373
 3596SOL    HW122424   1.178   3.945   4.162 -0.7760  1.6821 -1.1069
 3596SOL    HW222425   1.149   4.072   4.215 -0.6706 -0.2547  1.1387
 3597SOL     OW22426   1.827   2.950  12.047 -0.6677  0.3731  0.3357
 3597SOL    HW122427   1.785   3.018  11.993 -0.6265 -0.0553 -0.2382
 3597SOL    HW222428   1.884   2.911  11.980  1.3434  0.4580  1.9749
 3598SOL     OW22429   1.948   2.481  13.703 -0.3242 -0.7181 -0.3879
 3598SOL    HW122430   1.859   2.515  13.694  0.9450  2.6965 -0.0526
 3598SOL    HW222431   1.928   2.388  13.695  2.5284 -1.3146 -0.6778
 3599SOL     OW22432   2.034   2.696   9.969 -0.1093  0.5539 -0.1595
 3599SOL    HW122433   1.939   2.686   9.976 -0.0981  0.3251 -0.3375
 3599SOL    HW222434   2.045   2.762  10.038  0.8497  2.1425 -1.8061
 3600SOL     OW22435   1.552   4.135   0.862 -0.0858 -0.1981 -0.6174
 3600SOL    HW122436   1.517   4.215   0.900 -0.6795 -0.3567 -0.8414
 3600SOL    HW222437   1.579   4.099   0.947  0.7731 -1.4863 -1.4349
 3601SOL     OW22438   3.899   1.768   8.029 -0.2862 -0.3690 -0.1751
 3601SOL    HW122439   3.937   1.680   8.022 -1.2298 -0.6514 -1.9501
 3601SOL    HW222440   3.972   1.810   8.074 -1.1964  1.4704 -0.4188
 3602SOL     OW22441   1.576   2.064   9.623 -0.2427 -0.2553  0.0628
 3602SOL    HW122442   1.660   2.101   9.650 -0.5759  0.2952  0.3621
 3602SOL    HW222443   1.547   2.042   9.712  0.5717 -0.0620  0.3781
 3603SOL     OW22444   3.347   2.793  17.747  0.1778  0.4902 -0.2252
 3603SOL    HW122445   3.356   2.734  17.673 -1.0194 -2.9165  2.3410
 3603SOL    HW222446   3.256   2.822  17.735 -0.0481  0.8079  2.1811
 3604SOL     OW22447   2.468   3.771   3.623  0.7300  0.2609 -0.5924
 3604SOL    HW122448   2.529   3.776   3.549 -0.7192  1.0809 -1.7227
 3604SOL    HW222449   2.387   3.765   3.573 -1.6427  0.2470  3.2803
 3605SOL     OW22450   4.325   2.971  10.411 -0.0456 -0.1714 -0.6263
 3605SOL    HW122451   4.302   3.034  10.342  2.9585  1.8361  0.1936
 3605SOL    HW222452   4.319   3.034  10.483  1.8489  0.3893 -0.9382
 3606SOL     OW22453   1.318   0.629   1.802  0.3736 -0.0605  0.2464
 3606SOL    HW122454   1.361   0.592   1.879  0.3644  0.5770  0.5486
 3606SOL    HW222455   1.231   0.656   1.831  0.4418 -0.3746  0.7339
 3607SOL     OW22456   3.974   0.765  15.914  0.0239  0.5027 -0.1883
 3607SOL    HW122457   3.886   0.802  15.907 -1.0313 -1.5346  2.5040
 3607SOL    HW222458   3.958   0.691  15.972 -0.2087  0.7236  0.0277
 3608SOL     OW22459   0.248   4.248   5.160  0.1837 -1.0067  0.4579
 3608SOL    HW122460   0.296   4.325   5.131 -0.4950 -1.0696 -0.8634
 3608SOL    HW222461   0.215   4.217   5.075 -0.2716 -1.4598  0.7979
 3609SOL     OW22462   4.050   0.077   8.655 -0.1728  0.1521  0.0472
 3609SOL    HW122463   3.971   0.039   8.617 -0.3313  1.5525 -0.9815
 3609SOL    HW222464   4.041   0.168   8.627  2.3699  0.6701  0.8786
 3610SOL     OW22465   2.552   0.621  16.010 -0.2784 -0.2984  0.0185
 3610SOL    HW122466   2.613   0.566  16.059  1.1824 -0.2356 -1.7500
 3610SOL    HW222467   2.468   0.613  16.057 -0.4465 -2.5516 -0.6412
 3611SOL     OW22468   2.692   0.016  14.168  0.0088 -0.0234  0.2452
 3611SOL    HW122469   2.743   0.096  14.158  3.7833 -2.3402  1.0650
 3611SOL    HW222470   2.612   0.022  14.116 -0.7555  2.9937  1.7619
 3612SOL     OW22471   1.925   0.559   1.794 -0.1016 -0.2180  0.3427
 3612SOL    HW122472   1.896   0.485   1.847 -0.4186 -0.3649 -0.0375
 3612SOL    HW222473   1.849   0.617   1.803  0.1411  0.4004 -1.8021
 3613SOL     OW22474   3.644   0.230  12.266 -0.2994 -0.1774 -0.0530
 3613SOL    HW122475   3.738   0.212  12.265  0.0809  1.6446  1.6083
 3613SOL    HW222476   3.611   0.151  12.309  1.7083 -0.8220  0.3391
 3614SOL     OW22477   1.009   3.458   1.535  0.4383 -0.2121  0.8019
 3614SOL    HW122478   1.100   3.431   1.527  0.3140 -0.9149  1.7234
 3614SOL    HW222479   1.016   3.543   1.579  0.1275  0.2474 -0.0320
 3615SOL     OW22480   4.385   0.227   9.252 -0.1173 -0.4308  0.2377
 3615SOL    HW122481   4.436   0.194   9.179  0.4287  0.3244  0.2838
 3615SOL    HW222482   4.327   0.291   9.209  1.5886  1.7704  1.2089
 3616SOL     OW22483   2.015   2.773   6.152 -0.0571  0.3623  0.0903
 3616SOL    HW122484   1.940   2.825   6.121  0.0784  0.7170  0.3614
 3616SOL    HW222485   1.982   2.684   6.166 -0.2442  0.4993  0.5111
 3617SOL     OW22486   2.598   3.465  13.256 -0.2612  0.0104 -0.6077
 3617SOL    HW122487   2.528   3.488  13.195 -0.8548 -0.9539 -0.2911
 3617SOL    HW222488   2.555   3.483  13.340 -0.8807 -0.3637 -0.8450
 3618SOL     OW22489   3.439   1.162   3.514 -0.0193 -0.2521  0.4381
 3618SOL    HW122490   3.388   1.137   3.437  0.9887  1.2118 -0.7227
 3618SOL    HW222491   3.427   1.082   3.565 -1.2113  0.2837  1.0024
 3619SOL     OW22492   0.999   2.484   4.226 -0.3506 -0.1457  0.6244
 3619SOL    HW122493   0.941   2.417   4.262 -0.5425 -0.0634  0.4676
 3619SOL    HW222494   0.942   2.560   4.239 -0.4994 -0.0282 -0.7511
 3620SOL     OW22495   3.605   3.849   6.812  0.6839  0.4750 -0.2772
 3620SOL    HW122496   3.612   3.776   6.750  3.2009  0.6158 -0.1875
 3620SOL    HW222497   3.653   3.920   6.768  0.6267  1.3317  1.0416
 3621SOL     OW22498   2.031   4.197  14.616 -0.2910 -0.1538 -1.0868
 3621SOL    HW122499   2.118   4.211  14.579  0.3799  0.7868  0.8484
 3621SOL    HW222500   1.980   4.152  14.548  0.9098  1.4451 -3.0720
 3622SOL     OW22501   1.263   1.252  16.469  0.5990 -0.8618  0.1025
 3622SOL    HW122502   1.211   1.300  16.405  0.6587 -2.9302 -1.5168
 3622SOL    HW222503   1.320   1.197  16.415 -0.5147 -1.1060 -0.8128
 3623SOL     OW22504   1.048   0.727   0.106 -0.3570  0.2767 -0.6321
 3623SOL    HW122505   1.077   0.678   0.182  0.3354  2.6815  0.6498
 3623SOL    HW222506   1.058   0.820   0.126  1.0157 -0.1899  0.8134
 3624SOL     OW22507   2.053   0.274   7.338  0.0949  0.1516 -0.3238
 3624SOL    HW122508   1.962   0.245   7.338  0.5821 -1.3993  0.3705
 3624SOL    HW222509   2.047   0.365   7.309  2.3448  0.4244  0.0797
 3625SOL     OW22510   4.135   1.160   8.459  0.0865 -0.1722 -0.1004
 3625SOL    HW122511   4.118   1.220   8.387 -0.7929  1.8208  1.7632
 3625SOL    HW222512   4.181   1.206   8.528  0.4920 -1.6612  0.6275
 3626SOL     OW22513   3.398   0.824  17.211  0.2627 -0.1018 -0.4785
 3626SOL    HW122514   3.362   0.911  17.229 -0.5599 -0.8035  1.3098
 3626SOL    HW222515   3.476   0.834  17.266  0.7921 -0.6360 -1.1449
 3627SOL     OW22516   3.460   0.855   7.478 -0.1052 -0.4665 -0.2744
 3627SOL    HW122517   3.437   0.762   7.477  0.5275 -0.6016 -2.1714
 3627SOL    HW222518   3.478   0.867   7.571 -1.8540  2.4245 -0.3000
 3628SOL     OW22519   3.295   3.809   7.153  0.2536 -0.9424  0.2910
 3628SOL    HW122520   3.212   3.831   7.111  0.5937  1.3169  0.7949
 3628SOL    HW222521   3.322   3.746   7.087 -1.0644 -0.4164 -0.7444
 3629SOL     OW22522   2.989   1.839   2.826 -0.2607  0.2478  0.3886
 3629SOL    HW122523   2.912   1.832   2.770  0.8366 -1.1200 -0.9766
 3629SOL    HW222524   2.998   1.751   2.862  1.6527  0.6755  0.9553
 3630SOL     OW22525   4.660   2.621   1.574  0.3059 -0.4744  0.0153
 3630SOL    HW122526   4.723   2.684   1.610 -0.7529  0.6759 -0.1211
 3630SOL    HW222527   4.698   2.587   1.493  2.5738 -0.4036  1.0564
 3631SOL     OW22528   2.949   4.275  16.673 -0.0441 -0.0337 -0.4114
 3631SOL    HW122529   2.940   4.289  16.579  0.9864  0.7784 -0.3917
 3631SOL    HW222530   3.025   4.217  16.680  1.9015  2.6313  0.9620
 3632SOL     OW22531   2.609   4.735   8.562  0.3669  0.5956  0.2185
 3632SOL    HW122532   2.641   0.071   8.615 -1.9044  0.8137  1.2523
 3632SOL    HW222533   2.515   0.008   8.552  0.3622  0.6753  0.3418
 3633SOL     OW22534   3.724   0.601  16.489 -0.2016 -0.1107 -0.2280
 3633SOL    HW122535   3.800   0.551  16.459 -0.3048  0.2672 -1.1222
 3633SOL    HW222536   3.672   0.544  16.545  1.1298  0.3205  1.4256
 3634SOL     OW22537   4.107   3.589  10.284  0.2752 -0.1292  0.0388
 3634SOL    HW122538   4.058   3.646  10.343  3.2056  1.8474  0.5680
 3634SOL    HW222539   4.037   3.595  10.219  1.6842 -1.0655 -1.5695
 3635SOL     OW22540   2.917   2.652  11.828  0.1810 -0.0756  0.0624
 3635SOL    HW122541   2.890   2.723  11.887 -2.1590 -0.2352 -0.8255
 3635SOL    HW222542   2.975   2.608  11.891  2.5624 -0.2854 -2.2708
 3636SOL     OW22543   3.075   4.325   7.425  0.0782 -0.1752  0.4130
 3636SOL    HW122544   3.053   4.292   7.338 -0.7053  1.0765  0.1282
 3636SOL    HW222545   2.993   4.342   7.471  0.2645  1.1133  0.2722
 3637SOL     OW22546   2.051   0.678   3.577 -0.5239  0.2253  0.1835
 3637SOL    HW122547   1.995   0.703   3.650 -1.5408  1.3539 -0.9806
 3637SOL    HW222548   2.074   0.764   3.541 -1.5765 -0.5932 -2.4893
 3638SOL     OW22549   1.617   0.545   4.825 -0.2264 -0.1111 -0.3804
 3638SOL    HW122550   1.682   0.499   4.878  1.4925  1.9897 -0.6813
 3638SOL    HW222551   1.668   0.595   4.762  0.9922  0.3075  0.9409
 3639SOL     OW22552   2.871   0.924  10.525 -0.1372 -0.0124  0.4144
 3639SOL    HW122553   2.834   0.839  10.551 -0.7221 -0.3305 -1.4914
 3639SOL    HW222554   2.805   0.986  10.555  0.9396  0.2656  2.1820
 3640SOL     OW22555   2.536   0.916   8.597  0.0186  0.0963  0.0276
 3640SOL    HW122556   2.530   0.981   8.527  1.1171 -0.0425 -0.1972
 3640SOL    HW222557   2.503   0.967   8.671 -0.0070  2.1473 -1.3820
 3641SOL     OW22558   3.588   1.595   6.345  0.2989 -0.0122  0.4788
 3641SOL    HW122559   3.565   1.654   6.416 -1.6759 -1.6695  1.2121
 3641SOL    HW222560   3.680   1.617   6.328  0.3080  0.5367  1.2416
 3642SOL     OW22561   4.646   3.558   9.810  0.1848  0.4669 -0.0754
 3642SOL    HW122562   4.581   3.623   9.780 -0.5457 -0.2426 -0.0289
 3642SOL    HW222563   4.724   3.590   9.766 -0.8903  0.5927 -1.8996
 3643SOL     OW22564   2.273   2.816   5.397  0.1824  0.4436 -0.1829
 3643SOL    HW122565   2.359   2.859   5.394 -0.2003  1.3389  1.5670
 3643SOL    HW222566   2.221   2.884   5.355  1.9980  0.6135 -2.1673
 3644SOL     OW22567   0.337   0.479   1.678 -0.1738 -0.2013  0.1574
 3644SOL    HW122568   0.294   0.564   1.668  0.0766 -0.1379 -0.3597
 3644SOL    HW222569   0.338   0.470   1.773 -0.4187  1.1632  0.2931
 3645SOL     OW22570   2.296   1.038  11.526 -1.1035  0.1063 -0.0819
 3645SOL    HW122571   2.344   1.093  11.464 -1.6723  1.1589  0.4268
 3645SOL    HW222572   2.302   1.086  11.608 -3.5515 -0.7211  0.5563
 3646SOL     OW22573   4.013   3.334   6.406 -0.1076  0.3752  0.0006
 3646SOL    HW122574   4.027   3.271   6.335 -1.2946 -0.9556  0.9327
 3646SOL    HW222575   3.931   3.297   6.441  0.7556 -0.8920  0.6946
 3647SOL     OW22576   4.134   3.275   7.732  0.3189  0.0109 -0.1467
 3647SOL    HW122577   4.221   3.273   7.692  0.4428 -0.5985  0.1519
 3647SOL    HW222578   4.152   3.320   7.815 -0.7329  0.8440 -0.3590
 3648SOL     OW22579   0.651   2.350   9.229  0.0399 -0.4791 -0.2599
 3648SOL    HW122580   0.570   2.303   9.251 -0.4637  1.2086  1.4382
 3648SOL    HW222581   0.702   2.280   9.188  0.4626 -0.5950  0.4660
 3649SOL     OW22582   0.076   0.271   4.305 -0.0074 -0.5397 -0.1574
 3649SOL    HW122583   0.078   0.335   4.376 -0.5395 -0.7051  0.0088
 3649SOL    HW222584   0.121   0.321   4.238  1.5329 -0.8282  0.6757
 3650SOL     OW22585   4.356   3.701   9.686  0.8179 -0.1745  0.2328
 3650SOL    HW122586   4.353   3.695   9.590 -0.5626 -0.3853  0.2849
 3650SOL    HW222587   4.367   3.795   9.700 -0.9261 -0.0693  0.9574
 3651SOL     OW22588   2.696   2.363   4.327  0.1900 -0.3654  0.7371
 3651SOL    HW122589   2.780   2.320   4.315 -0.2823 -1.3926  1.0198
 3651SOL    HW222590   2.647   2.289   4.364 -0.1656 -0.4471  0.1010
 3652SOL     OW22591   4.065   2.093   9.923 -0.0080 -1.0849  0.7928
 3652SOL    HW122592   4.078   2.174   9.971 -2.0741 -0.6974  0.6992
 3652SOL    HW222593   4.146   2.051   9.951 -0.8777 -0.1644  4.5842
 3653SOL     OW22594   3.211   0.671   5.590  0.2828 -0.7689  0.2155
 3653SOL    HW122595   3.219   0.608   5.662 -1.9836 -1.1332  0.1643
 3653SOL    HW222596   3.303   0.673   5.566  0.1680 -0.3029 -0.1902
 3654SOL     OW22597   0.143   1.047  14.167  0.1387  0.1428  0.2577
 3654SOL    HW122598   0.232   1.048  14.201  0.7153 -0.7978 -1.2215
 3654SOL    HW222599   0.094   1.051  14.249 -0.4142  0.5554 -0.0939
 3655SOL     OW22600   4.181   0.366   2.284 -0.4816  0.3671  0.5383
 3655SOL    HW122601   4.151   0.377   2.374 -0.4699 -2.7514  0.9161
 3655SOL    HW222602   4.094   0.361   2.244 -0.0807 -2.2230 -0.0044
 3656SOL     OW22603   1.227   2.788   4.339  0.6194 -0.0816 -0.1153
 3656SOL    HW122604   1.185   2.874   4.350  3.3135  1.1330  0.6663
 3656SOL    HW222605   1.281   2.787   4.418 -2.9952  1.1984  2.3778
 3657SOL     OW22606   2.222   2.277   2.600  0.2718  0.0883 -0.3620
 3657SOL    HW122607   2.218   2.288   2.505 -0.9550  1.7181 -0.1237
 3657SOL    HW222608   2.309   2.240   2.613  0.1481 -0.6498 -1.6429
 3658SOL     OW22609   2.006   3.303   1.055  0.3128 -0.5185 -0.2914
 3658SOL    HW122610   1.937   3.325   1.118  1.2092  0.7517  0.2533
 3658SOL    HW222611   1.965   3.252   0.985 -0.4490  0.5664 -0.6281
 3659SOL     OW22612   0.197   1.138   1.300 -0.2005 -0.4344  0.0915
 3659SOL    HW122613   0.256   1.147   1.225 -1.1935 -0.5927 -0.7099
 3659SOL    HW222614   0.141   1.208   1.268  0.7076  0.1807 -0.1501
 3660SOL     OW22615   1.497   1.617   8.372  0.1946  0.2312 -0.7472
 3660SOL    HW122616   1.516   1.525   8.391  0.6996  0.7914  1.4789
 3660SOL    HW222617   1.441   1.637   8.447 -1.7856  0.7447 -2.3447
 3661SOL     OW22618   4.593   4.574   7.600 -0.3347  0.0490 -0.0539
 3661SOL    HW122619   4.616   4.508   7.536  3.1012  0.0270  1.2111
 3661SOL    HW222620   4.673   4.575   7.651 -0.0282  3.0390 -0.5714
 3662SOL     OW22621   0.705   3.427   0.782  0.6265 -0.3021  0.1903
 3662SOL    HW122622   0.645   3.493   0.747  1.1089 -0.2226 -0.4805
 3662SOL    HW222623   0.786   3.465   0.748  0.9241 -1.5211 -0.4853
 3663SOL     OW22624   4.547   3.071  11.620 -0.5159  0.7427 -0.5880
 3663SOL    HW122625   4.512   3.158  11.640 -0.9297  0.3668  0.3313
 3663SOL    HW222626   4.640   3.090  11.615 -0.2948 -0.0772  0.3473
 3664SOL     OW22627   2.948   2.854  10.536  0.3107  0.9233  0.4168
 3664SOL    HW122628   3.003   2.778  10.515 -0.3224  0.9586 -1.3739
 3664SOL    HW222629   2.945   2.898  10.451 -0.7402 -0.4501 -0.2646
 3665SOL     OW22630   4.428   0.117   5.742 -0.3382 -0.3827 -0.6820
 3665SOL    HW122631   4.357   0.052   5.744 -0.8125  0.2123  1.2477
 3665SOL    HW222632   4.374   0.194   5.758  0.7997  0.6403 -1.8026
 3666SOL     OW22633   2.222   1.281  12.421  0.5072  0.0860 -0.3856
 3666SOL    HW122634   2.166   1.243  12.489  1.7954 -0.4186  0.3750
 3666SOL    HW222635   2.308   1.251  12.448  0.2428 -1.8412 -1.6725
 3667SOL     OW22636   2.875   3.567  13.331 -0.2822 -0.2884 -0.4604
 3667SOL    HW122637   2.790   3.535  13.300 -1.2054  0.5263  1.1902
 3667SOL    HW222638   2.888   3.649  13.283 -1.7654  0.7733  0.9413
 3668SOL     OW22639   1.050   1.182  11.121 -0.1805  0.6615  0.4150
 3668SOL    HW122640   0.985   1.117  11.091 -0.3536  1.0439 -0.0455
 3668SOL    HW222641   0.998   1.253  11.159 -0.4461  2.3641 -3.1069
 3669SOL     OW22642   3.919   0.026   6.238 -0.0613 -0.0625  0.0655
 3669SOL    HW122643   3.884   0.068   6.159 -0.9002  0.5830  0.7747
 3669SOL    HW222644   3.885   0.090   6.300  1.1853  0.1701  0.4964
 3670SOL     OW22645   3.626   3.964   4.861  0.2003 -0.2552 -0.3164
 3670SOL    HW122646   3.593   3.927   4.943 -1.3681  2.1700  0.1485
 3670SOL    HW222647   3.547   3.962   4.807 -0.8073 -2.8118  1.2626
 3671SOL     OW22648   0.342   3.732   0.287  0.2113  0.0185 -0.1904
 3671SOL    HW122649   0.433   3.760   0.286  0.0153  0.6208 -1.9554
 3671SOL    HW222650   0.338   3.669   0.215 -2.0832  0.7222 -0.6996
 3672SOL     OW22651   2.256   2.749   2.769  0.2027  0.2733  0.0550
 3672SOL    HW122652   2.258   2.672   2.825 -0.8281 -1.3688 -2.1745
 3672SOL    HW222653   2.254   2.710   2.682  0.8545  0.7805 -0.1823
 3673SOL     OW22654   1.410   4.488  13.849  0.1540 -0.2633 -0.0557
 3673SOL    HW122655   1.494   4.455  13.882  0.1117 -0.3179 -0.0030
 3673SOL    HW222656   1.387   4.415  13.791  0.5619  0.6553 -1.3667
 3674SOL     OW22657   1.244   0.047   0.412  0.2414 -0.2924 -0.3573
 3674SOL    HW122658   1.254   0.020   0.321  1.2216  1.1031 -0.6769
 3674SOL    HW222659   1.330   0.086   0.429 -0.9292  2.3227 -0.3665
 3675SOL     OW22660   3.919   0.009  17.009  0.2798 -0.0379 -0.6593
 3675SOL    HW122661   3.894   0.010  17.102 -1.2804 -0.8319 -1.0685
 3675SOL    HW222662   4.008   4.711  17.016 -0.0257 -1.1211 -2.4932
 3676SOL     OW22663   3.519   1.428  17.711  0.5107 -0.0428  0.3474
 3676SOL    HW122664   3.517   1.338  17.743 -1.1024  0.0242  0.4137
 3676SOL    HW222665   3.467   1.461   0.035  0.7321 -1.4286  1.1473
 3677SOL     OW22666   1.236   1.407   8.423  0.2541  0.7527  1.1416
 3677SOL    HW122667   1.330   1.396   8.414  0.0444 -0.4661  0.5295
 3677SOL    HW222668   1.235   1.498   8.452 -0.6433  1.0077  0.2993
 3678SOL     OW22669   3.485   1.027   2.305 -0.2798 -0.0977 -0.4604
 3678SOL    HW122670   3.577   1.047   2.290 -0.2782 -0.5113 -0.9733
 3678SOL    HW222671   3.476   1.087   2.380 -1.7092  0.0860 -0.7666
 3679SOL     OW22672   2.408   3.193   9.556 -0.2436  0.2687 -0.0779
 3679SOL    HW122673   2.468   3.147   9.498 -1.9284  0.2122 -1.7878
 3679SOL    HW222674   2.344   3.124   9.575 -0.0145  0.4522  1.3254
 3680SOL     OW22675   1.148   4.344   2.039  0.0933 -0.8271 -0.5352
 3680SOL    HW122676   1.228   4.383   2.002  0.5379 -1.0292  0.2234
 3680SOL    HW222677   1.167   4.335   2.132  1.7932  0.8507 -0.7302
 3681SOL     OW22678   3.331   0.354   6.091  0.3200  0.2754  0.2497
 3681SOL    HW122679   3.252   0.359   6.145  0.2613 -0.4302  0.2359
 3681SOL    HW222680   3.347   0.443   6.059 -0.9161  0.5385  0.3722
 3682SOL     OW22681   1.850   0.566  13.497  0.3964  0.0137 -0.1826
 3682SOL    HW122682   1.759   0.566  13.466  1.1261 -2.9247 -2.3638
 3682SOL    HW222683   1.886   0.539  13.413 -1.8276 -2.0609 -0.4685
 3683SOL     OW22684   2.715   4.513   3.699 -0.1762 -0.8255 -0.0343
 3683SOL    HW122685   2.635   4.552   3.665  1.1145  1.6995 -0.1465
 3683SOL    HW222686   2.721   4.562   3.781 -0.1934 -0.3229 -0.3366
 3684SOL     OW22687   2.065   1.970   0.469 -0.2285 -0.0070 -0.2997
 3684SOL    HW122688   2.014   1.908   0.521  1.9213 -4.1997 -3.1817
 3684SOL    HW222689   2.151   1.968   0.510 -0.5028 -3.5758  0.1102
 3685SOL     OW22690   3.719   0.271   7.128  0.0441 -0.0046 -0.3919
 3685SOL    HW122691   3.783   0.217   7.082  1.4055  1.5663 -0.3634
 3685SOL    HW222692   3.648   0.284   7.065 -1.4294 -0.1185  1.2394
 3686SOL     OW22693   3.868   2.165   2.865 -0.3093  0.2241 -0.0399
 3686SOL    HW122694   3.882   2.224   2.790 -1.0030  1.5105  0.8331
 3686SOL    HW222695   3.840   2.227   2.933 -2.1294 -0.3277 -0.2827
 3687SOL     OW22696   0.231   2.206  15.553 -0.2094  0.2764 -0.0364
 3687SOL    HW122697   0.173   2.274  15.585 -0.4771  0.5604 -1.1193
 3687SOL    HW222698   0.218   2.141  15.623  2.3814  1.9888  2.0441
 3688SOL     OW22699   3.600   0.535   5.254 -0.5089  0.2553 -0.3383
 3688SOL    HW122700   3.676   0.567   5.205 -0.0579 -1.3030 -0.6501
 3688SOL    HW222701   3.573   0.616   5.297  2.8756  1.6161 -0.7880
 3689SOL     OW22702   3.952   0.732  16.258  0.0817  0.4120  0.4022
 3689SOL    HW122703   4.013   0.795  16.220  1.7217 -0.5056  1.5168
 3689SOL    HW222704   4.001   0.650  16.247 -0.7317  0.0805 -0.7964
 3690SOL     OW22705   2.112   0.632   9.828 -0.5861 -0.0020  0.3322
 3690SOL    HW122706   2.046   0.596   9.888  0.1030  1.6950  2.1128
 3690SOL    HW222707   2.162   0.690   9.885 -0.3441  0.6388 -0.5480
 3691SOL     OW22708   2.879   0.331  13.066 -0.2728 -0.7341 -0.0187
 3691SOL    HW122709   2.842   0.310  13.152  1.9915 -1.3613  0.8089
 3691SOL    HW222710   2.956   0.381  13.093 -0.4616 -0.2275 -0.4047
 3692SOL     OW22711   1.605   4.221   6.299  0.5905  0.4535 -0.3594
 3692SOL    HW122712   1.566   4.306   6.281  1.3104  1.2947  2.0721
 3692SOL    HW222713   1.655   4.245   6.377 -0.7372  0.4283  0.4936
 3693SOL     OW22714   4.084   3.714   6.895  0.2035 -0.5812 -0.6572
 3693SOL    HW122715   4.027   3.691   6.969  0.4385  0.6264 -0.0979
 3693SOL    HW222716   4.168   3.734   6.937  0.1328 -0.5805 -0.5171
 3694SOL     OW22717   2.460   0.691   5.391 -0.2793  0.1200 -0.3141
 3694SOL    HW122718   2.517   0.631   5.342 -2.2385 -0.0576 -2.3577
 3694SOL    HW222719   2.461   0.650   5.477  0.6506  3.7334  1.4196
 3695SOL     OW22720   0.859   2.998   2.612  0.2413 -0.2059 -0.1828
 3695SOL    HW122721   0.931   2.996   2.675  0.4612  1.8373 -0.3493
 3695SOL    HW222722   0.792   3.043   2.664 -0.1761  0.3528 -1.1986
 3696SOL     OW22723   3.115   1.991   4.439 -0.1185  0.6121 -0.0553
 3696SOL    HW122724   3.106   1.905   4.397 -0.4205 -0.8675  3.0279
 3696SOL    HW222725   3.124   2.049   4.364 -0.0180 -0.0788 -0.5808
 3697SOL     OW22726   3.084   3.967   6.991  0.6292 -0.5086  0.2409
 3697SOL    HW122727   3.173   3.965   6.956  0.0076  0.7026 -1.4289
 3697SOL    HW222728   3.067   4.061   7.005  2.2319 -0.2786  0.6558
 3698SOL     OW22729   1.125   4.168   3.951  0.4201  0.1135  0.3470
 3698SOL    HW122730   1.068   4.121   3.889  0.4583  0.0389  0.3690
 3698SOL    HW222731   1.155   4.238   3.893  1.3933 -0.1917  0.4886
 3699SOL     OW22732   0.572   4.722   4.828  0.0188 -1.1244 -0.5158
 3699SOL    HW122733   0.480   4.731   4.854 -0.2423 -1.7949 -1.2099
 3699SOL    HW222734   0.576   0.033   4.745  2.6128 -0.5281 -0.0305
 3700SOL     OW22735   1.313   3.844   4.605 -0.0662 -0.6699 -0.2320
 3700SOL    HW122736   1.250   3.772   4.591  0.1666 -0.8413 -0.4017
 3700SOL    HW222737   1.350   3.825   4.691 -2.2414 -3.8403  0.0341
 3701SOL     OW22738   1.460   0.136   6.062  0.3187  0.5347 -0.2469
 3701SOL    HW122739   1.486   0.226   6.039  1.4995  0.3064  0.2217
 3701SOL    HW222740   1.365   0.135   6.076  0.0150  3.1133 -2.1410
 3702SOL     OW22741   4.421   4.537   4.286 -0.1348 -0.1321 -0.9816
 3702SOL    HW122742   4.512   4.524   4.311 -0.0027 -0.2311 -1.4985
 3702SOL    HW222743   4.397   4.618   4.330  2.6394 -0.1698  0.5245
 3703SOL     OW22744   2.681   4.404  16.689 -0.1026 -0.2676 -0.0986
 3703SOL    HW122745   2.656   4.369  16.775  0.9861  0.1867  0.4072
 3703SOL    HW222746   2.745   4.336  16.666  2.5170  2.1337  0.2102
 3704SOL     OW22747   1.087   4.196   8.443 -0.5087  0.2868 -0.0523
 3704SOL    HW122748   1.062   4.106   8.426  0.3163  0.0875 -0.2203
 3704SOL    HW222749   1.168   4.196   8.393 -0.2221  0.7483  0.4130
 3705SOL     OW22750   1.946   0.897   9.261  0.3685  0.2072 -0.7295
 3705SOL    HW122751   1.906   0.951   9.329  1.5666  0.0371  0.1083
 3705SOL    HW222752   2.022   0.850   9.296  0.4429  1.3396  0.5985
 3706SOL     OW22753   2.469   2.290   1.063  0.1308 -0.1688  0.0840
 3706SOL    HW122754   2.384   2.245   1.058 -0.4655  0.7215  2.2887
 3706SOL    HW222755   2.486   2.300   0.969 -3.7003 -2.3130 -0.8350
 3707SOL     OW22756   1.366   4.166   3.666  0.0290  0.3426 -0.1061
 3707SOL    HW122757   1.387   4.074   3.683  0.4681  0.5670  0.5150
 3707SOL    HW222758   1.409   4.209   3.739 -1.2645 -0.3721  1.0843
 3708SOL     OW22759   2.010   2.048   0.805 -0.0358 -0.2511 -0.5248
 3708SOL    HW122760   1.959   2.126   0.825  1.1469  0.0545  1.3498
 3708SOL    HW222761   1.943   1.994   0.764 -1.1731  0.3541  0.5589
 3709SOL     OW22762   0.664   2.840   3.058 -0.4699  0.4125 -0.2983
 3709SOL    HW122763   0.691   2.756   3.019 -0.3972  0.7090 -0.8888
 3709SOL    HW222764   0.612   2.881   2.989 -0.3358  0.2348 -0.5088
 3710SOL     OW22765   2.238   0.563  14.714  0.4120 -0.5680 -0.1319
 3710SOL    HW122766   2.254   0.547  14.621  0.4140  1.0622 -0.4089
 3710SOL    HW222767   2.143   0.554  14.709  0.1608  1.8564  0.4433
 3711SOL     OW22768   2.370   0.706   9.716  0.3927 -0.6154  0.6345
 3711SOL    HW122769   2.286   0.672   9.747 -0.2160  0.5276  0.2091
 3711SOL    HW222770   2.412   0.623   9.691 -1.8585 -1.0775 -1.6299
 3712SOL     OW22771   4.445   2.542   5.586  0.3771  0.4038 -0.2866
 3712SOL    HW122772   4.445   2.496   5.502 -0.0169  0.4416 -0.3064
 3712SOL    HW222773   4.491   2.620   5.555 -0.2618  1.3051  0.9987
 3713SOL     OW22774   2.076   2.491   3.848 -0.4946  0.0661  0.3791
 3713SOL    HW122775   2.027   2.424   3.894  0.3516 -0.2794  0.7722
 3713SOL    HW222776   2.120   2.434   3.785  1.2068  1.7338  0.0502
 3714SOL     OW22777   2.583   4.540   5.164 -0.6359 -0.8398  0.5524
 3714SOL    HW122778   2.642   4.510   5.095  0.2946 -0.9244  1.3960
 3714SOL    HW222779   2.638   4.580   5.230 -2.7500  2.0183  0.5651
 3715SOL     OW22780   3.862   4.196   8.928  0.5666  0.4630 -0.3395
 3715SOL    HW122781   3.919   4.125   8.958  1.7096  2.1043  1.3925
 3715SOL    HW222782   3.807   4.149   8.866  1.6344 -2.4622  0.9354
 3716SOL     OW22783   0.976   3.247  13.086 -0.0428 -0.1529  0.6044
 3716SOL    HW122784   1.070   3.256  13.075 -0.0071  1.6627  2.4233
 3716SOL    HW222785   0.950   3.178  13.025 -0.4282 -0.2168  0.8359
 3717SOL     OW22786   2.192   0.097   3.489  0.2878  0.3889 -0.4951
 3717SOL    HW122787   2.253   0.170   3.493  0.1688  0.3081  2.1789
 3717SOL    HW222788   2.140   0.119   3.566 -2.1070 -1.4324 -1.5685
 3718SOL     OW22789   2.222   0.156   0.818  0.1155  0.0748  0.3708
 3718SOL    HW122790   2.146   0.100   0.831 -1.4164  1.5771 -1.9177
 3718SOL    HW222791   2.205   0.219   0.747 -2.4422 -3.0004 -1.7642
 3719SOL     OW22792   3.171   1.721   7.585  0.1463 -0.3173  0.2179
 3719SOL    HW122793   3.209   1.656   7.645  0.7151 -2.4501 -2.4651
 3719SOL    HW222794   3.125   1.773   7.651 -0.3986 -0.2066 -0.2580
 3720SOL     OW22795   3.587   1.280  11.370 -0.2120  0.4372 -0.6092
 3720SOL    HW122796   3.681   1.288  11.386 -0.3925  0.6070  0.3878
 3720SOL    HW222797   3.585   1.243  11.282  3.0960 -0.3556 -0.3683
 3721SOL     OW22798   4.684   1.759   4.008  0.5530  0.3409  0.2549
 3721SOL    HW122799   4.658   1.705   3.934  1.1547  2.4418 -1.4646
 3721SOL    HW222800   0.040   1.769   3.993  0.7103  0.0279  0.9957
 3722SOL     OW22801   2.120   0.375   9.171  0.5172 -1.1076 -0.1305
 3722SOL    HW122802   2.202   0.397   9.214  0.8123  2.9054 -2.7300
 3722SOL    HW222803   2.052   0.433   9.204 -0.1724 -0.7989 -2.0615
 3723SOL     OW22804   3.797   3.204  11.020 -0.4037 -0.4674 -0.5607
 3723SOL    HW122805   3.706   3.192  11.047 -0.2353  0.2387  0.3408
 3723SOL    HW222806   3.836   3.160  11.096  0.7412  0.3137 -0.6979
 3724SOL     OW22807   4.031   3.787   7.235 -0.2702  0.4870 -0.1494
 3724SOL    HW122808   4.081   3.786   7.317 -2.7168  0.4359  1.3176
 3724SOL    HW222809   3.952   3.740   7.262  0.4688 -0.4781  0.3535
 3725SOL     OW22810   2.280   2.137   7.520  0.0634  0.2536 -0.2653
 3725SOL    HW122811   2.358   2.082   7.516  0.0270  0.2361 -0.7200
 3725SOL    HW222812   2.211   2.086   7.478  0.6528 -1.6890  1.1314
 3726SOL     OW22813   0.760   1.398   4.097  0.0736 -0.8255 -0.3383
 3726SOL    HW122814   0.766   1.353   4.013 -0.9572 -0.6556 -0.5040
 3726SOL    HW222815   0.818   1.474   4.087 -3.3877  1.9434  0.4252
 3727SOL     OW22816   1.079   0.136   4.109 -0.1994 -0.1102 -0.2365
 3727SOL    HW122817   1.018   0.070   4.076  0.7173 -1.2088  0.2465
 3727SOL    HW222818   1.154   0.080   4.130 -0.8483 -1.3696 -1.3019
 3728SOL     OW22819   4.649   3.074   8.965  0.3845 -0.0877 -0.1360
 3728SOL    HW122820   4.591   3.088   8.890 -0.4341  0.5728  0.6145
 3728SOL    HW222821   4.737   3.096   8.937  0.4132  0.2385  0.2099
 3729SOL     OW22822   3.658   3.138   6.900  0.8096  0.0033  0.4691
 3729SOL    HW122823   3.597   3.117   6.971  1.8296 -0.7539  1.1272
 3729SOL    HW222824   3.648   3.233   6.898 -1.0928 -0.1729  2.2957
 3730SOL     OW22825   1.562   3.727   8.350 -0.2502  0.0871 -0.0272
 3730SOL    HW122826   1.551   3.775   8.432 -2.9525 -0.3604 -0.1248
 3730SOL    HW222827   1.643   3.767   8.317 -1.1496  3.1859  1.4707
 3731SOL     OW22828   2.221   0.728  11.824  0.0367  0.2409 -0.0938
 3731SOL    HW122829   2.165   0.806  11.820 -1.7185 -0.9602  0.9493
 3731SOL    HW222830   2.241   0.717  11.917  1.0474 -1.4915 -0.5114
 3732SOL     OW22831   1.506   0.503   3.309 -0.1478  0.9023 -0.0346
 3732SOL    HW122832   1.494   0.556   3.387 -4.3940  1.4649 -1.0425
 3732SOL    HW222833   1.491   0.416   3.345 -1.6189  0.3237 -2.0212
 3733SOL     OW22834   2.829   2.156   6.733 -0.1246  0.5076 -0.0476
 3733SOL    HW122835   2.885   2.177   6.659 -0.1091  0.0513 -0.1655
 3733SOL    HW222836   2.770   2.231   6.739 -1.2900 -0.5494  1.7966
 3734SOL     OW22837   0.341   2.835  16.284 -0.0460 -0.1267 -0.4905
 3734SOL    HW122838   0.303   2.922  16.298 -0.7466 -0.4130 -0.5998
 3734SOL    HW222839   0.415   2.854  16.226  0.5625 -0.6312  0.1219
 3735SOL     OW22840   0.970   3.108  17.630 -0.4022  0.6939 -0.2417
 3735SOL    HW122841   0.974   3.052  17.553  0.7726  0.2843  0.1081
 3735SOL    HW222842   0.876   3.118  17.644 -0.4424  1.2829 -0.9715
 3736SOL     OW22843   1.738   1.412   7.333  0.0850 -0.0335  0.3221
 3736SOL    HW122844   1.657   1.405   7.384 -0.3280  0.2239 -0.2988
 3736SOL    HW222845   1.703   1.474   7.269  0.8803  0.1707  0.0916
 3737SOL     OW22846   4.654   1.524   0.930 -0.3070 -0.1445  0.7666
 3737SOL    HW122847   4.656   1.455   0.863 -0.3553 -0.9682  1.6058
 3737SOL    HW222848   0.001   1.568   0.919 -1.2278  1.1109 -1.1058
 3738SOL     OW22849   1.570   1.991  15.580 -0.2407 -0.0440 -0.4547
 3738SOL    HW122850   1.632   2.003  15.653 -0.3006 -1.9999 -0.0963
 3738SOL    HW222851   1.487   2.031  15.605 -0.0074  0.0898  0.1173
 3739SOL     OW22852   2.984   0.099  16.763 -0.2214 -0.0707  0.3299
 3739SOL    HW122853   2.889   0.109  16.755 -0.3127 -0.8703  0.3501
 3739SOL    HW222854   2.992   0.020  16.817  0.0185 -0.3406 -0.1056
 3740SOL     OW22855   3.866   3.625  12.512 -0.2616  0.2765 -0.5529
 3740SOL    HW122856   3.935   3.564  12.537 -0.9288  0.2100  1.0730
 3740SOL    HW222857   3.855   3.602  12.420  1.3910  2.0588 -1.2136
 3741SOL     OW22858   4.261   3.577   9.910  1.1935 -0.0059  0.3775
 3741SOL    HW122859   4.328   3.581   9.842  2.3337 -0.8050  1.4524
 3741SOL    HW222860   4.262   3.669   9.935 -0.4007 -0.6891  2.9144
 3742SOL     OW22861   4.047   1.029  12.543  0.0820 -0.1165 -0.9936
 3742SOL    HW122862   4.130   0.989  12.515  1.2531  1.3063  0.4452
 3742SOL    HW222863   4.036   0.987  12.628 -1.0137  1.2167 -0.4914
 3743SOL     OW22864   3.628   0.747  12.715 -0.2480 -0.1967  0.5074
 3743SOL    HW122865   3.534   0.732  12.703  0.3606 -2.2790 -1.7671
 3743SOL    HW222866   3.637   0.839  12.738  2.0053 -0.2102 -0.2934
 3744SOL     OW22867   2.731   1.529   9.860 -0.1434  0.1972  0.3505
 3744SOL    HW122868   2.659   1.524   9.797 -0.2237 -1.9019  0.5938
 3744SOL    HW222869   2.721   1.623   9.874  3.2880  1.0078 -2.5797
 3745SOL     OW22870   0.446   2.495   3.612  0.0494 -0.0518  0.2558
 3745SOL    HW122871   0.424   2.403   3.599 -0.7080  0.0193  0.9845
 3745SOL    HW222872   0.465   2.511   3.520  1.6070 -1.2052  0.3827
 3746SOL     OW22873   0.118   1.264  13.346  0.1509 -0.4028  0.3594
 3746SOL    HW122874   0.163   1.190  13.304  2.3570 -0.5746  3.0665
 3746SOL    HW222875   0.032   1.225  13.358  0.9052 -1.8478  1.1145
 3747SOL     OW22876   2.388   4.731  14.800 -0.0618  0.1781  0.0905
 3747SOL    HW122877   2.309   0.039  14.829 -0.6562 -0.2469 -0.8521
 3747SOL    HW222878   2.444   0.070  14.791  0.7398 -0.5949 -1.5684
 3748SOL     OW22879   3.736   3.462   0.678 -0.4558 -0.0712  0.2225
 3748SOL    HW122880   3.683   3.501   0.609  0.9512  1.1356 -0.1981
 3748SOL    HW222881   3.666   3.407   0.713  0.4857 -2.1297 -1.1647
 3749SOL     OW22882   2.948   2.618   4.228 -0.5077 -0.6428 -0.4049
 3749SOL    HW122883   2.956   2.611   4.323  0.9864  1.2383 -0.3890
 3749SOL    HW222884   3.009   2.684   4.195 -0.3032 -1.5503 -1.8197
 3750SOL     OW22885   0.549   3.814   4.704  0.6931 -0.1131  0.2400
 3750SOL    HW122886   0.570   3.748   4.770  0.9891  0.1134  0.3700
 3750SOL    HW222887   0.625   3.801   4.647  0.1403  0.1848 -0.5688
 3751SOL     OW22888   2.384   2.804   9.992 -0.1628 -0.4403 -0.0114
 3751SOL    HW122889   2.320   2.841  10.053  1.1404 -0.0991  1.1552
 3751SOL    HW222890   2.416   2.889   9.960 -1.5947 -0.1180 -0.5594
 3752SOL     OW22891   0.426   3.919   3.873 -0.4848  0.5238  0.0376
 3752SOL    HW122892   0.336   3.894   3.894  0.5020 -0.5306  2.9756
 3752SOL    HW222893   0.426   3.884   3.784 -1.2193 -1.2456  0.7426
 3753SOL     OW22894   2.623   1.666   2.943  0.2511  1.0224 -0.2536
 3753SOL    HW122895   2.684   1.616   2.889  0.4775  0.4191  0.5723
 3753SOL    HW222896   2.664   1.680   3.028 -2.2712  0.6750  1.0362
 3754SOL     OW22897   0.429   1.499  10.875 -0.0855  0.5779  0.0101
 3754SOL    HW122898   0.484   1.570  10.906 -0.5355  1.4528 -1.1845
 3754SOL    HW222899   0.350   1.510  10.928  0.2492 -1.1856  0.8706
 3755SOL     OW22900   2.233   3.761   2.432 -0.3876 -0.1582  0.3822
 3755SOL    HW122901   2.254   3.831   2.494 -0.1930 -0.1517  0.3060
 3755SOL    HW222902   2.160   3.798   2.383 -0.3773  0.7166  1.0188
 3756SOL     OW22903   0.418   2.881   4.536  0.0408 -0.5102  0.4618
 3756SOL    HW122904   0.381   2.967   4.554  2.9975  0.9213 -0.3228
 3756SOL    HW222905   0.387   2.832   4.612 -0.0657 -2.0734 -0.5928
 3757SOL     OW22906   3.962   1.561   8.970  0.7299  0.3318  0.1768
 3757SOL    HW122907   4.054   1.535   8.968  0.7275  0.2575  1.3366
 3757SOL    HW222908   3.962   1.607   8.886  0.2688  0.6868  0.3704
 3758SOL     OW22909   3.002   1.683   8.811 -0.6554 -0.1062  0.7108
 3758SOL    HW122910   2.918   1.726   8.802 -0.7189  0.0836  2.2656
 3758SOL    HW222911   3.021   1.656   8.721 -0.8688 -0.1728  0.6865
 3759SOL     OW22912   2.464   3.851   8.730 -0.1629  0.2188  0.1660
 3759SOL    HW122913   2.503   3.773   8.691 -0.3124  0.3384 -0.2176
 3759SOL    HW222914   2.469   3.819   8.820 -1.7066  1.1519  0.5781
 3760SOL     OW22915   1.523   2.645   2.133 -0.1689  0.0683 -0.2342
 3760SOL    HW122916   1.509   2.722   2.188  0.9734 -0.1411  0.3427
 3760SOL    HW222917   1.433   2.646   2.099 -0.0222  1.2379 -0.6048
 3761SOL     OW22918   4.660   0.316   3.796  0.3579 -0.5515 -0.7846
 3761SOL    HW122919   4.621   0.235   3.829  0.0967 -0.5888 -1.1905
 3761SOL    HW222920   4.589   0.330   3.734 -0.5296 -0.3982  0.2854
 3762SOL     OW22921   2.499   3.203   4.010 -0.5718  0.0185  0.0964
 3762SOL    HW122922   2.459   3.279   4.052 -0.8822 -0.5267  0.7926
 3762SOL    HW222923   2.417   3.153   4.002  0.4423 -1.6908  0.3413
 3763SOL     OW22924   0.423   4.256   8.172  0.3333  0.2929  0.4977
 3763SOL    HW122925   0.403   4.211   8.090  0.9870 -0.1379  0.5707
 3763SOL    HW222926   0.355   4.323   8.175  1.4264  1.5104 -1.3922
 3764SOL     OW22927   3.728   1.108   6.001  0.4703  0.2743  0.8376
 3764SOL    HW122928   3.660   1.128   6.066  0.0976  1.2996  0.1470
 3764SOL    HW222929   3.709   1.179   5.938  1.3870 -0.1088  0.1276
 3765SOL     OW22930   2.828   1.028   2.196  0.1268 -0.4659  0.2969
 3765SOL    HW122931   2.773   0.964   2.242  1.4281 -1.4518  0.4658
 3765SOL    HW222932   2.918   0.997   2.206 -0.2830 -2.2431 -1.7037
 3766SOL     OW22933   4.197   0.266   7.187 -0.0030  0.7749 -0.3959
 3766SOL    HW122934   4.283   0.262   7.227  0.6373 -4.1392 -2.2147
 3766SOL    HW222935   4.176   0.174   7.203  2.2144  0.1946 -0.8255
 3767SOL     OW22936   2.028   4.646   8.004  0.0946 -0.0310 -0.5207
 3767SOL    HW122937   2.006   4.690   8.086 -0.4172 -2.5392  0.6611
 3767SOL    HW222938   1.952   4.590   7.988  0.1518 -0.2111 -0.1587
 3768SOL     OW22939   3.056   3.731   8.063 -0.1518  0.2149  0.1281
 3768SOL    HW122940   3.017   3.818   8.064 -0.3900  0.1490 -2.0223
 3768SOL    HW222941   3.077   3.706   8.153  2.1377 -1.2479 -0.8217
 3769SOL     OW22942   1.225   4.382   7.613 -0.3466 -0.3175 -0.7274
 3769SOL    HW122943   1.171   4.412   7.687  0.3443  0.9460 -0.7514
 3769SOL    HW222944   1.301   4.440   7.611 -0.8391  0.3812  0.6279
 3770SOL     OW22945   3.278   2.227  11.330  0.0035 -0.4802 -0.2608
 3770SOL    HW122946   3.348   2.244  11.267 -0.6688  2.3560 -0.2343
 3770SOL    HW222947   3.231   2.157  11.286  0.4951  0.9721 -3.1003
 3771SOL     OW22948   2.417   2.025   3.145  0.1961  0.4323  0.3539
 3771SOL    HW122949   2.440   2.093   3.082 -1.5665 -1.4310 -2.2770
 3771SOL    HW222950   2.503   2.007   3.181 -0.0482  2.3666  1.9404
 3772SOL     OW22951   3.315   2.324   5.562 -0.1199  0.2999  0.6919
 3772SOL    HW122952   3.228   2.335   5.524  0.6653  2.0090 -0.6049
 3772SOL    HW222953   3.314   2.404   5.616 -1.2834  0.7107  0.0503
 3773SOL     OW22954   1.520   0.859   9.520  0.2241 -0.3479 -0.1767
 3773SOL    HW122955   1.567   0.776   9.531 -0.0895 -0.3998  0.7639
 3773SOL    HW222956   1.434   0.831   9.552 -0.1886  0.3249 -0.6943
 3774SOL     OW22957   1.795   3.791   3.189 -0.2752 -0.5010 -0.0813
 3774SOL    HW122958   1.783   3.727   3.119  0.6209 -3.5982  2.5883
 3774SOL    HW222959   1.874   3.832   3.154 -1.1540 -0.5285 -2.1021
 3775SOL     OW22960   4.478   3.152   8.412  0.6967 -0.4484  0.3754
 3775SOL    HW122961   4.420   3.153   8.489 -0.5668  0.6286 -0.5947
 3775SOL    HW222962   4.482   3.064   8.376 -3.8789 -0.5676  0.2169
 3776SOL     OW22963   0.509   1.635   4.943 -0.1109 -0.0555  0.5383
 3776SOL    HW122964   0.517   1.729   4.958 -0.9582  0.1956 -0.6224
 3776SOL    HW222965   0.546   1.599   5.024 -1.3097 -0.2828  0.9861
 3777SOL     OW22966   4.716   4.490  12.417 -0.6581 -0.2770  0.0482
 3777SOL    HW122967   4.710   4.559  12.350  1.8053 -1.8250 -1.7984
 3777SOL    HW222968   0.072   4.468  12.415 -0.5051  0.3048  1.1730
 3778SOL     OW22969   4.347   4.728   9.031 -0.0813  0.9089 -0.9611
 3778SOL    HW122970   4.291   0.020   8.959  0.2944  1.1150 -1.1693
 3778SOL    HW222971   4.428   0.036   9.008  0.5065  0.2435 -0.1801
 3779SOL     OW22972   3.650   1.563   8.571 -0.6769  0.3005  0.0617
 3779SOL    HW122973   3.693   1.648   8.557 -2.6886  1.3719  0.4512
 3779SOL    HW222974   3.656   1.544   8.477 -0.6526  0.5430  0.0134
 3780SOL     OW22975   3.661   4.593   9.141  0.2464 -0.6007  0.5447
 3780SOL    HW122976   3.717   4.520   9.169  1.6775 -0.0368 -0.8367
 3780SOL    HW222977   3.659   4.577   9.046  2.0506  0.2192  0.3591
 3781SOL     OW22978   3.015   2.110   0.856 -0.4282  0.3563 -0.0081
 3781SOL    HW122979   2.965   2.138   0.932 -3.3142 -0.4988 -1.5741
 3781SOL    HW222980   2.952   2.048   0.819 -1.1104  1.5244 -0.8537
 3782SOL     OW22981   2.164   4.046   3.359 -0.1727  0.6900  0.0543
 3782SOL    HW122982   2.205   4.040   3.273  1.7478 -1.9708  1.1356
 3782SOL    HW222983   2.080   4.081   3.329 -1.3668 -0.6534  1.8048
 3783SOL     OW22984   3.293   2.678   4.542 -0.7116 -0.3073 -0.5385
 3783SOL    HW122985   3.347   2.694   4.465  0.4325 -2.7428 -0.2471
 3783SOL    HW222986   3.215   2.730   4.526 -0.3026 -0.1876 -2.0823
 3784SOL     OW22987   3.598   2.409   7.772 -0.5547  0.4121  0.0478
 3784SOL    HW122988   3.653   2.487   7.777  2.1271 -1.4138 -1.5448
 3784SOL    HW222989   3.608   2.363   7.856 -0.0409  0.8643  0.2315
 3785SOL     OW22990   2.538   4.569   6.286 -0.0618  0.2758  0.0147
 3785SOL    HW122991   2.619   4.528   6.317  2.0131  2.9773 -1.8228
 3785SOL    HW222992   2.469   4.522   6.334 -0.3163  1.0592  0.4223
 3786SOL     OW22993   0.694   0.303   8.745 -0.1958  0.0104  0.0804
 3786SOL    HW122994   0.602   0.327   8.750 -0.3938 -0.6152 -0.5357
 3786SOL    HW222995   0.725   0.393   8.741 -0.1935 -0.1279 -3.0202
 3787SOL     OW22996   1.932   1.534   2.866  0.1181 -0.1960 -0.4014
 3787SOL    HW122997   1.995   1.564   2.800  0.8681  0.0610  0.4359
 3787SOL    HW222998   1.933   1.605   2.930  0.2151  0.2166 -0.8574
 3788SOL     OW22999   2.450   0.531   7.181 -0.1848 -0.4593  0.8627
 3788SOL    HW123000   2.503   0.462   7.222  2.9607  0.5415 -1.5708
 3788SOL    HW223001   2.459   0.604   7.243 -0.6027 -0.1259  0.5286
 3789SOL     OW23002   3.535   1.650   1.881 -0.1223 -0.2107 -0.5986
 3789SOL    HW123003   3.525   1.711   1.954 -1.7145  1.9019 -2.5731
 3789SOL    HW223004   3.571   1.574   1.928  1.8437 -0.3047 -2.2443
 3790SOL     OW23005   2.712   2.198  13.841  0.1277  0.3302 -0.3526
 3790SOL    HW123006   2.620   2.225  13.842 -0.3536 -1.3596  0.5161
 3790SOL    HW223007   2.697   2.104  13.834  2.1901 -0.1587  1.8415
 3791SOL     OW23008   0.335   3.212  13.805 -0.1060  0.5993  0.7710
 3791SOL    HW123009   0.330   3.136  13.748 -3.5238  1.3034  0.1610
 3791SOL    HW223010   0.387   3.184  13.881 -1.1303  0.6760  1.4955
 3792SOL     OW23011   0.819   3.153  17.010  0.1944 -0.5191  0.2744
 3792SOL    HW123012   0.897   3.116  17.051  0.6049 -0.5581 -0.5495
 3792SOL    HW223013   0.778   3.175  17.094 -0.1728  0.0685 -0.0606
 3793SOL     OW23014   2.075   3.800   0.036  0.1718  0.5152  0.4022
 3793SOL    HW123015   2.017   3.739   0.081  2.8951 -1.9315  0.5619
 3793SOL    HW223016   2.072   3.878   0.092  3.0252  0.5659  0.4887
 3794SOL     OW23017   0.477   4.625   8.608  0.2307 -0.3624 -0.1796
 3794SOL    HW123018   0.496   4.543   8.654  1.9390 -0.2628 -0.7107
 3794SOL    HW223019   0.445   4.574   8.533 -0.8195  0.1917 -0.1138
 3795SOL     OW23020   2.180   2.138  12.656 -0.3392  0.2128 -0.1479
 3795SOL    HW123021   2.253   2.186  12.695 -0.5106  0.0450  0.3777
 3795SOL    HW223022   2.142   2.194  12.587 -2.2890 -0.4962  0.3428
 3796SOL     OW23023   0.357   2.146   2.426 -0.6450  0.1323 -0.3834
 3796SOL    HW123024   0.281   2.202   2.444 -0.4071  1.1503 -2.4461
 3796SOL    HW223025   0.314   2.063   2.446 -3.2332  1.1857 -1.5728
 3797SOL     OW23026   2.626   2.058   5.850  0.5213 -0.2180  0.0016
 3797SOL    HW123027   2.720   2.059   5.868  0.6648  2.7259 -0.9187
 3797SOL    HW223028   2.617   2.100   5.764 -1.4230  0.5834  0.5824
 3798SOL     OW23029   0.300   2.574   9.420 -0.7853  0.4560 -0.1111
 3798SOL    HW123030   0.263   2.513   9.484  0.0701  0.1791  0.1232
 3798SOL    HW223031   0.302   2.524   9.339  2.4523 -3.0480  2.1121
 3799SOL     OW23032   1.924   4.680  17.009  0.2972  0.2312  0.5936
 3799SOL    HW123033   1.909   4.605  17.067 -0.3359 -0.5762 -0.5996
 3799SOL    HW223034   2.014   4.707  17.029  1.6396 -2.8310 -1.2198
 3800SOL     OW23035   2.189   2.321   7.142 -0.6392  0.2152  0.4750
 3800SOL    HW123036   2.212   2.381   7.072 -0.0518  1.8580  2.0621
 3800SOL    HW223037   2.146   2.375   7.208  0.2306 -0.8926  1.9675
 3801SOL     OW23038   2.189   4.072   7.546 -0.4318  0.1600  0.2106
 3801SOL    HW123039   2.207   4.040   7.458 -0.3693  0.1844  0.2151
 3801SOL    HW223040   2.233   4.002   7.595 -1.0580 -1.1232 -1.0451
 3802SOL     OW23041   1.036   2.476   4.629 -0.2276 -0.0488 -0.4208
 3802SOL    HW123042   0.974   2.408   4.600 -1.4994  0.9565 -0.0706
 3802SOL    HW223043   1.020   2.538   4.559  1.1275 -0.8222 -1.4127
 3803SOL     OW23044   2.052   2.726   5.607  0.4980  0.0111  0.1188
 3803SOL    HW123045   2.109   2.800   5.628  0.3615  0.0443  0.3725
 3803SOL    HW223046   2.080   2.720   5.515  4.1530  0.3826  1.2446
 3804SOL     OW23047   3.458   1.332   8.233  0.2349  0.6662 -0.3804
 3804SOL    HW123048   3.520   1.302   8.300  0.8287 -1.1917 -1.7508
 3804SOL    HW223049   3.426   1.252   8.190 -0.0292 -0.0374  1.1147
 3805SOL     OW23050   2.118   3.866   9.870 -0.3192  0.3192  0.1439
 3805SOL    HW123051   2.114   3.880   9.775  2.6746  2.4898  0.3270
 3805SOL    HW223052   2.156   3.952   9.890 -3.5407  1.4282  1.5224
 3806SOL     OW23053   1.406   4.484  17.386  0.0682 -0.2612 -0.3463
 3806SOL    HW123054   1.443   4.497  17.299  1.3339 -0.9484  0.0803
 3806SOL    HW223055   1.314   4.492  17.364 -0.1083 -2.1735 -0.3376
 3807SOL     OW23056   4.736   4.528   4.960 -0.2183  0.2686 -0.0846
 3807SOL    HW123057   4.705   4.535   5.050  0.4081  1.5937  0.0297
 3807SOL    HW223058   4.666   4.474   4.922  0.3705  0.9834 -2.1883
 3808SOL     OW23059   0.112   3.089   5.380 -0.4628  0.4916 -0.3456
 3808SOL    HW123060   0.123   3.002   5.417  1.8627  1.8320  2.1140
 3808SOL    HW223061   0.202   3.120   5.367 -0.4435  0.5247 -0.1386
 3809SOL     OW23062   2.152   3.176   3.443 -0.0450 -0.5134  0.9739
 3809SOL    HW123063   2.066   3.152   3.478 -0.6884 -0.8898 -0.8378
 3809SOL    HW223064   2.170   3.120   3.367 -3.4599  1.8702 -1.6092
 3810SOL     OW23065   3.331   0.092   6.217  0.7030 -0.2496 -0.5005
 3810SOL    HW123066   3.283   0.163   6.174  0.8364 -0.0028 -0.2371
 3810SOL    HW223067   3.423   0.112   6.201  0.2531  2.4987  0.3671
 3811SOL     OW23068   1.098   2.353   3.651 -0.5353  0.3817 -0.4139
 3811SOL    HW123069   1.109   2.428   3.592  0.1396 -0.9566 -2.0152
 3811SOL    HW223070   1.078   2.401   3.731 -0.2085 -0.1163 -0.0395
 3812SOL     OW23071   4.261   4.676   5.277 -0.7064 -0.4128 -0.0168
 3812SOL    HW123072   4.234   4.587   5.255 -1.9534  0.0571 -0.4223
 3812SOL    HW223073   4.197   4.687   5.347 -0.3611  2.5148 -0.1787
 3813SOL     OW23074   2.320   4.381   2.834 -0.0721  0.5443  0.2313
 3813SOL    HW123075   2.358   4.438   2.901 -0.4467 -1.9059  2.5165
 3813SOL    HW223076   2.395   4.349   2.784  0.8384  0.4856  1.6282
 3814SOL     OW23077   0.930   1.613   4.008  0.1227  0.8858  0.0838
 3814SOL    HW123078   0.870   1.677   3.969  1.2025  1.3755 -0.8071
 3814SOL    HW223079   1.010   1.617   3.955 -1.8266  0.5295 -2.8425
 3815SOL     OW23080   0.785   2.640   8.118 -0.0299 -0.4998  1.1254
 3815SOL    HW123081   0.850   2.606   8.179 -0.1477 -3.9307 -0.6460
 3815SOL    HW223082   0.786   2.736   8.113  0.2887 -0.5115  0.9736
 3816SOL     OW23083   2.296   0.798   8.985  0.2210  0.2001  0.2307
 3816SOL    HW123084   2.227   0.732   8.989  0.0735  0.5373  2.9379
 3816SOL    HW223085   2.376   0.747   8.991  0.0218 -0.3516 -1.7297
 3817SOL     OW23086   1.269   0.518   2.440 -0.3037 -0.0552 -0.1477
 3817SOL    HW123087   1.318   0.454   2.492 -0.6453 -0.8362 -0.8022
 3817SOL    HW223088   1.286   0.490   2.350  1.4523  1.8828 -0.4300
 3818SOL     OW23089   1.051   1.164   3.278 -0.6078 -0.2190 -0.6750
 3818SOL    HW123090   1.069   1.108   3.202 -1.5214 -0.5522 -0.6495
 3818SOL    HW223091   0.958   1.143   3.274 -1.1839  2.3064 -0.8790
 3819SOL     OW23092   1.103   0.537   8.695 -0.0320  0.6900  0.1973
 3819SOL    HW123093   1.122   0.445   8.714  0.4140  0.2172 -2.6466
 3819SOL    HW223094   1.169   0.579   8.749 -0.9626  2.6338 -0.1716
 3820SOL     OW23095   3.555   4.449   3.139 -0.6639  0.3674 -0.4561
 3820SOL    HW123096   3.634   4.402   3.113 -1.1837  0.7456 -2.6859
 3820SOL    HW223097   3.483   4.397   3.103 -0.6034 -1.1922  1.6939
 3821SOL     OW23098   2.286   1.174  13.362  0.1864  0.2273  0.1758
 3821SOL    HW123099   2.317   1.084  13.364  0.1256  0.1834 -1.0028
 3821SOL    HW223100   2.291   1.195  13.455  1.6821 -0.2842  0.2091
 3822SOL     OW23101   0.553   3.519   4.389  0.3854  0.2879  0.0972
 3822SOL    HW123102   0.475   3.491   4.341  0.6295  0.4597 -0.3978
 3822SOL    HW223103   0.585   3.585   4.327 -0.3084  0.5641  0.0325
 3823SOL     OW23104   3.341   2.832   1.376 -0.0668  0.2928 -0.2890
 3823SOL    HW123105   3.415   2.893   1.370  1.5102 -1.4903  0.7235
 3823SOL    HW223106   3.301   2.871   1.454  0.7666 -0.4956  0.5274
 3824SOL     OW23107   0.123   0.782   9.115  0.3115  0.5132  0.1895
 3824SOL    HW123108   0.109   0.737   9.198 -3.7211  0.3138 -0.5987
 3824SOL    HW223109   0.081   0.867   9.115 -2.5327 -0.8949 -0.3272
 3825SOL     OW23110   2.625   3.145   6.826  0.1957  0.4022  0.3885
 3825SOL    HW123111   2.718   3.125   6.836  0.3290  1.4627  1.2879
 3825SOL    HW223112   2.628   3.221   6.769 -0.7618 -1.7491 -2.4959
 3826SOL     OW23113   1.940   4.507  17.278  0.1286  0.5960 -0.1553
 3826SOL    HW123114   1.868   4.557  17.318  0.4474 -0.4885  1.7764
 3826SOL    HW223115   2.018   4.547  17.317  0.6204 -0.7927  0.2877
 3827SOL     OW23116   3.453   4.381  12.318 -0.1485 -0.0122  0.3597
 3827SOL    HW123117   3.467   4.389  12.224  0.5537  1.4651  0.6029
 3827SOL    HW223118   3.494   4.295  12.328 -1.3046 -0.6039  0.0271
 3828SOL     OW23119   2.436   1.952   5.478  0.3765 -0.2108 -0.3965
 3828SOL    HW123120   2.346   1.968   5.450  0.3639 -2.5958 -1.7279
 3828SOL    HW223121   2.428   1.901   5.559  1.1715  0.4175  0.0694
 3829SOL     OW23122   3.299   4.296  16.220  0.1257 -0.0271 -0.1329
 3829SOL    HW123123   3.341   4.381  16.206 -2.3413  1.4779  1.4386
 3829SOL    HW223124   3.220   4.323  16.173  0.2516  0.9224  0.1948
 3830SOL     OW23125   3.112   1.294   9.578 -0.1421  0.4797  0.0625
 3830SOL    HW123126   3.191   1.288   9.632  0.4980  0.0622 -0.9071
 3830SOL    HW223127   3.070   1.354   9.639 -1.0597 -1.1964  1.0377
 3831SOL     OW23128   2.650   4.358  17.410  0.0412 -0.0349 -0.3384
 3831SOL    HW123129   2.713   4.368  17.338  0.0876  0.3300 -0.2501
 3831SOL    HW223130   2.631   4.265  17.405  3.6131 -0.6208 -3.4017
 3832SOL     OW23131   0.180   0.826   5.068 -0.7146 -0.0561  0.0045
 3832SOL    HW123132   0.200   0.733   5.081  0.7489  0.4156  1.1412
 3832SOL    HW223133   0.270   0.858   5.073 -0.7961 -0.0821  1.6404
 3833SOL     OW23134   3.886   0.412  12.795  0.7203 -0.7774  0.2111
 3833SOL    HW123135   3.884   0.418  12.699 -0.1220  1.7856  0.3889
 3833SOL    HW223136   3.854   0.322  12.795 -1.5327  0.0253 -1.4674
 3834SOL     OW23137   2.972   1.219   5.421 -0.4586  0.1235  0.1950
 3834SOL    HW123138   2.968   1.126   5.443 -4.2582  0.2330 -0.0672
 3834SOL    HW223139   2.984   1.251   5.511  1.2892  1.4161 -0.4991
 3835SOL     OW23140   3.155   2.490   7.301  0.1256  0.1949 -0.0012
 3835SOL    HW123141   3.085   2.427   7.315 -0.4581  0.3967 -2.1371
 3835SOL    HW223142   3.115   2.561   7.251 -1.7551 -1.2423 -0.5431
 3836SOL     OW23143   0.894   3.146   7.231  0.1390  0.1571  0.0344
 3836SOL    HW123144   0.962   3.197   7.275  0.5606 -1.1526  0.9235
 3836SOL    HW223145   0.929   3.057   7.238 -0.9153 -0.4139 -2.0890
 3837SOL     OW23146   4.493   0.508   5.995  0.3703  0.0578 -0.0829
 3837SOL    HW123147   4.431   0.497   6.067 -0.2822  1.5703 -0.4109
 3837SOL    HW223148   4.468   0.594   5.962  1.1534  1.1919  2.3593
 3838SOL     OW23149   3.674   1.876   6.034  0.5294  0.4651  0.6000
 3838SOL    HW123150   3.693   1.911   6.121 -0.6099  1.5712  0.4085
 3838SOL    HW223151   3.623   1.947   5.994 -0.4579 -1.1978 -1.0696
 3839SOL     OW23152   0.900   0.552   9.046  0.2283 -0.5579 -0.0289
 3839SOL    HW123153   0.888   0.628   9.103  2.9370 -0.5276  0.4972
 3839SOL    HW223154   0.988   0.554   9.009 -0.4150  1.0130 -1.4367
 3840SOL     OW23155   2.426   2.406   2.997  0.4217 -0.2467  0.3178
 3840SOL    HW123156   2.366   2.339   2.966  0.1417 -0.4595  1.3425
 3840SOL    HW223157   2.359   2.469   3.024  2.6254  1.5470  1.5893
 3841SOL     OW23158   0.037   1.582   8.276  0.5486 -0.4183 -0.8033
 3841SOL    HW123159   0.132   1.590   8.262  0.9184 -1.4088  1.0660
 3841SOL    HW223160   0.012   1.490   8.285 -2.2131  0.6727  2.6133
 3842SOL     OW23161   2.406   1.899   2.381  0.0325 -0.1425 -0.2466
 3842SOL    HW123162   2.356   1.934   2.307 -0.4575  2.1619  1.1697
 3842SOL    HW223163   2.438   1.979   2.423 -1.0445 -0.2750  0.8211
 3843SOL     OW23164   4.407   1.476   7.773  0.4332  0.2318  0.3607
 3843SOL    HW123165   4.445   1.564   7.778 -1.2157  1.0596 -1.1565
 3843SOL    HW223166   4.391   1.452   7.864  2.0828 -1.2093  0.2472
 3844SOL     OW23167   2.192   3.306  15.766 -0.0850 -0.9459 -0.0546
 3844SOL    HW123168   2.196   3.313  15.670  0.0185 -0.6524 -0.0298
 3844SOL    HW223169   2.283   3.316  15.794 -0.2719  2.6723 -0.6903
 3845SOL     OW23170   2.568   0.187  15.180 -0.1936  0.2311  0.3582
 3845SOL    HW123171   2.489   0.151  15.139 -0.5413 -0.2545  1.4448
 3845SOL    HW223172   2.526   0.261  15.223  0.6124  1.3511 -0.7917
 3846SOL     OW23173   2.224   2.284   8.527  0.0501  0.4302 -0.0612
 3846SOL    HW123174   2.267   2.359   8.485 -1.5602  2.2997  1.5956
 3846SOL    HW223175   2.148   2.261   8.474 -1.0740  1.0442  1.2830
 3847SOL     OW23176   1.146   1.962   5.973  0.3331  0.1789  0.7928
 3847SOL    HW123177   1.213   2.023   5.942  0.9481  0.0973  1.9518
 3847SOL    HW223178   1.100   1.935   5.894  0.4533  0.0917  0.7531
 3848SOL     OW23179   4.361   0.869   9.810 -0.0345  0.1978  0.0133
 3848SOL    HW123180   4.268   0.893   9.810 -0.0330  0.1967 -0.4353
 3848SOL    HW223181   4.378   0.846   9.902  1.9835 -0.8315 -0.6318
 3849SOL     OW23182   4.167   0.122   0.705 -0.5531 -0.3597  0.1648
 3849SOL    HW123183   4.183   0.193   0.643 -3.0123 -2.0221 -2.3872
 3849SOL    HW223184   4.240   0.142   0.764  0.2655 -1.5816 -0.4184
 3850SOL     OW23185   2.738   1.229   8.619  0.2895 -0.2385  0.1852
 3850SOL    HW123186   2.814   1.191   8.575  0.2749 -0.3151  0.2259
 3850SOL    HW223187   2.671   1.163   8.604 -1.1520  1.4812 -0.9464
 3851SOL     OW23188   1.816   4.046   0.052 -0.0136  0.0529  0.3643
 3851SOL    HW123189   1.856   4.047  17.713 -1.7064  2.2006 -0.3784
 3851SOL    HW223190   1.894   4.020   0.101 -0.6090  0.0410  1.3109
 3852SOL     OW23191   3.293   2.521   6.852  0.1696 -0.5282 -0.2397
 3852SOL    HW123192   3.335   2.450   6.804  1.7877  1.4473 -1.7305
 3852SOL    HW223193   3.266   2.494   6.940  0.9454 -0.3580  0.0514
 3853SOL     OW23194   4.048   0.913   5.029 -0.4087  0.7407  0.1076
 3853SOL    HW123195   4.134   0.945   5.055 -0.5345  1.1038  0.0857
 3853SOL    HW223196   4.034   0.855   5.104 -3.2240  1.0441 -0.1857
 3854SOL     OW23197   0.244   2.099   4.101 -0.0133  0.2391  0.5874
 3854SOL    HW123198   0.216   2.189   4.119  1.7307  0.8950  0.0272
 3854SOL    HW223199   0.205   2.041   4.166 -1.0038  1.2783  0.9102
 3855SOL     OW23200   0.834   1.176   8.443 -0.0435 -0.0587 -0.6298
 3855SOL    HW123201   0.826   1.081   8.444  2.9955 -0.3366 -2.1358
 3855SOL    HW223202   0.922   1.204   8.418  0.1783  1.0655  1.3554
 3856SOL     OW23203   1.089   3.612   4.151 -0.4118  0.4627 -0.2493
 3856SOL    HW123204   1.160   3.598   4.213  0.2875  1.8450 -0.7449
 3856SOL    HW223205   1.114   3.695   4.109  1.3525  0.2370  0.3787
 3857SOL     OW23206   2.807   1.421   5.945  0.5777 -0.0923  0.1937
 3857SOL    HW123207   2.777   1.382   6.027  1.0889  2.7986  1.7427
 3857SOL    HW223208   2.849   1.500   5.979  2.2742 -1.0490  0.2899
 3858SOL     OW23209   1.563   4.520   3.131  0.0494  0.1686 -0.4363
 3858SOL    HW123210   1.636   4.565   3.089 -0.7863  1.8469 -0.0831
 3858SOL    HW223211   1.524   4.588   3.186 -1.1317  0.8321 -2.0968
 3859SOL     OW23212   3.086   0.637   0.441  0.1324  0.0471  0.3583
 3859SOL    HW123213   3.053   0.726   0.450 -0.7320 -0.4030  1.6042
 3859SOL    HW223214   3.067   0.625   0.348  0.5604 -0.8113  0.3760
 3860SOL     OW23215   1.406   0.656  11.369 -0.2993 -0.4800  0.4925
 3860SOL    HW123216   1.454   0.681  11.448  1.1117 -1.6672  0.0242
 3860SOL    HW223217   1.327   0.626  11.414  0.1774 -2.0930  0.2736
 3861SOL     OW23218   3.207   2.866   0.586  0.0898  0.6321  0.3221
 3861SOL    HW123219   3.194   2.912   0.503  1.0225 -1.4045 -0.9333
 3861SOL    HW223220   3.117   2.860   0.618 -0.5096  0.0366 -1.4561
 3862SOL     OW23221   2.263   2.754   4.491  0.3882 -0.0163  0.1745
 3862SOL    HW123222   2.265   2.709   4.575 -2.1110 -1.1924 -0.3829
 3862SOL    HW223223   2.283   2.844   4.516  1.0930  0.3834 -1.7783
 3863SOL     OW23224   0.631   0.524   7.165  0.0495  0.2109  0.6191
 3863SOL    HW123225   0.704   0.584   7.148  1.3817 -1.5971 -0.0114
 3863SOL    HW223226   0.561   0.588   7.180  0.3252  0.5838  0.3309
 3864SOL     OW23227   4.240   0.536   6.565 -0.0752 -0.2100  0.3810
 3864SOL    HW123228   4.185   0.590   6.621  0.3324 -0.0803  0.6546
 3864SOL    HW223229   4.289   0.484   6.628  1.9953 -0.0382 -1.1023
 3865SOL     OW23230   3.067   0.800   9.222 -0.2268  0.3474  0.3433
 3865SOL    HW123231   2.979   0.786   9.188 -0.7779 -4.4338  3.7065
 3865SOL    HW223232   3.105   0.713   9.207 -1.8700  0.0530 -2.0472
 3866SOL     OW23233   0.783   3.103   4.028 -0.3411  0.4676  0.0293
 3866SOL    HW123234   0.731   3.065   3.957 -1.3211 -0.2353  1.1386
 3866SOL    HW223235   0.796   3.189   3.989 -2.9133  1.4888  1.4517
 3867SOL     OW23236   2.506   0.242  14.729 -0.0918  0.4958  0.1237
 3867SOL    HW123237   2.435   0.233  14.666 -0.2639  1.0086  0.2413
 3867SOL    HW223238   2.585   0.213  14.683  0.7483  4.0150 -0.6460
 3868SOL     OW23239   4.142   4.584  17.038 -0.0192  0.4565 -0.2458
 3868SOL    HW123240   4.148   4.573  16.943  0.0050  1.8725 -0.4185
 3868SOL    HW223241   4.216   4.532  17.069 -0.1226 -1.2107 -2.8378
 3869SOL     OW23242   2.088   2.911   9.221 -0.2667  0.4187  0.5274
 3869SOL    HW123243   2.050   2.829   9.253 -1.5323  1.1947  1.0456
 3869SOL    HW223244   2.119   2.886   9.134 -1.6312 -1.1599  0.4814
 3870SOL     OW23245   2.201   0.653  13.412 -0.2052  0.1201  0.5789
 3870SOL    HW123246   2.189   0.585  13.478 -1.0467  0.0638  0.3653
 3870SOL    HW223247   2.296   0.669  13.417  0.1505 -1.5742 -0.8327
 3871SOL     OW23248   4.489   3.325   4.389 -0.4984 -0.2190 -0.0183
 3871SOL    HW123249   4.466   3.308   4.297 -2.7380 -2.7250  1.0157
 3871SOL    HW223250   4.557   3.262   4.410 -0.8517 -0.2897  0.9289
 3872SOL     OW23251   1.038   2.113   6.612 -0.1624  0.3604 -0.3869
 3872SOL    HW123252   1.105   2.180   6.603  0.1487  0.2145  0.8630
 3872SOL    HW223253   1.022   2.093   6.520  0.5601  1.0404 -0.6583
 3873SOL     OW23254   1.834   1.517   7.860 -0.2414 -0.6191  0.7606
 3873SOL    HW123255   1.744   1.509   7.827  0.3236  1.0416 -1.1712
 3873SOL    HW223256   1.891   1.494   7.787  0.9672  2.4706  0.7644
 3874SOL     OW23257   2.444   0.597  16.258 -0.2664 -0.5749 -0.7020
 3874SOL    HW123258   2.400   0.577  16.340 -0.5008 -1.7108 -1.0927
 3874SOL    HW223259   2.441   0.692  16.246 -1.0571 -0.6630 -1.2264
 3875SOL     OW23260   0.011   1.709   2.861 -0.0531 -0.1002 -0.0873
 3875SOL    HW123261   4.718   1.794   2.894  2.4074  0.8168 -0.2398
 3875SOL    HW223262   0.021   1.655   2.939  0.7163  0.5065  0.2299
 3876SOL     OW23263   0.292   3.610   2.028 -0.2242 -0.3749 -0.3612
 3876SOL    HW123264   0.268   3.532   2.078  0.2826  0.6499  1.4792
 3876SOL    HW223265   0.295   3.679   2.095 -1.3791  1.2592 -1.9833
 3877SOL     OW23266   0.285   4.160  16.672  0.4754 -0.0821 -0.6716
 3877SOL    HW123267   0.347   4.098  16.708 -1.3206 -1.2269  0.4674
 3877SOL    HW223268   0.209   4.151  16.730  0.3944  0.5632 -0.6733
 3878SOL     OW23269   3.878   4.166  16.376 -0.8815  0.4425 -0.0324
 3878SOL    HW123270   3.968   4.190  16.398 -1.3678 -0.0113  2.4561
 3878SOL    HW223271   3.830   4.239  16.416 -1.0766  0.3931 -0.1781
 3879SOL     OW23272   3.965   1.114   0.941 -0.1787  0.0650 -0.2436
 3879SOL    HW123273   3.927   1.129   0.854 -0.6101 -1.0643 -0.2440
 3879SOL    HW223274   4.016   1.036   0.918 -2.5181 -1.7601  0.7984
 3880SOL     OW23275   4.407   2.240   0.821  0.0907 -0.2573  0.4342
 3880SOL    HW123276   4.365   2.155   0.836 -1.9768  0.8672  0.8945
 3880SOL    HW223277   4.423   2.257   0.728  2.2823  2.3938  1.2851
 3881SOL     OW23278   1.094   1.581   6.375  0.2583 -0.0507  0.0997
 3881SOL    HW123279   1.168   1.635   6.404 -0.2390  0.9036 -0.4032
 3881SOL    HW223280   1.050   1.655   6.334  3.3889  0.3596 -2.5106
 3882SOL     OW23281   2.149   4.714   6.534 -0.2424 -0.4069 -0.7258
 3882SOL    HW123282   2.224   4.686   6.481  0.7065  1.7449 -0.5573
 3882SOL    HW223283   2.206   4.729   6.609 -0.1680  1.9414 -1.2369
 3883SOL     OW23284   3.439   0.167  16.640  0.1495 -0.0330  0.0083
 3883SOL    HW123285   3.349   0.146  16.614 -0.0271  1.3486 -0.5118
 3883SOL    HW223286   3.485   0.135  16.563 -3.0242 -3.0969 -0.5956
 3884SOL     OW23287   0.872   0.615  16.030  0.0605  0.0742  0.1307
 3884SOL    HW123288   0.929   0.614  15.952 -1.9644  1.3739 -1.3549
 3884SOL    HW223289   0.892   0.526  16.061  0.5959 -0.0766 -0.6401
 3885SOL     OW23290   0.420   0.617   9.236  0.5642 -0.4805 -0.7610
 3885SOL    HW123291   0.360   0.546   9.211  1.7038 -1.2393 -1.3232
 3885SOL    HW223292   0.485   0.614   9.166 -0.2659  0.4779 -1.5744
 3886SOL     OW23293   1.653   2.864   1.950  0.3641 -0.1939 -0.6409
 3886SOL    HW123294   1.669   2.950   1.912 -2.3661 -0.1948 -1.7713
 3886SOL    HW223295   1.618   2.891   2.035 -1.0811 -1.4854 -0.8125
 3887SOL     OW23296   3.099   1.790   9.372 -0.2820  0.2784 -0.5046
 3887SOL    HW123297   3.168   1.856   9.382 -1.0681  1.4071 -2.3990
 3887SOL    HW223298   3.013   1.830   9.364  0.2840  1.5019 -0.5578
 3888SOL     OW23299   1.110   1.809   9.545  0.3542  0.2960  0.4131
 3888SOL    HW123300   1.205   1.818   9.541  0.2460  0.5623 -1.6595
 3888SOL    HW223301   1.098   1.728   9.595  1.5888  0.3842  0.8559
 3889SOL     OW23302   3.599   3.619  15.139  0.3947  0.2092  0.1267
 3889SOL    HW123303   3.609   3.712  15.161 -1.5426  0.4701 -0.0365
 3889SOL    HW223304   3.545   3.622  15.060  0.0687  1.8207  0.3896
 3890SOL     OW23305   1.828   4.536   3.941  0.2869 -0.3201  0.4221
 3890SOL    HW123306   1.861   4.558   3.854 -0.1651  2.4936  0.9459
 3890SOL    HW223307   1.879   4.598   3.994  2.1874  0.3556 -2.2487
 3891SOL     OW23308   3.452   1.793   1.679 -0.4916  0.6789 -0.4085
 3891SOL    HW123309   3.543   1.823   1.673  0.1720 -1.0282  1.0801
 3891SOL    HW223310   3.472   1.728   1.747 -1.0110 -1.4830 -2.3297
 3892SOL     OW23311   1.966   2.676   9.326  0.1814  0.1818  0.3932
 3892SOL    HW123312   2.024   2.608   9.293  0.5443  1.0865 -0.8126
 3892SOL    HW223313   1.958   2.652   9.418  0.6113 -0.4076  0.2739
 3893SOL     OW23314   2.422   0.121   5.932 -0.1942  0.0027  0.0045
 3893SOL    HW123315   2.476   0.148   5.858 -0.3731 -0.4620 -0.2916
 3893SOL    HW223316   2.395   0.210   5.955 -0.5667 -0.0444 -0.2624
 3894SOL     OW23317   0.627   0.613   3.846 -0.0092 -0.3566  0.2573
 3894SOL    HW123318   0.672   0.543   3.800 -0.8638 -2.2535  2.3520
 3894SOL    HW223319   0.563   0.562   3.897  1.1563 -0.0747  1.9885
 3895SOL     OW23320   1.829   1.970   7.073 -0.0288  0.6459 -0.2727
 3895SOL    HW123321   1.837   2.039   7.138 -0.7653  0.9650 -0.5140
 3895SOL    HW223322   1.760   2.008   7.018 -1.7871 -0.4486  1.1639
 3896SOL     OW23323   2.280   3.911   8.151  0.6523 -0.2386  0.0621
 3896SOL    HW123324   2.202   3.938   8.104  0.0122  0.0426  1.2961
 3896SOL    HW223325   2.260   3.953   8.235  0.9140  1.8943 -0.9457
 3897SOL     OW23326   1.369   1.428   1.424  0.1906 -0.1294 -0.5153
 3897SOL    HW123327   1.412   1.373   1.359  2.8603  0.9409  0.2917
 3897SOL    HW223328   1.287   1.439   1.376 -0.6041 -0.8018  0.6899
 3898SOL     OW23329   2.400   3.651  10.216 -0.0020 -0.6111  0.6997
 3898SOL    HW123330   2.309   3.648  10.186 -0.1491 -1.6493  1.2708
 3898SOL    HW223331   2.404   3.698  10.299 -2.4200  0.1898  0.3474
 3899SOL     OW23332   0.267   1.549   2.943 -0.6023 -0.3217  0.1834
 3899SOL    HW123333   0.306   1.490   3.007  0.4290 -2.1540 -2.1110
 3899SOL    HW223334   0.213   1.605   2.999  0.0767  0.5066  0.0059
 3900SOL     OW23335   4.666   1.176   8.659 -0.3655  0.2059  0.2425
 3900SOL    HW123336   4.665   1.145   8.569 -0.3326 -1.3399  0.7694
 3900SOL    HW223337   4.576   1.177   8.691  0.4216 -1.2716  2.5185
 3901SOL     OW23338   2.147   1.843  14.697 -0.4311  0.3381 -0.5346
 3901SOL    HW123339   2.076   1.887  14.651 -1.2444  0.7693  1.1158
 3901SOL    HW223340   2.205   1.816  14.626  0.5321 -3.2780  1.6052
 3902SOL     OW23341   1.503   2.338   2.135 -0.4081  0.2905 -0.1096
 3902SOL    HW123342   1.589   2.337   2.092  0.1964 -0.8503  1.1151
 3902SOL    HW223343   1.500   2.428   2.165  0.0699  0.6670 -1.1757
 3903SOL     OW23344   0.001   2.742   4.362  0.2945 -0.7410 -0.4619
 3903SOL    HW123345   0.078   2.693   4.336  0.4925 -1.6067  1.7772
 3903SOL    HW223346   0.011   2.717   4.454 -0.6731  0.6613  0.0493
 3904SOL     OW23347   0.534   0.750   9.420  0.3922  0.1479 -0.7765
 3904SOL    HW123348   0.470   0.741   9.491  0.7529  0.1349 -0.4530
 3904SOL    HW223349   0.491   0.696   9.354  2.8717 -0.6402 -1.7589
 3905SOL     OW23350   4.303   1.103   8.249 -0.1059 -0.2991  0.4307
 3905SOL    HW123351   4.311   1.012   8.222  0.1379  0.4780 -2.1348
 3905SOL    HW223352   4.268   1.091   8.338  1.7164 -1.1180  1.0317
 3906SOL     OW23353   4.086   0.204   5.438  0.2539  0.1965 -0.0002
 3906SOL    HW123354   4.098   0.144   5.364 -0.6345  1.2127 -0.9714
 3906SOL    HW223355   4.026   0.267   5.398 -2.6102 -0.6462  2.9070
 3907SOL     OW23356   0.960   0.809   3.343 -0.0761  0.1969 -0.5740
 3907SOL    HW123357   1.043   0.761   3.341  0.9292  1.9564 -1.7154
 3907SOL    HW223358   0.943   0.805   3.248  0.0846  1.2986 -0.6543
 3908SOL     OW23359   0.165   2.702   9.214  0.2641 -0.2275  0.2270
 3908SOL    HW123360   0.196   2.769   9.154 -1.4304 -0.8996 -1.3846
 3908SOL    HW223361   0.215   2.737   9.288  2.5081 -0.8407 -1.0243
 3909SOL     OW23362   2.287   1.082   8.153  0.4050 -0.2886 -0.0134
 3909SOL    HW123363   2.220   1.105   8.216 -0.4934 -2.7831 -0.0933
 3909SOL    HW223364   2.265   1.162   8.104  2.2019  0.0570 -0.2644
 3910SOL     OW23365   2.503   3.178   5.642  0.0744  0.0949 -0.1057
 3910SOL    HW123366   2.445   3.186   5.566 -1.2919  1.8415  1.1392
 3910SOL    HW223367   2.551   3.261   5.645 -0.2712  0.2994 -0.2403
 3911SOL     OW23368   4.580   2.650  10.588  0.2776 -0.0176 -0.1457
 3911SOL    HW123369   4.492   2.667  10.622  0.1335 -1.6613  0.3017
 3911SOL    HW223370   4.595   2.729  10.536  0.2069  0.0259 -0.1003
 3912SOL     OW23371   3.160   1.298   6.694  0.2838  0.1913 -0.3100
 3912SOL    HW123372   3.191   1.324   6.781 -1.2977  0.4554  0.1773
 3912SOL    HW223373   3.068   1.284   6.716  0.4698  0.6565  0.7973
 3913SOL     OW23374   2.967   0.687   7.216 -0.1629  0.2999 -0.2290
 3913SOL    HW123375   2.942   0.597   7.237  2.2541 -0.8604 -2.4444
 3913SOL    HW223376   2.897   0.713   7.155 -1.4920  0.3823  1.3338
 3914SOL     OW23377   1.969   4.622   0.577  0.2712  0.1516 -0.1550
 3914SOL    HW123378   1.991   4.552   0.639  0.5158 -0.2895 -0.7326
 3914SOL    HW223379   1.931   4.688   0.634  0.4509  1.0868 -1.1296
 3915SOL     OW23380   3.280   1.390   6.930  0.6610  0.1086 -0.2088
 3915SOL    HW123381   3.187   1.413   6.935  1.1437  1.6033  2.0533
 3915SOL    HW223382   3.285   1.367   7.023 -1.5636 -0.5138 -0.2301
 3916SOL     OW23383   1.616   3.115  16.613  0.9495  0.2613 -0.0996
 3916SOL    HW123384   1.608   3.185  16.678 -0.0971 -0.3975  0.4844
 3916SOL    HW223385   1.607   3.036  16.666  0.1405  1.7103  1.9204
 3917SOL     OW23386   2.160   1.284   8.012 -0.0312  0.2922  0.1117
 3917SOL    HW123387   2.104   1.207   8.003  0.2802  0.1077 -0.2280
 3917SOL    HW223388   2.162   1.295   7.917  0.3948  0.1164  0.0987
 3918SOL     OW23389   3.694   1.264   7.367  0.6220  0.0506 -0.1883
 3918SOL    HW123390   3.752   1.224   7.432  0.8684  0.3029 -0.2503
 3918SOL    HW223391   3.623   1.304   7.417 -0.5901 -0.5553 -1.4180
 3919SOL     OW23392   4.232   2.878  14.751  0.0356  0.7774 -0.0059
 3919SOL    HW123393   4.319   2.848  14.724 -0.2510 -0.5697  0.6078
 3919SOL    HW223394   4.201   2.910  14.667  1.4497  2.5094  0.1077
 3920SOL     OW23395   2.362   2.367  13.635 -0.0427  0.3765 -0.1605
 3920SOL    HW123396   2.430   2.414  13.682 -1.9265  2.7353  0.1704
 3920SOL    HW223397   2.382   2.278  13.667 -0.6638  0.2642 -0.0967
 3921SOL     OW23398   3.057   4.439   0.491 -0.0702 -0.1623  0.3642
 3921SOL    HW123399   3.104   4.483   0.420  0.0917 -1.0365 -0.0735
 3921SOL    HW223400   3.064   4.504   0.561  1.0797 -3.2925  3.1550
 3922SOL     OW23401   2.693   0.205  12.569  0.3958 -0.0185  0.0261
 3922SOL    HW123402   2.711   0.122  12.612 -1.4877 -0.8403 -0.7548
 3922SOL    HW223403   2.636   0.186  12.494  0.9988  1.3201 -0.7654
 3923SOL     OW23404   1.916   1.068   4.103 -0.7554 -0.4680 -0.2143
 3923SOL    HW123405   1.880   1.088   4.016  1.0519  0.0421 -0.8588
 3923SOL    HW223406   1.925   1.157   4.136 -0.3312 -0.5244 -0.1767
 3924SOL     OW23407   1.578   4.501   3.454 -0.1256  0.2518  0.6444
 3924SOL    HW123408   1.506   4.490   3.516 -1.4192  1.6109 -0.6239
 3924SOL    HW223409   1.557   4.587   3.417  1.7042  1.0265  1.4056
 3925SOL     OW23410   0.247   4.184   3.039 -0.2817  0.1355  0.5332
 3925SOL    HW123411   0.300   4.211   3.114 -0.2992  0.3955  0.4526
 3925SOL    HW223412   0.220   4.263   2.992  1.6040 -0.2012 -1.1085
 3926SOL     OW23413   3.575   4.617   6.753 -0.1622  0.1613 -0.3004
 3926SOL    HW123414   3.545   4.600   6.842  2.1610  0.7135  0.6045
 3926SOL    HW223415   3.665   4.645   6.771 -0.5138  1.8004 -1.0582
 3927SOL     OW23416   0.711   3.800  12.310 -0.1744  0.1796 -0.0248
 3927SOL    HW123417   0.805   3.805  12.327 -0.1625  1.5187 -0.4679
 3927SOL    HW223418   0.689   3.787  12.403  1.1166 -2.1915 -0.0624
 3928SOL     OW23419   0.213   4.603   8.986  0.0777 -0.4183 -0.1231
 3928SOL    HW123420   0.283   4.646   9.034  0.9269  0.0272 -1.7486
 3928SOL    HW223421   0.153   4.673   8.961 -1.5449 -0.4441  3.7267
 3929SOL     OW23422   1.255   3.192   9.675  0.2865  0.0262 -0.0480
 3929SOL    HW123423   1.316   3.198   9.601  0.6349 -2.8398  0.0225
 3929SOL    HW223424   1.182   3.234   9.630 -0.2819 -0.0930  0.7775
 3930SOL     OW23425   3.345   1.100  12.974  0.1529 -0.0593  0.0012
 3930SOL    HW123426   3.426   1.088  13.023  0.5129  1.2152 -0.2591
 3930SOL    HW223427   3.318   1.190  12.991  3.0057  0.8006  0.0905
 3931SOL     OW23428   1.738   3.202  14.400 -0.1179  0.1178  0.6356
 3931SOL    HW123429   1.798   3.273  14.423 -0.7004  1.0090 -0.6137
 3931SOL    HW223430   1.670   3.248  14.352 -1.2500 -1.1579  1.0093
 3932SOL     OW23431   4.669   3.363   8.366 -0.3989  0.2025  0.4433
 3932SOL    HW123432   4.607   3.295   8.391  0.5140 -0.6427  0.3707
 3932SOL    HW223433   4.695   3.332   8.279 -0.5096 -4.3554  2.0489
 3933SOL     OW23434   2.615   3.521   6.769  0.2381 -0.3357  0.7023
 3933SOL    HW123435   2.611   3.616   6.779  1.0073 -0.6969  4.2896
 3933SOL    HW223436   2.524   3.492   6.778  0.5285 -0.2787  3.9186
 3934SOL     OW23437   3.112   1.429   8.602  0.2676  0.4620 -0.4072
 3934SOL    HW123438   3.110   1.394   8.691 -0.3717 -0.9498 -0.9833
 3934SOL    HW223439   3.203   1.458   8.597  0.5890 -0.6343 -0.8401
 3935SOL     OW23440   3.981   3.609   6.367 -0.0621  0.1324 -0.1298
 3935SOL    HW123441   3.981   3.514   6.354 -0.9909 -0.1022  1.5831
 3935SOL    HW223442   3.993   3.609   6.462 -2.8530  0.9733  0.2218
 3936SOL     OW23443   1.292   2.435   9.527 -0.0966 -0.0165 -0.4006
 3936SOL    HW123444   1.206   2.431   9.569 -0.0812 -2.3555 -0.5941
 3936SOL    HW223445   1.347   2.394   9.593 -1.0801  0.1469  0.5166
 3937SOL     OW23446   2.682   0.744   6.708 -0.2357  0.0453  0.1280
 3937SOL    HW123447   2.612   0.725   6.646 -2.4420 -1.4139  3.0180
 3937SOL    HW223448   2.745   0.774   6.643  0.2946  1.8177  1.4420
 3938SOL     OW23449   4.411   3.520   6.895  0.2519  1.0545  0.2256
 3938SOL    HW123450   4.457   3.449   6.851  1.3999  1.8405  0.1670
 3938SOL    HW223451   4.320   3.495   6.883  0.1994  1.6692 -0.6574
 3939SOL     OW23452   3.789   2.121   7.314  0.3319 -0.4215 -0.4047
 3939SOL    HW123453   3.730   2.120   7.239  0.8007 -0.1317 -0.7764
 3939SOL    HW223454   3.784   2.030   7.344  2.4508 -0.4489 -0.1541
 3940SOL     OW23455   3.221   3.127   2.552 -0.2987  0.2100  0.6016
 3940SOL    HW123456   3.167   3.048   2.540  1.9225 -1.2481  0.1383
 3940SOL    HW223457   3.292   3.080   2.594  0.9583 -0.3741 -2.1859
 3941SOL     OW23458   3.481   0.401   7.220 -0.0866  0.1984  0.1028
 3941SOL    HW123459   3.502   0.438   7.306 -0.6331 -0.7935  0.6597
 3941SOL    HW223460   3.561   0.348   7.215 -1.5260 -1.8016 -1.5365
 3942SOL     OW23461   0.785   1.109   3.221  0.0349 -0.8827  0.3629
 3942SOL    HW123462   0.741   1.117   3.305  0.3519  0.1625  0.4303
 3942SOL    HW223463   0.737   1.038   3.180  1.3101 -0.9411 -1.0310
 3943SOL     OW23464   2.456   3.568  13.483  0.4738 -0.8037  0.4598
 3943SOL    HW123465   2.415   3.655  13.478  0.6759 -0.8550 -2.1159
 3943SOL    HW223466   2.501   3.569  13.567  0.0449 -0.9204  0.6940
 3944SOL     OW23467   1.093   3.284   1.978 -0.2908 -0.2494 -0.0559
 3944SOL    HW123468   1.170   3.251   2.025 -0.0132 -1.9793 -1.7731
 3944SOL    HW223469   1.019   3.256   2.032 -0.7618  0.1955 -0.4672
 3945SOL     OW23470   2.893   4.663   9.071 -0.5193 -0.0751  0.1391
 3945SOL    HW123471   2.823   4.656   9.006 -1.3097 -1.6041  1.1657
 3945SOL    HW223472   2.947   4.588   9.047 -0.3561  0.6746 -1.8110
 3946SOL     OW23473   4.117   0.858   2.218 -0.1405 -0.6266  0.0675
 3946SOL    HW123474   4.206   0.871   2.187  0.3604 -1.0608  1.3484
 3946SOL    HW223475   4.114   0.940   2.268 -0.0216  0.6302 -1.9672
 3947SOL     OW23476   3.526   4.674   4.492  0.6992  0.1573 -0.0129
 3947SOL    HW123477   3.618   4.698   4.484 -0.3617  3.1759 -3.0495
 3947SOL    HW223478   3.487   0.007   4.544  0.3938  0.1429 -0.2204
 3948SOL     OW23479   4.121   2.419   8.643 -0.0769  0.3551 -0.1227
 3948SOL    HW123480   4.161   2.359   8.580 -0.7465  0.5526 -0.7351
 3948SOL    HW223481   4.050   2.361   8.671  1.5033 -2.0847 -1.1878
 3949SOL     OW23482   0.584   1.419   2.557 -0.7171  0.0015  0.0878
 3949SOL    HW123483   0.631   1.476   2.618 -0.7579 -0.1534  0.2603
 3949SOL    HW223484   0.554   1.348   2.612 -0.4184  0.1712  0.4671
 3950SOL     OW23485   0.025   1.311   3.069 -0.0296  0.0386 -0.1333
 3950SOL    HW123486   0.024   1.370   3.145  0.2741  2.3439 -1.9383
 3950SOL    HW223487   0.019   1.220   3.100  0.3655  0.6029  1.6118
 3951SOL     OW23488   1.727   1.867   9.453  0.0933  0.3852 -0.9174
 3951SOL    HW123489   1.672   1.900   9.524  1.1864 -1.0635  0.6107
 3951SOL    HW223490   1.773   1.944   9.420 -1.8020  2.2998  0.9076
 3952SOL     OW23491   0.880   4.045   4.413 -0.0985 -0.5499  0.1562
 3952SOL    HW123492   0.962   4.058   4.460 -0.2794 -2.1958  0.9267
 3952SOL    HW223493   0.899   4.104   4.340  0.9794 -1.1910 -0.0713
 3953SOL     OW23494   1.880   2.524   4.837  0.0900 -0.0695  0.5122
 3953SOL    HW123495   1.830   2.485   4.765  1.4848  0.5707 -0.8018
 3953SOL    HW223496   1.810   2.565   4.888  0.2151 -1.7398  2.0292
 3954SOL     OW23497   1.856   2.132   2.725 -0.2762  0.4462  0.0700
 3954SOL    HW123498   1.927   2.104   2.668  0.4976  2.5391  0.0052
 3954SOL    HW223499   1.811   2.050   2.745 -0.2511  0.7573  1.3789
 3955SOL     OW23500   2.195   3.591  15.454 -0.0104 -0.4652 -0.4260
 3955SOL    HW123501   2.264   3.642  15.412 -0.5666  0.1886 -0.5580
 3955SOL    HW223502   2.133   3.592  15.381 -0.8434  0.1721  0.2801
 3956SOL     OW23503   3.724   1.219   7.809 -0.9499  0.4539 -0.0214
 3956SOL    HW123504   3.714   1.218   7.904  0.1869  2.3701  0.1189
 3956SOL    HW223505   3.635   1.245   7.784 -0.8244  2.1422  1.2159
 3957SOL     OW23506   0.477   4.635   6.266  0.0735  0.0417 -0.2425
 3957SOL    HW123507   0.564   4.619   6.229  0.6848 -1.1635  1.7372
 3957SOL    HW223508   0.427   4.558   6.238 -1.5849  1.5297 -1.3457
 3958SOL     OW23509   3.843   0.751   1.243 -0.5319 -0.2528 -0.0984
 3958SOL    HW123510   3.880   0.663   1.253 -1.7162 -0.7788 -0.4166
 3958SOL    HW223511   3.755   0.741   1.207 -0.4818 -1.0701  0.0080
 3959SOL     OW23512   3.861   2.359   8.125 -0.1913 -0.1169  0.2977
 3959SOL    HW123513   3.946   2.315   8.131  0.0587  0.2703 -0.4200
 3959SOL    HW223514   3.802   2.293   8.162  1.7133 -1.5895  0.7004
 3960SOL     OW23515   1.027   1.784   1.520 -0.2630  0.3887 -0.0634
 3960SOL    HW123516   1.053   1.857   1.465  1.5980 -0.7847 -0.7627
 3960SOL    HW223517   1.112   1.742   1.534 -0.5744 -0.2207 -0.0050
 3961SOL     OW23518   0.546   3.805   9.081  0.1743  0.0494  0.3239
 3961SOL    HW123519   0.514   3.817   9.170  0.4173  1.0177  0.2793
 3961SOL    HW223520   0.468   3.786   9.028  1.1309  0.3589 -1.2070
 3962SOL     OW23521   3.424   0.135   6.741 -0.3950  0.6393 -0.0217
 3962SOL    HW123522   3.352   0.098   6.793 -0.7448 -2.2985 -2.5105
 3962SOL    HW223523   3.471   0.052   6.731  1.4800  1.7588 -0.3059
 3963SOL     OW23524   3.067   0.918   9.712 -0.0797 -0.2979  0.0096
 3963SOL    HW123525   3.041   0.930   9.621 -0.7563 -1.7781  0.0059
 3963SOL    HW223526   3.021   0.994   9.745 -0.4752  0.6131 -2.6242
 3964SOL     OW23527   4.647   0.232   6.223  0.0240  0.1526 -0.2984
 3964SOL    HW123528   4.658   0.315   6.269  1.6904 -1.2691  1.8179
 3964SOL    HW223529   4.553   0.215   6.226  0.0528  0.2594  1.2026
 3965SOL     OW23530   3.788   0.575   9.376 -0.0957  0.3540  0.0310
 3965SOL    HW123531   3.781   0.650   9.436  1.5812 -0.2137  0.9594
 3965SOL    HW223532   3.834   0.618   9.304 -0.2455  1.0063  0.3250
 3966SOL     OW23533   0.442   2.192   9.307  0.0532 -0.2377  0.6871
 3966SOL    HW123534   0.512   2.166   9.367  2.0860 -0.1095 -1.5890
 3966SOL    HW223535   0.361   2.202   9.357  0.0676  0.2966  0.6051
 3967SOL     OW23536   0.727   2.252   5.100 -0.2362  0.5708 -0.2604
 3967SOL    HW123537   0.779   2.333   5.102 -0.3435  0.6572 -0.9920
 3967SOL    HW223538   0.793   2.183   5.090 -1.0180 -0.4870  1.9455
 3968SOL     OW23539   3.655   2.286   1.789  0.2300 -0.0818 -0.1907
 3968SOL    HW123540   3.730   2.230   1.810 -1.0887 -2.3399 -1.4469
 3968SOL    HW223541   3.692   2.320   1.707 -1.5221 -0.4925 -1.1614
 3969SOL     OW23542   4.080   2.169   6.910  0.4793  0.2415  0.1335
 3969SOL    HW123543   4.054   2.258   6.934 -2.0652 -0.8086  1.3058
 3969SOL    HW223544   4.061   2.168   6.816  0.4046  0.4191  0.1472
 3970SOL     OW23545   0.253   3.132   1.600  0.4647 -0.0144  0.4982
 3970SOL    HW123546   0.280   3.043   1.620 -4.1709 -1.4101  0.5945
 3970SOL    HW223547   0.314   3.144   1.528 -0.4011  0.3237 -0.1792
 3971SOL     OW23548   1.215   3.996   8.148  0.2376 -0.0419 -1.1111
 3971SOL    HW123549   1.263   4.046   8.213 -2.2897  0.9615 -0.0075
 3971SOL    HW223550   1.235   3.904   8.165  0.3954  0.1048 -0.5227
 3972SOL     OW23551   0.359   1.685   7.174  0.1701  0.4939  0.0623
 3972SOL    HW123552   0.319   1.631   7.242 -0.0254 -1.0878 -1.3292
 3972SOL    HW223553   0.293   1.725   7.118  1.0022  0.7231 -0.7451
 3973SOL     OW23554   2.656   4.402   0.782  0.3555 -0.4790 -0.1196
 3973SOL    HW123555   2.731   4.345   0.800 -1.3402 -3.1756 -1.4379
 3973SOL    HW223556   2.698   4.468   0.727 -0.8419  1.0138  0.7679
 3974SOL     OW23557   4.239   1.845   1.886 -0.5123 -0.6811 -0.0047
 3974SOL    HW123558   4.292   1.868   1.963  0.7520  0.8649 -1.3435
 3974SOL    HW223559   4.268   1.914   1.826  2.4301 -1.8636  0.0561
 3975SOL     OW23560   3.703   4.263  11.010 -0.5657 -0.2062  0.2006
 3975SOL    HW123561   3.796   4.273  10.987 -0.7684  0.7032 -0.2266
 3975SOL    HW223562   3.679   4.352  11.035  0.2253 -0.1949  0.9500
 3976SOL     OW23563   3.137   4.174   2.272  0.0495  0.0164  0.2819
 3976SOL    HW123564   3.118   4.101   2.213  1.5633  0.5537 -0.8823
 3976SOL    HW223565   3.052   4.216   2.278 -1.3290 -2.3461 -2.1674
 3977SOL     OW23566   2.746   3.165   2.245  0.2020  0.5558 -0.0413
 3977SOL    HW123567   2.714   3.159   2.335  0.7458 -1.1766  0.0356
 3977SOL    HW223568   2.768   3.074   2.225  1.4398  0.5579  1.3626
 3978SOL     OW23569   0.233   3.600   8.734  0.2343 -0.8342  0.5927
 3978SOL    HW123570   0.253   3.645   8.652 -1.1227 -3.3243 -1.1271
 3978SOL    HW223571   0.182   3.525   8.702  0.2069 -0.4805 -0.2028
 3979SOL     OW23572   0.013   1.882   3.634 -0.4072 -0.0570  0.3923
 3979SOL    HW123573   0.106   1.863   3.646 -0.1730  0.9892  0.2049
 3979SOL    HW223574   4.712   1.818   3.694 -1.2829 -0.6649 -0.8291
 3980SOL     OW23575   1.991   4.190   5.207 -0.4454  0.1475 -0.7122
 3980SOL    HW123576   2.003   4.146   5.292 -0.7331 -0.3506 -0.9348
 3980SOL    HW223577   1.921   4.137   5.170 -0.6490 -0.5590  0.6497
 3981SOL     OW23578   2.213   2.851   6.321  0.2147  0.0339 -0.3430
 3981SOL    HW123579   2.166   2.881   6.399 -0.8968  0.9411 -1.3786
 3981SOL    HW223580   2.139   2.832   6.264  0.6404 -0.0861 -0.8577
 3982SOL     OW23581   3.627   0.338  13.463 -0.3176  1.1022  0.4219
 3982SOL    HW123582   3.623   0.398  13.388 -2.5462  0.2803 -0.0958
 3982SOL    HW223583   3.717   0.336  13.497 -0.7098 -0.1551  1.3825
 3983SOL     OW23584   0.339   3.185   3.876 -0.1415  0.2446  0.6774
 3983SOL    HW123585   0.319   3.274   3.849  1.3209  0.6926  1.0642
 3983SOL    HW223586   0.358   3.152   3.788 -0.6429  0.2695  0.5619
 3984SOL     OW23587   3.473   0.482  16.927 -0.1263 -0.0198  0.4942
 3984SOL    HW123588   3.548   0.539  16.913  0.9347 -1.9637 -1.5588
 3984SOL    HW223589   3.404   0.533  16.971  1.2146  2.1083  0.0951
 3985SOL     OW23590   3.269   2.227   8.983  0.1619 -0.5146  0.4709
 3985SOL    HW123591   3.213   2.159   8.947 -0.3958 -0.0960  0.5526
 3985SOL    HW223592   3.346   2.175   9.006  3.1294  3.4652 -0.4303
 3986SOL     OW23593   0.160   3.225  14.658 -0.4213 -0.7512  0.2741
 3986SOL    HW123594   0.157   3.321  14.648  1.4947 -0.6006  1.1295
 3986SOL    HW223595   0.161   3.191  14.568  2.2815 -0.2414  0.1008
 3987SOL     OW23596   3.741   0.807   5.809 -0.3263 -0.7461 -0.5558
 3987SOL    HW123597   3.673   0.825   5.874 -0.0087 -1.4805 -0.0192
 3987SOL    HW223598   3.823   0.819   5.856 -1.0035 -0.2921  0.4969
 3988SOL     OW23599   4.225   4.175   9.545  0.2393 -0.6659  0.5212
 3988SOL    HW123600   4.176   4.160   9.465  1.0078 -2.7253  0.4271
 3988SOL    HW223601   4.248   4.266   9.529 -2.1924 -0.4720 -1.7415
 3989SOL     OW23602   0.003   1.310  15.560 -0.0238  0.2514 -0.0595
 3989SOL    HW123603   0.020   1.229  15.512  1.3481  0.1743  0.5489
 3989SOL    HW223604   0.094   1.341  15.566  0.2637 -0.5944 -0.1190
 3990SOL     OW23605   0.766   4.429   2.315  0.2305  0.3932 -0.4252
 3990SOL    HW123606   0.724   4.353   2.355 -1.2482  1.1679 -0.5150
 3990SOL    HW223607   0.691   4.463   2.267  1.7934  1.7441 -1.9169
 3991SOL     OW23608   4.046   4.586   3.082  0.4363  0.3842 -0.3550
 3991SOL    HW123609   4.116   4.645   3.055  1.0968 -0.3070 -0.1576
 3991SOL    HW223610   4.086   4.499   3.085 -1.4692 -0.4086  1.5594
 3992SOL     OW23611   1.977   0.138   3.642 -0.3307  0.2314  0.0707
 3992SOL    HW123612   1.926   0.158   3.564 -0.6304  1.0217  0.4666
 3992SOL    HW223613   1.936   0.054   3.663 -0.9179  0.3217 -0.7109
 3993SOL     OW23614   3.264   1.278  14.780 -0.3945 -0.6461 -0.3020
 3993SOL    HW123615   3.360   1.284  14.780 -0.4605  0.4056  1.3844
 3993SOL    HW223616   3.237   1.329  14.856  0.5040  2.9181 -2.3599
 3994SOL     OW23617   0.321   2.870   1.626 -0.6235  0.1150  0.1757
 3994SOL    HW123618   0.314   2.794   1.569  0.8302  0.8445 -0.9844
 3994SOL    HW223619   0.401   2.841   1.670  1.0356  3.0596 -0.8890
 3995SOL     OW23620   0.669   2.921   5.522  0.0322  0.0530 -0.2199
 3995SOL    HW123621   0.733   2.989   5.541  0.6050 -0.1600 -1.3769
 3995SOL    HW223622   0.600   2.947   5.584 -0.6081 -0.1965 -0.8208
 3996SOL     OW23623   3.873   4.327  12.047  0.1036  0.3562 -0.3297
 3996SOL    HW123624   3.856   4.297  11.958  0.9994  2.1860 -1.1180
 3996SOL    HW223625   3.822   4.408  12.051 -0.7407 -0.1784 -0.2922
 3997SOL     OW23626   4.692   3.892   1.210  0.1199  0.1112  0.3885
 3997SOL    HW123627   0.042   3.896   1.247  0.5791  1.9587 -0.8633
 3997SOL    HW223628   4.686   3.983   1.182  0.7379  0.2779  0.8003
 3998SOL     OW23629   0.203   3.448   9.799 -0.1068 -0.4770  0.3399
 3998SOL    HW123630   0.266   3.482   9.862 -1.2843  0.0005  1.2603
 3998SOL    HW223631   0.135   3.410   9.854 -0.8706  0.5129  0.0862
 3999SOL     OW23632   1.085   2.212   5.652 -0.1455  0.7795 -0.0221
 3999SOL    HW123633   1.036   2.131   5.667 -1.3144  1.1998 -1.5290
 3999SOL    HW223634   1.177   2.195   5.673 -0.5896 -0.0776  1.2116
 4000SOL     OW23635   1.455   1.150   3.633 -0.2417  0.0736  0.4574
 4000SOL    HW123636   1.403   1.181   3.559  0.8063  0.4867 -0.0994
 4000SOL    HW223637   1.387   1.132   3.699  0.4764  0.1272  1.2152
 4001SOL     OW23638   2.653   1.087   5.451  0.5268  0.3417 -0.7248
 4001SOL    HW123639   2.705   1.056   5.526 -0.3048  1.1560  0.1764
 4001SOL    HW223640   2.665   1.007   5.400 -2.2658 -0.2514 -0.4627
 4002SOL     OW23641   2.912   1.939   3.106 -0.1556  0.5854 -0.4673
 4002SOL    HW123642   2.979   2.008   3.112 -0.1069  0.4404  0.5650
 4002SOL    HW223643   2.928   1.895   3.022  0.2935  1.4101 -0.8168
 4003SOL     OW23644   1.288   3.432   1.447 -0.5744  0.4549 -0.4741
 4003SOL    HW123645   1.335   3.489   1.387 -1.7939 -0.3303 -2.1937
 4003SOL    HW223646   1.337   3.350   1.446  1.7453  1.8694 -0.8186
 4004SOL     OW23647   1.759   2.911   7.546  0.1857 -0.1652  0.0272
 4004SOL    HW123648   1.830   2.898   7.483 -0.3371 -2.7385 -0.0158
 4004SOL    HW223649   1.757   2.829   7.596  0.3620 -2.4081 -3.6602
 4005SOL     OW23650   1.844   0.845   5.677  0.0750  0.3985 -0.0562
 4005SOL    HW123651   1.806   0.758   5.689  3.1112 -1.1024 -1.2848
 4005SOL    HW223652   1.764   0.898   5.684 -0.4451 -0.4075  0.0666
 4006SOL     OW23653   2.140   4.178   2.837  0.0739 -0.1592  0.0415
 4006SOL    HW123654   2.088   4.218   2.907  1.4147 -0.6350  1.3111
 4006SOL    HW223655   2.201   4.249   2.817 -0.1803 -0.1396 -0.6827
 4007SOL     OW23656   0.113   2.285   2.492 -0.2111  0.4362 -0.4339
 4007SOL    HW123657   0.037   2.257   2.544 -0.4509 -1.4378 -1.8235
 4007SOL    HW223658   0.148   2.355   2.548 -0.2669 -2.3654  3.0919
 4008SOL     OW23659   2.435   4.340   8.644  0.0312 -0.4627 -0.8367
 4008SOL    HW123660   2.419   4.361   8.553 -1.1531  0.0273 -0.5065
 4008SOL    HW223661   2.531   4.344   8.647  0.0082 -0.3185 -0.1170
 4009SOL     OW23662   1.275   0.242   8.944 -0.2780 -0.2718  0.1984
 4009SOL    HW123663   1.231   0.240   8.859  2.0982 -0.3437 -1.0179
 4009SOL    HW223664   1.200   0.226   9.001  0.5088 -3.2354  0.3579
 4010SOL     OW23665   3.214   2.835  11.390 -0.4231 -0.6533 -0.8430
 4010SOL    HW123666   3.294   2.786  11.368  1.3612  1.5323  0.8070
 4010SOL    HW223667   3.168   2.771  11.444 -2.9716  2.2529  0.3946
 4011SOL     OW23668   1.544   2.942  12.687 -0.4255  0.1901 -0.1778
 4011SOL    HW123669   1.547   2.847  12.702 -1.1489  0.6422  2.9224
 4011SOL    HW223670   1.580   2.941  12.599  2.5187 -2.1235  1.0407
 4012SOL     OW23671   1.499   2.346   4.997  0.2969  0.3021 -0.3712
 4012SOL    HW123672   1.556   2.377   4.927 -1.2373  3.0739 -0.4102
 4012SOL    HW223673   1.542   2.267   5.030  2.6388  1.5366 -0.4916
 4013SOL     OW23674   2.148   4.481   9.142 -0.2050  0.5583 -0.0145
 4013SOL    HW123675   2.055   4.496   9.161 -0.1879  0.6085  0.0297
 4013SOL    HW223676   2.198   4.552   9.183 -1.3355  0.5066  1.4293
 4014SOL     OW23677   3.080   1.850   5.252  0.7833  0.2248  0.5298
 4014SOL    HW123678   3.135   1.781   5.214 -1.5404 -2.3365  1.8367
 4014SOL    HW223679   3.014   1.866   5.184 -1.5661 -2.6953  2.1460
 4015SOL     OW23680   1.338   3.321   5.975  0.1022 -0.7117 -0.2334
 4015SOL    HW123681   1.310   3.411   5.990  1.3669 -0.3569 -0.0279
 4015SOL    HW223682   1.355   3.324   5.881  1.1437 -1.4336 -0.0553
 4016SOL     OW23683   1.768   3.219   2.606 -0.8180 -0.2314  0.0250
 4016SOL    HW123684   1.790   3.253   2.693 -0.3180  0.9752 -0.5730
 4016SOL    HW223685   1.765   3.126   2.629 -0.0985  0.2752  2.1911
 4017SOL     OW23686   0.795   3.797   5.739  0.1940  0.0771 -0.2149
 4017SOL    HW123687   0.765   3.728   5.797 -1.2614  1.9877  1.3039
 4017SOL    HW223688   0.771   3.875   5.789 -0.3678  0.4956 -1.1384
 4018SOL     OW23689   2.565   0.837  11.086 -0.3741  0.0993  0.3739
 4018SOL    HW123690   2.569   0.903  11.155 -1.8487  2.0431 -1.3954
 4018SOL    HW223691   2.572   0.754  11.133  2.3692 -1.1865 -2.3487
 4019SOL     OW23692   3.599   2.938  12.387 -0.2451  0.7805 -0.0437
 4019SOL    HW123693   3.531   2.973  12.444  0.7405  1.8757  0.4587
 4019SOL    HW223694   3.607   2.853  12.430 -2.4244  0.6572  0.1290
 4020SOL     OW23695   2.633   0.914   3.107 -0.3747  0.2362 -0.1295
 4020SOL    HW123696   2.665   0.831   3.070  0.0176  0.4513 -0.2711
 4020SOL    HW223697   2.540   0.891   3.110  0.3407 -2.3348  2.7796
 4021SOL     OW23698   2.645   0.188  10.985 -0.0605 -0.1047  0.5624
 4021SOL    HW123699   2.580   0.146  10.928 -0.7481  2.2044 -0.3385
 4021SOL    HW223700   2.640   0.280  10.960 -4.1455 -0.6509 -0.6352
 4022SOL     OW23701   4.459   3.598   8.817  0.4519 -0.5793  0.2092
 4022SOL    HW123702   4.500   3.579   8.732 -0.6912 -0.8425 -0.2843
 4022SOL    HW223703   4.392   3.531   8.828  0.8467 -0.7254  1.7341
 4023SOL     OW23704   0.562   3.943  13.638  0.3547  0.5031  0.0536
 4023SOL    HW123705   0.609   3.877  13.588 -0.4573 -0.7275  0.9283
 4023SOL    HW223706   0.572   3.905  13.725 -0.9088  1.8409  0.7832
 4024SOL     OW23707   4.280   3.651   2.067 -0.9171  0.0867 -0.5938
 4024SOL    HW123708   4.314   3.741   2.067 -0.9987  0.1319  1.0842
 4024SOL    HW223709   4.188   3.675   2.057 -1.2867 -0.9434  0.3142
 4025SOL     OW23710   4.042   2.764   2.390 -0.5412  0.0749 -0.6055
 4025SOL    HW123711   3.961   2.807   2.420 -0.2244  0.1317  0.1496
 4025SOL    HW223712   4.039   2.765   2.294 -1.3647 -0.3634 -0.5906
 4026SOL     OW23713   4.269   4.731   7.267 -0.3751  0.4559  0.5560
 4026SOL    HW123714   4.365   4.730   7.271 -0.3744  0.2712  0.4729
 4026SOL    HW223715   4.253   0.012   7.359 -1.7254 -2.3279  0.8665
 4027SOL     OW23716   3.120   0.787   2.995  1.0690  0.6589  0.0771
 4027SOL    HW123717   3.092   0.821   2.910 -0.0394 -0.4063  0.0184
 4027SOL    HW223718   3.213   0.804   2.983  1.1542  0.5558  0.6045
 4028SOL     OW23719   1.533   2.749   9.013 -0.6504 -0.1428 -0.3011
 4028SOL    HW123720   1.473   2.784   9.079 -1.3822 -0.6464 -0.6995
 4028SOL    HW223721   1.612   2.738   9.066 -0.2685  1.5520 -0.5178
 4029SOL     OW23722   2.571   4.167   1.390 -0.0917 -0.4437  0.7690
 4029SOL    HW123723   2.637   4.145   1.456 -1.3472  2.4203  2.9709
 4029SOL    HW223724   2.495   4.135   1.439  0.0029  0.7975  1.7240
 4030SOL     OW23725   1.903   1.614   6.460 -0.8161  0.4495  0.2241
 4030SOL    HW123726   1.991   1.576   6.472  0.1679  1.8234 -2.6256
 4030SOL    HW223727   1.922   1.707   6.471  0.8988  0.0253  0.8810
 4031SOL     OW23728   0.055   1.574  15.230  0.2674  0.0006 -0.0713
 4031SOL    HW123729   4.729   1.562  15.159 -0.0092  1.8989 -0.1574
 4031SOL    HW223730   0.072   1.668  15.228  0.4370  0.0136  2.5552
 4032SOL     OW23731   1.030   4.115   7.928 -0.2548 -0.5105 -0.0445
 4032SOL    HW123732   1.096   4.047   7.933  0.6180  0.4646  1.7347
 4032SOL    HW223733   1.087   4.191   7.943  0.3227 -0.3313 -3.2465
 4033SOL     OW23734   4.154   0.597   4.671 -0.4159 -0.4417  0.0806
 4033SOL    HW123735   4.162   0.585   4.766 -0.1779  0.9889  0.2465
 4033SOL    HW223736   4.182   0.688   4.659 -0.1513 -0.8188 -2.1127
 4034SOL     OW23737   4.495   0.411   3.605 -0.3201  0.4081  0.3377
 4034SOL    HW123738   4.526   0.445   3.521  1.0151  0.8351  1.0094
 4034SOL    HW223739   4.441   0.338   3.575 -1.0911  0.6904  1.0343
 4035SOL     OW23740   2.464   3.680  14.481  0.1687 -0.1546 -0.0045
 4035SOL    HW123741   2.426   3.684  14.394  3.2490 -1.3911 -1.3937
 4035SOL    HW223742   2.453   3.767  14.521  1.8540  0.9214 -1.9213
 4036SOL     OW23743   2.950   0.972   5.017 -0.2303 -0.3418 -0.4289
 4036SOL    HW123744   2.858   0.948   5.027 -0.7082  2.2332  1.2648
 4036SOL    HW223745   2.946   1.063   5.047 -1.9098 -1.2773  2.2035
 4037SOL     OW23746   2.556   4.440   1.437  0.4732  0.2266  0.5115
 4037SOL    HW123747   2.589   4.350   1.429 -0.9575 -0.3274  0.8329
 4037SOL    HW223748   2.464   4.417   1.426  1.1268 -1.8427 -0.8111
 4038SOL     OW23749   3.276   4.405  12.794 -0.3291 -0.5874  0.5167
 4038SOL    HW123750   3.187   4.381  12.820  0.0745 -1.3692  1.1606
 4038SOL    HW223751   3.319   4.326  12.827  1.1503  0.7710  1.7819
 4039SOL     OW23752   3.757   1.400   5.402  0.1315  0.3011 -0.4491
 4039SOL    HW123753   3.697   1.457   5.452  0.9985 -0.8497  1.9058
 4039SOL    HW223754   3.825   1.377   5.465 -0.8744  0.7242  0.8012
 4040SOL     OW23755   1.830   1.674   0.184 -0.5246 -0.0357  0.1190
 4040SOL    HW123756   1.879   1.592   0.189  0.5443  0.4862 -1.6338
 4040SOL    HW223757   1.907   1.732   0.183  0.5959 -1.4804  3.4000
 4041SOL     OW23758   4.477   1.431   6.321 -0.2285 -0.1897 -0.0649
 4041SOL    HW123759   4.436   1.516   6.305 -0.8714 -0.1591  1.7683
 4041SOL    HW223760   4.559   1.457   6.278  0.6951 -1.7208  0.7597
 4042SOL     OW23761   2.509   2.030   8.534  0.1432 -0.1731 -0.5373
 4042SOL    HW123762   2.488   2.034   8.441 -0.2361 -0.4943 -0.4639
 4042SOL    HW223763   2.553   2.112   8.554 -0.5027 -0.4697  2.0745
 4043SOL     OW23764   2.018   0.098  13.800  0.2370 -0.4783  0.3954
 4043SOL    HW123765   1.968   0.148  13.865 -1.4435 -1.8684  0.1606
 4043SOL    HW223766   2.105   0.088  13.840  1.1697 -3.0652 -2.2721
 4044SOL     OW23767   2.833   2.584  11.489 -0.0272  0.4520  0.3857
 4044SOL    HW123768   2.746   2.586  11.448 -0.7680  0.7425  1.9545
 4044SOL    HW223769   2.841   2.489  11.494 -0.1780  0.5186  1.7934
 4045SOL     OW23770   3.979   2.865   4.695 -0.3694 -0.0564 -0.1739
 4045SOL    HW123771   4.024   2.950   4.704 -1.2103  0.2799  0.7964
 4045SOL    HW223772   3.892   2.893   4.666  0.4306  0.2980 -2.2485
 4046SOL     OW23773   3.717   1.837   8.687  0.5125 -0.3200  0.0189
 4046SOL    HW123774   3.739   1.903   8.753  0.4107 -0.5853  0.3145
 4046SOL    HW223775   3.628   1.809   8.710 -0.0042 -0.0570 -1.6467
 4047SOL     OW23776   0.967   2.784   5.111 -0.6157 -0.7045 -0.4954
 4047SOL    HW123777   0.954   2.744   5.025 -1.3874  0.2095 -0.8165
 4047SOL    HW223778   0.893   2.844   5.118  0.3790  0.8312 -3.0974
 4048SOL     OW23779   1.319   2.943  11.551 -0.2471 -0.2974  0.5024
 4048SOL    HW123780   1.372   2.958  11.629  0.2014 -0.8949  0.3199
 4048SOL    HW223781   1.380   2.972  11.483 -0.9600  0.0932  0.0272
 4049SOL     OW23782   1.400   3.272  17.504 -0.1006  0.4104  0.0927
 4049SOL    HW123783   1.408   3.221  17.584  0.1410 -1.0997 -0.8866
 4049SOL    HW223784   1.492   3.272  17.481  0.2528  1.0657  1.5130
 4050SOL     OW23785   0.744   2.127   3.228 -0.9601 -0.0909 -0.1293
 4050SOL    HW123786   0.836   2.133   3.254 -0.9961 -1.8084  0.3851
 4050SOL    HW223787   0.706   2.090   3.307  1.9418  1.4023  1.9350
 4051SOL     OW23788   2.583   2.476   8.943  0.1230 -0.1469 -0.5775
 4051SOL    HW123789   2.672   2.452   8.970 -0.2244 -1.7237 -0.8029
 4051SOL    HW223790   2.597   2.561   8.902 -0.9088  0.3189  0.0323
 4052SOL     OW23791   0.580   2.854   7.434  0.2894  0.6211  0.5453
 4052SOL    HW123792   0.644   2.883   7.368  1.1851 -1.6936  0.3880
 4052SOL    HW223793   0.639   2.826   7.504 -0.3244  0.7581  1.1187
 4053SOL     OW23794   3.910   2.687  15.344  0.3884  0.1208 -0.6281
 4053SOL    HW123795   3.972   2.685  15.271  1.0003 -1.1681 -0.0840
 4053SOL    HW223796   3.959   2.620  15.391  2.5374  0.5370 -2.2696
 4054SOL     OW23797   0.630   2.219   2.546  0.5342  0.5702 -0.5307
 4054SOL    HW123798   0.549   2.235   2.497  0.4399 -2.8509 -1.4621
 4054SOL    HW223799   0.682   2.210   2.467  0.7054 -1.3654 -0.1887
 4055SOL     OW23800   0.888   2.029   4.221  0.3452  0.0699 -0.4064
 4055SOL    HW123801   0.860   2.110   4.264  0.1047 -0.3164  0.1637
 4055SOL    HW223802   0.947   1.999   4.290 -0.3029 -3.7163 -1.5320
 4056SOL     OW23803   1.020   4.636   7.147  0.1175 -0.0866 -0.0384
 4056SOL    HW123804   0.994   4.544   7.141 -1.7324  0.3475  1.3276
 4056SOL    HW223805   1.081   4.649   7.074  0.3533 -1.9621 -0.1852
 4057SOL     OW23806   1.274   3.365   5.694 -0.4132  0.5368  0.0705
 4057SOL    HW123807   1.317   3.320   5.621 -1.3355  0.4819 -0.4384
 4057SOL    HW223808   1.209   3.304   5.728  2.1272 -0.7943  2.4948
 4058SOL     OW23809   3.791   4.696  14.284  0.6274  0.3421  0.1373
 4058SOL    HW123810   3.837   0.021  14.228  1.2558  0.4688  0.7900
 4058SOL    HW223811   3.832   4.616  14.253  1.8517  0.4568  1.4574
 4059SOL     OW23812   2.625   2.420   2.500 -0.0716  0.1000  0.2053
 4059SOL    HW123813   2.567   2.494   2.482 -1.9985 -1.4694 -0.0375
 4059SOL    HW223814   2.581   2.371   2.569 -2.1282  1.3173 -0.2645
 4060SOL     OW23815   3.826   3.073   0.397  0.5925 -0.2565 -0.0201
 4060SOL    HW123816   3.809   3.005   0.332 -1.7081  0.5555 -0.2540
 4060SOL    HW223817   3.895   3.110   0.342 -0.5855  0.9449 -0.6953
 4061SOL     OW23818   3.577   1.155   5.366  0.2591  0.3604  0.2170
 4061SOL    HW123819   3.608   1.079   5.414 -1.0767 -0.6794 -0.5452
 4061SOL    HW223820   3.652   1.213   5.377  2.2134 -1.6342 -2.4801
 4062SOL     OW23821   0.312   0.845   5.579 -0.8989  0.4139  0.8097
 4062SOL    HW123822   0.253   0.785   5.532  0.5802  0.4095 -1.0537
 4062SOL    HW223823   0.314   0.810   5.668 -1.5933  0.1204  0.7106
 4063SOL     OW23824   1.661   2.557   3.617  0.0515 -0.2232  0.5165
 4063SOL    HW123825   1.620   2.518   3.539  0.5913  2.3609 -1.0718
 4063SOL    HW223826   1.752   2.554   3.588 -0.0606  0.8627  0.0334
 4064SOL     OW23827   2.288   2.801   3.600 -0.1021 -0.0704 -0.0249
 4064SOL    HW123828   2.331   2.724   3.637 -1.9977 -0.0859  2.1271
 4064SOL    HW223829   2.364   2.850   3.568  0.6221 -0.2305  1.4393
 4065SOL     OW23830   1.030   1.188   4.006 -0.1473  0.5004  0.1998
 4065SOL    HW123831   1.068   1.154   4.087  0.6746 -1.2715 -0.9187
 4065SOL    HW223832   0.939   1.207   4.029  0.5385  3.2639  0.6307
 4066SOL     OW23833   3.395   0.772   2.267 -0.1154  0.4870 -0.0764
 4066SOL    HW123834   3.420   0.734   2.352 -0.2264  0.8924  0.1398
 4066SOL    HW223835   3.422   0.864   2.273  1.1786  0.1622 -0.8391
 4067SOL     OW23836   3.207   1.305   4.139 -0.4481 -0.0630  0.1925
 4067SOL    HW123837   3.140   1.347   4.084 -0.1988 -0.0724 -0.1201
 4067SOL    HW223838   3.268   1.283   4.068 -1.2777  1.2919 -0.9416
 4068SOL     OW23839   3.604   3.519   8.581 -0.5424 -0.2094 -0.1166
 4068SOL    HW123840   3.681   3.515   8.523 -1.8884 -3.0913 -1.7335
 4068SOL    HW223841   3.531   3.533   8.521  2.0467  1.3381 -2.8812
 4069SOL     OW23842   3.744   4.655   2.314 -0.0344 -0.0414  0.4578
 4069SOL    HW123843   3.830   4.693   2.293  0.1834 -0.0854  1.2723
 4069SOL    HW223844   3.754   4.591   2.384 -0.0475  0.2794  0.7504
 4070SOL     OW23845   1.188   1.261   5.507  0.3144 -0.1677  0.4173
 4070SOL    HW123846   1.099   1.291   5.521  0.9766  1.1567  1.7975
 4070SOL    HW223847   1.182   1.165   5.508  0.0914 -0.1720 -0.9210
 4071SOL     OW23848   4.101   3.280  14.512 -0.0616 -0.3012  0.2618
 4071SOL    HW123849   4.109   3.375  14.511  1.2695 -0.4345 -1.2001
 4071SOL    HW223850   4.020   3.250  14.554  0.8356 -0.2454  2.0619
 4072SOL     OW23851   2.783   4.516  17.600 -0.0610  0.1468  0.0378
 4072SOL    HW123852   2.726   4.481  17.532 -0.6518 -0.4476  0.8330
 4072SOL    HW223853   2.871   4.502  17.565 -0.1187 -1.3936  0.4830
 4073SOL     OW23854   1.681   3.487   5.121  0.9777  0.2748  0.5317
 4073SOL    HW123855   1.659   3.528   5.037 -0.0938 -4.0535 -1.2644
 4073SOL    HW223856   1.619   3.548   5.163 -0.8045 -0.4208 -1.1379
 4074SOL     OW23857   3.410   4.192   6.259  0.0310 -0.1572 -0.4062
 4074SOL    HW123858   3.420   4.151   6.174 -1.9336 -0.4544 -0.4946
 4074SOL    HW223859   3.502   4.204   6.282 -0.1892 -0.0062  0.4334
 4075SOL     OW23860   3.514   1.577   4.267  0.2884  0.5011 -0.4730
 4075SOL    HW123861   3.538   1.520   4.194 -2.9366  1.8320 -2.5328
 4075SOL    HW223862   3.444   1.621   4.219 -0.1555 -0.1074 -0.3820
 4076SOL     OW23863   2.609   4.535   7.591  0.2794 -0.3094 -0.4695
 4076SOL    HW123864   2.630   4.565   7.680  1.3904  1.5035 -1.3401
 4076SOL    HW223865   2.518   4.563   7.598  1.2080  3.2196 -2.4317
 4077SOL     OW23866   3.007   3.251   9.408 -0.1573  0.0391  0.1895
 4077SOL    HW123867   2.961   3.328   9.441  0.2171  0.2754  0.1572
 4077SOL    HW223868   3.096   3.284   9.398  0.3611 -1.7146 -1.0189
 4078SOL     OW23869   3.775   4.582  16.194  0.2554 -0.5306  0.3619
 4078SOL    HW123870   3.773   4.663  16.144 -2.2990 -1.0292 -0.3572
 4078SOL    HW223871   3.748   4.510  16.137 -2.1325  0.1766  0.5868
 4079SOL     OW23872   2.787   2.194   7.514  0.4396 -0.1843  0.5932
 4079SOL    HW123873   2.875   2.198   7.477 -0.0454 -0.6658 -0.6245
 4079SOL    HW223874   2.751   2.153   7.435  0.1455 -0.1503  0.7084
 4080SOL     OW23875   3.578   4.079   6.052 -0.0712 -0.2243  0.4958
 4080SOL    HW123876   3.555   4.000   6.002  2.1537 -0.7745  0.3481
 4080SOL    HW223877   3.655   4.109   6.003 -1.1123  1.5287 -0.0865
 4081SOL     OW23878   3.027   0.520   3.899  0.1820  0.1375 -0.3833
 4081SOL    HW123879   3.018   0.524   3.995 -0.4891 -0.5947 -0.4183
 4081SOL    HW223880   3.015   0.612   3.877  1.3050  0.8472  1.8658
 4082SOL     OW23881   0.774   3.333   8.965 -0.3749  0.2118 -0.4976
 4082SOL    HW123882   0.799   3.262   9.024 -0.8384  0.0332 -0.5153
 4082SOL    HW223883   0.853   3.388   8.970 -1.0020  1.1676 -1.0275
 4083SOL     OW23884   0.484   4.419  13.625 -0.4336 -0.0603  0.1731
 4083SOL    HW123885   0.528   4.383  13.548 -1.0837 -2.7433  1.0442
 4083SOL    HW223886   0.494   4.345  13.685  0.9920  2.0324  2.4913
 4084SOL     OW23887   2.294   3.471   5.600 -0.5133  0.3772 -0.5816
 4084SOL    HW123888   2.256   3.439   5.682  1.6988 -1.3606 -0.2426
 4084SOL    HW223889   2.364   3.531   5.625  0.2140 -1.3171  1.4468
 4085SOL     OW23890   2.781   1.481  12.036  0.5327  0.3300 -0.0477
 4085SOL    HW123891   2.772   1.452  11.946  2.7595 -3.5790  0.9709
 4085SOL    HW223892   2.811   1.570  12.017  1.4868 -0.3882 -1.9197
 4086SOL     OW23893   3.017   1.749  10.725  0.0480  0.1426  0.2360
 4086SOL    HW123894   3.109   1.752  10.700  0.1913  1.4352  0.9277
 4086SOL    HW223895   2.979   1.698  10.653  0.0788 -0.6573  0.7859
 4087SOL     OW23896   0.866   2.723   4.216 -0.1735 -0.4142  0.0374
 4087SOL    HW123897   0.868   2.691   4.126 -0.3430 -0.7791  0.1651
 4087SOL    HW223898   0.911   2.807   4.212  1.4449 -1.3156 -0.7876
 4088SOL     OW23899   1.076   0.716   2.456  0.6030  0.0752 -0.1980
 4088SOL    HW123900   1.127   0.795   2.441 -0.1620  1.1956  3.0718
 4088SOL    HW223901   1.143   0.647   2.462 -0.1150 -0.6105 -0.0025
 4089SOL     OW23902   2.610   1.664   3.483  0.2212 -0.1079 -0.2994
 4089SOL    HW123903   2.598   1.759   3.481  0.8999  0.0237  2.4780
 4089SOL    HW223904   2.705   1.663   3.471  0.3839 -0.2872  1.0038
 4090SOL     OW23905   3.092   3.949   0.522  0.3204 -0.1235 -0.2314
 4090SOL    HW123906   3.064   3.891   0.593 -1.5675  2.4479  1.1392
 4090SOL    HW223907   3.030   4.022   0.533  1.9122  0.6418  3.7904
 4091SOL     OW23908   0.626   3.492   9.768  0.4807 -0.1206 -0.1984
 4091SOL    HW123909   0.697   3.529   9.716 -0.6389  0.5341 -1.2515
 4091SOL    HW223910   0.556   3.554   9.749  0.1806 -0.1819  0.6986
 4092SOL     OW23911   4.623   1.844   8.167 -0.1239  0.3280 -0.7146
 4092SOL    HW123912   4.685   1.785   8.210 -0.9634 -0.1124 -0.1037
 4092SOL    HW223913   4.652   1.930   8.197  0.8664 -0.3131  0.1643
 4093SOL     OW23914   3.440   0.446  10.322 -0.6681 -0.0300 -0.5619
 4093SOL    HW123915   3.501   0.395  10.376  0.2480 -1.5766 -3.0181
 4093SOL    HW223916   3.422   0.520  10.379 -0.5020  0.2478 -0.8664
 4094SOL     OW23917   0.328   2.093   9.043  0.3267  0.1062  0.2360
 4094SOL    HW123918   0.380   2.114   9.121 -0.4850 -0.8628  1.0237
 4094SOL    HW223919   0.334   2.178   8.999 -3.1397  1.3177  2.1263
 4095SOL     OW23920   0.142   4.437   2.749  0.0488 -0.1248 -0.0470
 4095SOL    HW123921   0.113   4.493   2.677  2.5038  1.1386 -0.0517
 4095SOL    HW223922   0.061   4.414   2.793  0.2485  1.2602  1.0367
 4096SOL     OW23923   1.216   3.049   4.968 -0.4607 -0.3228  0.6435
 4096SOL    HW123924   1.273   3.122   4.946 -2.1554  0.7019 -0.3639
 4096SOL    HW223925   1.216   3.060   5.063  1.0185  0.0989  0.5926
 4097SOL     OW23926   2.139   1.396  12.187 -0.3108  0.1331 -0.2925
 4097SOL    HW123927   2.177   1.354  12.264  2.5074  0.2285 -1.6461
 4097SOL    HW223928   2.148   1.490  12.204  0.2213 -0.2090  1.3724
 4098SOL     OW23929   2.554   2.923   5.401 -0.5561  0.9660 -0.4962
 4098SOL    HW123930   2.579   3.014   5.415  1.1702  0.7809 -2.4615
 4098SOL    HW223931   2.563   2.902   5.494  1.6024  1.1678 -0.6755
 4099SOL     OW23932   4.611   2.235  16.524  0.5256  0.1740  0.0999
 4099SOL    HW123933   4.645   2.203  16.608 -3.6269 -0.3437  1.5744
 4099SOL    HW223934   4.686   2.285  16.491  0.1850  2.5549  2.9398
 4100SOL     OW23935   3.861   3.757   8.824 -0.9301  0.7503 -0.1706
 4100SOL    HW123936   3.873   3.771   8.918  0.0244  1.5378 -0.4097
 4100SOL    HW223937   3.765   3.758   8.828 -0.8829  2.2585  0.5689
 4101SOL     OW23938   0.213   2.244   9.456 -0.0533 -0.1188 -0.0403
 4101SOL    HW123939   0.124   2.241   9.421  0.7011  0.5491 -2.0516
 4101SOL    HW223940   0.190   2.302   9.528  1.9394  0.7101 -0.0538
 4102SOL     OW23941   0.857   3.177   2.120 -0.5715 -0.2679 -0.2239
 4102SOL    HW123942   0.883   3.165   2.211  0.9399 -0.2509 -0.6395
 4102SOL    HW223943   0.879   3.094   2.078  0.2434  0.3723 -1.0741
 4103SOL     OW23944   1.853   0.372   8.922 -0.4386 -0.0454  0.0717
 4103SOL    HW123945   1.840   0.290   8.970 -1.2902 -1.9759 -3.5003
 4103SOL    HW223946   1.843   0.353   8.829  2.7629  0.8304 -0.4706
 4104SOL     OW23947   0.654   3.408  12.112  0.6129  0.5306  0.4260
 4104SOL    HW123948   0.718   3.360  12.058 -2.3168  0.1285 -2.6860
 4104SOL    HW223949   0.615   3.334  12.158  0.2374  1.0424  0.9249
 4105SOL     OW23950   3.590   2.461  17.354  0.3326  0.2503 -0.9107
 4105SOL    HW123951   3.573   2.500  17.440  0.3172 -0.3449 -0.6383
 4105SOL    HW223952   3.684   2.479  17.347  0.5608 -0.1358  1.0372
 4106SOL     OW23953   0.498   1.590   3.503 -0.0650  0.7388 -0.0661
 4106SOL    HW123954   0.425   1.555   3.554 -0.0382  1.1013  0.2229
 4106SOL    HW223955   0.449   1.645   3.442 -0.8405  0.0301 -0.0900
 4107SOL     OW23956   3.481   2.655   1.510 -0.3141 -0.1517 -0.1278
 4107SOL    HW123957   3.417   2.700   1.455 -0.6637 -0.4461  0.0425
 4107SOL    HW223958   3.424   2.580   1.528  0.0512 -0.2494  0.6089
 4108SOL     OW23959   4.669   0.733   8.337  0.6853 -0.4093  0.5328
 4108SOL    HW123960   0.021   0.700   8.347  1.1847  0.3752 -1.3292
 4108SOL    HW223961   4.620   0.654   8.359 -0.0505 -0.2692 -0.5907
 4109SOL     OW23962   4.013   1.105   8.050  0.5932 -0.2464 -0.3761
 4109SOL    HW123963   3.923   1.135   8.063  0.6096  0.0984 -1.0392
 4109SOL    HW223964   4.005   1.017   8.088 -2.5304  0.2782  0.2283
 4110SOL     OW23965   2.640   1.336   9.423 -0.5014 -0.1018  0.2487
 4110SOL    HW123966   2.601   1.270   9.365 -0.9798 -0.1880  0.6650
 4110SOL    HW223967   2.636   1.292   9.508  1.3374 -0.1985  0.2848
 4111SOL     OW23968   1.694   0.119   4.547 -0.3325  0.5332  0.4400
 4111SOL    HW123969   1.639   0.049   4.512 -1.6333 -0.1220  3.7979
 4111SOL    HW223970   1.635   0.194   4.548 -0.3575  0.5161  0.3054
 4112SOL     OW23971   4.135   2.779   2.120  0.1249 -0.1756  0.2294
 4112SOL    HW123972   4.119   2.865   2.081 -1.9132 -0.9552 -0.6564
 4112SOL    HW223973   4.065   2.726   2.079  2.2518 -1.1147 -2.1873
 4113SOL     OW23974   3.035   1.136   1.407 -0.6547  0.2542  0.1265
 4113SOL    HW123975   3.053   1.203   1.340  0.6968  0.5466  0.7908
 4113SOL    HW223976   2.961   1.094   1.365 -2.8326  1.4350  2.8021
 4114SOL     OW23977   3.798   3.281   2.396 -0.0407 -0.1273 -0.2191
 4114SOL    HW123978   3.850   3.200   2.402  1.0011  0.4518 -1.3519
 4114SOL    HW223979   3.850   3.323   2.327  1.0130 -2.0049 -0.5810
 4115SOL     OW23980   4.458   1.100   1.713  0.9614  0.0388 -0.2219
 4115SOL    HW123981   4.440   1.145   1.631  1.6330 -2.5732 -1.8330
 4115SOL    HW223982   4.456   1.177   1.769  0.5891 -0.1973  0.0863
 4116SOL     OW23983   2.105   4.645  10.186 -0.2790 -0.5053 -0.3206
 4116SOL    HW123984   2.124   4.737  10.208  2.2130 -0.9717 -0.5200
 4116SOL    HW223985   2.041   4.615  10.250 -0.5486  0.0665 -0.3141
 4117SOL     OW23986   0.605   0.543   9.027  0.0358  0.0598 -0.3799
 4117SOL    HW123987   0.699   0.554   9.012  0.1650 -0.0783  0.3383
 4117SOL    HW223988   0.564   0.536   8.941 -1.0180 -0.1620  0.1312
 4118SOL     OW23989   3.592   3.836   3.390  0.3102  0.4319  0.3943
 4118SOL    HW123990   3.497   3.849   3.393 -0.0914 -1.9927 -1.2932
 4118SOL    HW223991   3.611   3.840   3.296 -1.8334 -2.1482 -0.1530
 4119SOL     OW23992   2.889   3.969   8.067  0.4740 -0.2135 -0.3701
 4119SOL    HW123993   2.919   3.998   8.153  0.1363  2.0139 -1.0076
 4119SOL    HW223994   2.802   3.944   8.098  0.1196 -0.4557 -1.5827
 4120SOL     OW23995   1.342   0.520   2.954 -0.1989  0.2147  0.6439
 4120SOL    HW123996   1.256   0.559   2.964  0.6083  2.3601 -0.8313
 4120SOL    HW223997   1.399   0.593   2.980  2.1258 -1.0846 -0.7575
 4121SOL     OW23998   2.909   0.107  10.098  0.0033 -0.1140  0.0782
 4121SOL    HW123999   2.981   0.052  10.129 -0.1571  0.3864  1.3574
 4121SOL    HW224000   2.954   0.176  10.050 -1.1660  0.8650  0.3822
 4122SOL     OW24001   3.890   2.646   3.046 -0.3932  0.2822  0.0591
 4122SOL    HW124002   3.886   2.646   2.950  3.2481  1.0883 -0.0864
 4122SOL    HW224003   3.982   2.621   3.057 -0.8583 -1.5937 -0.3210
 4123SOL     OW24004   3.840   0.530   8.477 -0.5685  0.4927 -0.5827
 4123SOL    HW124005   3.781   0.508   8.405  1.0852  0.4324 -1.9249
 4123SOL    HW224006   3.777   0.536   8.548 -1.9968 -1.9907 -1.6365
 4124SOL     OW24007   1.311   3.533   3.938  0.2454 -1.0594  0.1121
 4124SOL    HW124008   1.343   3.623   3.950 -0.4376 -0.7454 -0.4109
 4124SOL    HW224009   1.222   3.540   3.972  1.3961  1.9732  2.5427
 4125SOL     OW24010   1.625   0.599  11.204 -0.5695  0.3718  0.8318
 4125SOL    HW124011   1.569   0.602  11.282 -0.7835 -3.3005  0.8480
 4125SOL    HW224012   1.709   0.591  11.249 -0.0755 -0.1294 -0.1879
 4126SOL     OW24013   0.412   2.650   7.967  0.6186  0.7664 -0.0339
 4126SOL    HW124014   0.428   2.703   8.045  1.3837  0.3772  0.0798
 4126SOL    HW224015   0.408   2.565   8.010 -0.1609  1.0968  0.5405
 4127SOL     OW24016   0.738   3.719   6.456  0.0126  0.9120 -0.1815
 4127SOL    HW124017   0.706   3.642   6.502 -0.5740  0.7141 -0.9209
 4127SOL    HW224018   0.664   3.777   6.472  0.7189  1.9524 -0.6252
 4128SOL     OW24019   2.692   0.555   5.942  0.2516 -0.5493 -0.5044
 4128SOL    HW124020   2.603   0.583   5.921 -0.7409 -3.1649  0.2669
 4128SOL    HW224021   2.727   0.559   5.853  0.6000  3.9315 -0.1797
 4129SOL     OW24022   1.382   1.231   1.200  0.5445 -0.2714  0.2802
 4129SOL    HW124023   1.376   1.161   1.265  0.0745 -0.4397  0.0548
 4129SOL    HW224024   1.438   1.192   1.132 -0.0384  0.1463 -0.4394
 4130SOL     OW24025   1.479   1.098  17.320  0.4091 -0.3822  0.0491
 4130SOL    HW124026   1.545   1.028  17.318 -0.2855 -1.0568  0.5785
 4130SOL    HW224027   1.543   1.168  17.334  0.5860 -0.5916  0.3019
 4131SOL     OW24028   4.135   0.754   5.759  0.2547 -0.5070  0.5507
 4131SOL    HW124029   4.227   0.737   5.779  0.3504  1.1234  1.4768
 4131SOL    HW224030   4.148   0.844   5.729  1.3125 -0.2719  1.7415
 4132SOL     OW24031   4.041   1.901  16.288  0.1433  0.2301 -0.6342
 4132SOL    HW124032   4.131   1.872  16.304 -0.4932 -1.1607  0.4069
 4132SOL    HW224033   4.057   1.977  16.233  1.4211 -0.1990 -0.8507
 4133SOL     OW24034   3.057   2.927   9.579  0.2653  0.2546  0.4242
 4133SOL    HW124035   3.060   3.005   9.635 -2.8252 -1.6843  3.3139
 4133SOL    HW224036   3.143   2.930   9.536 -0.8643 -0.9493 -1.9188
 4134SOL     OW24037   3.539   1.560   8.838  0.3377 -0.2155 -0.2388
 4134SOL    HW124038   3.516   1.645   8.801  0.0794 -0.8469 -1.5383
 4134SOL    HW224039   3.597   1.527   8.770  2.3524  1.4872  0.6621
 4135SOL     OW24040   1.371   0.665  12.120  0.5802  0.6197 -0.2893
 4135SOL    HW124041   1.326   0.645  12.038  2.5597  0.1324 -1.2436
 4135SOL    HW224042   1.327   0.605  12.181 -0.3180  0.0779 -1.4699
 4136SOL     OW24043   2.538   1.624   0.793 -0.6619  0.0413 -0.7621
 4136SOL    HW124044   2.542   1.529   0.781  1.1928  0.0816 -0.4616
 4136SOL    HW224045   2.597   1.648   0.864  1.0235 -0.6764 -1.9095
 4137SOL     OW24046   0.509   1.415  15.355 -0.1506 -0.3888  0.6682
 4137SOL    HW124047   0.428   1.452  15.319  0.4206  0.5041  0.3121
 4137SOL    HW224048   0.503   1.321  15.341  0.2307 -0.4302  0.8012
 4138SOL     OW24049   2.690   4.715  10.608  0.5848  0.2171 -0.0772
 4138SOL    HW124050   2.697   4.624  10.579 -1.5654 -0.0583  0.2846
 4138SOL    HW224051   2.711   0.015  10.523  1.3943  2.0367  0.9297
 4139SOL     OW24052   0.401   4.056   4.690 -0.5396 -0.2608 -0.3325
 4139SOL    HW124053   0.367   4.070   4.602 -0.6820  1.0598 -0.0763
 4139SOL    HW224054   0.461   3.984   4.675  0.8153  0.6105  0.9111
 4140SOL     OW24055   2.444   0.435   9.681  0.1578  0.0930  0.4311
 4140SOL    HW124056   2.400   0.359   9.642 -0.9714  1.8882 -1.8322
 4140SOL    HW224057   2.527   0.432   9.633  0.1891  0.6613  0.4556
 4141SOL     OW24058   0.022   3.481   5.051  0.0389 -0.4778  0.8430
 4141SOL    HW124059   0.028   3.531   4.970 -0.3971 -0.3759  0.8703
 4141SOL    HW224060   4.678   3.521   5.083  1.8338  3.3193  0.6465
 4142SOL     OW24061   1.026   3.578  10.397 -0.3054  0.1535  0.7645
 4142SOL    HW124062   1.020   3.664  10.437 -0.2246  0.3178  0.4268
 4142SOL    HW224063   0.942   3.549  10.431 -0.9905  1.4628  0.1707
 4143SOL     OW24064   3.092   3.354   2.008 -0.3164  0.0559 -0.2138
 4143SOL    HW124065   3.014   3.408   1.997  0.1339  0.6738 -0.3792
 4143SOL    HW224066   3.128   3.410   2.078 -1.3031  0.1400  0.2228
 4144SOL     OW24067   0.425   0.434   5.244 -0.3322  0.2944 -0.1692
 4144SOL    HW124068   0.516   0.422   5.273  0.2502  0.6562 -1.8568
 4144SOL    HW224069   0.383   0.465   5.325 -0.2960  0.1490 -0.0945
 4145SOL     OW24070   3.729   2.724   7.212 -0.4296  0.6856  0.3192
 4145SOL    HW124071   3.641   2.688   7.215 -0.6266  1.1134 -0.3538
 4145SOL    HW224072   3.707   2.817   7.215 -1.6137  0.4849 -2.0393
 4146SOL     OW24073   4.274   4.372   5.956 -0.4300  0.3949 -0.2776
 4146SOL    HW124074   4.258   4.333   6.041 -1.8293  1.1679 -0.1850
 4146SOL    HW224075   4.367   4.350   5.945  0.0990  2.1675  0.6732
 4147SOL     OW24076   0.123   0.823   3.046 -0.3649 -0.4025 -0.2823
 4147SOL    HW124077   0.069   0.746   3.064 -1.3040  0.1017 -0.9439
 4147SOL    HW224078   0.097   0.860   2.961 -1.2278  2.9414  1.4318
 4148SOL     OW24079   2.130   1.796  14.060  0.1638 -0.3094 -0.2927
 4148SOL    HW124080   2.150   1.732  13.992  1.5376 -0.6834  0.4595
 4148SOL    HW224081   2.188   1.757  14.126 -0.7878 -2.3756 -0.6916
 4149SOL     OW24082   0.416   0.667   5.031  0.0052  0.3914  0.2324
 4149SOL    HW124083   0.508   0.642   5.034 -0.6129 -1.7605  1.4565
 4149SOL    HW224084   0.379   0.588   5.070 -0.6370  0.7413  0.3292
 4150SOL     OW24085   2.869   0.135  15.527  0.0130 -0.4480 -0.1435
 4150SOL    HW124086   2.792   0.134  15.470 -0.3193  2.4005  0.2650
 4150SOL    HW224087   2.854   0.060  15.584  0.0080 -0.6915 -0.4679
 4151SOL     OW24088   0.478   3.536   7.894 -0.3779 -0.4703  0.2276
 4151SOL    HW124089   0.512   3.464   7.948  0.4637  1.4209  2.2347
 4151SOL    HW224090   0.404   3.570   7.944 -0.5192  1.5799 -1.4016
 4152SOL     OW24091   3.894   2.404  16.862  0.7620 -0.0558 -0.4962
 4152SOL    HW124092   3.931   2.319  16.888 -0.4589 -0.6091 -0.5665
 4152SOL    HW224093   3.816   2.375  16.814 -0.0693  1.1217  0.1409
 4153SOL     OW24094   1.209   0.912   3.907  0.9466 -0.1537 -0.6820
 4153SOL    HW124095   1.299   0.881   3.913  0.0554 -2.3963  0.9223
 4153SOL    HW224096   1.167   0.875   3.985  1.6085 -0.7760 -0.6268
 4154SOL     OW24097   3.134   2.189   4.183  0.7949  0.2522 -0.0191
 4154SOL    HW124098   3.073   2.229   4.245  0.0875 -0.0707 -0.4959
 4154SOL    HW224099   3.145   2.266   4.127  0.9121 -0.0377 -0.3954
 4155SOL     OW24100   4.323   1.603   9.479  0.1402  0.4703  0.0944
 4155SOL    HW124101   4.329   1.696   9.503 -0.0555  0.4347  0.2855
 4155SOL    HW224102   4.370   1.604   9.396  0.0945  0.2756  0.0668
 4156SOL     OW24103   2.874   0.496   8.225  0.1971  0.1841 -0.1244
 4156SOL    HW124104   2.904   0.445   8.300  2.4548  2.8704  0.8033
 4156SOL    HW224105   2.795   0.535   8.263  1.1315  2.0140 -0.0246
 4157SOL     OW24106   2.456   0.708   3.831 -0.2018  0.0707  0.0312
 4157SOL    HW124107   2.484   0.766   3.760  0.2513  0.6445  0.6801
 4157SOL    HW224108   2.361   0.711   3.826 -0.2080 -0.2647 -0.0824
 4158SOL     OW24109   0.489   3.714  14.399 -0.3588 -0.0884  0.0881
 4158SOL    HW124110   0.424   3.783  14.415 -0.5362 -0.0391 -0.8670
 4158SOL    HW224111   0.542   3.751  14.329  0.3689  1.1957  1.3336
 4159SOL     OW24112   2.291   4.327   7.435  0.1844 -0.4231  0.3283
 4159SOL    HW124113   2.250   4.256   7.484  0.0116 -1.2102 -0.9468
 4159SOL    HW224114   2.354   4.276   7.385  1.9690  2.4713 -0.3762
 4160SOL     OW24115   2.313   1.667  14.212  0.5375 -0.3013  0.2139
 4160SOL    HW124116   2.355   1.582  14.211  1.8681  0.3377  2.5806
 4160SOL    HW224117   2.391   1.721  14.203 -0.1040  0.3368 -1.5215
 4161SOL     OW24118   2.750   1.179  12.524  0.4078  0.2392 -0.5005
 4161SOL    HW124119   2.692   1.128  12.467 -0.3174  3.7223 -2.8889
 4161SOL    HW224120   2.793   1.236  12.461 -0.5497 -2.7709 -3.8658
 4162SOL     OW24121   2.235   0.437   8.148  0.2536 -0.1218  0.4732
 4162SOL    HW124122   2.149   0.468   8.122  0.4264 -0.8531 -0.9574
 4162SOL    HW224123   2.269   0.526   8.145 -0.7147  0.2433  0.5796
 4163SOL     OW24124   1.603   3.648   9.432 -0.0011 -0.0775  0.0906
 4163SOL    HW124125   1.558   3.687   9.357  1.8143  0.6227 -0.6562
 4163SOL    HW224126   1.670   3.586   9.403  0.9349  1.9628 -2.1086
 4164SOL     OW24127   4.342   1.291   1.276  0.3512 -0.3797 -0.4662
 4164SOL    HW124128   4.256   1.275   1.236 -0.2404 -1.2458  1.1511
 4164SOL    HW224129   4.383   1.214   1.235 -0.0543 -1.2699  0.7964
 4165SOL     OW24130   0.457   1.042   3.383 -0.2833 -0.2979  0.6468
 4165SOL    HW124131   0.467   1.110   3.317  1.3779 -0.9187  0.2529
 4165SOL    HW224132   0.375   1.001   3.356  0.0798 -0.6741  0.1039
 4166SOL     OW24133   0.099   1.461   2.720  0.0009  0.3836 -0.2510
 4166SOL    HW124134   0.153   1.456   2.799  0.3278  1.3931 -0.4062
 4166SOL    HW224135   0.117   1.550   2.689 -0.6255  0.6992  0.2934
 4167SOL     OW24136   2.064   2.914   6.827 -0.3299 -0.1840 -0.4607
 4167SOL    HW124137   2.058   2.848   6.896  1.2145  1.1843  0.9893
 4167SOL    HW224138   2.159   2.926   6.820 -0.0922 -2.2333 -0.6640
 4168SOL     OW24139   3.342   3.012   6.911  0.1852 -0.8315 -0.4590
 4168SOL    HW124140   3.273   2.978   6.855  0.3400 -0.1128 -1.0839
 4168SOL    HW224141   3.366   2.933   6.959  1.6063 -0.0354  0.1643
 4169SOL     OW24142   3.509   0.474   8.628 -0.2682 -0.3349  0.1486
 4169SOL    HW124143   3.456   0.425   8.690 -0.8188 -0.6978 -0.6008
 4169SOL    HW224144   3.560   0.404   8.586 -1.0011  0.4468 -2.0865
 4170SOL     OW24145   2.235   4.216   8.775  0.0550 -0.2990  0.2588
 4170SOL    HW124146   2.258   4.226   8.867  0.4089  1.3208 -0.0074
 4170SOL    HW224147   2.300   4.266   8.726 -0.1115 -0.9132 -0.5853
 4171SOL     OW24148   4.500   2.247   5.267 -0.5252  0.2573  0.5415
 4171SOL    HW124149   4.561   2.213   5.201  1.3967  2.9992  0.9074
 4171SOL    HW224150   4.450   2.168   5.287  0.3757 -0.1131  1.3640
 4172SOL     OW24151   0.468   4.286   6.914 -0.1254  0.3031  0.2748
 4172SOL    HW124152   0.542   4.269   6.855 -0.4445  0.5835 -0.2035
 4172SOL    HW224153   0.509   4.277   7.000  1.9911 -1.6465 -0.9345
 4173SOL     OW24154   0.440   4.662   7.469 -0.1011 -0.4075  0.1441
 4173SOL    HW124155   0.461   4.726   7.537 -1.0305 -1.0082  1.0035
 4173SOL    HW224156   0.349   4.686   7.453  0.7777  1.4745 -2.0211
 4174SOL     OW24157   0.322   0.379   9.111 -0.3745  0.0580  0.5924
 4174SOL    HW124158   0.264   0.322   9.060  0.7870 -0.8373  0.2564
 4174SOL    HW224159   0.403   0.328   9.104 -0.3448  0.1889  0.0117
 4175SOL     OW24160   0.935   4.425   3.360  0.0076  0.0127 -0.1174
 4175SOL    HW124161   0.856   4.478   3.374 -0.8110 -0.5418 -2.4691
 4175SOL    HW224162   0.939   4.367   3.436  2.0290 -2.3713 -2.0516
 4176SOL     OW24163   3.413   1.315   3.155  0.3654  0.5389 -0.3051
 4176SOL    HW124164   3.384   1.227   3.183  1.1329  0.5189  0.4243
 4176SOL    HW224165   3.425   1.313   3.061 -0.6531 -0.3451 -0.4224
 4177SOL     OW24166   3.733   0.946   3.832  0.0801  0.0334 -0.6501
 4177SOL    HW124167   3.826   0.953   3.808  0.5352 -1.2469  0.7087
 4177SOL    HW224168   3.731   0.880   3.902 -2.2752 -0.9147 -1.5975
 4178SOL     OW24169   2.644   1.233   8.125  0.3128 -0.2388 -0.1637
 4178SOL    HW124170   2.659   1.297   8.055 -3.0054  1.7967  0.9352
 4178SOL    HW224171   2.560   1.265   8.160  0.2439 -0.3215 -0.2536
 4179SOL     OW24172   2.920   0.776   6.520  0.2222  0.0757 -0.1961
 4179SOL    HW124173   2.992   0.802   6.577  0.0642  0.4228 -0.1556
 4179SOL    HW224174   2.964   0.719   6.456 -2.4781 -1.2699 -0.8392
 4180SOL     OW24175   0.606   1.864   3.674 -0.0784 -0.0594 -0.8355
 4180SOL    HW124176   0.641   1.906   3.595 -2.4170  0.4821 -1.5688
 4180SOL    HW224177   0.532   1.921   3.693 -0.9873 -1.3502 -0.5723
 4181SOL     OW24178   1.703   2.326   9.330  0.0149 -0.3093  0.0132
 4181SOL    HW124179   1.661   2.352   9.248  0.5257  1.6409  0.3767
 4181SOL    HW224180   1.628   2.288   9.378  0.8406 -1.4450  0.4112
 4182SOL     OW24181   0.790   1.512   7.115  0.0180 -0.1364  0.0426
 4182SOL    HW124182   0.723   1.454   7.152 -0.2331 -0.1495 -0.4422
 4182SOL    HW224183   0.752   1.535   7.031 -2.6277 -0.8520  1.0212
 4183SOL     OW24184   3.519   2.423  11.548 -0.1348  0.4000  0.2549
 4183SOL    HW124185   3.542   2.335  11.516 -1.7532 -0.4427  1.4161
 4183SOL    HW224186   3.607   2.456  11.569  0.6140  0.3041 -2.7266
 4184SOL     OW24187   0.387   4.626   5.217 -0.1274 -0.1542 -0.1939
 4184SOL    HW124188   0.316   4.607   5.278  1.2271  1.2992  1.8304
 4184SOL    HW224189   0.382   4.719   5.196 -0.1625 -0.3535 -1.0504
 4185SOL     OW24190   4.545   2.343  14.637 -0.2701 -0.6451 -0.4446
 4185SOL    HW124191   4.556   2.360  14.543 -0.1925  0.1395 -0.2975
 4185SOL    HW224192   4.556   2.428  14.680  0.1605 -2.8371  3.7482
 4186SOL     OW24193   1.152   0.245   8.697  0.2100 -0.4466  0.2779
 4186SOL    HW124194   1.062   0.218   8.677  0.9654 -2.5946 -0.2384
 4186SOL    HW224195   1.195   0.237   8.612 -2.4678  2.4860 -1.3635
 4187SOL     OW24196   0.523   0.853   8.838  0.1147  0.5141 -0.2407
 4187SOL    HW124197   0.606   0.879   8.876  1.2680 -1.1878 -1.6108
 4187SOL    HW224198   0.545   0.865   8.746  0.4895  0.8964 -0.1018
 4188SOL     OW24199   1.195   0.973  11.231 -0.1093 -0.4355 -0.1742
 4188SOL    HW124200   1.147   1.027  11.168  2.1466  0.4209 -1.1637
 4188SOL    HW224201   1.260   0.934  11.173 -2.9400 -2.5036 -1.9361
 4189SOL     OW24202   2.247   3.438  16.742  0.4502  0.1018 -0.3661
 4189SOL    HW124203   2.172   3.422  16.799 -0.2843  1.1214 -1.0594
 4189SOL    HW224204   2.230   3.397  16.657  1.1078  0.4304 -0.6586
 4190SOL     OW24205   2.695   1.580   4.857 -0.1090 -0.3672 -0.1545
 4190SOL    HW124206   2.604   1.608   4.846 -0.8672 -2.5007  0.6998
 4190SOL    HW224207   2.698   1.587   4.952  4.1848  0.9055 -0.3971
 4191SOL     OW24208   0.173   0.464   4.116  0.4626 -0.7028 -0.1926
 4191SOL    HW124209   0.103   0.530   4.110 -0.0317 -1.2884 -0.7996
 4191SOL    HW224210   0.247   0.516   4.147 -0.1322  1.1393 -1.8819
 4192SOL     OW24211   1.708   3.895  10.074  0.5071 -0.0192 -0.2841
 4192SOL    HW124212   1.717   3.978  10.122  0.7403 -0.8587  1.1242
 4192SOL    HW224213   1.662   3.843  10.140  0.1025 -0.4249 -0.8857
 4193SOL     OW24214   4.157   2.282   2.282 -0.6663 -0.2143  0.0788
 4193SOL    HW124215   4.134   2.219   2.214  0.0215 -0.3413 -0.0458
 4193SOL    HW224216   4.221   2.340   2.241 -2.2709  1.7138  0.3138
 4194SOL     OW24217   0.650   2.245   4.504 -0.2444  0.2707 -0.4176
 4194SOL    HW124218   0.604   2.270   4.584  1.9946 -0.6863  1.1445
 4194SOL    HW224219   0.589   2.190   4.456  0.5019 -1.1649  0.2914
 4195SOL     OW24220   0.745   0.079   1.169 -0.0570 -0.1854 -0.2520
 4195SOL    HW124221   0.681   0.104   1.236  0.0285 -1.6833  0.3857
 4195SOL    HW224222   0.810   0.032   1.222  1.2917  1.6008 -0.3428
 4196SOL     OW24223   4.123   2.355   4.866 -0.4568 -0.5138  0.1635
 4196SOL    HW124224   4.034   2.340   4.898 -0.8005  0.8791 -0.1364
 4196SOL    HW224225   4.111   2.392   4.778 -2.5998 -0.3315  0.5134
 4197SOL     OW24226   4.048   2.223   5.503 -0.3354 -0.4962  0.2504
 4197SOL    HW124227   4.043   2.159   5.433 -0.9380 -1.1311  0.8675
 4197SOL    HW224228   4.069   2.292   5.440  0.9132 -0.9906  0.1459
 4198SOL     OW24229   1.783   0.520  12.705 -0.9027 -0.2666 -0.2628
 4198SOL    HW124230   1.841   0.555  12.772  0.1883 -0.1918 -1.2664
 4198SOL    HW224231   1.736   0.452  12.754 -1.1657 -0.6200 -1.0126
 4199SOL     OW24232   0.999   2.250  16.077  0.0376 -0.3045  0.0575
 4199SOL    HW124233   0.995   2.203  15.994  0.8210 -0.3255  0.0281
 4199SOL    HW224234   1.091   2.277  16.082 -0.4598  1.3733  0.1716
 4200SOL     OW24235   2.920   2.414   3.062 -0.0712 -0.0104  0.7964
 4200SOL    HW124236   2.851   2.389   3.123  1.0433  0.0157  2.0690
 4200SOL    HW224237   2.879   2.415   2.976 -0.0674  1.3627  0.8186
 4201SOL     OW24238   4.304   1.588   1.915 -0.7535 -0.1159  0.1407
 4201SOL    HW124239   4.257   1.553   1.838  1.8248 -1.0594 -1.0068
 4201SOL    HW224240   4.280   1.678   1.894 -0.2646 -0.2969 -1.2341
 4202SOL     OW24241   0.011   0.908   8.724 -0.0536 -0.2660  0.0100
 4202SOL    HW124242   0.023   1.002   8.715  1.8588 -0.5383 -0.3055
 4202SOL    HW224243   0.053   0.909   8.810 -0.5052  2.4349  0.1896
 4203SOL     OW24244   0.776   0.872   4.833 -0.2674  0.1477 -0.0754
 4203SOL    HW124245   0.747   0.815   4.762 -0.2845  0.3564 -0.2332
 4203SOL    HW224246   0.869   0.851   4.838  0.1571  1.7235 -1.7781
 4204SOL     OW24247   3.021   3.711   3.809 -0.1170 -0.8569 -0.6999
 4204SOL    HW124248   3.089   3.755   3.861 -0.8848  0.9047 -1.1921
 4204SOL    HW224249   3.076   3.652   3.758 -0.2593 -0.8441 -0.8654
 4205SOL     OW24250   3.583   4.590   3.585 -0.0980  0.3696 -0.4547
 4205SOL    HW124251   3.570   4.604   3.492  0.8861 -0.2573 -0.6871
 4205SOL    HW224252   3.499   4.546   3.603 -1.2103  0.8801 -4.5727
 4206SOL     OW24253   0.539   3.614   2.291 -0.1172 -0.5771 -0.0728
 4206SOL    HW124254   0.613   3.556   2.272  0.9650  1.9420 -3.5183
 4206SOL    HW224255   0.596   3.682   2.329 -0.8011 -0.8830  1.5161
 4207SOL     OW24256   4.621   4.163   7.834  0.0460 -0.3582 -0.4107
 4207SOL    HW124257   4.554   4.173   7.766  1.2276 -2.0622 -1.8322
 4207SOL    HW224258   4.632   4.069   7.819  2.2007 -0.2705  0.5404
 4208SOL     OW24259   1.546   3.322   9.811  0.2039  0.2115  0.2891
 4208SOL    HW124260   1.582   3.339   9.725 -0.3984 -0.4020 -0.0895
 4208SOL    HW224261   1.462   3.285   9.783 -1.8700  3.8841  1.6113
 4209SOL     OW24262   0.072   0.422   3.558  0.1103  0.3159  0.1721
 4209SOL    HW124263   0.078   0.508   3.599  2.0044  1.3896 -2.3083
 4209SOL    HW224264   0.029   0.366   3.623 -1.2804  1.4198  0.1976
 4210SOL     OW24265   3.881   0.315  12.547 -0.8025 -0.1420  0.5389
 4210SOL    HW124266   3.809   0.368  12.513  0.2232  2.1405  1.9221
 4210SOL    HW224267   3.913   0.288  12.461 -1.9567 -2.9715  1.0014
 4211SOL     OW24268   1.421   1.604   9.484  0.9461 -0.4858 -0.1374
 4211SOL    HW124269   1.378   1.564   9.559  0.4727 -3.3068 -1.8929
 4211SOL    HW224270   1.408   1.695   9.510  0.5542 -0.4359 -0.4912
 4212SOL     OW24271   2.703   3.387   4.184 -0.0883 -0.2292  0.7307
 4212SOL    HW124272   2.613   3.356   4.176  0.0142 -0.6789  1.3080
 4212SOL    HW224273   2.724   3.366   4.093 -0.1637 -0.5812  0.7941
 4213SOL     OW24274   0.351   0.670   8.737  0.2553  0.6369 -0.0730
 4213SOL    HW124275   0.428   0.715   8.769  0.8671  0.0797 -0.7402
 4213SOL    HW224276   0.340   0.714   8.652  1.5773 -1.3615 -1.3025
 4214SOL     OW24277   3.865   4.217  10.573  0.2973 -0.1009 -0.1352
 4214SOL    HW124278   3.860   4.127  10.605 -0.9689  0.4379  1.1613
 4214SOL    HW224279   3.849   4.269  10.652  0.3262 -1.1271  0.5345
 4215SOL     OW24280   2.703   1.526   7.189 -0.2279 -0.4312  0.9676
 4215SOL    HW124281   2.740   1.611   7.164 -0.8743 -0.3122  0.4295
 4215SOL    HW224282   2.678   1.486   7.106  4.1367  0.1181 -0.6131
 4216SOL     OW24283   3.862   4.642   6.857 -0.0644 -0.0322  0.5213
 4216SOL    HW124284   3.950   4.648   6.819 -0.3349  1.1126  0.0779
 4216SOL    HW224285   3.844   4.549   6.869  2.9734 -0.8010 -0.8898
 4217SOL     OW24286   2.457   3.869   0.603 -0.7625  0.5772  0.9180
 4217SOL    HW124287   2.405   3.947   0.624 -2.1748 -0.5879  1.7309
 4217SOL    HW224288   2.394   3.799   0.619  1.9750 -2.0028  0.5793
 4218SOL     OW24289   2.074   0.197   0.396  0.2971  0.2139 -0.2642
 4218SOL    HW124290   2.019   0.250   0.453 -0.7119 -0.7079 -0.3717
 4218SOL    HW224291   2.087   0.111   0.438  0.2953 -0.6076 -1.9360
 4219SOL     OW24292   1.023   0.598   3.756 -0.0938 -0.3598 -0.5132
 4219SOL    HW124293   0.954   0.663   3.773  0.1937 -0.4006  0.7474
 4219SOL    HW224294   1.005   0.535   3.825  2.4142 -2.4709 -1.8054
 4220SOL     OW24295   4.495   3.133   0.738 -0.4317  0.1740  0.2499
 4220SOL    HW124296   4.533   3.210   0.697 -0.0787 -0.4966 -0.7038
 4220SOL    HW224297   4.430   3.161   0.802 -1.1290 -2.4544  0.7306
 4221SOL     OW24298   3.212   0.088  14.764 -0.0389 -0.8413  0.2836
 4221SOL    HW124299   3.259   0.083  14.847  0.2490 -1.6163  0.0721
 4221SOL    HW224300   3.125   0.119  14.789  0.1082 -0.0585 -0.1813
 4222SOL     OW24301   2.588   1.129   7.117 -0.3381  0.0321 -0.0631
 4222SOL    HW124302   2.506   1.173   7.139 -0.7702 -1.0043  0.3404
 4222SOL    HW224303   2.582   1.138   7.022 -0.2613  0.0157 -0.0694
 4223SOL     OW24304   0.951   1.343   5.673  0.0938  0.1638  0.4826
 4223SOL    HW124305   0.870   1.394   5.671 -0.1603 -0.3374 -1.8225
 4223SOL    HW224306   0.951   1.303   5.760  0.3552 -0.8979 -0.0061
 4224SOL     OW24307   0.154   2.967   6.082 -0.0376  0.0110 -0.3252
 4224SOL    HW124308   0.245   2.970   6.056 -0.1166 -1.3902 -0.7548
 4224SOL    HW224309   0.118   3.040   6.032 -0.3673  0.1369  0.0905
 4225SOL     OW24310   2.308   0.690   8.159  0.3186 -0.3236  0.4584
 4225SOL    HW124311   2.295   0.761   8.097 -0.0501 -0.8020 -0.0138
 4225SOL    HW224312   2.372   0.722   8.223  0.5395  0.6838 -0.2717
 4226SOL     OW24313   0.477   1.271   3.217  0.2133  0.7174 -0.7211
 4226SOL    HW124314   0.542   1.310   3.275  0.2798  0.8226 -0.8668
 4226SOL    HW224315   0.524   1.268   3.134 -2.2466  0.2297 -2.1049
 4227SOL     OW24316   0.799   1.974   5.000 -0.2006  0.0118 -0.0928
 4227SOL    HW124317   0.719   1.937   4.963 -0.3784  0.6386 -0.3386
 4227SOL    HW224318   0.776   1.967   5.093  1.6586 -3.0443  0.1532
 4228SOL     OW24319   1.888   4.341   3.562  0.4794 -0.0328  0.3557
 4228SOL    HW124320   1.796   4.364   3.551  0.6144  1.2211  1.8254
 4228SOL    HW224321   1.905   4.317   3.471  1.1590  1.5605  0.0647
 4229SOL     OW24322   2.982   4.278   9.508  0.3531  0.3326  0.2850
 4229SOL    HW124323   2.932   4.355   9.480 -1.3691 -0.4681  1.2008
 4229SOL    HW224324   3.048   4.323   9.561  1.3256 -1.5399  0.6347
 4230SOL     OW24325   1.559   0.921   7.655 -0.0443 -0.3523 -0.1222
 4230SOL    HW124326   1.624   0.958   7.595  1.2687  0.4624  1.8125
 4230SOL    HW224327   1.486   0.888   7.603 -0.0550 -0.0739 -0.2880
 4231SOL     OW24328   4.221   0.394  17.732  0.5627  0.1929  0.4140
 4231SOL    HW124329   4.172   0.428  17.657 -0.0156  1.8809  1.5600
 4231SOL    HW224330   4.300   0.369  17.684  0.2368  1.8938 -1.0206
 4232SOL     OW24331   0.463   0.497   6.028 -0.2022 -0.5218  0.4446
 4232SOL    HW124332   0.443   0.541   6.111  0.2169  0.4820  0.0109
 4232SOL    HW224333   0.555   0.515   6.012  0.0368 -0.1716  2.2295
 4233SOL     OW24334   2.811   1.325  12.285 -0.2256 -0.3428  0.1353
 4233SOL    HW124335   2.788   1.354  12.197  2.3922  1.2639 -0.0260
 4233SOL    HW224336   2.806   1.406  12.335  1.0388 -0.7655  0.9317
 4234SOL     OW24337   3.143   0.346   0.787 -0.1852 -0.2296 -0.8636
 4234SOL    HW124338   3.171   0.355   0.695  0.6661 -0.9410 -0.6738
 4234SOL    HW224339   3.061   0.394   0.785 -0.4060 -0.5147  1.4415
 4235SOL     OW24340   4.183   4.273  13.479 -0.4061 -0.1286  0.5468
 4235SOL    HW124341   4.177   4.184  13.444  1.5042  0.3214 -0.9561
 4235SOL    HW224342   4.279   4.274  13.481 -0.4072  0.4148  0.3510
 4236SOL     OW24343   2.702   2.347   3.195  0.1261 -0.0019 -0.2334
 4236SOL    HW124344   2.619   2.372   3.155 -1.1446 -0.8251  1.8587
 4236SOL    HW224345   2.689   2.368   3.288 -0.7352  2.0548 -0.8303
 4237SOL     OW24346   0.699   3.233   6.403  0.1828  0.2084 -0.2938
 4237SOL    HW124347   0.647   3.158   6.372  0.6512 -0.0448 -0.4678
 4237SOL    HW224348   0.699   3.309   6.346  1.1768  0.0363 -0.5187
 4238SOL     OW24349   3.755   3.550  10.384  0.2246  0.5694 -0.3704
 4238SOL    HW124350   3.776   3.569  10.475 -0.4146 -1.0516  0.1156
 4238SOL    HW224351   3.796   3.624  10.341 -0.2213  1.6167  1.0051
 4239SOL     OW24352   2.992   0.014   9.782 -0.5989 -0.5569 -0.1034
 4239SOL    HW124353   3.026   0.055   9.702  0.0573 -0.4244  0.2464
 4239SOL    HW224354   3.025   0.080   9.842 -2.4826 -0.7885  1.1651
 4240SOL     OW24355   4.048   3.491   9.520 -0.1303 -0.1845 -0.0347
 4240SOL    HW124356   4.092   3.427   9.466  2.1498 -0.0194  1.6028
 4240SOL    HW224357   4.046   3.450   9.607  1.5823 -2.5705 -1.1378
 4241SOL     OW24358   3.862   3.300   7.925  0.4215  0.2510  0.3954
 4241SOL    HW124359   3.944   3.256   7.951  0.2958  1.3643  2.6735
 4241SOL    HW224360   3.808   3.262   7.994  0.0520  1.6155  0.8472
 4242SOL     OW24361   0.149   1.247   6.907 -0.1767 -0.1564  0.0053
 4242SOL    HW124362   0.101   1.195   6.842  0.0954 -0.3088 -0.0745
 4242SOL    HW224363   0.101   1.223   6.986  1.7122  0.1988  1.2643
 4243SOL     OW24364   2.770   4.576  12.080 -0.1973 -0.1921 -0.5795
 4243SOL    HW124365   2.768   4.482  12.096 -2.6097 -0.0179  0.0826
 4243SOL    HW224366   2.811   4.602  12.163 -2.0519  2.6772 -0.5331
 4244SOL     OW24367   0.702   0.412   0.593 -0.5079  0.1832  0.4750
 4244SOL    HW124368   0.714   0.430   0.500 -0.8681  0.5158  0.4910
 4244SOL    HW224369   0.642   0.338   0.605 -2.0899  1.4080  0.0796
 4245SOL     OW24370   1.522   3.149  17.725  0.3040 -0.4184  0.0045
 4245SOL    HW124371   1.525   3.120   0.068 -1.0970 -0.2472  0.1072
 4245SOL    HW224372   1.575   3.079  17.686  1.5671 -0.4816  1.8503
 4246SOL     OW24373   2.499   3.515   8.436 -0.2801  0.0248  0.3837
 4246SOL    HW124374   2.556   3.450   8.394  0.5533  0.8273  0.2720
 4246SOL    HW224375   2.419   3.507   8.384 -0.4870  0.0221  0.6998
 4247SOL     OW24376   4.541   3.375   1.383 -0.3100 -0.0976  0.0009
 4247SOL    HW124377   4.503   3.325   1.455  0.8463 -1.0600 -0.0682
 4247SOL    HW224378   4.606   3.309   1.359 -1.9549 -1.5277 -0.5955
 4248SOL     OW24379   2.138   1.578   2.712  0.3089 -0.4479  0.3977
 4248SOL    HW124380   2.229   1.558   2.733  0.4754  0.1078  0.2024
 4248SOL    HW224381   2.146   1.648   2.647  0.4740 -1.0336 -0.2164
 4249SOL     OW24382   1.898   2.988  16.485 -0.1171 -0.6164 -0.4453
 4249SOL    HW124383   1.909   2.919  16.420  0.9258 -0.9369  0.0843
 4249SOL    HW224384   1.816   2.958  16.525 -0.2636  3.2589  2.1792
 4250SOL     OW24385   2.356   0.240  12.728 -0.2820 -0.2164  0.0585
 4250SOL    HW124386   2.316   0.326  12.715 -0.9797 -0.5359  0.1027
 4250SOL    HW224387   2.448   0.254  12.751 -0.0423 -0.3077 -0.8606
 4251SOL     OW24388   1.290   4.331   6.513  0.3213  0.3286  0.5337
 4251SOL    HW124389   1.211   4.374   6.479  1.9371  1.3271 -1.9565
 4251SOL    HW224390   1.365   4.377   6.476  0.3392  0.4793  0.7522
 4252SOL     OW24391   4.332   2.215  16.511 -0.6633  0.2508 -0.4315
 4252SOL    HW124392   4.427   2.212  16.501 -0.4606 -0.3987  1.8545
 4252SOL    HW224393   4.325   2.265  16.592 -1.2747 -0.3513 -0.1217
 4253SOL     OW24394   3.447   2.221   8.418 -0.7448  0.2149 -0.1551
 4253SOL    HW124395   3.435   2.232   8.324  0.7893  2.2203 -0.1286
 4253SOL    HW224396   3.356   2.234   8.443 -1.1399  0.0182 -1.5078
 4254SOL     OW24397   2.051   1.341   4.693  0.2870  0.1433 -0.2466
 4254SOL    HW124398   2.105   1.371   4.620  2.9133  1.5263  2.2704
 4254SOL    HW224399   2.069   1.247   4.689 -1.6164 -0.2903  1.8053
 4255SOL     OW24400   2.924   3.031   6.132 -0.5504 -0.8242 -0.1136
 4255SOL    HW124401   2.883   2.951   6.165 -0.1557 -0.5528  1.0357
 4255SOL    HW224402   2.992   2.997   6.074  0.4401  2.0530 -0.6108
 4256SOL     OW24403   3.928   4.030   3.653  0.2691 -0.8644  0.7783
 4256SOL    HW124404   3.964   3.980   3.580  1.0264  0.7578  0.0520
 4256SOL    HW224405   3.853   3.971   3.664 -0.5190  0.0783  0.5379
 4257SOL     OW24406   1.605   4.696   5.917  0.0198  0.8764  0.2179
 4257SOL    HW124407   1.569   4.730   5.999  0.1820  1.3269  0.1006
 4257SOL    HW224408   1.660   0.033   5.893  1.0684  0.7171  2.0738
 4258SOL     OW24409   3.986   3.994   8.705  0.0635  0.1330  0.2587
 4258SOL    HW124410   4.064   3.938   8.705 -0.5376 -0.6971  0.0898
 4258SOL    HW224411   3.923   3.931   8.740 -2.7091  3.2908  0.9164
 4259SOL     OW24412   3.256   1.169   8.112 -0.2216  0.0609  0.2564
 4259SOL    HW124413   3.172   1.206   8.084 -1.1129 -0.3848  2.3622
 4259SOL    HW224414   3.238   1.095   8.169 -0.6517  0.2265  0.3378
 4260SOL     OW24415   1.073   3.642  17.548 -0.5116 -0.1347  0.0105
 4260SOL    HW124416   1.049   3.674  17.461  1.1639  0.8121 -0.1233
 4260SOL    HW224417   1.062   3.547  17.557 -1.2796  0.0782  1.2146
 4261SOL     OW24418   1.890   3.396   5.790 -0.1714 -0.4178  0.4838
 4261SOL    HW124419   1.873   3.304   5.768  2.9649 -0.0606 -3.4835
 4261SOL    HW224420   1.805   3.435   5.769  0.6812  0.9380 -0.4479
 4262SOL     OW24421   4.076   2.677   8.727 -0.2226  0.1951 -0.3422
 4262SOL    HW124422   4.089   2.582   8.725  1.1452  0.3681  0.2002
 4262SOL    HW224423   4.157   2.704   8.771 -0.7775  1.5624 -0.1463
 4263SOL     OW24424   4.243   4.502  16.386  0.1901  0.1791  0.3225
 4263SOL    HW124425   4.294   4.486  16.306  0.6806 -1.0116  0.8789
 4263SOL    HW224426   4.249   4.598  16.392 -3.2830  0.2473  2.4725
 4264SOL     OW24427   0.043   2.740   8.603  0.4834  0.1571  0.4334
 4264SOL    HW124428   0.069   2.705   8.688 -0.4857 -1.3310  0.1106
 4264SOL    HW224429   4.699   2.784   8.626  0.8067  1.5955 -1.0751
 4265SOL     OW24430   3.572   4.701  12.314  0.1153 -0.5866  0.1989
 4265SOL    HW124431   3.528   4.620  12.337  2.4937 -1.9322  0.0189
 4265SOL    HW224432   3.602   4.681  12.225  0.8172 -0.9276  0.5138
 4266SOL     OW24433   4.211   3.237  16.471  0.1991 -0.4803  0.2834
 4266SOL    HW124434   4.230   3.150  16.507 -2.5642 -1.5255 -0.8132
 4266SOL    HW224435   4.284   3.254  16.411  1.0825  0.8842  1.7160
 4267SOL     OW24436   2.317   3.568   9.153 -0.3923  0.6643  0.1640
 4267SOL    HW124437   2.254   3.615   9.207 -1.1422 -1.3311  0.9932
 4267SOL    HW224438   2.355   3.499   9.207  1.4549  1.5920  0.0672
 4268SOL     OW24439   4.124   4.619   6.105  0.9586 -0.0754 -0.4802
 4268SOL    HW124440   4.055   4.666   6.151  1.3968 -1.2587  1.3688
 4268SOL    HW224441   4.198   4.659   6.152  1.2479 -1.6301  0.3717
 4269SOL     OW24442   3.707   1.091   4.605 -0.4222  0.0833  0.0894
 4269SOL    HW124443   3.656   1.063   4.530  0.4905  1.3173 -1.0008
 4269SOL    HW224444   3.644   1.100   4.677  1.0096  3.4322  0.9519
 4270SOL     OW24445   4.451   2.186   3.053  0.5280  0.0959 -0.3264
 4270SOL    HW124446   4.540   2.196   3.020  0.4423 -0.4481 -0.7061
 4270SOL    HW224447   4.458   2.127   3.129 -0.8106  0.3687  0.0201
 4271SOL     OW24448   2.479   0.874   0.816  0.0051 -0.4154 -0.3751
 4271SOL    HW124449   2.465   0.787   0.779 -0.3862 -0.8479  0.8076
 4271SOL    HW224450   2.398   0.922   0.799 -0.6359 -0.8571  1.4088
 4272SOL     OW24451   3.493   2.890   0.591  0.1625 -0.1649  0.3405
 4272SOL    HW124452   3.420   2.832   0.569  0.1908 -0.1122  0.1043
 4272SOL    HW224453   3.555   2.817   0.596  1.5142  0.8574 -1.4426
 4273SOL     OW24454   2.166   0.774   9.387  0.3329 -0.6429  0.2506
 4273SOL    HW124455   2.175   0.864   9.353 -0.1248 -0.4295  0.6899
 4273SOL    HW224456   2.248   0.757   9.433  1.4085  1.1921 -0.9968
 4274SOL     OW24457   0.709   1.869   2.815  0.3049 -0.0236  0.3355
 4274SOL    HW124458   0.635   1.882   2.756  0.7086  1.1690  0.0748
 4274SOL    HW224459   0.671   1.910   2.893  1.9818  1.4724  0.3670
 4275SOL     OW24460   3.070   0.065   7.948  0.2328  0.8459  0.1205
 4275SOL    HW124461   3.059   0.112   7.865  0.2691 -0.6949 -0.7576
 4275SOL    HW224462   3.024   4.721   7.928  1.1110  0.3160  0.2360
 4276SOL     OW24463   2.888   0.534   1.652  0.0561  0.2804  0.2490
 4276SOL    HW124464   2.883   0.519   1.747  1.1399  1.6003  0.5138
 4276SOL    HW224465   2.941   0.613   1.642 -0.0611  0.1614 -1.1869
 4277SOL     OW24466   4.364   3.659  12.813  0.3514  0.5298  0.3546
 4277SOL    HW124467   4.306   3.586  12.796 -0.9995  2.0335 -1.4190
 4277SOL    HW224468   4.341   3.676  12.905 -0.4268  0.7431  0.1151
 4278SOL     OW24469   4.226   3.369   4.777 -0.3701 -0.1437  0.0028
 4278SOL    HW124470   4.257   3.332   4.694  1.4495  1.0329  0.1665
 4278SOL    HW224471   4.196   3.454   4.745  1.7487  0.8873  0.7404
 4279SOL     OW24472   2.261   3.067   4.015  0.2475 -0.1661  0.4626
 4279SOL    HW124473   2.237   3.017   4.093 -2.0062 -0.3768 -0.3766
 4279SOL    HW224474   2.253   3.002   3.945  0.4215 -1.1167  1.3270
 4280SOL     OW24475   2.963   3.780   2.652 -0.0281  0.5618 -0.0521
 4280SOL    HW124476   2.896   3.777   2.584 -0.3528 -1.2957  0.3438
 4280SOL    HW224477   3.039   3.799   2.596  0.2057  1.4056  0.5732
 4281SOL     OW24478   2.620   4.185   8.271  0.5386  0.0372 -0.2993
 4281SOL    HW124479   2.636   4.113   8.332 -1.5084  0.2800  0.5185
 4281SOL    HW224480   2.551   4.227   8.323  0.5127  0.6636 -0.8342
 4282SOL     OW24481   2.000   3.540   0.727  0.0787 -0.1336 -0.1060
 4282SOL    HW124482   2.006   3.476   0.656  0.7610 -1.8198  1.4803
 4282SOL    HW224483   1.908   3.567   0.721  0.0959 -0.1217 -0.3331
 4283SOL     OW24484   4.566   3.493   6.468 -0.4402  0.0565 -0.0870
 4283SOL    HW124485   4.473   3.478   6.483  0.2995 -3.1768  1.1794
 4283SOL    HW224486   4.593   3.402   6.480  2.1134  0.8694  0.4176
 4284SOL     OW24487   3.461   0.160   4.617  0.3041 -0.4181  0.1104
 4284SOL    HW124488   3.496   0.227   4.558  0.0101 -0.9595 -0.6760
 4284SOL    HW224489   3.368   0.177   4.605  0.2823  1.0036  2.2274
 4285SOL     OW24490   2.361   1.768   2.629 -0.1264 -0.0306  0.3384
 4285SOL    HW124491   2.393   1.798   2.544 -0.2192 -1.6225 -0.2430
 4285SOL    HW224492   2.320   1.847   2.666  2.8955  1.5905  0.2780
 4286SOL     OW24493   1.781   0.591   5.440  0.0951 -0.2796 -0.2188
 4286SOL    HW124494   1.810   0.532   5.371 -2.0119 -2.5792  0.8778
 4286SOL    HW224495   1.827   0.673   5.419 -0.7050 -0.2950 -2.0292
 4287SOL     OW24496   4.560   2.267   7.116  0.3655 -0.4308 -0.7006
 4287SOL    HW124497   4.490   2.254   7.052 -2.9135  1.1716  2.5299
 4287SOL    HW224498   4.643   2.239   7.078  0.5561 -1.0777  0.1755
 4288SOL     OW24499   0.226   2.810   5.457 -0.0831 -0.3960 -0.5851
 4288SOL    HW124500   0.235   2.819   5.362 -3.0893  0.7632 -0.7569
 4288SOL    HW224501   0.297   2.750   5.479  1.5399  1.0055 -2.0242
 4289SOL     OW24502   0.068   2.296   0.611 -0.7258  0.0368 -0.1884
 4289SOL    HW124503   0.009   2.371   0.595  1.5385  1.3730 -2.2486
 4289SOL    HW224504   0.152   2.322   0.573 -0.6676  0.0873 -0.0236
 4290SOL     OW24505   4.177   3.158   9.694 -0.1004  0.0282 -0.4296
 4290SOL    HW124506   4.272   3.151   9.702 -0.0642  1.4872  0.4918
 4290SOL    HW224507   4.163   3.111   9.612 -1.3718 -2.4330  1.2073
 4291SOL     OW24508   3.305   4.506   5.242 -0.4678  0.1803  0.3587
 4291SOL    HW124509   3.364   4.468   5.176  0.6223  0.3511  1.2520
 4291SOL    HW224510   3.359   4.583   5.257 -0.1358 -0.2324  1.3129
 4292SOL     OW24511   1.123   0.257   0.602 -0.2493 -0.3305 -0.5435
 4292SOL    HW124512   1.158   0.342   0.573  1.3680 -0.9815 -0.5146
 4292SOL    HW224513   1.165   0.204   0.535  0.5380  1.7263 -1.6949
 4293SOL     OW24514   1.219   2.372   1.076 -0.1045 -0.0180  0.0306
 4293SOL    HW124515   1.177   2.363   1.161 -1.6703  2.6322 -0.4719
 4293SOL    HW224516   1.151   2.356   1.010  0.0173  0.0353 -0.1086
 4294SOL     OW24517   3.450   0.121   3.231 -0.0249 -0.4240 -0.0793
 4294SOL    HW124518   3.412   0.206   3.253  2.9546  1.0601 -0.6251
 4294SOL    HW224519   3.542   0.135   3.210 -0.1362  0.5946  0.1169
 4295SOL     OW24520   4.555   3.104   5.457  0.1396  0.0668 -0.4127
 4295SOL    HW124521   4.483   3.103   5.521 -0.0815 -0.9991 -0.6770
 4295SOL    HW224522   4.531   3.032   5.398 -1.5387  0.2215  0.0892
 4296SOL     OW24523   0.027   0.197   1.751  0.2203 -0.5030  0.2981
 4296SOL    HW124524   0.101   0.143   1.777 -0.0038 -0.6924  0.5429
 4296SOL    HW224525   0.040   0.277   1.803  2.2066 -0.5366 -0.1428
 4297SOL     OW24526   2.599   1.934   3.922  0.1779  0.0165 -0.0224
 4297SOL    HW124527   2.655   1.919   3.846 -1.2948  0.2869 -1.1641
 4297SOL    HW224528   2.619   2.026   3.939  1.6854 -0.2447 -0.4324
 4298SOL     OW24529   1.170   3.024   6.588  0.1873  0.2597  0.3259
 4298SOL    HW124530   1.160   3.080   6.666 -3.2644  1.9585 -1.3393
 4298SOL    HW224531   1.097   2.962   6.595 -0.6442  1.1300 -0.7117
 4299SOL     OW24532   2.438   1.683  13.755  0.3555  0.3710  0.3015
 4299SOL    HW124533   2.452   1.616  13.821  0.5876 -0.1173 -0.2518
 4299SOL    HW224534   2.506   1.663  13.691 -1.8448  0.4495 -2.0924
 4300SOL     OW24535   4.265   2.219  13.127 -0.2774  0.6145  0.3730
 4300SOL    HW124536   4.198   2.249  13.065 -0.0448 -0.7562 -0.5311
 4300SOL    HW224537   4.342   2.269  13.099 -1.6047  2.6831  0.3783
 4301SOL     OW24538   2.126   3.437  14.787 -0.1952 -0.2191 -0.8825
 4301SOL    HW124539   2.105   3.346  14.808 -1.2568  0.6568  1.7744
 4301SOL    HW224540   2.041   3.480  14.783 -0.2869 -0.3007  0.1540
 4302SOL     OW24541   3.088   0.728  17.446  0.0497  0.2456 -0.4668
 4302SOL    HW124542   3.050   0.775  17.373  0.9917  1.8358  0.0804
 4302SOL    HW224543   3.012   0.694  17.494 -0.0343  0.4820 -0.4334
 4303SOL     OW24544   2.575   1.717   2.242 -0.1394 -0.2425  0.5803
 4303SOL    HW124545   2.544   1.791   2.295  0.6197 -0.3495  1.1807
 4303SOL    HW224546   2.532   1.641   2.280 -1.1294  1.4125  2.7904
 4304SOL     OW24547   4.010   3.458   7.116  0.1424 -0.2044 -0.0490
 4304SOL    HW124548   3.920   3.476   7.141  0.9037  0.1922  2.5064
 4304SOL    HW224549   4.041   3.438   7.205 -0.2497 -1.3036 -0.1659
 4305SOL     OW24550   1.803   1.707   4.251  0.4317  0.2466 -0.5574
 4305SOL    HW124551   1.813   1.773   4.182  0.6446 -0.2504 -1.0056
 4305SOL    HW224552   1.891   1.697   4.286  0.3412  0.7227 -0.1956
 4306SOL     OW24553   1.978   0.392   2.889 -0.0714 -0.2098 -0.5690
 4306SOL    HW124554   1.916   0.336   2.842 -1.8232 -0.7208  2.2683
 4306SOL    HW224555   2.043   0.333   2.927  1.4101  0.1893 -2.5102
 4307SOL     OW24556   3.031   1.773   4.725  0.6126  0.6480  0.2180
 4307SOL    HW124557   2.977   1.705   4.765  2.2527  0.5599  2.2986
 4307SOL    HW224558   3.100   1.716   4.693 -0.4697 -0.8880  0.6463
 4308SOL     OW24559   0.381   3.674   6.482  0.1128 -0.2496  0.1888
 4308SOL    HW124560   0.330   3.731   6.540  1.6320  0.6630  0.6022
 4308SOL    HW224561   0.317   3.639   6.420 -1.8005  0.0863  1.9546
 4309SOL     OW24562   1.775   2.205   3.198  0.3212 -0.5840 -0.6588
 4309SOL    HW124563   1.832   2.130   3.183  0.5596 -1.0917  2.9276
 4309SOL    HW224564   1.690   2.165   3.213  1.3166 -2.3827  0.1107
 4310SOL     OW24565   0.610   1.350  11.047  0.1327 -0.0645  0.2314
 4310SOL    HW124566   0.544   1.385  10.987  1.6253  1.7512 -0.3626
 4310SOL    HW224567   0.609   1.257  11.024 -1.1803 -0.6437  2.5710
 4311SOL     OW24568   3.103   3.935  10.457 -0.2380  0.1699 -0.2122
 4311SOL    HW124569   3.013   3.903  10.454 -1.1191  2.2903  3.3071
 4311SOL    HW224570   3.140   3.900  10.376  2.3017  2.4422 -0.0311
 4312SOL     OW24571   0.441   4.189  14.159 -0.0794  0.1368 -0.1522
 4312SOL    HW124572   0.534   4.177  14.181 -0.4112 -1.7814  0.1863
 4312SOL    HW224573   0.409   4.100  14.145 -0.6296 -0.0441  2.1804
 4313SOL     OW24574   1.273   2.971   3.106  0.0830 -0.0103  0.0385
 4313SOL    HW124575   1.367   2.980   3.120  0.4829 -2.6172 -0.9827
 4313SOL    HW224576   1.273   2.876   3.094 -0.8316 -0.1582  1.2614
 4314SOL     OW24577   1.141   4.103   4.618  0.0077 -0.1847  0.0239
 4314SOL    HW124578   1.236   4.110   4.607  0.2096 -1.3320  0.9785
 4314SOL    HW224579   1.124   4.185   4.665 -2.0157 -2.1637  2.7768
 4315SOL     OW24580   1.459   1.332   5.495 -0.2905 -0.8348  0.4602
 4315SOL    HW124581   1.474   1.360   5.586  0.6409 -0.1401  0.0795
 4315SOL    HW224582   1.368   1.300   5.499 -0.0500 -1.3635  1.9115
 4316SOL     OW24583   3.703   3.251  13.998 -0.4509 -0.2303 -0.0275
 4316SOL    HW124584   3.690   3.160  13.968  0.9648 -1.0755  1.9424
 4316SOL    HW224585   3.627   3.267  14.054  1.5820  0.5642  2.5019
 4317SOL     OW24586   2.018   3.776   5.891 -0.1458  0.2333 -0.0121
 4317SOL    HW124587   2.007   3.690   5.931 -0.7214  0.4107  0.2135
 4317SOL    HW224588   1.936   3.791   5.844  0.5207  2.4344 -0.4792
 4318SOL     OW24589   4.388   3.761   7.463  0.0318 -0.1899 -0.1085
 4318SOL    HW124590   4.405   3.829   7.398  2.9431 -0.5372  0.3038
 4318SOL    HW224591   4.293   3.770   7.473  0.1594 -0.0561  1.0154
 4319SOL     OW24592   1.759   4.302   2.072  0.1455  0.2264  0.1262
 4319SOL    HW124593   1.718   4.234   2.126  2.5637 -0.3728  1.2320
 4319SOL    HW224594   1.852   4.294   2.093  0.0893  0.7104  0.5592
 4320SOL     OW24595   4.136   1.719   6.025  0.0599 -0.2163  0.2177
 4320SOL    HW124596   4.116   1.780   5.954  2.1171 -0.3258 -0.4809
 4320SOL    HW224597   4.143   1.787   6.092  1.8768 -1.9310  1.7769
 4321SOL     OW24598   4.344   4.331   4.547  0.6191  0.2645  0.3689
 4321SOL    HW124599   4.323   4.398   4.612 -0.2534  0.1235  0.2336
 4321SOL    HW224600   4.438   4.342   4.536  0.9732 -0.7627  2.3672
 4322SOL     OW24601   4.702   0.154   6.908  0.0453  0.0965  0.3085
 4322SOL    HW124602   4.655   0.073   6.886  1.9385 -1.7058  2.8205
 4322SOL    HW224603   4.696   0.185   6.818  0.3671  0.0780  0.2827
 4323SOL     OW24604   1.967   3.122  13.215 -0.6274 -0.0108  0.4619
 4323SOL    HW124605   1.980   3.034  13.252 -0.5232 -0.9174 -1.6941
 4323SOL    HW224606   1.873   3.138  13.215 -0.5243  0.5887 -0.0806
 4324SOL     OW24607   1.719   1.274  17.060 -0.7135  0.1685 -0.1653
 4324SOL    HW124608   1.632   1.309  17.038 -1.4008  0.8169  3.6005
 4324SOL    HW224609   1.763   1.274  16.975  0.2196  0.4478  0.3234
 4325SOL     OW24610   2.254   3.573   6.398 -0.0521  0.1970  0.4256
 4325SOL    HW124611   2.303   3.617   6.467  1.2998  0.7920 -0.9406
 4325SOL    HW224612   2.326   3.545   6.341 -0.7875 -0.4474 -0.1981
 4326SOL     OW24613   1.490   2.336   4.286  0.3605  0.2737 -0.1080
 4326SOL    HW124614   1.514   2.248   4.254 -1.2842  0.7925 -2.7274
 4326SOL    HW224615   1.395   2.337   4.277  0.2777 -1.5724  0.5276
 4327SOL     OW24616   1.936   2.319   4.213  0.1597  0.1404 -0.0030
 4327SOL    HW124617   1.932   2.242   4.269 -1.8070  0.8230  0.7951
 4327SOL    HW224618   1.910   2.274   4.133 -1.3660 -0.6265  0.9238
 4328SOL     OW24619   1.262   2.318   6.598  0.4818 -0.7426 -0.0005
 4328SOL    HW124620   1.320   2.260   6.646  0.6782  0.1513  0.8415
 4328SOL    HW224621   1.312   2.396   6.576  1.1235 -0.9010  0.9060
 4329SOL     OW24622   2.504   1.202   6.134  0.0249  0.3401  0.2163
 4329SOL    HW124623   2.586   1.252   6.129  1.5716 -2.0129  1.9771
 4329SOL    HW224624   2.468   1.214   6.046  1.1894 -0.8160 -0.4154
 4330SOL     OW24625   1.361   1.128   5.827  0.1715 -0.1188  0.4477
 4330SOL    HW124626   1.396   1.170   5.748 -0.3239  0.9336  0.7985
 4330SOL    HW224627   1.387   1.181   5.902  0.6503 -0.5838  0.6158
 4331SOL     OW24628   4.562   2.805   8.327 -0.2533  0.5894 -0.1898
 4331SOL    HW124629   4.555   2.773   8.237  0.9329  0.5638 -0.2656
 4331SOL    HW224630   4.577   2.716   8.357 -0.6428  0.1583 -1.2491
 4332SOL     OW24631   1.707   1.805   6.618  0.2685  0.2401  0.3816
 4332SOL    HW124632   1.795   1.804   6.581 -0.2371 -0.0132 -0.8236
 4332SOL    HW224633   1.683   1.717   6.587 -1.0757  1.0515 -0.8677
 4333SOL     OW24634   1.944   2.244   6.995  0.1704  0.7393 -0.0736
 4333SOL    HW124635   2.038   2.245   7.012  0.2843 -1.1561 -0.6061
 4333SOL    HW224636   1.912   2.256   7.084 -0.7023  1.3964 -0.4646
 4334SOL     OW24637   4.279   2.460   8.924  0.3283  0.8265 -0.1972
 4334SOL    HW124638   4.186   2.471   8.942  0.1478 -1.2202  0.0797
 4334SOL    HW224639   4.298   2.553   8.910 -1.4357  1.3021  0.5726
 4335SOL     OW24640   4.674   3.329   4.761  0.1030 -0.0020 -0.1548
 4335SOL    HW124641   4.599   3.362   4.810  0.3608  1.6438 -0.8781
 4335SOL    HW224642   4.730   3.405   4.745  1.1065 -0.4158  1.3778
 4336SOL     OW24643   1.583   4.621   4.394  0.3903 -0.0472 -0.1042
 4336SOL    HW124644   1.605   4.590   4.482 -1.0096  1.0879  0.6540
 4336SOL    HW224645   1.670   4.611   4.355  0.1843  0.3258 -0.6508
 4337SOL     OW24646   2.286   0.671   2.223 -0.1092  0.3650 -0.7113
 4337SOL    HW124647   2.209   0.727   2.218  0.1613  0.7866 -0.2130
 4337SOL    HW224648   2.268   0.627   2.306  3.4720 -0.1868 -0.2297
 4338SOL     OW24649   2.792   3.989   6.552  0.1262  0.3596  0.3113
 4338SOL    HW124650   2.798   4.005   6.458  0.2106  1.8386  0.5807
 4338SOL    HW224651   2.819   3.898   6.564  0.6177  0.3653 -0.7251
 4339SOL     OW24652   1.240   1.833  13.982 -0.2149  0.0681  0.0803
 4339SOL    HW124653   1.186   1.866  14.054 -1.3214  0.0173 -0.7328
 4339SOL    HW224654   1.305   1.790  14.038 -1.8503 -1.1102  1.0791
 4340SOL     OW24655   0.377   1.699   5.322  0.2869 -0.3984 -0.7545
 4340SOL    HW124656   0.289   1.667   5.340  0.9541 -0.6942  1.9967
 4340SOL    HW224657   0.364   1.785   5.283  2.2271  1.6882  3.1708
 4341SOL     OW24658   1.417   3.670  11.240 -0.2781 -0.1761  0.2043
 4341SOL    HW124659   1.331   3.694  11.207  0.1178  2.3094  1.0080
 4341SOL    HW224660   1.403   3.575  11.233  0.0079 -0.1745 -0.4840
 4342SOL     OW24661   2.889   4.604   6.003  0.3483 -0.3115  0.4278
 4342SOL    HW124662   2.811   4.569   6.045  0.0643  0.9880  0.9837
 4342SOL    HW224663   2.853   4.688   5.975 -0.3640 -1.3501 -1.8563
 4343SOL     OW24664   3.444   2.628   7.278  0.1887 -0.1107 -0.1381
 4343SOL    HW124665   3.471   2.537   7.288  1.6544  0.1567 -1.6233
 4343SOL    HW224666   3.438   2.655   7.369 -0.7815  0.2546 -0.3128
 4344SOL     OW24667   1.038   3.892   7.137 -0.2808 -0.0154 -0.6918
 4344SOL    HW124668   1.098   3.920   7.207 -2.1973  1.0013  0.5361
 4344SOL    HW224669   1.092   3.833   7.085 -0.1018 -0.0903 -0.4196
 4345SOL     OW24670   4.317   2.482   3.724 -0.3222 -0.4083 -0.4886
 4345SOL    HW124671   4.362   2.398   3.708 -0.0863 -0.3071 -0.3679
 4345SOL    HW224672   4.259   2.458   3.796  0.8183  0.0688  0.6098
 4346SOL     OW24673   3.543   3.447   5.205  0.3417  0.3517  0.3385
 4346SOL    HW124674   3.563   3.375   5.265 -3.5372 -0.9206  0.0842
 4346SOL    HW224675   3.459   3.413   5.174  1.3656  0.1404 -2.2348
 4347SOL     OW24676   4.650   4.516   5.207 -0.1085 -0.2130 -0.8714
 4347SOL    HW124677   4.580   4.566   5.249  0.3460 -0.3456  0.0515
 4347SOL    HW224678   4.602   4.446   5.162  0.2201 -2.4086  2.1513
 4348SOL     OW24679   2.669   3.884   7.890  0.8656  0.6459  0.1893
 4348SOL    HW124680   2.747   3.938   7.873  1.0266  0.4223  0.2217
 4348SOL    HW224681   2.610   3.952   7.922  2.0694  1.8139 -0.0861
 4349SOL     OW24682   4.736   0.100   7.525  0.6894  0.0619  0.4719
 4349SOL    HW124683   4.705   0.174   7.579  1.1776  1.1589 -0.7521
 4349SOL    HW224684   4.701   0.026   7.575  3.7131 -0.1522  2.2429
 4350SOL     OW24685   3.136   4.288   4.102 -0.0643  0.2927  0.1863
 4350SOL    HW124686   3.222   4.320   4.073 -0.8804  0.3977 -2.0888
 4350SOL    HW224687   3.093   4.373   4.093  0.4493  0.5533  0.1736
 4351SOL     OW24688   3.519   3.053   7.145  0.4164 -0.0549  0.6814
 4351SOL    HW124689   3.507   2.967   7.103 -0.2603 -0.1262  1.0362
 4351SOL    HW224690   3.426   3.071   7.158  0.3713 -0.4042  0.8601
 4352SOL     OW24691   0.929   3.713   5.066 -0.0211  0.5953  0.3162
 4352SOL    HW124692   0.925   3.787   5.006 -0.9886  0.5179  0.2871
 4352SOL    HW224693   0.877   3.747   5.139  1.9720  1.3761  1.3764
 4353SOL     OW24694   2.259   3.679   0.702  0.0159 -0.4244 -0.8348
 4353SOL    HW124695   2.182   3.624   0.689 -1.1279  1.6373 -2.7400
 4353SOL    HW224696   2.210   3.761   0.713 -2.5118 -2.1818  0.9826
 4354SOL     OW24697   3.507   4.378  12.054  0.2294  0.5275 -0.0364
 4354SOL    HW124698   3.539   4.426  11.978  0.7662 -0.5966 -0.5344
 4354SOL    HW224699   3.413   4.390  12.043  0.2170  0.3659 -0.1100
 4355SOL     OW24700   0.933   1.880   1.798  0.5985 -0.1588  0.0959
 4355SOL    HW124701   0.905   1.821   1.867 -1.7107  0.2444 -0.4789
 4355SOL    HW224702   1.017   1.837   1.785 -0.1846 -1.6426 -0.1159
 4356SOL     OW24703   1.864   0.842   2.855  0.7235 -0.2414 -0.3251
 4356SOL    HW124704   1.807   0.811   2.925  2.6865 -1.0864  0.8987
 4356SOL    HW224705   1.814   0.905   2.803 -0.7245 -0.2744  1.0252
 4357SOL     OW24706   3.096   0.415   3.592  0.3457  0.7066  0.3986
 4357SOL    HW124707   3.067   0.504   3.572  1.3861  0.7092 -1.1580
 4357SOL    HW224708   3.044   0.387   3.667  1.6539 -1.8224  0.3680
 4358SOL     OW24709   2.576   4.734   9.156 -0.0263 -0.2406 -0.6597
 4358SOL    HW124710   2.660   4.724   9.111  1.1462 -2.7563  2.1073
 4358SOL    HW224711   2.589   4.670   9.226 -1.8310 -1.4282 -1.4116
 4359SOL     OW24712   3.496   2.000   0.265 -0.6378 -0.0855  0.6728
 4359SOL    HW124713   3.589   1.979   0.276 -0.5522 -0.4345 -0.7649
 4359SOL    HW224714   3.468   1.923   0.216 -0.3645 -0.6118  1.3414
 4360SOL     OW24715   3.358   1.462   7.286  0.0858 -0.0903  0.0936
 4360SOL    HW124716   3.412   1.393   7.324  1.2264  0.4173 -0.6011
 4360SOL    HW224717   3.273   1.440   7.324  0.2567  0.1688  0.6239
 4361SOL     OW24718   1.324   2.398   6.149 -0.1281  0.0419 -0.3067
 4361SOL    HW124719   1.230   2.413   6.138 -0.3342 -0.6327  0.4832
 4361SOL    HW224720   1.341   2.453   6.225  0.7006  0.3065 -0.6922
 4362SOL     OW24721   1.797   0.466   3.072 -0.1984 -0.1259 -0.3718
 4362SOL    HW124722   1.729   0.425   3.018 -1.8203  0.0289  1.5752
 4362SOL    HW224723   1.876   0.443   3.023 -0.0237 -1.4064  0.5237
 4363SOL     OW24724   2.475   3.633   4.459 -0.2592 -0.2682 -0.4313
 4363SOL    HW124725   2.433   3.653   4.375 -0.3694 -2.6395 -0.9525
 4363SOL    HW224726   2.558   3.681   4.455 -0.2644 -0.3766 -1.9220
 4364SOL     OW24727   1.217   3.821  11.956  0.1259 -0.1370 -0.5270
 4364SOL    HW124728   1.256   3.907  11.941  0.1002 -0.1093 -0.4391
 4364SOL    HW224729   1.238   3.781  11.872  3.2506  2.1557 -0.8332
 4365SOL     OW24730   3.605   3.474  17.258 -0.5705 -0.1881  0.4547
 4365SOL    HW124731   3.568   3.513  17.337 -0.4287 -0.2318  0.5427
 4365SOL    HW224732   3.640   3.395  17.300 -0.3529 -0.0383  0.5578
 4366SOL     OW24733   4.045   4.204   6.613  0.9772  0.0129 -0.1695
 4366SOL    HW124734   4.080   4.293   6.612 -0.2758  0.5138  0.9885
 4366SOL    HW224735   4.095   4.174   6.689  0.4150 -1.7194 -0.5070
 4367SOL     OW24736   1.610   0.244   6.726 -0.4309 -0.1721  0.0352
 4367SOL    HW124737   1.526   0.263   6.684  0.2534  1.6760 -0.4943
 4367SOL    HW224738   1.634   0.319   6.780  0.9579 -1.1536  0.7645
 4368SOL     OW24739   4.222   4.578   6.457 -0.0982 -0.5004  0.1632
 4368SOL    HW124740   4.285   4.506   6.465  1.7168  1.0403 -0.3066
 4368SOL    HW224741   4.271   4.619   6.386 -0.8093 -0.8080 -0.5053
 4369SOL     OW24742   0.693   3.699  14.609  0.0802  0.5273  0.5732
 4369SOL    HW124743   0.629   3.682  14.540 -0.1465  2.9473  0.1789
 4369SOL    HW224744   0.643   3.686  14.689 -2.3639  1.2675 -0.8410
 4370SOL     OW24745   4.556   3.859   2.633  0.4218 -0.0918  0.0678
 4370SOL    HW124746   4.515   3.879   2.717 -1.1751  1.1603 -0.9870
 4370SOL    HW224747   4.507   3.778   2.623  0.4400 -0.0691 -0.2209
 4371SOL     OW24748   2.599   1.540  12.891  0.3622 -0.1462 -0.1670
 4371SOL    HW124749   2.570   1.456  12.926 -1.0157  0.4308  0.0796
 4371SOL    HW224750   2.612   1.594  12.969  4.0907 -1.4683  0.1129
 4372SOL     OW24751   3.126   2.404   3.581  0.6404  0.2548  0.4113
 4372SOL    HW124752   3.218   2.401   3.553  1.0969  0.8409  1.8728
 4372SOL    HW224753   3.140   2.386   3.674 -2.9316 -2.2868  0.4451
 4373SOL     OW24754   1.296   3.028   1.645  0.2437 -0.6033  0.2331
 4373SOL    HW124755   1.375   3.049   1.596 -1.9052 -0.0090 -2.9911
 4373SOL    HW224756   1.290   3.101   1.706 -0.3616  0.7234 -1.4016
 4374SOL     OW24757   2.476   1.979  13.052 -0.0416  0.2412 -1.2630
 4374SOL    HW124758   2.409   2.033  13.094  0.4487 -0.2447  0.1221
 4374SOL    HW224759   2.427   1.907  13.013  0.2805  0.0971 -1.4022
 4375SOL     OW24760   1.199   2.417   8.403 -0.6705  0.0605 -0.7497
 4375SOL    HW124761   1.189   2.453   8.315 -0.9228  2.3352  0.2025
 4375SOL    HW224762   1.106   2.397   8.405 -0.3914 -1.1855 -0.5594
 4376SOL     OW24763   3.281   0.078   1.487  0.0685  0.4671  0.1058
 4376SOL    HW124764   3.232   0.160   1.486  0.5323  0.7284 -1.3449
 4376SOL    HW224765   3.262   0.048   1.576 -2.2430 -1.4602 -1.0457
 4377SOL     OW24766   1.995   1.009  17.041  0.0183  0.6587 -0.5901
 4377SOL    HW124767   1.926   1.001  17.106  2.3641 -1.5316  1.6411
 4377SOL    HW224768   1.974   0.938  16.980 -0.6289  1.8207 -1.7050
 4378SOL     OW24769   4.294   3.377  12.767  0.3280 -0.5643  0.0131
 4378SOL    HW124770   4.201   3.378  12.745 -0.0105 -0.3916  1.4590
 4378SOL    HW224771   4.336   3.377  12.681 -0.1870  0.0650 -0.2374
 4379SOL     OW24772   4.641   2.140   3.511 -0.0644  0.4347 -1.0283
 4379SOL    HW124773   4.644   2.044   3.504  2.7896  0.5173 -1.0678
 4379SOL    HW224774   4.575   2.157   3.578  0.8901 -0.4955  0.1553
 4380SOL     OW24775   2.559   1.173   2.549 -0.3892 -0.4549 -0.1123
 4380SOL    HW124776   2.524   1.195   2.463 -0.9695 -1.0983 -0.0359
 4380SOL    HW224777   2.482   1.181   2.606 -0.0817  1.1117  0.0958
 4381SOL     OW24778   0.217   3.533   9.015  0.1187  0.0091  0.4350
 4381SOL    HW124779   0.226   3.514   8.921 -0.9342  1.4672  0.0422
 4381SOL    HW224780   0.255   3.621   9.017  2.3683 -0.9530  0.6581
 4382SOL     OW24781   1.881   1.534   8.134 -0.0325  0.0968 -0.1452
 4382SOL    HW124782   1.857   1.542   8.042  1.9903 -0.6871 -0.7324
 4382SOL    HW224783   1.840   1.613   8.169 -0.5010  1.5541 -4.0443
 4383SOL     OW24784   2.732   2.868   5.854 -0.2831 -0.5408  0.2201
 4383SOL    HW124785   2.800   2.862   5.787 -0.1327 -0.0334  0.3296
 4383SOL    HW224786   2.736   2.963   5.850  0.2696 -0.7299 -3.5180
 4384SOL     OW24787   4.736   2.880  14.518 -1.0637  0.1300  0.1447
 4384SOL    HW124788   4.654   2.876  14.567 -2.1796 -0.3669 -1.7692
 4384SOL    HW224789   0.048   2.908  14.595 -1.9650  2.2629 -0.0474
 4385SOL     OW24790   3.160   1.910  11.967 -0.0146  0.2478 -0.2162
 4385SOL    HW124791   3.195   1.931  11.880  1.0716 -0.6568  0.0101
 4385SOL    HW224792   3.217   1.838  11.994 -3.3495 -2.2256  0.1716
 4386SOL     OW24793   2.503   4.459  13.480 -0.4887  0.0907 -0.1355
 4386SOL    HW124794   2.567   4.479  13.411  1.0432  3.1380  2.1314
 4386SOL    HW224795   2.488   4.367  13.457 -0.7052  0.7421 -2.6767
 4387SOL     OW24796   1.249   0.037   6.541 -0.2348 -0.1237  0.2069
 4387SOL    HW124797   1.292   4.725   6.611  3.5800  2.5953 -0.2102
 4387SOL    HW224798   1.156   0.023   6.561  0.1127 -0.9630  1.2114
 4388SOL     OW24799   3.051   1.190  14.332  0.6004  0.0830  0.1958
 4388SOL    HW124800   3.004   1.262  14.291  1.7407 -0.8282 -2.7148
 4388SOL    HW224801   2.987   1.120  14.318 -1.0244  1.4501  0.7542
 4389SOL     OW24802   2.632   2.039   9.039  0.3084 -0.0476 -0.1440
 4389SOL    HW124803   2.592   2.121   9.065 -0.3945 -0.9353  1.5479
 4389SOL    HW224804   2.683   2.018   9.117  0.5412  1.5612  0.1230
 4390SOL     OW24805   2.860   2.500   5.375  0.1604 -0.0422  0.1909
 4390SOL    HW124806   2.870   2.441   5.300  0.6699 -1.2112  1.1654
 4390SOL    HW224807   2.920   2.571   5.352 -1.0361  0.4339 -1.4163
 4391SOL     OW24808   2.755   3.935  11.985  0.2804  0.4280 -0.1445
 4391SOL    HW124809   2.845   3.913  11.961  1.1076  1.3446  2.1319
 4391SOL    HW224810   2.729   3.844  11.971 -0.3820  0.5780  0.1249
 4392SOL     OW24811   2.824   2.009   9.244  0.4838  0.3807  0.1612
 4392SOL    HW124812   2.873   2.084   9.209 -1.4447  0.5789 -2.1446
 4392SOL    HW224813   2.792   2.042   9.328 -1.8602  0.6783 -0.8549
 4393SOL     OW24814   2.382   2.983   2.647  0.0682  0.0131  0.8384
 4393SOL    HW124815   2.345   2.908   2.693 -0.7365 -0.3319 -0.3687
 4393SOL    HW224816   2.452   2.999   2.710 -0.0720  1.7321  0.5494
 4394SOL     OW24817   0.779   1.471   8.679  0.7181  0.3562 -0.1976
 4394SOL    HW124818   0.861   1.429   8.704 -1.3195 -3.8145 -0.5189
 4394SOL    HW224819   0.730   1.461   8.761  0.0044 -0.0139 -0.6634
 4395SOL     OW24820   4.211   2.635   1.591  0.1900 -0.0600 -0.0416
 4395SOL    HW124821   4.188   2.604   1.679  2.0948 -1.5153 -0.0564
 4395SOL    HW224822   4.225   2.556   1.540  1.1890  1.0397 -1.4625
 4396SOL     OW24823   3.236   0.635   6.364  0.1740 -0.2659 -0.0815
 4396SOL    HW124824   3.196   0.703   6.310 -0.5641 -0.0109  0.7979
 4396SOL    HW224825   3.292   0.684   6.424  2.0124  0.4176 -2.3699
 4397SOL     OW24826   2.939   2.571  16.304 -0.1026 -0.4456  0.3398
 4397SOL    HW124827   2.990   2.511  16.250 -0.9350  1.1760 -2.2169
 4397SOL    HW224828   2.884   2.612  16.238  1.5223  1.1173 -0.0480
 4398SOL     OW24829   0.526   4.187  13.797  0.8015 -0.0070  0.3494
 4398SOL    HW124830   0.571   4.127  13.737  0.8657 -0.3541  0.7474
 4398SOL    HW224831   0.444   4.138  13.804 -0.8950  2.9911  1.6830
 4399SOL     OW24832   2.815   3.578   5.624 -0.2266  0.1325  0.3147
 4399SOL    HW124833   2.796   3.669   5.603 -1.7321 -0.5789 -1.3716
 4399SOL    HW224834   2.892   3.548   5.577  0.6508  1.6439  0.7911
 4400SOL     OW24835   2.529   2.723  13.127  0.4875  0.4006  0.7067
 4400SOL    HW124836   2.541   2.696  13.036  0.6139 -0.8493  1.0896
 4400SOL    HW224837   2.441   2.761  13.126  0.5996  0.5969 -1.5891
 4401SOL     OW24838   0.001   3.637   6.684  0.0240 -0.1897  0.4086
 4401SOL    HW124839   4.692   3.632   6.600  1.3375 -0.7862 -0.2811
 4401SOL    HW224840   0.075   3.688   6.651 -0.6494  1.7756  1.9353
 4402SOL     OW24841   1.906   1.319  16.849  0.1194 -0.0155 -0.7333
 4402SOL    HW124842   1.877   1.292  16.761  1.5351  1.7760 -1.7332
 4402SOL    HW224843   1.961   1.396  16.836  0.1682  0.1270  0.3236
 4403SOL     OW24844   4.405   1.649   6.157  0.4331 -0.0681  0.0844
 4403SOL    HW124845   4.326   1.678   6.112  0.2276 -0.6134  0.0981
 4403SOL    HW224846   4.445   1.731   6.185 -0.8333  0.5571  0.0634
 4404SOL     OW24847   2.938   0.655   3.547 -0.6806 -0.1596  1.0332
 4404SOL    HW124848   2.869   0.602   3.587 -2.9295  1.6055 -0.5142
 4404SOL    HW224849   2.899   0.687   3.466  0.1695 -0.8994  0.3376
 4405SOL     OW24850   1.420   3.534   3.148  0.0853 -0.0949  0.1544
 4405SOL    HW124851   1.339   3.522   3.198  0.4655 -2.6180  0.1780
 4405SOL    HW224852   1.424   3.629   3.162  0.9482 -0.2706  1.0862
 4406SOL     OW24853   3.943   3.392   1.671 -0.1669  0.0488 -0.3782
 4406SOL    HW124854   3.980   3.479   1.657 -0.1798  0.1615  0.2652
 4406SOL    HW224855   3.863   3.433   1.706 -1.8696 -3.4762 -0.1465
 4407SOL     OW24856   0.504   4.649   8.121  0.1230 -1.0080 -0.1211
 4407SOL    HW124857   0.564   4.724   8.126  0.8546 -1.6557  1.0696
 4407SOL    HW224858   0.557   4.588   8.069  2.5101  0.2922  0.7810
 4408SOL     OW24859   3.234   1.700   5.629  0.1555 -0.3487 -0.1493
 4408SOL    HW124860   3.310   1.710   5.571 -2.6688  0.8769 -3.6640
 4408SOL    HW224861   3.239   1.610   5.661  3.2261 -0.0640  0.1198
 4409SOL     OW24862   0.525   3.900   6.537 -0.6914  0.1919  0.7035
 4409SOL    HW124863   0.488   3.815   6.514 -1.7780  1.6056 -2.6464
 4409SOL    HW224864   0.485   3.917   6.622  0.3648 -0.6056  1.3689
 4410SOL     OW24865   2.827   4.701   4.338  0.0812  0.1261  0.8867
 4410SOL    HW124866   2.847   0.057   4.348  2.1207 -0.4049  1.8877
 4410SOL    HW224867   2.889   4.652   4.393  1.1037 -0.0003 -0.3909
 4411SOL     OW24868   0.590   4.340   4.078  0.3301 -0.5239 -0.3067
 4411SOL    HW124869   0.570   4.371   3.989 -3.3058  3.4018  1.8862
 4411SOL    HW224870   0.585   4.245   4.070 -0.6190 -0.5199  0.3427
 4412SOL     OW24871   0.584   2.626   3.883 -0.2737  0.0017  0.3151
 4412SOL    HW124872   0.534   2.585   3.954 -0.5262 -0.6535 -0.2371
 4412SOL    HW224873   0.548   2.584   3.805 -0.4621 -1.3505  1.1253
 4413SOL     OW24874   3.964   4.464   8.729  0.3064 -0.0383 -0.1780
 4413SOL    HW124875   3.973   4.405   8.653 -1.7370 -0.4765 -0.0823
 4413SOL    HW224876   4.052   4.453   8.764 -0.2696  0.1733  1.3066
 4414SOL     OW24877   2.932   3.604   3.182  0.6905 -0.1338  0.4701
 4414SOL    HW124878   2.988   3.549   3.128 -0.8231  0.7180 -1.9757
 4414SOL    HW224879   2.848   3.562   3.165  0.0665  1.1011  0.4564
 4415SOL     OW24880   0.020   3.011  16.842  0.1815  0.0177  0.3837
 4415SOL    HW124881   4.736   3.025  16.934  0.9680  0.0760  0.5591
 4415SOL    HW224882   4.701   3.072  16.795 -0.3507  0.4782  1.6217
 4416SOL     OW24883   1.935   0.070   3.109 -0.3671 -0.4741 -0.5056
 4416SOL    HW124884   2.030   0.067   3.100 -0.3045 -0.9572  0.3531
 4416SOL    HW224885   1.894   0.102   3.029 -0.9570  0.0160 -0.0066
 4417SOL     OW24886   3.536   2.763   1.785  0.2699  0.1951 -0.5278
 4417SOL    HW124887   3.571   2.674   1.773  1.1686  0.7788 -2.2776
 4417SOL    HW224888   3.471   2.763   1.715  1.0754  1.9479 -1.2675
 4418SOL     OW24889   3.020   4.214   5.250  0.3922  0.1353  0.3261
 4418SOL    HW124890   2.992   4.305   5.248  1.5303  0.4653 -0.3562
 4418SOL    HW224891   2.961   4.179   5.317  0.1224 -0.6328 -0.3153
 4419SOL     OW24892   2.932   2.636   9.188  0.1167 -0.3921 -0.6494
 4419SOL    HW124893   2.933   2.723   9.148  1.4995 -0.3838 -0.6294
 4419SOL    HW224894   2.864   2.640   9.254  0.3741  1.7968 -0.5018
 4420SOL     OW24895   4.240   1.906  14.627  0.4399  0.5311  0.3093
 4420SOL    HW124896   4.151   1.904  14.591 -0.2716  3.2134  1.9016
 4420SOL    HW224897   4.261   1.999  14.619  0.1152  0.6288  0.6088
 4421SOL     OW24898   2.360   4.625   7.592 -0.1335  0.1954  0.3986
 4421SOL    HW124899   2.291   4.609   7.527 -1.0390 -1.4643  1.7644
 4421SOL    HW224900   2.312   4.665   7.665 -2.2578 -2.2776  0.3636
 4422SOL     OW24901   0.111   1.035   4.064 -0.4517  0.3375 -0.0909
 4422SOL    HW124902   0.130   1.109   4.007 -0.1932  2.3572  2.6070
 4422SOL    HW224903   0.151   1.051   4.150  0.7181  0.3887 -0.6421
 4423SOL     OW24904   4.231   2.469  15.640  0.2173 -0.2687 -0.2826
 4423SOL    HW124905   4.268   2.546  15.598  1.6282 -0.8851 -0.1424
 4423SOL    HW224906   4.285   2.476  15.718 -0.0997  3.1872 -0.3974
 4424SOL     OW24907   1.863   3.491   3.479 -0.5731  0.2889  0.5250
 4424SOL    HW124908   1.888   3.458   3.565  0.3179  2.4853  1.0960
 4424SOL    HW224909   1.842   3.583   3.493  1.2926  1.0490 -1.6013
 4425SOL     OW24910   0.134   0.389   8.709  0.5786  0.1063 -0.2472
 4425SOL    HW124911   0.174   0.383   8.622  0.8871  0.2506 -0.1127
 4425SOL    HW224912   0.063   0.326   8.703  1.4938 -0.8420 -1.1310
 4426SOL     OW24913   0.667   3.385   9.279  0.6868 -0.4273 -0.2514
 4426SOL    HW124914   0.679   3.307   9.224 -0.5000 -1.2176  0.6275
 4426SOL    HW224915   0.748   3.432   9.257  0.3348 -0.6367 -1.9722
 4427SOL     OW24916   3.794   3.656   5.878  0.0061  0.3635 -0.2324
 4427SOL    HW124917   3.889   3.662   5.868  0.2245  1.3120  2.3922
 4427SOL    HW224918   3.797   3.688   5.969 -1.2112 -1.1755  0.3413
 4428SOL     OW24919   1.202   0.793  11.827 -0.4479  0.3606 -0.5314
 4428SOL    HW124920   1.220   0.714  11.776 -1.9145 -1.5820  1.9668
 4428SOL    HW224921   1.277   0.845  11.797  1.4882 -2.3829 -0.4742
 4429SOL     OW24922   2.506   3.736   7.097 -0.0157 -0.3764  0.1788
 4429SOL    HW124923   2.421   3.743   7.140  0.7873  1.8800  1.3628
 4429SOL    HW224924   2.528   3.817   7.051 -0.3666 -0.2011  0.3280
 4430SOL     OW24925   2.402   2.688   1.187 -0.5979  0.2846 -0.0428
 4430SOL    HW124926   2.482   2.644   1.217  1.3375  3.1568 -1.0381
 4430SOL    HW224927   2.352   2.679   1.268 -1.7379 -1.2700 -0.9125
 4431SOL     OW24928   1.149   3.067   3.942  0.2742  0.4077  0.1063
 4431SOL    HW124929   1.230   3.116   3.933  1.3800 -1.8640 -2.2448
 4431SOL    HW224930   1.182   2.980   3.964  0.5146  0.2804 -0.7609
 4432SOL     OW24931   3.554   3.289  16.442 -0.1138  0.0031 -0.1229
 4432SOL    HW124932   3.610   3.364  16.466  1.2753 -1.0729  0.0175
 4432SOL    HW224933   3.486   3.300  16.508 -0.7856 -1.6679 -0.5563
 4433SOL     OW24934   3.653   2.686  13.823 -0.5752  0.7622  0.1571
 4433SOL    HW124935   3.567   2.728  13.820  0.4150  2.7379 -0.6339
 4433SOL    HW224936   3.682   2.715  13.737  0.8142 -0.6354  0.1517
 4434SOL     OW24937   3.935   2.890   5.545 -0.8886  0.1660  0.9555
 4434SOL    HW124938   4.010   2.882   5.486 -0.9787 -1.2563  1.0256
 4434SOL    HW224939   3.925   2.983   5.565 -0.7155  0.0272  1.6860
 4435SOL     OW24940   0.055   2.241  14.201  0.3008  0.1092  0.5698
 4435SOL    HW124941   0.107   2.205  14.129  0.0426  2.5661 -0.8495
 4435SOL    HW224942   0.110   2.318  14.220  2.0984 -1.1115  0.2672
 4436SOL     OW24943   0.891   0.315   7.601 -0.0871  0.2593 -0.5114
 4436SOL    HW124944   0.850   0.303   7.516  1.4377  1.0056 -1.3445
 4436SOL    HW224945   0.949   0.239   7.602 -1.5382 -0.8427  0.1785
 4437SOL     OW24946   0.182   3.810   3.940  0.0511 -0.1028 -0.4271
 4437SOL    HW124947   0.239   3.738   3.966 -0.4955 -0.0007  1.0559
 4437SOL    HW224948   0.096   3.779   3.969  0.7892  0.0507  1.9319
 4438SOL     OW24949   1.578   2.144   4.129 -0.2587  0.5367 -0.2578
 4438SOL    HW124950   1.573   2.165   4.035  1.3512  0.1263 -0.4332
 4438SOL    HW224951   1.652   2.083   4.133  0.9168  2.0024  0.0708
 4439SOL     OW24952   0.595   2.817   9.768  0.0087  0.5255  0.8941
 4439SOL    HW124953   0.566   2.740   9.719  2.2294 -0.3627  1.0223
 4439SOL    HW224954   0.515   2.870   9.759 -1.0325 -1.2644 -0.4259
 4440SOL     OW24955   4.574   0.893   4.227  0.0444  0.3829 -0.2121
 4440SOL    HW124956   4.589   0.973   4.177  0.7399  0.4905  0.1861
 4440SOL    HW224957   4.597   0.925   4.314 -0.7496  0.2443  0.0549
 4441SOL     OW24958   0.724   0.262   7.799 -0.1414  0.6055  0.1333
 4441SOL    HW124959   0.787   0.279   7.729  0.8596  0.8881  1.0970
 4441SOL    HW224960   0.762   0.185   7.841 -1.9795 -0.4289 -0.1051
 4442SOL     OW24961   4.602   4.255   0.023 -0.2440  0.0875  0.1370
 4442SOL    HW124962   4.571   4.329   0.076  0.2927 -0.4409  1.1909
 4442SOL    HW224963   4.564   4.185   0.076  2.2909 -0.0403  1.7911
 4443SOL     OW24964   2.514   0.068   3.446  0.4453  0.0879 -0.0533
 4443SOL    HW124965   2.447   0.134   3.461  0.4517  0.8176 -3.3139
 4443SOL    HW224966   2.581   0.119   3.401  0.1733  1.2669  0.8703
 4444SOL     OW24967   1.762   2.415   4.621 -0.1571  0.1793  0.6336
 4444SOL    HW124968   1.672   2.445   4.606  0.6305  2.0253 -0.4612
 4444SOL    HW224969   1.803   2.427   4.535 -0.1087  4.1067  1.1919
 4445SOL     OW24970   3.781   0.788   4.473  0.0477 -0.4303  0.1163
 4445SOL    HW124971   3.724   0.786   4.549 -1.8408  1.7201 -1.2505
 4445SOL    HW224972   3.856   0.811   4.528  0.4582 -1.4961 -0.0031
 4446SOL     OW24973   2.892   3.862   9.572  0.4529  0.1081  0.3123
 4446SOL    HW124974   2.855   3.886   9.657  0.3516  2.9035 -0.5215
 4446SOL    HW224975   2.825   3.802   9.541 -0.1054  0.3738  1.0282
 4447SOL     OW24976   4.064   1.527   3.837  0.2351 -0.0345 -0.2151
 4447SOL    HW124977   4.030   1.486   3.757  1.0447 -1.2938  0.0886
 4447SOL    HW224978   3.987   1.525   3.893  0.7106 -4.3964  0.2984
 4448SOL     OW24979   2.741   2.692   3.342  0.0768 -0.5261 -0.0733
 4448SOL    HW124980   2.668   2.683   3.280 -1.6741 -1.6062  2.1314
 4448SOL    HW224981   2.765   2.602   3.360  2.6637 -0.0194 -1.0382
 4449SOL     OW24982   2.697   2.988   9.151 -0.3824 -0.0318 -0.2337
 4449SOL    HW124983   2.754   2.950   9.085 -2.1290  0.0458 -1.7662
 4449SOL    HW224984   2.761   2.995   9.222 -0.5701 -1.5853  0.0804
 4450SOL     OW24985   3.109   1.440   2.392 -0.0426  0.1925  0.0344
 4450SOL    HW124986   3.183   1.410   2.340 -0.5815 -1.3992  0.1751
 4450SOL    HW224987   3.075   1.511   2.336 -0.5856  0.9187  1.2940
 4451SOL     OW24988   0.892   0.318   4.793 -0.3930  0.2299 -0.6370
 4451SOL    HW124989   0.947   0.310   4.870  0.5199  0.9397 -1.2200
 4451SOL    HW224990   0.927   0.238   4.753 -0.7399 -1.9958  3.5144
 4452SOL     OW24991   0.384   3.704  15.711  0.4200 -0.4011 -0.2688
 4452SOL    HW124992   0.315   3.707  15.645  0.5604 -0.7098 -0.4293
 4452SOL    HW224993   0.384   3.794  15.745  1.0129 -0.4096 -0.2480
 4453SOL     OW24994   2.925   0.005  11.645 -0.3241 -0.2902 -0.0244
 4453SOL    HW124995   2.945   0.094  11.672  1.3202 -0.4875 -0.6182
 4453SOL    HW224996   2.843   4.733  11.694 -0.0846 -1.0943  0.2140
 4454SOL     OW24997   0.173   1.599   5.607 -0.2386  0.1512 -0.0383
 4454SOL    HW124998   0.162   1.581   5.514 -2.0651 -1.5157  0.4781
 4454SOL    HW224999   0.089   1.566   5.640  1.0901 -1.5265  1.7066
 4455SOL     OW25000   3.247   0.096   6.960 -0.2345 -0.6922  1.3480
 4455SOL    HW125001   3.276   0.153   7.031  2.9964  0.3458 -0.8230
 4455SOL    HW225002   3.282   0.010   6.984 -0.5381 -1.3430 -0.5789
 4456SOL     OW25003   1.171   2.622   1.733  0.5850  0.2283 -0.0939
 4456SOL    HW125004   1.199   2.547   1.681 -1.4267 -0.4728 -0.1785
 4456SOL    HW225005   1.255   2.657   1.764  1.2963 -1.4796 -0.0956
 4457SOL     OW25006   1.388   3.067  15.550  0.4857  0.5111 -0.1245
 4457SOL    HW125007   1.317   3.038  15.607  1.2393 -1.1092 -0.0225
 4457SOL    HW225008   1.458   3.018  15.592 -0.8300 -0.5498  0.8314
 4458SOL     OW25009   3.300   3.357   2.745  0.2357 -0.2615  0.0173
 4458SOL    HW125010   3.320   3.443   2.709  1.2310 -0.3133  0.4645
 4458SOL    HW225011   3.236   3.323   2.681 -1.3421 -0.4179  1.6725
 4459SOL     OW25012   4.528   0.252   1.476  0.3784  0.1796 -0.2938
 4459SOL    HW125013   4.553   0.330   1.525  1.3411 -0.8921  0.9182
 4459SOL    HW225014   4.437   0.237   1.501  0.3011 -1.8029 -1.7194
 4460SOL     OW25015   1.009   3.096   3.040  0.2202 -0.0149  0.8846
 4460SOL    HW125016   1.021   3.080   2.946  1.9440  2.1277  0.7431
 4460SOL    HW225017   1.072   3.042   3.088 -1.0984 -1.0530  1.4616
 4461SOL     OW25018   4.089   0.890   0.873 -0.1014 -0.3618  0.2939
 4461SOL    HW125019   4.173   0.844   0.870 -0.4018 -0.9469  0.8127
 4461SOL    HW225020   4.042   0.816   0.911 -0.4323 -0.1952  0.2102
 4462SOL     OW25021   2.360   3.500  13.130  0.1851 -0.2301 -0.8158
 4462SOL    HW125022   2.307   3.579  13.134  3.4986  1.9023  1.0851
 4462SOL    HW225023   2.333   3.452  13.209  0.9241  0.1537 -0.3270
 4463SOL     OW25024   0.633   3.766  11.675 -0.1895 -0.0580  0.3448
 4463SOL    HW125025   0.573   3.765  11.749 -0.9103  0.6147 -0.2393
 4463SOL    HW225026   0.597   3.841  11.628 -0.1475 -1.3412 -1.6967
 4464SOL     OW25027   2.427   2.175  13.832 -0.3793 -0.3449 -0.5228
 4464SOL    HW125028   2.396   2.230  13.904 -1.6822 -2.0270  0.1997
 4464SOL    HW225029   2.391   2.092  13.863  1.8527 -1.1087 -0.0106
 4465SOL     OW25030   0.329   0.591   7.290 -0.1124 -0.5012  0.1415
 4465SOL    HW125031   0.259   0.608   7.353  0.9356  1.9897  0.6202
 4465SOL    HW225032   0.356   0.507   7.328  1.7119 -0.6722 -1.5402
 4466SOL     OW25033   4.543   3.139   5.828 -0.5874  0.5658  0.8105
 4466SOL    HW125034   4.624   3.184   5.802  1.0326 -2.4930  0.6166
 4466SOL    HW225035   4.544   3.055   5.784 -0.3274 -0.3335  2.5064
 4467SOL     OW25036   4.371   2.535   4.190 -0.0386  0.1480  0.1136
 4467SOL    HW125037   4.291   2.542   4.242 -0.0879  2.0434 -0.2091
 4467SOL    HW225038   4.386   2.622   4.152  1.4492  1.1052  2.8696
 4468SOL     OW25039   1.864   1.771  16.003 -0.1517 -0.0935 -0.3102
 4468SOL    HW125040   1.852   1.676  16.007  0.0218 -0.0704  0.7240
 4468SOL    HW225041   1.806   1.788  16.077 -0.1921 -0.5064 -0.2472
 4469SOL     OW25042   3.126   1.414   7.420  0.4478  0.6082 -0.1472
 4469SOL    HW125043   3.043   1.460   7.415 -0.1820 -0.2860  1.8786
 4469SOL    HW225044   3.108   1.369   7.503  1.7122 -0.2605 -0.3498
 4470SOL     OW25045   2.979   4.158   8.275  0.1693  0.5034 -0.6145
 4470SOL    HW125046   2.951   4.231   8.219 -0.4828  0.0830 -0.8406
 4470SOL    HW225047   3.024   4.213   8.340  0.3545  0.8199 -1.0123
 4471SOL     OW25048   0.778   2.002   3.970  0.2632 -0.2852 -0.4249
 4471SOL    HW125049   0.842   1.989   4.040  0.4898  1.1661 -0.3691
 4471SOL    HW225050   0.706   2.041   4.019  0.7951 -0.0076  0.1341
 4472SOL     OW25051   3.316   2.538   7.562 -0.2622  0.0202 -0.3189
 4472SOL    HW125052   3.244   2.545   7.499 -0.3311 -0.3766 -0.2844
 4472SOL    HW225053   3.367   2.618   7.570  1.2943 -0.8038 -2.0083
 4473SOL     OW25054   3.598   4.184  11.325 -0.6444  0.1086  0.8435
 4473SOL    HW125055   3.553   4.260  11.288  0.4945  0.5108  0.2767
 4473SOL    HW225056   3.685   4.200  11.289 -0.8649  0.2961  0.3968
 4474SOL     OW25057   3.144   3.580   6.028  0.0068 -0.2508 -0.0480
 4474SOL    HW125058   3.138   3.494   5.985  2.0077  0.4629 -1.8287
 4474SOL    HW225059   3.179   3.638   5.959 -1.3281 -1.4740 -1.7524
 4475SOL     OW25060   0.373   3.469   3.783 -0.2578 -0.7473 -0.1455
 4475SOL    HW125061   0.429   3.489   3.707  1.9993  0.6588  1.9104
 4475SOL    HW225062   0.288   3.480   3.741 -0.3499 -2.6414 -0.4712
 4476SOL     OW25063   2.345   1.452   7.770 -0.1106  0.1838 -0.3477
 4476SOL    HW125064   2.282   1.524   7.765 -0.0966  0.2573  0.4608
 4476SOL    HW225065   2.338   1.405   7.687 -1.4255 -0.1706 -0.0314
 4477SOL     OW25066   4.124   3.554   5.805 -0.2822  0.2930 -0.7044
 4477SOL    HW125067   4.108   3.648   5.819  0.0300  0.3864 -0.9974
 4477SOL    HW225068   4.172   3.530   5.884  0.9830 -1.2129 -1.9444
 4478SOL     OW25069   1.099   2.029   7.242  0.5567 -0.3783 -0.2514
 4478SOL    HW125070   1.074   1.936   7.239  0.4923 -0.4407  2.1149
 4478SOL    HW225071   1.033   2.063   7.303 -0.6244 -0.6256 -1.3909
 4479SOL     OW25072   2.746   0.870   5.307  0.5077  0.2922 -0.3176
 4479SOL    HW125073   2.702   0.861   5.223 -0.4718 -1.0393  0.3366
 4479SOL    HW225074   2.798   0.790   5.303 -0.6128 -0.4814  0.3363
 4480SOL     OW25075   2.250   4.217  12.106  0.1837 -0.2025 -0.0175
 4480SOL    HW125076   2.304   4.248  12.034 -0.1538 -1.1277 -0.6733
 4480SOL    HW225077   2.290   4.132  12.122 -0.9819 -1.0903 -1.7667
 4481SOL     OW25078   0.380   1.054   9.235  0.3120  0.2453  0.3249
 4481SOL    HW125079   0.348   0.990   9.172  0.5335  0.4178  0.0335
 4481SOL    HW225080   0.473   1.039   9.223  0.0345 -0.9480 -0.3219
 4482SOL     OW25081   4.369   3.289   7.644  0.2125 -0.4217  0.6073
 4482SOL    HW125082   4.442   3.231   7.621  1.0886 -0.2249  2.8529
 4482SOL    HW225083   4.381   3.369   7.593 -0.2185 -0.9710 -0.3562
 4483SOL     OW25084   0.703   3.144   1.503  0.6231 -0.8694 -0.4217
 4483SOL    HW125085   0.785   3.113   1.541  0.9941  1.7147  0.9032
 4483SOL    HW225086   0.639   3.110   1.565  1.1615 -0.2493  0.4646
 4484SOL     OW25087   0.008   1.202   5.543  0.2168  0.2326  0.3443
 4484SOL    HW125088   0.026   1.112   5.517 -0.9146  0.4369 -1.1163
 4484SOL    HW225089   4.729   1.245   5.459 -0.5045 -1.2920 -0.2931
 4485SOL     OW25090   4.260   1.813   7.595  0.5584 -0.0119  0.5621
 4485SOL    HW125091   4.262   1.785   7.503  0.9252  1.3900  0.1440
 4485SOL    HW225092   4.194   1.755   7.632  0.6841  1.0013  2.3738
 4486SOL     OW25093   3.733   0.719  14.337  0.4751 -0.2702 -0.1365
 4486SOL    HW125094   3.677   0.648  14.308 -1.1922  1.0538 -0.1880
 4486SOL    HW225095   3.689   0.747  14.418 -1.0567 -0.4055 -0.9319
 4487SOL     OW25096   4.570   3.592  17.024 -0.4676 -0.4519 -0.1089
 4487SOL    HW125097   4.514   3.668  17.041 -0.1677  0.1942 -2.0553
 4487SOL    HW225098   4.528   3.556  16.947  0.7658 -1.3032 -0.3843
 4488SOL     OW25099   3.346   2.957   7.781  0.6430 -0.0769  0.5171
 4488SOL    HW125100   3.400   2.989   7.708 -1.2780  0.8196 -0.5206
 4488SOL    HW225101   3.264   2.999   7.756  0.0511  0.2918  3.0442
 4489SOL     OW25102   1.770   2.440   8.745  0.0282 -0.2589  0.2857
 4489SOL    HW125103   1.806   2.375   8.685  0.5550  1.1539 -0.9541
 4489SOL    HW225104   1.681   2.434   8.710  0.3595  1.1463 -0.8520
 4490SOL     OW25105   2.791   3.177   4.575 -0.2377 -0.3322  0.3337
 4490SOL    HW125106   2.732   3.122   4.524  1.8363  0.1516 -2.5996
 4490SOL    HW225107   2.784   3.263   4.534 -0.0802 -0.3400  0.2891
 4491SOL     OW25108   1.069   1.816  15.179  0.1271  0.2579  0.3202
 4491SOL    HW125109   1.151   1.796  15.135  0.4603  1.7523  0.2462
 4491SOL    HW225110   1.097   1.818  15.271  0.9387  0.1685  0.0710
 4492SOL     OW25111   3.658   0.476   6.112 -0.0648  0.0427 -0.0248
 4492SOL    HW125112   3.714   0.451   6.185 -1.7022 -0.2425  1.1167
 4492SOL    HW225113   3.613   0.555   6.143  1.2968  1.2114 -1.0187
 4493SOL     OW25114   0.217   0.366  10.682 -0.7099 -0.1346  0.4892
 4493SOL    HW125115   0.173   0.283  10.663  1.7388 -1.5263  0.8663
 4493SOL    HW225116   0.304   0.340  10.651 -0.5699 -0.1243  0.8670
 4494SOL     OW25117   2.200   0.424   6.673 -0.6524 -0.0396  0.0251
 4494SOL    HW125118   2.146   0.382   6.605 -0.4155 -0.0195 -0.1758
 4494SOL    HW225119   2.221   0.505   6.627  1.7863  0.0737  1.3781
 4495SOL     OW25120   4.157   1.801   2.653  0.1638  0.0206  0.0316
 4495SOL    HW125121   4.105   1.851   2.590  0.3605 -1.4846 -1.3613
 4495SOL    HW225122   4.097   1.732   2.681 -1.0024  0.1532 -2.1419
 4496SOL     OW25123   0.557   3.098   5.279  0.2346  0.0990 -0.0373
 4496SOL    HW125124   0.620   3.162   5.246  0.2589 -0.2985 -0.7679
 4496SOL    HW225125   0.614   3.044   5.335 -3.0837 -2.8881  0.4515
 4497SOL     OW25126   0.882   0.039   8.220 -0.0848 -0.0433 -0.2398
 4497SOL    HW125127   0.906   4.685   8.236 -0.3771  0.2243  1.6913
 4497SOL    HW225128   0.960   0.076   8.179 -1.3381  3.2796  0.4479
 4498SOL     OW25129   0.540   0.147   2.373  0.6223 -0.0501  0.1505
 4498SOL    HW125130   0.575   0.090   2.441  0.3759  0.2369  0.5225
 4498SOL    HW225131   0.614   0.145   2.312  0.2546 -1.0339 -0.2680
 4499SOL     OW25132   2.388   1.183   3.097  0.4378  0.1696  0.1412
 4499SOL    HW125133   2.445   1.258   3.082 -1.1550  1.2229 -0.7035
 4499SOL    HW225134   2.389   1.149   3.008 -2.3413  1.5150 -0.4215
 4500SOL     OW25135   3.585   3.842   1.288  0.2604  0.4150  0.6413
 4500SOL    HW125136   3.629   3.856   1.204 -1.0482 -2.5058 -0.5304
 4500SOL    HW225137   3.498   3.878   1.274 -0.0877 -1.6133 -2.4721
 4501SOL     OW25138   2.766   4.194   2.895 -0.3999 -0.0286 -0.0435
 4501SOL    HW125139   2.762   4.133   2.968 -0.6601 -2.1630 -1.8555
 4501SOL    HW225140   2.860   4.194   2.877 -0.1307 -0.4255  1.3262
 4502SOL     OW25141   2.270   2.152  17.683 -0.3826  0.1188  0.1775
 4502SOL    HW125142   2.187   2.152  17.634 -0.8252  1.3609  0.9168
 4502SOL    HW225143   2.325   2.134  17.606 -0.0842  0.8203  0.2176
 4503SOL     OW25144   4.531   1.640   5.515 -0.2310 -0.0412  0.2689
 4503SOL    HW125145   4.444   1.609   5.540  0.7524 -1.1588  2.3343
 4503SOL    HW225146   4.514   1.643   5.421  0.7147 -0.2523  0.0873
 4504SOL     OW25147   0.824   0.485   5.447  0.2630  0.5860 -0.3524
 4504SOL    HW125148   0.770   0.415   5.411  0.1289  0.8654 -0.6951
 4504SOL    HW225149   0.765   0.561   5.449  2.1432  2.0649 -1.0457
 4505SOL     OW25150   0.980   3.977   8.333 -0.7281  0.3589 -0.5434
 4505SOL    HW125151   1.029   3.960   8.252  0.1092 -2.0974  0.4860
 4505SOL    HW225152   0.918   3.906   8.344  1.3047 -1.0215  1.9490
 4506SOL     OW25153   3.554   1.343   4.695  0.5177  0.2013  0.4521
 4506SOL    HW125154   3.631   1.327   4.640 -1.7589 -0.9857 -2.3999
 4506SOL    HW225155   3.572   1.289   4.772  0.2247  0.0150  0.3878
 4507SOL     OW25156   2.548   1.172   0.916  0.0474  0.7968 -0.0327
 4507SOL    HW125157   2.555   1.123   0.998  2.1976 -0.2459 -0.8186
 4507SOL    HW225158   2.468   1.127   0.891  0.5900 -1.0484  1.5000
 4508SOL     OW25159   3.455   1.456  13.065  0.4245  0.3696  0.5516
 4508SOL    HW125160   3.361   1.461  13.052  0.5382  0.2251 -0.2998
 4508SOL    HW225161   3.487   1.465  12.975 -2.2891 -0.7993 -0.5384
 4509SOL     OW25162   0.365   0.695   8.107 -0.5165  0.0820  0.5475
 4509SOL    HW125163   0.358   0.705   8.012  0.7018  1.2090  0.5826
 4509SOL    HW225164   0.425   0.621   8.113 -0.8460 -0.1868  0.5582
 4510SOL     OW25165   1.087   0.642   6.426 -0.4213  0.0496  0.8777
 4510SOL    HW125166   1.080   0.633   6.521 -0.0117  0.1486  0.9194
 4510SOL    HW225167   1.038   0.723   6.413 -0.1322  0.2514  1.0479
 4511SOL     OW25168   3.922   2.941   2.679  0.5209 -0.3127 -0.1238
 4511SOL    HW125169   4.002   2.950   2.732  0.1520  0.7456  0.2641
 4511SOL    HW225170   3.856   2.921   2.745 -0.0719  2.8655  0.2518
 4512SOL     OW25171   4.391   3.263   8.179 -0.5463 -0.0096  0.0299
 4512SOL    HW125172   4.430   3.228   8.259 -1.1298 -0.8472 -0.0467
 4512SOL    HW225173   4.339   3.192   8.142 -0.1392  0.0679 -0.6883
 4513SOL     OW25174   1.261   3.063   8.457  0.3094 -0.5940  0.0646
 4513SOL    HW125175   1.218   3.040   8.374  1.2872  1.1099 -0.9153
 4513SOL    HW225176   1.299   3.148   8.435 -1.1592 -0.1844 -0.8663
 4514SOL     OW25177   2.108   1.560   0.194  0.0346  0.2327 -0.1676
 4514SOL    HW125178   2.110   1.587   0.286 -1.4037 -1.6866  0.4301
 4514SOL    HW225179   2.192   1.580   0.153  0.6868  1.6597  1.9089
 4515SOL     OW25180   3.176   1.661   7.082  0.1080  0.3342  0.3736
 4515SOL    HW125181   3.186   1.716   7.160  1.6356  0.5657  0.0198
 4515SOL    HW225182   3.249   1.604   7.106 -0.8345 -0.7564  0.6343
 4516SOL     OW25183   4.430   3.600   3.687 -0.8200 -0.4751  0.5492
 4516SOL    HW125184   4.505   3.576   3.741 -0.5824 -1.5522 -0.2588
 4516SOL    HW225185   4.426   3.695   3.703  1.6105 -0.4567  1.1039
 4517SOL     OW25186   3.044   3.174   0.511 -0.1068 -0.1237 -0.1805
 4517SOL    HW125187   3.095   3.252   0.532  1.0664 -1.9531  3.6390
 4517SOL    HW225188   3.104   3.132   0.449  0.4074 -1.8041  1.4606
 4518SOL     OW25189   4.661   0.694   5.357 -1.0078  0.2022  0.4159
 4518SOL    HW125190   0.008   0.652   5.372 -1.5415 -1.0768 -0.1304
 4518SOL    HW225191   4.621   0.691   5.444  0.7140 -2.1202  1.1083
 4519SOL     OW25192   1.638   0.905  16.142 -0.2821  0.4390  0.3429
 4519SOL    HW125193   1.570   0.882  16.079  0.0199  1.1233 -0.2346
 4519SOL    HW225194   1.595   0.862  16.216 -0.7101 -2.4620 -1.5524
 4520SOL     OW25195   4.708   4.140   4.342  0.5824 -0.5083 -0.4710
 4520SOL    HW125196   4.685   4.187   4.261 -1.7856  1.1952  1.1800
 4520SOL    HW225197   4.630   4.087   4.358  0.4785 -0.0019  0.7176
 4521SOL     OW25198   2.177   4.417  16.054  0.4579  0.4218  0.1072
 4521SOL    HW125199   2.184   4.357  15.980 -1.5771 -0.5621  0.7192
 4521SOL    HW225200   2.104   4.474  16.033  0.3886  0.6667  1.0312
 4522SOL     OW25201   1.483   4.147  15.831  0.4203 -0.0490  0.7044
 4522SOL    HW125202   1.413   4.211  15.816  1.9503  1.2187 -0.9763
 4522SOL    HW225203   1.530   4.159  15.749  0.6433  0.0264  0.8453
 4523SOL     OW25204   4.157   0.808   1.288  0.0774 -0.2750  0.2852
 4523SOL    HW125205   4.122   0.866   1.221  1.0157 -1.4342 -1.2104
 4523SOL    HW225206   4.111   0.726   1.268  2.8222 -1.3811 -1.6127
 4524SOL     OW25207   2.059   2.748   3.489  0.5399  0.4912 -0.1961
 4524SOL    HW125208   2.148   2.767   3.519  1.0400 -0.7514 -0.9096
 4524SOL    HW225209   2.048   2.655   3.509  1.0344  0.8862  1.9550
 4525SOL     OW25210   1.645   1.312  10.843  0.6366 -0.3006 -0.6743
 4525SOL    HW125211   1.668   1.405  10.843 -0.5014 -0.0243 -2.0111
 4525SOL    HW225212   1.725   1.270  10.810  1.0107 -0.6951  0.7295
 4526SOL     OW25213   2.481   0.488   9.994 -0.2173  0.2243  0.2499
 4526SOL    HW125214   2.436   0.470   9.912  2.5307  1.5633 -1.5165
 4526SOL    HW225215   2.538   0.412  10.008  0.2036  0.1447 -2.0084
 4527SOL     OW25216   0.312   0.086   6.145  0.0652  0.6654  0.5896
 4527SOL    HW125217   0.378   0.022   6.174 -0.0582 -0.6162 -1.9538
 4527SOL    HW225218   0.351   0.099   6.058 -2.3349 -0.1202 -0.5931
 4528SOL     OW25219   2.275   2.444   5.139  0.7089  0.3588 -1.1542
 4528SOL    HW125220   2.264   2.487   5.224  0.7719 -0.1045 -0.9112
 4528SOL    HW225221   2.190   2.467   5.101  0.4899  0.6015 -0.5342
 4529SOL     OW25222   3.017   3.255   2.419  1.1000  0.4999  0.4889
 4529SOL    HW125223   3.079   3.202   2.469 -0.2871 -0.9135  0.7111
 4529SOL    HW225224   3.025   3.204   2.338 -1.4931 -0.8345  1.0998
 4530SOL     OW25225   1.856   3.803   5.655  0.4028  0.0972 -0.9294
 4530SOL    HW125226   1.856   3.887   5.701  2.0764 -0.1686 -0.4474
 4530SOL    HW225227   1.775   3.808   5.606 -0.1599  1.8410  0.1845
 4531SOL     OW25228   3.794   1.516   7.544 -0.3292 -0.5127 -0.4259
 4531SOL    HW125229   3.837   1.550   7.466  0.7113  1.2414  0.9162
 4531SOL    HW225230   3.824   1.570   7.617  1.6206  1.1164 -2.4171
 4532SOL     OW25231   3.897   1.282   8.345 -0.7489 -0.6212 -0.0777
 4532SOL    HW125232   3.856   1.368   8.352 -0.8820 -0.5969 -1.1939
 4532SOL    HW225233   3.897   1.265   8.439 -0.2755 -0.0119  0.0317
 4533SOL     OW25234   2.957   3.935  10.172  0.1176  0.0242  0.1884
 4533SOL    HW125235   2.877   3.960  10.219  1.0464 -1.0052  2.3117
 4533SOL    HW225236   2.947   3.840  10.163 -0.8647  0.0065  1.3823
 4534SOL     OW25237   0.246   3.815   4.752  0.0364 -0.3790 -0.1912
 4534SOL    HW125238   0.326   3.838   4.800 -0.8025  2.7815 -0.3231
 4534SOL    HW225239   0.279   3.834   4.664  0.5647 -1.1710 -0.1660
 4535SOL     OW25240   4.466   4.095   7.637  0.7725  0.5358 -0.2063
 4535SOL    HW125241   4.384   4.057   7.669  0.2187  2.6361  0.8967
 4535SOL    HW225242   4.454   4.102   7.543  3.4084 -1.0434 -0.6601
 4536SOL     OW25243   1.366   1.344   6.014  0.1992 -0.1629 -0.2105
 4536SOL    HW125244   1.317   1.367   5.935  0.3559  1.6199  0.1962
 4536SOL    HW225245   1.297   1.346   6.080 -1.9878 -1.1387 -2.4380
 4537SOL     OW25246   1.146   2.038   8.196 -0.3302 -0.4299  0.2890
 4537SOL    HW125247   1.209   1.971   8.170 -0.3367 -0.6402  0.8143
 4537SOL    HW225248   1.164   2.053   8.289  1.6329 -0.2202 -0.1378
 4538SOL     OW25249   2.404   3.350   9.307  0.3704  0.0714  0.1862
 4538SOL    HW125250   2.396   3.293   9.384  1.5532  0.7945  0.8349
 4538SOL    HW225251   2.497   3.368   9.317  0.8244 -2.7249  1.1190
 4539SOL     OW25252   4.289   2.360   3.352  0.3396  0.4915 -0.0616
 4539SOL    HW125253   4.288   2.291   3.419  1.2292 -1.0988 -1.7095
 4539SOL    HW225254   4.381   2.384   3.351  0.6302 -0.5381  1.8079
 4540SOL     OW25255   2.882   4.675   2.279 -0.1105  0.2136 -0.7432
 4540SOL    HW125256   2.965   4.631   2.294 -0.5726 -0.4166 -0.0306
 4540SOL    HW225257   2.823   4.622   2.333  0.1092 -0.1931 -0.9088
 4541SOL     OW25258   3.900   1.347   2.051  0.3772  0.0903 -0.0197
 4541SOL    HW125259   3.984   1.322   2.015 -0.0318 -0.0891 -0.8337
 4541SOL    HW225260   3.921   1.331   2.143 -0.3315 -3.6089 -0.5024
 4542SOL     OW25261   1.805   3.487   8.641  0.0218 -0.3570  0.0868
 4542SOL    HW125262   1.777   3.567   8.686  0.2704  1.1172 -2.3860
 4542SOL    HW225263   1.900   3.497   8.648 -0.1097  0.3766  0.9124
 4543SOL     OW25264   2.951   0.745   5.673 -0.0963  0.0652 -0.0832
 4543SOL    HW125265   3.044   0.727   5.660  0.3124  0.6701  1.9522
 4543SOL    HW225266   2.917   0.657   5.686  1.3431 -0.2687  1.3821
 4544SOL     OW25267   0.334   2.104   7.046  0.0652 -0.5280  0.0145
 4544SOL    HW125268   0.378   2.021   7.065  0.8146 -0.4720 -1.5048
 4544SOL    HW225269   0.382   2.128   6.966  0.4484 -1.6356 -0.0897
 4545SOL     OW25270   4.568   4.434   6.394  0.4203  0.0623  0.2762
 4545SOL    HW125271   4.524   4.371   6.337 -1.2566  1.5425 -0.0872
 4545SOL    HW225272   4.654   4.442   6.354 -0.6517  1.3046 -1.7998
 4546SOL     OW25273   0.001   1.871  14.931 -0.3872  0.2160 -0.2990
 4546SOL    HW125274   0.058   1.816  14.878  0.2362  1.3231 -0.7839
 4546SOL    HW225275   4.650   1.833  14.935  0.7160 -2.3467 -0.2073
 4547SOL     OW25276   1.144   4.377  11.272 -0.5952 -0.7610  0.3354
 4547SOL    HW125277   1.173   4.329  11.194  0.1844  0.6015 -0.2269
 4547SOL    HW225278   1.049   4.366  11.276 -0.5438 -0.9224  1.0330
 4548SOL     OW25279   2.749   0.736   4.829 -0.4041 -0.3780  0.6089
 4548SOL    HW125280   2.742   0.692   4.744 -1.7148  0.7430  0.1420
 4548SOL    HW225281   2.674   0.702   4.877 -0.9393  0.5004  0.4034
 4549SOL     OW25282   2.072   1.268   5.589  0.2335 -0.5124 -0.0059
 4549SOL    HW125283   2.067   1.181   5.628  0.5682 -1.6195 -2.4522
 4549SOL    HW225284   2.064   1.238   5.499  2.3156 -2.8083  0.5756
 4550SOL     OW25285   3.096   4.572   3.118 -0.1606 -0.0568  0.1376
 4550SOL    HW125286   3.136   4.650   3.078 -0.8892 -0.9333 -2.3215
 4550SOL    HW225287   3.014   4.613   3.146 -0.4057 -1.2481  1.1258
 4551SOL     OW25288   4.276   2.085   3.488 -0.6325  0.2764  0.4685
 4551SOL    HW125289   4.197   2.126   3.523 -0.4918 -0.8458  2.1192
 4551SOL    HW225290   4.257   1.994   3.513 -1.9495  1.6761  4.6371
 4552SOL     OW25291   4.666   2.643   9.561  0.1887  0.2188 -0.7374
 4552SOL    HW125292   4.642   2.646   9.654 -0.4575  0.7904 -0.9232
 4552SOL    HW225293   4.645   2.734   9.541 -1.4285  0.1656  0.7469
 4553SOL     OW25294   4.446   1.951   8.772 -0.3929 -0.0535 -0.0036
 4553SOL    HW125295   4.356   1.923   8.789 -0.4295 -0.8227 -1.5260
 4553SOL    HW225296   4.428   2.045   8.771 -2.5583 -0.4406  1.6556
 4554SOL     OW25297   4.304   2.270   8.407  0.4258 -0.2683  0.4526
 4554SOL    HW125298   4.387   2.223   8.411 -0.3220 -1.7226 -0.6886
 4554SOL    HW225299   4.340   2.357   8.392 -1.5152  0.1363 -2.0431
 4555SOL     OW25300   1.512   0.667   4.482 -0.0175 -0.3889 -0.6370
 4555SOL    HW125301   1.427   0.624   4.488 -0.5367  0.8597  0.8167
 4555SOL    HW225302   1.505   0.725   4.557  1.3994  0.3199 -1.0513
 4556SOL     OW25303   3.920   1.194   4.302 -0.2035 -0.4010  0.6688
 4556SOL    HW125304   3.915   1.106   4.263 -0.7963  0.3996 -1.0740
 4556SOL    HW225305   4.014   1.205   4.287 -0.0472  0.2526  2.1091
 4557SOL     OW25306   1.696   0.935  15.274  0.2836 -0.8237 -0.3927
 4557SOL    HW125307   1.722   0.845  15.291  0.1854 -0.7683  0.0293
 4557SOL    HW225308   1.613   0.949  15.320  0.1260 -0.0079 -0.9133
 4558SOL     OW25309   0.117   1.468  14.887  0.2636 -0.6806 -0.4724
 4558SOL    HW125310   0.151   1.557  14.877  0.5114 -0.7059  0.1348
 4558SOL    HW225311   0.194   1.421  14.855  1.4979  0.7949  0.3110
 4559SOL     OW25312   1.200   1.742   7.680  0.0755 -0.3061  0.1994
 4559SOL    HW125313   1.287   1.710   7.703  0.2804  0.7614  0.8912
 4559SOL    HW225314   1.180   1.709   7.592 -0.3654  1.1954 -0.2556
 4560SOL     OW25315   3.990   1.946   9.132 -0.3696  0.0035 -0.4987
 4560SOL    HW125316   3.988   1.883   9.205 -1.1797  3.1228  2.1804
 4560SOL    HW225317   4.027   2.016   9.187  0.0239 -1.0312  0.5581
 4561SOL     OW25318   2.965   1.769   6.238  0.3639 -0.5929 -0.8807
 4561SOL    HW125319   3.028   1.697   6.235  0.4244 -0.5660 -0.2756
 4561SOL    HW225320   3.020   1.843   6.212  0.5372 -0.9711 -1.5761
 4562SOL     OW25321   2.462   3.399  10.886 -0.1277  0.3292 -0.4917
 4562SOL    HW125322   2.409   3.402  10.965 -0.7978  2.8218 -1.0169
 4562SOL    HW225323   2.517   3.326  10.915 -0.7637 -0.2515 -0.7573
 4563SOL     OW25324   2.035   1.180   3.493  0.6840  0.2912 -0.6389
 4563SOL    HW125325   2.065   1.267   3.468 -0.6355  1.0704  0.4756
 4563SOL    HW225326   2.024   1.196   3.587  0.3859 -1.1799 -0.4142
 4564SOL     OW25327   0.262   1.503   9.581  0.5281  0.5166 -0.0194
 4564SOL    HW125328   0.214   1.585   9.584 -0.7638 -0.2967  1.2494
 4564SOL    HW225329   0.353   1.531   9.593  0.2746  1.1305  0.4879
 4565SOL     OW25330   0.248   3.263   1.887  0.8116  0.5246  0.2048
 4565SOL    HW125331   0.286   3.328   1.827  3.4022  0.4509  1.7616
 4565SOL    HW225332   0.206   3.205   1.824  0.6436 -3.5494  4.0941
 4566SOL     OW25333   3.833   1.961  15.978  0.0783 -0.0145 -0.5257
 4566SOL    HW125334   3.922   1.926  15.979  0.7916  1.7494 -1.7382
 4566SOL    HW225335   3.848   2.054  15.958 -2.0972  0.1822 -1.3311
 4567SOL     OW25336   2.943   3.569   9.175  0.6529 -0.8620  0.2411
 4567SOL    HW125337   2.899   3.623   9.109 -0.4395 -1.0555  0.8014
 4567SOL    HW225338   3.021   3.535   9.132  0.7895  0.4089 -0.5195
 4568SOL     OW25339   2.770   0.052  13.174 -0.5888  0.3100 -0.1173
 4568SOL    HW125340   2.753   0.008  13.257  2.3487 -2.2286 -0.8850
 4568SOL    HW225341   2.861   0.078  13.180 -0.4411  0.6336 -3.4909
 4569SOL     OW25342   2.210   3.740  14.808  0.1293 -0.1983  0.1220
 4569SOL    HW125343   2.162   3.776  14.733  1.7382 -3.5770 -2.5679
 4569SOL    HW225344   2.164   3.658  14.822  1.7213 -1.0667  0.3096
 4570SOL     OW25345   1.232   1.919   4.997 -0.1689 -0.4268  0.6873
 4570SOL    HW125346   1.318   1.933   5.037 -0.4892  2.5037  0.3249
 4570SOL    HW225347   1.200   1.841   5.043 -1.2139  0.3752  1.3259
 4571SOL     OW25348   4.079   3.974   6.800 -0.2988  0.2980 -0.6993
 4571SOL    HW125349   4.059   3.889   6.839  0.6722  0.5487  0.3470
 4571SOL    HW225350   4.175   3.980   6.792 -0.5758  2.7615 -2.0861
 4572SOL     OW25351   0.385   2.800  10.069 -0.2945 -0.1402 -0.4080
 4572SOL    HW125352   0.358   2.734  10.006 -1.5004 -0.9258  0.9246
 4572SOL    HW225353   0.304   2.834  10.109  0.2660 -1.2692  1.6562
 4573SOL     OW25354   4.545   2.940  16.122 -0.2177 -0.2091 -0.2280
 4573SOL    HW125355   4.616   2.876  16.131 -0.2461 -0.1387  0.5435
 4573SOL    HW225356   4.584   3.020  16.157 -1.7294  1.4698 -2.4176
 4574SOL     OW25357   4.038   2.202   0.846 -0.4722  0.1308  0.4017
 4574SOL    HW125358   4.041   2.271   0.913 -0.0235  0.1243  0.3932
 4574SOL    HW225359   4.054   2.124   0.900  0.7373 -0.7434 -1.2118
 4575SOL     OW25360   0.878   0.144   5.531  0.0083 -0.2500  0.0334
 4575SOL    HW125361   0.921   0.071   5.486  1.4725  0.9407 -0.4899
 4575SOL    HW225362   0.832   0.177   5.454 -0.7817 -0.7534  0.2942
 4576SOL     OW25363   0.549   4.654   3.110 -1.1449  0.5602 -0.6274
 4576SOL    HW125364   0.607   4.617   3.044  0.0460  2.7884 -0.8416
 4576SOL    HW225365   0.569   0.010   3.123 -0.3821  0.5242 -1.5129
 4577SOL     OW25366   4.089   3.927   2.182 -0.4586 -0.5369 -0.0705
 4577SOL    HW125367   3.997   3.945   2.199 -0.0545 -2.0231  3.6029
 4577SOL    HW225368   4.107   3.844   2.226  1.6902  1.0356  2.0159
 4578SOL     OW25369   4.017   1.726  13.983  0.3038  0.2267 -0.1346
 4578SOL    HW125370   4.084   1.795  13.975  0.2184  0.4135  0.6971
 4578SOL    HW225371   3.983   1.742  13.895  0.4115 -0.5511 -0.3213
 4579SOL     OW25372   2.559   0.489   6.886 -0.3451 -0.6003  0.3306
 4579SOL    HW125373   2.517   0.409   6.854 -1.3811  0.8796 -2.0043
 4579SOL    HW225374   2.532   0.554   6.821  0.7537  1.5627  2.0179
 4580SOL     OW25375   0.719   0.875   4.409 -0.0252  0.0948  0.1481
 4580SOL    HW125376   0.742   0.816   4.480  1.5627  0.8413  0.2619
 4580SOL    HW225377   0.719   0.957   4.459 -0.4941  0.4725 -0.4560
 4581SOL     OW25378   3.465   1.179   0.009 -0.3487  0.5412  0.1128
 4581SOL    HW125379   3.411   1.139  17.689  1.2069 -2.1413  0.4476
 4581SOL    HW225380   3.534   1.114   0.024 -0.1957  0.0689 -2.6334
 4582SOL     OW25381   1.157   0.574   6.688  0.0086 -0.3493 -0.7690
 4582SOL    HW125382   1.116   0.534   6.765  0.5830  0.2593 -0.1449
 4582SOL    HW225383   1.176   0.666   6.709 -1.7125  0.4523 -2.7121
 4583SOL     OW25384   2.202   0.531   0.736  0.7630 -0.6277  0.4150
 4583SOL    HW125385   2.122   0.503   0.781  0.1357 -0.5938 -0.6688
 4583SOL    HW225386   2.210   0.452   0.681  1.1330  0.1469 -0.6356
 4584SOL     OW25387   3.672   1.223   2.987  0.1602 -0.4668 -0.7969
 4584SOL    HW125388   3.617   1.171   2.928 -0.1137 -0.6205 -0.4048
 4584SOL    HW225389   3.682   1.306   2.940 -1.1813  0.6045  0.7725
 4585SOL     OW25390   4.730   2.329   5.861 -0.4717 -0.0062  0.4583
 4585SOL    HW125391   0.034   2.243   5.870 -1.4413 -0.3962  1.0535
 4585SOL    HW225392   0.031   2.360   5.778  0.5508 -1.4578  0.3852
 4586SOL     OW25393   1.035   1.943   1.278 -0.4617 -0.3356 -0.0399
 4586SOL    HW125394   1.040   1.982   1.190  1.3309 -2.1108 -0.7421
 4586SOL    HW225395   1.041   1.850   1.257 -0.9309 -0.4396  0.2966
 4587SOL     OW25396   3.900   4.344   5.332 -0.2055  0.2202  0.2331
 4587SOL    HW125397   3.843   4.328   5.408  0.3416  0.4619  0.6909
 4587SOL    HW225398   3.839   4.350   5.258 -2.3001 -1.6706  1.8031
 4588SOL     OW25399   4.670   3.615   1.814  0.2138 -0.7958  0.1821
 4588SOL    HW125400   4.630   3.532   1.840  0.5296 -1.3239 -0.9970
 4588SOL    HW225401   4.690   3.660   1.896 -2.7408 -0.3621  0.6778
 4589SOL     OW25402   4.532   2.698   3.278 -0.4373 -0.0238  0.1042
 4589SOL    HW125403   4.566   2.616   3.313 -1.2275 -0.2065  0.4450
 4589SOL    HW225404   4.550   2.687   3.184 -0.3632  1.5218 -0.0679
 4590SOL     OW25405   2.404   3.420   3.291  0.3498  0.7589  0.1238
 4590SOL    HW125406   2.388   3.377   3.374  3.1926 -1.1221 -0.3289
 4590SOL    HW225407   2.499   3.410   3.281  0.6358  2.3362  1.2812
 4591SOL     OW25408   0.998   3.299   9.411  0.2313 -0.0234  0.2789
 4591SOL    HW125409   0.950   3.318   9.491  0.6539  2.6414 -0.1044
 4591SOL    HW225410   0.964   3.360   9.346 -2.0242  0.1672  1.6523
 4592SOL     OW25411   0.519   1.119   7.951  0.0918 -0.0950 -0.6343
 4592SOL    HW125412   0.447   1.137   7.892 -1.4043  0.5502  1.3693
 4592SOL    HW225413   0.513   1.190   8.016 -2.0481 -1.0732  0.2401
 4593SOL     OW25414   4.622   4.407   8.364 -0.3100 -0.0913  0.4788
 4593SOL    HW125415   4.566   4.330   8.364  1.5970 -1.4694 -2.2008
 4593SOL    HW225416   4.694   4.387   8.425  0.5330 -1.0690 -0.8445
 4594SOL     OW25417   4.198   3.975  13.368  0.0191  0.1763  0.1646
 4594SOL    HW125418   4.127   3.920  13.399 -0.2478  0.3861 -0.0765
 4594SOL    HW225419   4.194   3.952  13.275  0.8612 -0.3594  0.2593
 4595SOL     OW25420   0.252   2.688   3.690 -0.0750  0.6252 -0.6368
 4595SOL    HW125421   0.290   2.613   3.645 -0.7573  0.0755 -0.2993
 4595SOL    HW225422   0.245   2.649   3.777 -0.9024 -2.3843 -2.0874
 4596SOL     OW25423   1.684   4.514  10.459  0.0551  1.3114 -0.1796
 4596SOL    HW125424   1.658   4.438  10.512  4.0284 -0.6430 -1.1133
 4596SOL    HW225425   1.603   4.548  10.420 -0.3987  1.6373  1.0204
 4597SOL     OW25426   3.768   0.820  13.133 -0.2240 -0.8803 -0.1394
 4597SOL    HW125427   3.853   0.822  13.176  0.0339 -0.7274 -0.6545
 4597SOL    HW225428   3.785   0.753  13.066 -0.5932  1.7510 -2.8450
 4598SOL     OW25429   4.557   0.187   9.048 -0.1375  0.0535  0.7744
 4598SOL    HW125430   4.562   0.258   8.983  1.0670 -1.2937 -0.5900
 4598SOL    HW225431   4.649   0.183   9.074  1.5563  0.8861 -5.0222
 4599SOL     OW25432   0.529   3.596   4.876  0.2763 -0.0137  0.5179
 4599SOL    HW125433   0.596   3.557   4.931 -2.0014 -1.9248  1.9262
 4599SOL    HW225434   0.450   3.559   4.916  0.1128  2.2051  2.2594
 4600SOL     OW25435   2.333   1.277   5.932 -0.3641  0.3613  0.2212
 4600SOL    HW125436   2.239   1.287   5.924 -0.5359 -0.5801  1.0429
 4600SOL    HW225437   2.357   1.367   5.912  0.2019  0.0995 -0.2897
 4601SOL     OW25438   3.735   3.960  16.231 -0.6326  0.1334 -0.4110
 4601SOL    HW125439   3.783   4.006  16.300 -0.0758 -0.6078 -0.3049
 4601SOL    HW225440   3.801   3.911  16.183 -1.6248 -1.3684 -0.2594
 4602SOL     OW25441   3.689   0.103   5.624 -0.4982 -0.6953  0.3624
 4602SOL    HW125442   3.668   0.038   5.557  0.4467 -0.1649 -0.4379
 4602SOL    HW225443   3.620   0.092   5.690 -0.1452  0.7615  0.9759
 4603SOL     OW25444   1.756   3.372   1.186  0.4292  0.3999 -0.2465
 4603SOL    HW125445   1.683   3.373   1.124  2.0478 -1.2045 -2.1980
 4603SOL    HW225446   1.766   3.278   1.199  1.8167  0.6420  0.4931
 4604SOL     OW25447   4.491   1.767   4.316  0.8142  0.4605  0.2011
 4604SOL    HW125448   4.428   1.697   4.299  0.5004  0.4822  1.2681
 4604SOL    HW225449   4.553   1.713   4.365  0.0313 -2.1118 -1.6825
 4605SOL     OW25450   1.040   4.590   1.811 -0.0682 -0.7266  0.4476
 4605SOL    HW125451   1.135   4.594   1.824  0.4858 -2.2296 -3.2358
 4605SOL    HW225452   1.023   4.582   1.717 -0.6757 -0.1302  0.5100
 4606SOL     OW25453   1.636   3.122   7.073 -0.2135  0.0177  0.1780
 4606SOL    HW125454   1.686   3.053   7.028 -0.4121  0.3873 -0.6175
 4606SOL    HW225455   1.704   3.189   7.080  0.5900 -0.8595  0.7560
 4607SOL     OW25456   3.112   3.086   8.195  0.0935 -0.0054 -0.2732
 4607SOL    HW125457   3.068   3.016   8.146 -1.7699  1.9816 -1.4279
 4607SOL    HW225458   3.061   3.158   8.157 -0.3405 -1.1973 -1.9737
 4608SOL     OW25459   0.507   3.850  17.340 -0.3037  0.3960  0.7229
 4608SOL    HW125460   0.522   3.942  17.362  0.9059  0.6260 -1.0458
 4608SOL    HW225461   0.457   3.857  17.259  1.0687 -1.1578 -0.2508
 4609SOL     OW25462   2.782   4.444   0.531  0.3893  0.3929  0.2245
 4609SOL    HW125463   2.862   4.425   0.482  0.9125  4.5788 -0.5365
 4609SOL    HW225464   2.761   4.531   0.498 -0.1552 -0.0444 -0.5895
 4610SOL     OW25465   4.057   1.928   2.265 -0.0939  0.3134 -0.5426
 4610SOL    HW125466   4.112   1.854   2.291 -0.2744 -0.0247 -1.1101
 4610SOL    HW225467   3.998   1.913   2.338  0.6467  0.1094  0.0095
 4611SOL     OW25468   1.452   3.333  16.124 -0.1329 -0.5007 -0.1963
 4611SOL    HW125469   1.464   3.294  16.210 -1.8096 -1.7214 -0.5203
 4611SOL    HW225470   1.462   3.269  16.054  0.2238 -0.6627  0.0016
 4612SOL     OW25471   3.598   0.241   8.509  0.5931  0.3541  0.1402
 4612SOL    HW125472   3.514   0.207   8.480  0.8743  1.6398 -2.1753
 4612SOL    HW225473   3.617   0.297   8.433 -2.4079  0.2123 -0.6935
 4613SOL     OW25474   2.810   4.351   5.573 -0.4479  0.3050 -0.7390
 4613SOL    HW125475   2.719   4.351   5.546 -0.8992 -2.4306  0.7227
 4613SOL    HW225476   2.841   4.270   5.531 -0.0735 -0.5971  1.2349
 4614SOL     OW25477   0.772   3.451   2.317 -0.4460  0.3550  0.0804
 4614SOL    HW125478   0.822   3.467   2.397  0.8044  1.2086 -0.8740
 4614SOL    HW225479   0.830   3.390   2.270 -0.2949 -1.1050  2.1321
 4615SOL     OW25480   0.991   0.688  15.760  0.0108 -0.1880 -0.2357
 4615SOL    HW125481   0.947   0.734  15.689 -0.0874  1.1820  0.6975
 4615SOL    HW225482   0.960   0.599  15.744  2.2165 -0.5778 -2.3685
 4616SOL     OW25483   3.133   3.431   4.928  0.6469  0.6472 -0.1497
 4616SOL    HW125484   3.075   3.427   4.851  1.3649  0.1878 -0.6723
 4616SOL    HW225485   3.079   3.487   4.983 -0.1740 -2.3948  2.1217
 4617SOL     OW25486   3.748   3.954   6.231  0.1643 -0.6699  0.4367
 4617SOL    HW125487   3.808   4.026   6.254 -1.4264 -0.0329  2.5356
 4617SOL    HW225488   3.682   4.007   6.187  0.2883 -0.1208  0.9206
 4618SOL     OW25489   0.113   2.065   5.862  0.4708 -0.2808  0.4061
 4618SOL    HW125490   0.076   2.005   5.798  0.6140 -0.1335  0.1871
 4618SOL    HW225491   0.058   2.053   5.940 -0.9259 -1.5801 -0.7620
 4619SOL     OW25492   4.570   1.791   7.335  0.2852 -0.4315  0.4010
 4619SOL    HW125493   4.561   1.809   7.242  0.3899 -0.8761  0.3060
 4619SOL    HW225494   4.589   1.876   7.376 -1.6524 -0.4376  1.3367
 4620SOL     OW25495   1.477   1.196   6.802  0.6431 -0.6195  0.2443
 4620SOL    HW125496   1.558   1.246   6.806  0.6315 -0.8462  3.4151
 4620SOL    HW225497   1.463   1.206   6.708 -2.3785  1.2139  0.9016
 4621SOL     OW25498   0.256   3.961  11.264 -0.0686 -0.4569 -0.3485
 4621SOL    HW125499   0.286   4.018  11.335  2.4083 -0.7679 -1.1135
 4621SOL    HW225500   0.325   3.895  11.259 -1.5947 -1.8636 -2.6596
 4622SOL     OW25501   1.789   0.376   4.963 -0.5999  0.2498 -0.3280
 4622SOL    HW125502   1.757   0.305   5.019  1.8791 -1.1912 -0.7699
 4622SOL    HW225503   1.858   0.335   4.912  0.7474  0.9003  0.9829
 4623SOL     OW25504   4.061   3.032   3.416  0.1976  0.3321 -0.1769
 4623SOL    HW125505   4.067   3.099   3.485 -1.7179 -0.0780  0.4081
 4623SOL    HW225506   4.044   2.953   3.468 -3.2887  2.0615  1.3106
 4624SOL     OW25507   0.853   3.737   0.830 -0.1695 -0.1598  0.0244
 4624SOL    HW125508   0.869   3.658   0.778 -0.9237  0.3040 -0.9119
 4624SOL    HW225509   0.849   3.702   0.918  0.6780 -1.0527 -0.2864
 4625SOL     OW25510   3.381   2.135  15.919  0.5814  0.2423 -0.0684
 4625SOL    HW125511   3.356   2.191  15.992 -0.1266 -0.9541  0.6183
 4625SOL    HW225512   3.388   2.204  15.853 -2.2444 -1.8659 -2.5916
 4626SOL     OW25513   3.231   3.107   5.597 -0.7413  0.2383 -0.0037
 4626SOL    HW125514   3.299   3.064   5.547 -0.8102 -1.0378  1.0032
 4626SOL    HW225515   3.268   3.111   5.685  0.0808 -0.1409 -0.3383
 4627SOL     OW25516   4.394   0.547   7.833 -0.5658  0.3896  0.1528
 4627SOL    HW125517   4.460   0.535   7.902  0.3378  0.9209 -0.6292
 4627SOL    HW225518   4.422   0.488   7.764 -1.8573 -0.3428  0.2429
 4628SOL     OW25519   4.060   0.887   3.144  0.3226  0.0373 -0.3470
 4628SOL    HW125520   4.060   0.944   3.221 -3.2849 -0.0606 -0.2809
 4628SOL    HW225521   4.074   0.946   3.071  2.3358 -2.3158 -1.8574
 4629SOL     OW25522   3.705   2.925   3.848  0.0716 -0.1697  0.3625
 4629SOL    HW125523   3.680   2.898   3.760  0.8062 -0.5262  0.2611
 4629SOL    HW225524   3.688   3.019   3.841  0.1535 -0.2841 -1.3470
 4630SOL     OW25525   2.264   1.211   5.081  0.0720  0.0036 -0.4452
 4630SOL    HW125526   2.179   1.232   5.042 -0.1937  0.7772  0.5328
 4630SOL    HW225527   2.302   1.299   5.080  0.9070 -0.3426  1.0597
 4631SOL     OW25528   0.570   4.453   6.638  0.0832  0.0848  0.7013
 4631SOL    HW125529   0.534   4.396   6.571  1.8652  0.9375 -0.9820
 4631SOL    HW225530   0.515   4.435   6.714 -1.0282  0.3582 -0.0497
 4632SOL     OW25531   1.271   0.132   7.752 -0.2546  0.7260 -0.5423
 4632SOL    HW125532   1.198   0.074   7.729 -1.4808  1.1960  2.1762
 4632SOL    HW225533   1.231   0.183   7.822 -0.1294  1.9446 -1.3673
 4633SOL     OW25534   2.897   0.796  17.744  0.1091  0.5836  0.2391
 4633SOL    HW125535   2.895   0.881  17.700  2.2277 -0.5641 -2.0717
 4633SOL    HW225536   2.850   0.748  17.677  0.2013  0.5758  0.1806
 4634SOL     OW25537   2.452   0.377   6.088 -0.1148 -0.1945  0.1546
 4634SOL    HW125538   2.520   0.440   6.111 -0.5220  0.5349 -0.6456
 4634SOL    HW225539   2.460   0.323   6.166  0.3607  0.5503  0.6267
 4635SOL     OW25540   1.804   2.827   5.959  0.0083  0.9278 -0.0660
 4635SOL    HW125541   1.852   2.909   5.961  0.1069  0.8534  0.7423
 4635SOL    HW225542   1.806   2.810   5.865 -3.1166 -0.7904  0.1543
 4636SOL     OW25543   2.451   0.863   2.158  0.3739  0.1257 -0.0651
 4636SOL    HW125544   2.400   0.798   2.207  0.5982  0.6674  0.8835
 4636SOL    HW225545   2.533   0.877   2.205  1.9388 -0.9862 -2.4453
 4637SOL     OW25546   4.297   4.529   8.277 -0.1210 -0.3912 -0.2308
 4637SOL    HW125547   4.390   4.545   8.259  0.4527 -2.8487  0.6003
 4637SOL    HW225548   4.281   4.586   8.352  0.2723  1.2659 -1.4052
 4638SOL     OW25549   2.663   3.562   3.719  0.4113  0.4135 -0.5068
 4638SOL    HW125550   2.732   3.525   3.665 -1.1797 -1.2792 -1.3638
 4638SOL    HW225551   2.615   3.604   3.648 -1.2889 -1.2029 -0.3015
 4639SOL     OW25552   1.568   2.704   1.006  0.3997  0.0313 -0.2111
 4639SOL    HW125553   1.576   2.710   0.911  2.5709 -1.6330 -0.1415
 4639SOL    HW225554   1.486   2.657   1.021  2.4023 -3.6301 -0.6421
 4640SOL     OW25555   1.910   3.222   7.034 -0.1328 -0.2126  0.1505
 4640SOL    HW125556   1.969   3.245   6.962 -0.5534  1.0134  0.2172
 4640SOL    HW225557   1.968   3.174   7.094 -0.3254  0.8994  1.2078
 4641SOL     OW25558   0.767   4.110   8.784 -0.2938  0.3491 -0.5670
 4641SOL    HW125559   0.794   4.109   8.692 -0.8126 -0.2064 -0.7052
 4641SOL    HW225560   0.831   4.172   8.818  0.7527 -2.1287  1.9074
 4642SOL     OW25561   3.475   2.674  11.765  0.2208  0.4350 -0.2697
 4642SOL    HW125562   3.405   2.736  11.743 -1.2150 -0.9823  0.3267
 4642SOL    HW225563   3.447   2.591  11.726  1.8196 -0.1165 -0.2271
 4643SOL     OW25564   2.610   4.380   4.270 -0.0444 -0.0173 -0.3112
 4643SOL    HW125565   2.703   4.394   4.292  0.6798 -3.2430 -1.3315
 4643SOL    HW225566   2.566   4.369   4.354  0.8655  2.0160  0.4460
 4644SOL     OW25567   3.483   3.399  13.814  0.4975  0.0401 -0.7751
 4644SOL    HW125568   3.545   3.354  13.871  1.8941  0.3836 -2.0445
 4644SOL    HW225569   3.401   3.353  13.836  1.1670  0.0663  1.7505
 4645SOL     OW25570   0.513   1.138   9.868 -0.4787  0.1597  0.0551
 4645SOL    HW125571   0.515   1.096   9.782 -1.9514  1.2414 -0.5295
 4645SOL    HW225572   0.544   1.067   9.923  2.8277  1.2643 -0.3992
 4646SOL     OW25573   1.615   1.055  16.784  0.1523  0.1386  0.3412
 4646SOL    HW125574   1.650   1.023  16.866 -0.1256  0.0315  0.4192
 4646SOL    HW225575   1.691   1.044  16.727 -0.6648  3.7918 -1.4724
 4647SOL     OW25576   2.251   1.916   4.409  0.7247  0.9841 -0.2333
 4647SOL    HW125577   2.341   1.893   4.429  0.4287  1.4684  1.6599
 4647SOL    HW225578   2.269   1.960   4.326  0.4199  1.4861 -0.0302
 4648SOL     OW25579   0.726   2.099   6.659  0.1803 -0.3391 -0.5959
 4648SOL    HW125580   0.660   2.055   6.605  1.8053 -1.6806 -1.5047
 4648SOL    HW225581   0.783   2.022   6.653 -0.1837 -0.6077 -0.5931
 4649SOL     OW25582   0.580   0.256   9.138  0.1385  0.0478  0.2183
 4649SOL    HW125583   0.654   0.283   9.083 -0.2203 -0.9384 -0.7258
 4649SOL    HW225584   0.612   0.284   9.224  0.8956 -0.0992 -0.0213
 4650SOL     OW25585   1.692   1.535   7.035 -0.9330 -0.4396  0.3930
 4650SOL    HW125586   1.729   1.476   6.970 -0.8347 -1.5097  1.4083
 4650SOL    HW225587   1.667   1.608   6.978 -0.0711 -0.5716 -0.1389
 4651SOL     OW25588   0.055   2.227   6.983 -0.6165 -0.2637 -0.2460
 4651SOL    HW125589   0.147   2.199   6.978  0.9691  4.5132  1.6614
 4651SOL    HW225590   0.044   2.278   6.902  0.9094 -1.6269 -1.3299
 4652SOL     OW25591   3.351   4.487   5.702  0.1669 -0.0112 -0.0157
 4652SOL    HW125592   3.299   4.459   5.627 -1.9900 -1.2732  1.9675
 4652SOL    HW225593   3.345   4.582   5.688  1.9579  0.1141  0.0114
 4653SOL     OW25594   3.901   3.132   5.289 -0.2274 -0.3676  0.0324
 4653SOL    HW125595   3.866   3.071   5.224 -0.9718  0.5292 -0.3911
 4653SOL    HW225596   3.860   3.094   5.367 -0.9376  0.2423 -0.0512
 4654SOL     OW25597   4.565   0.191   2.115 -0.2389 -0.4796  0.4593
 4654SOL    HW125598   4.530   0.279   2.120 -1.1304 -0.7763 -0.7245
 4654SOL    HW225599   4.583   0.186   2.021  2.4043  1.9466  0.8515
 4655SOL     OW25600   2.007   3.271   9.518 -0.3428 -0.3767 -0.2636
 4655SOL    HW125601   1.981   3.292   9.428 -0.2080 -2.1904 -0.7192
 4655SOL    HW225602   2.095   3.302   9.539 -1.4714  1.2782  1.9796
 4656SOL     OW25603   3.493   4.624  15.022 -0.3445  0.1946  0.3926
 4656SOL    HW125604   3.472   4.589  15.109  1.4920  0.1164  0.7969
 4656SOL    HW225605   3.407   4.656  14.996  0.6548  1.4196 -1.4023
 4657SOL     OW25606   1.894   2.547  12.891  0.2303 -0.0399 -0.4521
 4657SOL    HW125607   1.929   2.461  12.868 -1.6044 -2.1224  4.5392
 4657SOL    HW225608   1.902   2.557  12.986 -0.3537 -0.2098 -0.3856
 4658SOL     OW25609   3.361   0.565   4.442  0.1036 -0.1323  0.2263
 4658SOL    HW125610   3.410   0.485   4.460  0.5308  0.0972  0.0677
 4658SOL    HW225611   3.336   0.589   4.532  0.8752 -0.4313  0.5168
 4659SOL     OW25612   2.376   4.021   4.496  0.0480  0.1656 -0.7902
 4659SOL    HW125613   2.302   3.962   4.484 -0.4029  0.8562 -1.3837
 4659SOL    HW225614   2.413   4.008   4.408 -0.7046  0.9670 -1.2234
 4660SOL     OW25615   0.555   2.076   4.163  0.7456 -1.0068  0.5693
 4660SOL    HW125616   0.531   2.041   4.248 -0.0578 -0.5367  0.5396
 4660SOL    HW225617   0.473   2.120   4.139 -0.2979 -3.4214 -0.3095
 4661SOL     OW25618   4.548   0.384   7.049 -0.5726  0.1030  0.1311
 4661SOL    HW125619   4.575   0.304   7.004  0.6484  1.5526 -1.6837
 4661SOL    HW225620   4.596   0.454   7.004  1.2833  0.0461  2.0161
 4662SOL     OW25621   4.181   4.431   6.683  0.1539  0.0571 -0.3021
 4662SOL    HW125622   4.168   4.501   6.619 -1.1072 -1.1895 -1.4124
 4662SOL    HW225623   4.211   4.482   6.757 -0.5050  1.2175 -0.8476
 4663SOL     OW25624   0.666   1.875  11.830  0.4640  0.1992  0.4892
 4663SOL    HW125625   0.670   1.845  11.739  1.1982 -0.7456  0.8288
 4663SOL    HW225626   0.597   1.939  11.815  0.5960 -0.1043 -1.4607
 4664SOL     OW25627   0.182   2.788   7.858  0.2028 -0.0994 -0.3280
 4664SOL    HW125628   0.131   2.719   7.901 -1.1080 -0.0145 -1.7342
 4664SOL    HW225629   0.265   2.766   7.899  0.0985 -1.0161 -0.5860
 4665SOL     OW25630   1.454   2.139   5.752 -0.4380  0.3726  0.1513
 4665SOL    HW125631   1.438   2.221   5.799 -1.2470 -0.2296  0.9216
 4665SOL    HW225632   1.513   2.089   5.808 -0.1917 -0.4331 -0.8322
 4666SOL     OW25633   3.699   2.847   4.558  0.3692 -0.2035  0.5770
 4666SOL    HW125634   3.617   2.868   4.602  0.0507 -1.4638  0.5832
 4666SOL    HW225635   3.661   2.842   4.470  0.1755 -3.5176  0.8203
 4667SOL     OW25636   1.162   3.599   4.540  0.2117  0.3681 -0.2904
 4667SOL    HW125637   1.082   3.551   4.521  1.5514 -0.7549 -3.1951
 4667SOL    HW225638   1.227   3.532   4.521 -0.5335 -0.9832  2.0069
 4668SOL     OW25639   4.182   0.203   4.723  0.6927 -0.3268  0.2267
 4668SOL    HW125640   4.263   0.160   4.751  0.1272 -1.1673  0.5701
 4668SOL    HW225641   4.143   0.232   4.806 -0.9712 -0.4806 -0.5144
 4669SOL     OW25642   0.573   1.353   6.019  0.4462  0.4880  1.0862
 4669SOL    HW125643   0.595   1.308   5.937 -0.4760  0.7919  0.6714
 4669SOL    HW225644   0.490   1.308   6.031  0.2472  0.5471 -0.0735
 4670SOL     OW25645   3.060   3.111  15.125  0.4598 -0.2671 -0.2443
 4670SOL    HW125646   2.970   3.091  15.098  0.4330  0.9803 -1.0904
 4670SOL    HW225647   3.096   3.027  15.152  0.4309 -0.5822 -1.1793
 4671SOL     OW25648   2.972   1.145  12.677 -0.1954 -0.2817 -0.2054
 4671SOL    HW125649   3.044   1.109  12.626 -0.7348 -0.4867 -0.8186
 4671SOL    HW225650   2.902   1.175  12.618  1.0733  1.4325 -0.8526
 4672SOL     OW25651   2.660   0.646   6.230 -0.5350  0.6883 -0.0565
 4672SOL    HW125652   2.644   0.737   6.256  0.5273  0.7946  0.2629
 4672SOL    HW225653   2.706   0.658   6.147 -0.4617 -1.3769 -0.3071
 4673SOL     OW25654   4.235   0.453   9.159 -0.0005 -0.5436  0.0223
 4673SOL    HW125655   4.265   0.497   9.079  0.7905 -0.8078  0.1680
 4673SOL    HW225656   4.236   0.523   9.224 -0.1979 -0.4521 -0.0749
 4674SOL     OW25657   1.816   3.253  14.748  0.1277 -0.3962 -0.4317
 4674SOL    HW125658   1.900   3.218  14.777 -0.2118 -0.3063  0.6768
 4674SOL    HW225659   1.838   3.346  14.739 -1.9955  0.1409  0.0555
 4675SOL     OW25660   1.902   3.747   9.565 -0.1360 -0.6323 -0.2443
 4675SOL    HW125661   1.909   3.686   9.638  1.1100 -1.0566 -0.7208
 4675SOL    HW225662   1.965   3.813   9.595 -3.5701  1.4771  2.3772
 4676SOL     OW25663   1.690   1.085   6.228 -0.0392 -0.0294 -0.1464
 4676SOL    HW125664   1.666   1.159   6.173  0.3950  0.6215  0.5392
 4676SOL    HW225665   1.626   1.094   6.298  1.2298  2.1742  0.7288
 4677SOL     OW25666   2.267   4.363   4.404 -0.2669 -0.7362  0.4702
 4677SOL    HW125667   2.219   4.445   4.416 -1.8079 -1.5869  0.0791
 4677SOL    HW225668   2.224   4.336   4.323  1.5825  0.3579 -0.8694
 4678SOL     OW25669   2.102   3.345   6.391  0.1068 -0.3080 -0.2469
 4678SOL    HW125670   2.029   3.357   6.453 -0.5520 -0.7640 -0.9315
 4678SOL    HW225671   2.139   3.433   6.388 -2.7794  0.9636  0.5179
 4679SOL     OW25672   3.719   1.511   8.307 -0.3746 -1.0346  0.3798
 4679SOL    HW125673   3.671   1.494   8.226  1.6434  0.1212 -1.0435
 4679SOL    HW225674   3.732   1.606   8.307 -3.4115 -0.6013  0.9048
 4680SOL     OW25675   2.654   2.338   7.177 -0.3163 -0.1405  1.0837
 4680SOL    HW125676   2.722   2.406   7.180  1.0703 -1.4246 -0.8245
 4680SOL    HW225677   2.619   2.363   7.262 -1.1152 -2.0268  1.3063
 4681SOL     OW25678   3.023   1.260  12.916 -0.3595 -0.4818  0.0354
 4681SOL    HW125679   2.956   1.304  12.864 -0.7007 -0.6395  0.3399
 4681SOL    HW225680   3.038   1.191  12.851 -1.1246 -1.6197  1.0610
 4682SOL     OW25681   0.661   2.692   5.863  0.2257  0.0427 -0.1262
 4682SOL    HW125682   0.662   2.680   5.768 -3.7279  0.6962 -0.2720
 4682SOL    HW225683   0.568   2.690   5.885  0.2934  1.2549  0.2657
 4683SOL     OW25684   2.774   2.699   2.722  0.7701  0.0717  0.4088
 4683SOL    HW125685   2.867   2.679   2.722  0.3882 -1.6856 -2.8609
 4683SOL    HW225686   2.740   2.647   2.795 -0.8058 -1.5689 -1.4884
 4684SOL     OW25687   3.940   2.787  10.121  0.1314 -0.1143 -0.4208
 4684SOL    HW125688   3.893   2.717  10.165 -1.1114 -0.4253 -2.2433
 4684SOL    HW225689   4.005   2.809  10.187 -0.3560  2.2455 -0.7088
 4685SOL     OW25690   2.737   2.859   6.263  0.4799 -0.1725 -0.4389
 4685SOL    HW125691   2.781   2.807   6.196 -0.5938  0.3132 -1.5280
 4685SOL    HW225692   2.726   2.795   6.332  1.1403 -0.5485 -0.6826
 4686SOL     OW25693   3.525   3.104   4.760 -0.4213  0.1158 -0.4591
 4686SOL    HW125694   3.613   3.142   4.758 -0.4587  0.2455  0.2348
 4686SOL    HW225695   3.530   3.062   4.846 -0.5358 -0.9582 -0.9891
 4687SOL     OW25696   3.740   1.551  13.587 -0.2489 -0.1013 -0.1748
 4687SOL    HW125697   3.706   1.473  13.543 -1.6941 -0.8195  2.1647
 4687SOL    HW225698   3.804   1.572  13.519 -0.3904 -0.5174 -0.4399
 4688SOL     OW25699   1.170   0.925   5.780 -0.2094 -0.8671  0.0276
 4688SOL    HW125700   1.212   0.889   5.858  2.2668 -1.4798 -1.5568
 4688SOL    HW225701   1.219   1.006   5.761  0.4396 -0.9870  1.2250
 4689SOL     OW25702   1.081   3.419   3.105 -0.0594  0.0180 -0.6028
 4689SOL    HW125703   1.114   3.438   3.193 -0.1580  1.0220 -0.7807
 4689SOL    HW225704   1.108   3.328   3.093 -1.1325 -0.7774  2.9328
 4690SOL     OW25705   0.801   4.467   5.638  0.0832  0.3715  0.0647
 4690SOL    HW125706   0.814   4.498   5.548 -0.2060  1.9157  0.5599
 4690SOL    HW225707   0.807   4.372   5.627 -0.3333  0.0816  2.4376
 4691SOL     OW25708   3.694   2.305   5.992 -0.3410  0.2920 -0.3395
 4691SOL    HW125709   3.745   2.232   6.026  0.8487  1.7753  1.0755
 4691SOL    HW225710   3.748   2.378   6.025 -0.5247 -0.0351  0.6684
 4692SOL     OW25711   3.134   3.935   9.649  0.2761 -0.0854  0.7968
 4692SOL    HW125712   3.047   3.907   9.620 -0.4228 -0.8121  3.5593
 4692SOL    HW225713   3.120   3.963   9.740 -0.6672 -0.6080  0.8049
 4693SOL     OW25714   2.116   0.862   8.456 -0.0379 -0.2802  0.0894
 4693SOL    HW125715   2.141   0.813   8.378 -2.7023 -0.8909 -0.3657
 4693SOL    HW225716   2.202   0.882   8.492 -0.4261  2.3294 -0.4404
 4694SOL     OW25717   2.815   2.786   0.991  0.0107  0.0579  0.3693
 4694SOL    HW125718   2.903   2.795   1.026  0.1216  1.6815 -0.3537
 4694SOL    HW225719   2.782   2.873   1.014  0.5274 -0.3615  2.7388
 4695SOL     OW25720   1.820   0.302  15.223 -0.4479 -0.3505 -0.3683
 4695SOL    HW125721   1.854   0.357  15.294  0.6464  0.3452 -1.4131
 4695SOL    HW225722   1.825   0.214  15.260  0.4563  0.3870  1.2828
 4696SOL     OW25723   0.725   4.646  11.647 -0.6653 -0.0786  0.3962
 4696SOL    HW125724   0.796   4.633  11.584 -0.7275 -1.3433  0.5758
 4696SOL    HW225725   0.751   4.727  11.689  0.9490  0.1916 -1.1543
 4697SOL     OW25726   4.117   3.242   9.361  0.0348 -0.1495 -0.0040
 4697SOL    HW125727   4.033   3.196   9.360 -1.5656  2.7258  1.5365
 4697SOL    HW225728   4.179   3.173   9.382 -0.5024 -0.8901 -0.8519
 4698SOL     OW25729   0.545   2.236   2.126  0.1760  0.1246  0.4871
 4698SOL    HW125730   0.498   2.153   2.122 -0.3659  0.3901  1.2391
 4698SOL    HW225731   0.494   2.295   2.069  2.4243 -1.1404 -2.8015
 4699SOL     OW25732   4.180   2.293   8.077  0.5066  0.9096 -0.5176
 4699SOL    HW125733   4.189   2.386   8.099 -1.1941  1.1797 -0.9510
 4699SOL    HW225734   4.141   2.295   7.989  0.0553 -0.0386 -0.3384
 4700SOL     OW25735   3.931   0.182   4.168 -0.0733  0.3222  0.1321
 4700SOL    HW125736   3.882   0.264   4.163  1.4392  1.1836 -0.7179
 4700SOL    HW225737   3.957   0.173   4.076  0.9066 -0.9662  0.5408
 4701SOL     OW25738   0.896   4.581   1.597 -0.0253  0.1819 -0.2899
 4701SOL    HW125739   0.827   4.598   1.661  1.0492  0.0384  0.8937
 4701SOL    HW225740   0.893   4.485   1.595 -0.5106  0.1759  0.9894
 4702SOL     OW25741   1.768   2.165   2.194  0.3698  0.4986 -0.2292
 4702SOL    HW125742   1.823   2.108   2.140  2.4483  2.4639 -0.1526
 4702SOL    HW225743   1.822   2.181   2.271 -0.1627 -0.9512  0.4543
 4703SOL     OW25744   0.086   2.574   7.982 -0.3267  0.5769 -0.0056
 4703SOL    HW125745   0.093   2.509   8.051 -1.5985 -0.4434 -0.8254
 4703SOL    HW225746   4.736   2.608   8.001 -0.4793 -1.1385  2.3786
 4704SOL     OW25747   4.296   0.120   4.062  0.8156 -0.4808  0.0899
 4704SOL    HW125748   4.230   0.052   4.056 -0.4791  0.9911 -2.0378
 4704SOL    HW225749   4.336   0.114   3.975  0.0080 -3.6243 -0.0623
 4705SOL     OW25750   3.897   3.914   6.588  0.1327  0.4980 -0.3896
 4705SOL    HW125751   3.873   3.985   6.648  0.1009  0.8053 -0.7693
 4705SOL    HW225752   3.984   3.911   6.629 -0.3271 -3.3043  0.2937
 4706SOL     OW25753   2.824   0.122   7.004 -0.1116 -0.3171 -0.1134
 4706SOL    HW125754   2.824   0.106   7.098 -1.2528  1.0215  0.1115
 4706SOL    HW225755   2.812   0.217   7.003 -1.3661 -0.4936 -1.2759
 4707SOL     OW25756   1.003   4.702  11.584  0.7247 -0.1444 -0.3724
 4707SOL    HW125757   1.016   0.059  11.594  0.0747 -0.0111 -0.7728
 4707SOL    HW225758   1.044   4.678  11.501  0.2839 -1.9086 -0.0913
 4708SOL     OW25759   1.098   3.083   2.751 -0.3587 -0.1439 -0.3300
 4708SOL    HW125760   1.136   3.093   2.664 -0.0943  0.2722 -0.1706
 4708SOL    HW225761   1.179   3.059   2.797 -1.0570 -1.3907  0.2391
 4709SOL     OW25762   3.857   0.224  17.652 -0.1667 -0.2033 -0.2122
 4709SOL    HW125763   3.902   0.151  17.609  1.1001 -0.5359  1.6600
 4709SOL    HW225764   3.891   0.301  17.609  1.5556 -1.4639 -1.0906
 4710SOL     OW25765   1.211   3.133   2.478  0.3603 -0.4104  0.5048
 4710SOL    HW125766   1.231   3.045   2.448  0.7283 -0.4048  0.7322
 4710SOL    HW225767   1.271   3.190   2.430  0.0967  0.1240  0.8015
 4711SOL     OW25768   0.134   2.439   9.633 -0.4125  0.3417  0.2711
 4711SOL    HW125769   0.155   2.485   9.714 -0.5155  0.2348  0.3580
 4711SOL    HW225770   0.052   2.485   9.612 -0.5576  0.5264  1.2318
 4712SOL     OW25771   3.850   0.463   5.629 -0.2867  0.4435  0.5028
 4712SOL    HW125772   3.779   0.432   5.573  1.3724  0.3401 -1.5444
 4712SOL    HW225773   3.799   0.473   5.709  0.1417 -1.5022  1.0105
 4713SOL     OW25774   4.269   3.067   5.567  0.2520  0.3502 -0.4677
 4713SOL    HW125775   4.248   3.103   5.481 -3.1129  2.2157  1.1469
 4713SOL    HW225776   4.205   3.119   5.615  0.8779  2.1449 -1.6183
 4714SOL     OW25777   0.576   1.392   7.707 -0.1803  0.4064 -0.5495
 4714SOL    HW125778   0.593   1.334   7.633  3.9863 -1.8786  2.2232
 4714SOL    HW225779   0.481   1.383   7.702  0.0468 -1.4360 -1.4236
 4715SOL     OW25780   3.936   3.964   9.348 -0.1136 -0.4319  0.1268
 4715SOL    HW125781   3.957   3.989   9.258 -2.7896 -1.1544 -0.6845
 4715SOL    HW225782   4.024   3.935   9.374  1.3525  1.7705 -2.3140
 4716SOL     OW25783   1.392   1.335  10.815  0.6217  0.7442  0.0632
 4716SOL    HW125784   1.485   1.314  10.803  0.5665  0.5023  0.0603
 4716SOL    HW225785   1.378   1.371  10.727  1.3286 -1.6489 -1.0322
 4717SOL     OW25786   4.249   4.242  13.152  0.1194 -0.1658 -0.6797
 4717SOL    HW125787   4.191   4.230  13.077 -0.3082  0.9217 -0.5139
 4717SOL    HW225788   4.201   4.310  13.198  1.0218  0.1557 -0.2120
 4718SOL     OW25789   2.992   3.475  10.552 -0.1272 -0.2894 -0.0027
 4718SOL    HW125790   2.948   3.494  10.469  0.1166  0.7247  0.1036
 4718SOL    HW225791   3.082   3.471  10.521  0.1586  1.6395  0.5475
 4719SOL     OW25792   0.439   1.778   5.847 -0.3366  0.2353 -0.1108
 4719SOL    HW125793   0.381   1.795   5.772 -0.8856  0.6046  0.3963
 4719SOL    HW225794   0.422   1.855   5.901 -0.0590 -0.4510  0.9553
 4720SOL     OW25795   4.196   3.568   9.104 -0.1596  0.3708  0.0414
 4720SOL    HW125796   4.244   3.524   9.174  0.7464 -0.1450 -0.9047
 4720SOL    HW225797   4.266   3.627   9.075  0.8316 -1.2501 -0.8419
 4721SOL     OW25798   0.383   0.789   9.665  0.4467  0.0167 -0.6564
 4721SOL    HW125799   0.367   0.747   9.750 -0.2544 -0.7548 -1.1724
 4721SOL    HW225800   0.307   0.847   9.660  1.6786  1.7707  0.9834
 4722SOL     OW25801   4.006   4.494   7.476  0.7300 -0.1274  0.2688
 4722SOL    HW125802   4.085   4.460   7.519  2.2733  1.7338 -1.0314
 4722SOL    HW225803   4.045   4.526   7.395 -0.2936 -0.5561 -0.3915
 4723SOL     OW25804   1.803   1.497  17.208  0.4076  0.4187 -0.0444
 4723SOL    HW125805   1.815   1.562  17.138  0.2596  1.0544  0.5210
 4723SOL    HW225806   1.787   1.420  17.154 -0.5830  0.7507 -0.2178
 4724SOL     OW25807   2.413   2.730   8.691 -0.1728  0.0283  0.1104
 4724SOL    HW125808   2.369   2.803   8.648 -1.6253  0.0275  1.5930
 4724SOL    HW225809   2.401   2.663   8.624  0.6949  1.4550 -1.4823
 4725SOL     OW25810   2.100   0.227  15.257  0.3667 -0.0219 -0.0088
 4725SOL    HW125811   2.006   0.215  15.245  0.6248 -1.1333 -0.8634
 4725SOL    HW225812   2.101   0.290  15.330  0.1002  1.2768 -1.1253
 4726SOL     OW25813   1.446   4.242  10.826  0.1545 -0.4741  0.0383
 4726SOL    HW125814   1.422   4.292  10.904 -0.9643  0.9077 -1.2061
 4726SOL    HW225815   1.377   4.267  10.765 -1.1953 -0.6320  1.4829
 4727SOL     OW25816   0.214   3.930   1.907 -0.3060  0.3407  0.4440
 4727SOL    HW125817   0.272   3.941   1.982 -1.3410  0.2330  1.2629
 4727SOL    HW225818   0.260   3.863   1.858 -0.8976  2.2346 -2.6822
 4728SOL     OW25819   1.800   2.290   0.507  0.6131  0.5628  0.4441
 4728SOL    HW125820   1.885   2.254   0.480  0.2003  0.8939 -1.2474
 4728SOL    HW225821   1.743   2.214   0.496 -0.0485  0.9068  1.4720
 4729SOL     OW25822   3.258   3.202  10.952 -0.1484  0.2915 -0.0382
 4729SOL    HW125823   3.231   3.184  10.862 -0.6089 -0.4163  0.2478
 4729SOL    HW225824   3.272   3.297  10.956  0.0041  0.2717 -0.1148
 4730SOL     OW25825   3.758   4.070  12.699 -0.3818 -0.3896  0.1680
 4730SOL    HW125826   3.785   4.156  12.731 -2.0828 -0.4107  1.6665
 4730SOL    HW225827   3.713   4.049  12.781  0.8973 -1.1403  0.6785
 4731SOL     OW25828   1.141   1.355   3.441 -0.1819  0.8287 -0.3695
 4731SOL    HW125829   1.076   1.324   3.503 -0.1057  0.6012 -0.4044
 4731SOL    HW225830   1.105   1.304   3.369 -0.0811  2.2288 -1.4291
 4732SOL     OW25831   2.268   4.183   9.338 -0.2876  0.1111 -0.1271
 4732SOL    HW125832   2.254   4.234   9.418  0.2839  0.0854 -0.0156
 4732SOL    HW225833   2.362   4.168   9.331 -0.2212  1.0472 -1.2275
 4733SOL     OW25834   0.152   2.984  12.628  0.0289  0.0469  0.0310
 4733SOL    HW125835   0.077   2.985  12.688 -0.7642  0.4542 -0.9565
 4733SOL    HW225836   0.103   2.973  12.546 -0.8218  3.1414  0.1471
 4734SOL     OW25837   0.027   3.199  11.330  0.1127 -0.3073  0.5603
 4734SOL    HW125838   0.051   3.237  11.414  0.7354  0.7590 -0.0975
 4734SOL    HW225839   0.115   3.196  11.292  0.1403  1.5498  0.5004
 4735SOL     OW25840   2.823   4.085   5.449  0.1048 -0.6858  0.2064
 4735SOL    HW125841   2.740   4.049   5.420  0.6044 -0.2445 -1.8073
 4735SOL    HW225842   2.838   4.016   5.513 -0.9127 -0.8253  0.2969
 4736SOL     OW25843   1.168   1.870   3.659 -0.8016  0.0827  0.1928
 4736SOL    HW125844   1.210   1.887   3.743 -0.6510 -2.7922  0.7021
 4736SOL    HW225845   1.075   1.883   3.678 -1.0793 -0.0251 -1.1204
 4737SOL     OW25846   0.830   1.676  17.233  0.5857  0.1389 -0.2792
 4737SOL    HW125847   0.797   1.666  17.323  2.1381  2.3081  0.5134
 4737SOL    HW225848   0.913   1.720  17.247 -2.2891  5.5766 -0.3784
 4738SOL     OW25849   2.900   1.509   2.553  0.1183 -0.1872  0.0072
 4738SOL    HW125850   2.920   1.599   2.527  0.9746 -0.2726  0.3528
 4738SOL    HW225851   2.943   1.456   2.486  2.2811 -1.1230  2.1420
 4739SOL     OW25852   1.482   0.113  10.711  0.2376  0.2734 -0.1018
 4739SOL    HW125853   1.421   0.047  10.679  1.2968 -0.3372 -0.8553
 4739SOL    HW225854   1.427   0.191  10.709  1.0805  0.8663 -0.6224
 4740SOL     OW25855   4.611   1.877   0.299  0.4581 -0.7232 -0.0110
 4740SOL    HW125856   4.595   1.818   0.373  1.4198 -0.8488  0.0953
 4740SOL    HW225857   4.593   1.957   0.349 -2.7889 -1.1219 -0.5280
 4741SOL     OW25858   1.959   4.223  16.749 -0.1774  0.3010 -0.0413
 4741SOL    HW125859   2.010   4.217  16.668  0.5165  0.7557  0.3698
 4741SOL    HW225860   1.984   4.309  16.784  0.8133  1.4926 -3.6459
 4742SOL     OW25861   0.051   1.054   4.670  0.4927  0.3850  0.2013
 4742SOL    HW125862   0.039   1.148   4.654  1.8894  0.4926 -0.2245
 4742SOL    HW225863   0.141   1.059   4.703 -0.2674  1.0486  2.1819
 4743SOL     OW25864   2.177   2.056  13.087  0.3387  0.1076  0.0501
 4743SOL    HW125865   2.227   2.134  13.112  1.5562 -0.7030  0.1687
 4743SOL    HW225866   2.112   2.069  13.156  1.5724 -0.3706  1.3111
 4744SOL     OW25867   1.554   3.043   6.612 -0.0573 -0.0277  0.2967
 4744SOL    HW125868   1.614   3.118   6.613 -1.7867  1.3125  2.5448
 4744SOL    HW225869   1.509   3.066   6.531  0.9458  0.6676 -0.0696
 4745SOL     OW25870   3.024   1.304   8.085 -0.4080  0.7333  0.5613
 4745SOL    HW125871   3.074   1.336   8.160 -0.4948 -1.2291  1.4455
 4745SOL    HW225872   3.037   1.382   8.031  2.2124  0.2481  0.4761
 4746SOL     OW25873   0.730   1.592  10.176 -0.8914 -0.5426 -0.0622
 4746SOL    HW125874   0.825   1.596  10.188 -1.1541 -1.3267  2.2653
 4746SOL    HW225875   0.701   1.680  10.201 -1.7211 -1.5175  2.4541
 4747SOL     OW25876   4.138   3.424   2.625 -0.9185  0.1290  0.1753
 4747SOL    HW125877   4.218   3.476   2.630 -0.6058 -0.3714  0.3285
 4747SOL    HW225878   4.116   3.407   2.716 -2.1205 -3.2095 -0.7481
 4748SOL     OW25879   4.179   1.353   3.583 -0.3753  0.0766  0.5731
 4748SOL    HW125880   4.102   1.321   3.630 -1.8287  1.9274 -0.5812
 4748SOL    HW225881   4.178   1.306   3.500  1.4789  1.8328 -0.4526
 4749SOL     OW25882   0.410   2.114  16.634 -0.1554 -0.6308  0.3391
 4749SOL    HW125883   0.462   2.036  16.651  0.7763 -0.6104 -2.4549
 4749SOL    HW225884   0.439   2.143  16.547 -0.6206 -0.4434  0.2431
 4750SOL     OW25885   3.693   3.385   9.766 -0.2459  0.2550  0.1719
 4750SOL    HW125886   3.785   3.357   9.771 -0.2095 -0.1088 -2.9647
 4750SOL    HW225887   3.647   3.307   9.797  0.2958  0.0129  0.3678
 4751SOL     OW25888   0.518   1.988   8.612  0.2271  0.3929  0.6862
 4751SOL    HW125889   0.468   1.986   8.694 -2.5175 -4.8984 -1.0947
 4751SOL    HW225890   0.540   1.897   8.594  0.5005  0.7473 -0.7839
 4752SOL     OW25891   3.538   0.911   8.414 -0.0432 -0.3990  0.0402
 4752SOL    HW125892   3.567   0.983   8.469 -3.2349 -0.3455  1.6732
 4752SOL    HW225893   3.485   0.859   8.474 -1.1601 -2.4161 -2.6935
 4753SOL     OW25894   0.318   1.028   5.332  0.5129  0.3002  0.3632
 4753SOL    HW125895   0.327   1.096   5.399  0.8561  1.7777 -1.1808
 4753SOL    HW225896   0.231   0.996   5.353  0.2193  1.6854  1.2289
 4754SOL     OW25897   0.275   2.532  13.975 -0.3190  0.0542 -0.4239
 4754SOL    HW125898   0.209   2.502  14.038  2.6135  1.9103  3.4669
 4754SOL    HW225899   0.222   2.542  13.895  2.5478  0.6307 -2.2288
 4755SOL     OW25900   2.812   3.643  10.192 -0.3378  0.3981 -0.3691
 4755SOL    HW125901   2.871   3.579  10.152 -1.8649 -0.5457 -1.0942
 4755SOL    HW225902   2.804   3.608  10.280 -0.7707 -0.3725 -0.7143
 4756SOL     OW25903   0.010   2.926   7.134  0.4960  0.7476 -0.4084
 4756SOL    HW125904   0.094   2.968   7.155  1.0277  0.1406 -1.3721
 4756SOL    HW225905   0.036   2.836   7.116  1.4785  1.0357 -0.4220
 4757SOL     OW25906   0.413   0.286   6.705 -0.0051 -0.7356 -0.1806
 4757SOL    HW125907   0.402   0.330   6.790  0.2388  0.3010 -0.6955
 4757SOL    HW225908   0.440   0.198   6.733 -0.9442 -1.0018 -0.1149
 4758SOL     OW25909   0.028   4.108   5.490  0.1664 -0.7880  0.5613
 4758SOL    HW125910   4.681   4.081   5.524 -0.8789  2.3939  0.4916
 4758SOL    HW225911   0.030   4.054   5.411 -2.8621  0.8742 -0.6504
 4759SOL     OW25912   0.437   1.499   9.077 -0.3482  0.0819  0.2588
 4759SOL    HW125913   0.385   1.486   8.997  0.9380 -0.4760 -0.4925
 4759SOL    HW225914   0.397   1.430   9.129  0.0550 -0.0122  0.4472
 4760SOL     OW25915   4.288   2.972   8.620  0.4672  0.6178  0.2117
 4760SOL    HW125916   4.301   2.883   8.589  0.7991  0.9635 -0.6334
 4760SOL    HW225917   4.197   2.983   8.645  0.0783  0.8194 -1.3313
 4761SOL     OW25918   0.263   2.974  16.015  0.1422 -0.1259  0.2449
 4761SOL    HW125919   0.298   3.059  15.989  1.1892  0.0056  2.0957
 4761SOL    HW225920   0.219   3.001  16.095  0.9359 -2.5391  1.4921
 4762SOL     OW25921   2.637   2.703   5.246 -0.4568  0.1141 -0.2361
 4762SOL    HW125922   2.614   2.755   5.322  1.7037 -1.1923  1.3125
 4762SOL    HW225923   2.692   2.636   5.287 -0.7366  0.0460  0.0233
 4763SOL     OW25924   1.484   4.496   0.174 -0.4145  0.6134  0.3994
 4763SOL    HW125925   1.423   4.563   0.205  0.2842  1.3412  0.1819
 4763SOL    HW225926   1.461   4.492   0.082 -2.1495  0.2255  0.8461
 4764SOL     OW25927   3.869   3.039  10.057 -0.1431 -0.0430  0.3163
 4764SOL    HW125928   3.773   3.040  10.048 -0.1456 -2.9711 -0.1436
 4764SOL    HW225929   3.898   2.957  10.097 -0.7782 -0.5006 -0.1513
 4765SOL     OW25930   3.961   0.007   7.627 -0.9326 -0.4707 -0.7914
 4765SOL    HW125931   3.938   0.026   7.536 -1.5613 -0.1618 -0.5614
 4765SOL    HW225932   4.032   4.680   7.614 -1.9090 -1.8426  0.6591
 4766SOL     OW25933   1.377   4.544   5.856 -0.4401  0.4060 -0.0375
 4766SOL    HW125934   1.346   4.536   5.946  1.7484  0.4500  0.7205
 4766SOL    HW225935   1.435   4.620   5.863 -0.1000  0.1530 -0.0916
 4767SOL     OW25936   2.831   2.463   9.783  0.4005  0.0047  0.2440
 4767SOL    HW125937   2.763   2.530   9.786  0.2071 -0.1043 -1.4847
 4767SOL    HW225938   2.885   2.502   9.714 -1.7666  1.1293 -0.8395
 4768SOL     OW25939   1.879   0.471   6.204 -0.2702  0.0236  0.5716
 4768SOL    HW125940   1.817   0.534   6.168  0.7715  0.5441 -0.2976
 4768SOL    HW225941   1.821   0.417   6.259 -2.9242  1.9897 -0.3045
 4769SOL     OW25942   4.137   1.512   5.860  0.2503  0.2571 -0.3732
 4769SOL    HW125943   4.110   1.442   5.919 -0.0074  0.1665 -0.5982
 4769SOL    HW225944   4.143   1.585   5.921  0.9384 -1.0673  1.1491
 4770SOL     OW25945   3.016   1.067   1.110  0.4871  0.1044 -0.2937
 4770SOL    HW125946   2.968   1.020   1.179 -1.8601  2.2987 -0.4397
 4770SOL    HW225947   2.983   1.025   1.031 -2.0558  2.2160 -0.3754
 4771SOL     OW25948   2.375   0.202   2.052 -0.3924 -0.0324 -0.4978
 4771SOL    HW125949   2.396   0.190   1.959 -0.7315 -0.1909 -0.5537
 4771SOL    HW225950   2.462   0.219   2.087 -1.7365  0.8392  2.3912
 4772SOL     OW25951   1.077   1.361   9.011 -0.6231  0.2086 -0.0309
 4772SOL    HW125952   1.041   1.403   9.089  0.5634  1.0042  0.0916
 4772SOL    HW225953   1.141   1.424   8.977  0.9632 -0.4022  1.8204
 4773SOL     OW25954   2.682   3.884  10.958  0.1121 -0.0804  0.3281
 4773SOL    HW125955   2.697   3.960  11.014  0.2564 -1.4590  2.1480
 4773SOL    HW225956   2.758   3.831  10.980  0.9621  0.3236 -1.6179
 4774SOL     OW25957   1.397   0.967   3.259  0.0744  0.0477  0.1964
 4774SOL    HW125958   1.405   0.990   3.167 -1.1624 -1.5020 -0.2981
 4774SOL    HW225959   1.489   0.970   3.282  0.6483 -3.7622 -1.6835
 4775SOL     OW25960   3.438   1.354   8.987  0.4713 -0.7687 -0.3140
 4775SOL    HW125961   3.472   1.433   8.944  1.9363 -0.6881  0.9583
 4775SOL    HW225962   3.492   1.350   9.066  0.7994  1.6276 -0.4128
 4776SOL     OW25963   2.414   1.013  13.025 -0.6766  0.2481 -0.1355
 4776SOL    HW125964   2.340   1.026  13.084 -0.1805  2.5905 -0.0439
 4776SOL    HW225965   2.405   0.925  12.987  1.2097  0.9242 -2.1204
 4777SOL     OW25966   0.928   0.065  11.129 -0.0320 -0.0991 -0.1818
 4777SOL    HW125967   0.951   0.151  11.163 -1.1663 -0.5299  1.6350
 4777SOL    HW225968   0.886   0.010  11.194  1.0575 -1.9099 -1.0003
 4778SOL     OW25969   0.907   2.019   2.623 -0.3971  0.1585  0.1469
 4778SOL    HW125970   0.899   1.965   2.702  1.8379 -1.0565 -0.4453
 4778SOL    HW225971   0.830   2.073   2.636 -0.7659 -0.5813  1.0507
 4779SOL     OW25972   2.115   1.158  12.622  0.6079 -0.1708  0.1555
 4779SOL    HW125973   2.182   1.179  12.687  1.3413 -0.5895 -0.4707
 4779SOL    HW225974   2.049   1.116  12.677  2.0447 -2.9331 -0.2581
 4780SOL     OW25975   1.500   0.685   3.107  0.0591  0.4928 -0.7447
 4780SOL    HW125976   1.477   0.615   3.169  1.0700  1.3286  0.5487
 4780SOL    HW225977   1.578   0.726   3.143  1.2633 -0.4878 -2.2556
 4781SOL     OW25978   1.017   3.494   9.842 -0.9481 -0.4201 -0.4184
 4781SOL    HW125979   1.006   3.558   9.772 -0.6608  0.5588  0.4278
 4781SOL    HW225980   1.112   3.490   9.854 -1.1107 -0.5433  0.8073
 4782SOL     OW25981   4.444   4.478  16.207  0.3275 -0.1274 -0.1289
 4782SOL    HW125982   4.487   4.539  16.147 -0.9936  0.0228 -0.9219
 4782SOL    HW225983   4.489   4.498  16.289 -0.7318 -0.7836  0.6168
 4783SOL     OW25984   0.176   0.301   3.867  0.3327 -0.3766 -0.1402
 4783SOL    HW125985   0.175   0.359   3.944 -0.5349  0.4861 -0.8058
 4783SOL    HW225986   0.083   0.306   3.848 -0.1485  1.7184  2.6876
 4784SOL     OW25987   2.427   2.605   0.522 -0.5595 -0.1325  0.1816
 4784SOL    HW125988   2.431   2.640   0.611  0.2426  0.3194 -0.0300
 4784SOL    HW225989   2.517   2.613   0.488 -0.1869 -0.9719  0.9792
 4785SOL     OW25990   4.271   0.494   6.967  0.2508 -0.0167  0.1094
 4785SOL    HW125991   4.295   0.469   7.056 -2.5472  2.0306  1.4616
 4785SOL    HW225992   4.180   0.464   6.974 -0.3592  1.8366  0.2396
 4786SOL     OW25993   3.152   1.637   6.807 -0.3107 -0.3265  0.3523
 4786SOL    HW125994   3.087   1.573   6.777  0.7937 -1.8400  1.1617
 4786SOL    HW225995   3.159   1.618   6.900 -0.3651  1.8156  0.7922
 4787SOL     OW25996   3.714   4.737  10.875 -0.5422 -0.1129  1.0177
 4787SOL    HW125997   3.708   4.648  10.910  0.7643 -1.1436 -1.3789
 4787SOL    HW225998   3.702   0.054  10.952  2.0354 -0.0823  1.3881
 4788SOL     OW25999   1.228   3.183   9.326 -0.3639  0.1256 -0.5342
 4788SOL    HW126000   1.182   3.260   9.359 -0.1522 -2.1417  5.0943
 4788SOL    HW226001   1.168   3.117   9.359  0.2937 -0.8934 -1.3604
 4789SOL     OW26002   4.119   3.341   7.337  0.3164  0.1683 -0.6633
 4789SOL    HW126003   4.141   3.253   7.367 -2.6774 -0.0166  0.9285
 4789SOL    HW226004   4.194   3.399   7.351 -1.0199  1.7975 -0.2614
 4790SOL     OW26005   4.328   3.498   7.363  0.0021  1.0361 -0.8434
 4790SOL    HW126006   4.356   3.584   7.396  0.6520  0.2962  0.5649
 4790SOL    HW226007   4.392   3.492   7.292 -0.0045 -1.4356 -0.6388
 4791SOL     OW26008   3.623   4.165   9.264 -0.1367  0.5262 -0.2614
 4791SOL    HW126009   3.683   4.100   9.301 -0.6408 -0.3803 -1.0464
 4791SOL    HW226010   3.569   4.112   9.206 -0.0896 -1.0159  1.0965
 4792SOL     OW26011   0.842   2.094   8.488  0.0810 -0.0903 -0.2859
 4792SOL    HW126012   0.810   2.095   8.398  2.7597  2.3687 -1.2217
 4792SOL    HW226013   0.904   2.022   8.486 -1.1533 -1.1905  1.2427
 4793SOL     OW26014   4.378   1.405  12.820 -0.3441 -0.1517  0.0632
 4793SOL    HW126015   4.411   1.444  12.900  3.0494 -2.1778 -0.3500
 4793SOL    HW226016   4.456   1.360  12.788 -1.6739 -1.7260 -1.0080
 4794SOL     OW26017   4.091   2.072   5.285 -0.8454  0.0811  0.8050
 4794SOL    HW126018   4.082   2.098   5.193  3.0933  2.0150  0.9833
 4794SOL    HW226019   4.124   1.984   5.266  0.3183  0.6191  0.3486
 4795SOL     OW26020   3.260   3.019  10.218 -0.1665 -0.6529 -0.5139
 4795SOL    HW126021   3.314   3.098  10.217  0.6211 -1.1733  1.0395
 4795SOL    HW226022   3.330   2.954  10.211  0.8942  0.5742 -1.3152
 4796SOL     OW26023   1.420   2.032  12.498 -0.8740 -0.0807  0.2479
 4796SOL    HW126024   1.398   1.970  12.428 -1.9552  2.2727 -1.5058
 4796SOL    HW226025   1.514   2.022  12.511 -0.7730 -0.8507 -1.0565
 4797SOL     OW26026   1.336   1.123  16.715 -0.1669 -0.2203  0.0240
 4797SOL    HW126027   1.345   1.169  16.631  1.1684 -0.6707 -0.0701
 4797SOL    HW226028   1.429   1.115  16.736  0.3980 -0.8849 -2.7504
 4798SOL     OW26029   2.950   1.593   5.566  0.6603  0.0985 -0.0915
 4798SOL    HW126030   2.955   1.524   5.633 -2.8502  0.6067  0.6836
 4798SOL    HW226031   3.003   1.549   5.500  0.9325 -1.7903  1.3724
 4799SOL     OW26032   3.126   0.874   4.815 -0.3304 -0.9803 -0.4564
 4799SOL    HW126033   3.068   0.855   4.889  1.5800  1.0519  1.5658
 4799SOL    HW226034   3.173   0.951   4.846 -0.9635 -0.8567  0.2026
 4800SOL     OW26035   2.494   2.861   5.660  0.1342 -0.4878  0.7521
 4800SOL    HW126036   2.556   2.863   5.733  0.4569 -3.4518  0.5514
 4800SOL    HW226037   2.452   2.781   5.690 -2.6313  0.6460 -0.0481
 4801SOL     OW26038   1.615   0.141   8.267  0.1302 -0.2024  0.3631
 4801SOL    HW126039   1.567   0.210   8.314 -0.0149  0.4526 -0.7503
 4801SOL    HW226040   1.701   0.184   8.267 -0.3216  0.7084  0.4929
 4802SOL     OW26041   3.164   2.765   2.261  0.0018 -0.2402  0.8751
 4802SOL    HW126042   3.084   2.799   2.221  0.1905 -0.1614  0.5635
 4802SOL    HW226043   3.226   2.748   2.189  1.3681 -0.2290  2.0455
 4803SOL     OW26044   3.016   3.064  16.890  0.6333 -0.1646 -0.1277
 4803SOL    HW126045   2.935   3.109  16.912 -0.7827 -2.0218 -1.5018
 4803SOL    HW226046   3.018   3.080  16.795 -1.2992 -2.7495 -0.6082
 4804SOL     OW26047   3.112   2.888  16.453 -0.7555  0.0879 -0.3291
 4804SOL    HW126048   3.063   2.933  16.385  0.5936 -0.8921 -1.9360
 4804SOL    HW226049   3.172   2.830  16.405 -0.3277 -1.8457  2.5041
 4805SOL     OW26050   2.778   4.245   1.066  0.2925  0.2720 -0.3627
 4805SOL    HW126051   2.798   4.225   1.157  0.2856 -3.0205 -1.0677
 4805SOL    HW226052   2.731   4.327   1.079 -1.1888 -0.7690  0.9117
 4806SOL     OW26053   3.239   2.516  11.717 -0.3494 -0.1104 -0.3339
 4806SOL    HW126054   3.241   2.423  11.693  0.1070 -0.1117 -0.2855
 4806SOL    HW226055   3.186   2.562  11.652 -1.8757  0.4588  1.3172
 4807SOL     OW26056   4.105   3.042   6.700 -0.5627 -0.1296  0.0556
 4807SOL    HW126057   4.142   3.110   6.757 -0.0568 -1.3527  1.1746
 4807SOL    HW226058   4.015   3.043   6.730 -0.4022 -2.6502  0.5905
 4808SOL     OW26059   2.243   1.522   0.753  0.9160  0.0174 -0.3226
 4808SOL    HW126060   2.261   1.498   0.844  2.1338  0.8055 -0.3511
 4808SOL    HW226061   2.333   1.527   0.722  1.5197  1.4794  1.6765
 4809SOL     OW26062   2.181   0.032  12.659 -0.0665  0.3145 -0.1095
 4809SOL    HW126063   2.116   0.031  12.730  0.4428 -1.0198  0.3278
 4809SOL    HW226064   2.240   0.099  12.693  1.3833 -1.9237  1.7864
 4810SOL     OW26065   3.159   4.600   6.207  0.1295 -0.1635  0.4769
 4810SOL    HW126066   3.220   4.645   6.266 -0.2815  1.7229 -0.5420
 4810SOL    HW226067   3.157   4.657   6.130  0.6015 -2.1687 -0.9893
 4811SOL     OW26068   3.544   3.408   4.916  0.1546  0.1781 -0.5658
 4811SOL    HW126069   3.548   3.434   5.008 -0.7266 -0.4691 -0.3449
 4811SOL    HW226070   3.591   3.325   4.918 -0.0348  0.0663 -0.7448
 4812SOL     OW26071   1.051   0.849  11.467 -0.2527 -0.1237  0.3941
 4812SOL    HW126072   0.973   0.903  11.479  0.8464  1.0874  1.9635
 4812SOL    HW226073   1.103   0.899  11.404  0.5039 -1.6415 -0.1968
 4813SOL     OW26074   2.766   1.520   3.192 -0.5061  0.8518  0.4125
 4813SOL    HW126075   2.824   1.562   3.256  0.8065 -1.3013  0.6171
 4813SOL    HW226076   2.823   1.519   3.115 -0.6413  2.9373  0.2922
 4814SOL     OW26077   1.959   3.393   4.166 -0.0536 -0.4109 -0.3921
 4814SOL    HW126078   1.989   3.332   4.233 -0.1734  2.0705  1.9275
 4814SOL    HW226079   1.942   3.342   4.087 -2.0117  0.7340 -0.7060
 4815SOL     OW26080   2.179   3.691   9.358  0.3813  0.1304 -0.3800
 4815SOL    HW126081   2.251   3.749   9.381 -0.2759  1.7059 -2.2617
 4815SOL    HW226082   2.103   3.749   9.369  0.9660  0.4178  2.0897
 4816SOL     OW26083   0.039   2.691  17.169 -0.0781  0.2506  0.5582
 4816SOL    HW126084   0.065   2.777  17.137 -0.3719 -0.2250 -0.9707
 4816SOL    HW226085   4.690   2.694  17.209 -0.5232 -1.0968 -0.3058
 4817SOL     OW26086   1.994   2.803  13.280 -0.1996  0.1140  0.2331
 4817SOL    HW126087   1.997   2.716  13.240  4.1756  0.2320  0.3942
 4817SOL    HW226088   2.078   2.809  13.325 -0.2723  0.9667  0.2594
 4818SOL     OW26089   1.771   0.705   9.270  1.3911 -0.7598 -0.2132
 4818SOL    HW126090   1.803   0.795   9.264  0.9549 -0.5399  0.7741
 4818SOL    HW226091   1.777   0.685   9.177  0.5705 -2.3627  0.0843
 4819SOL     OW26092   3.920   4.730  12.848  0.2962  0.1732 -0.2880
 4819SOL    HW126093   3.858   0.065  12.845  0.4341  0.3516  0.9450
 4819SOL    HW226094   3.875   4.674  12.912 -1.7756  2.9965  0.7280
 4820SOL     OW26095   3.593   2.023  15.454  0.5276  0.3583 -0.8228
 4820SOL    HW126096   3.509   2.009  15.410 -1.3033  4.5262  1.3372
 4820SOL    HW226097   3.629   2.083  15.389 -0.1440  1.5437 -0.1131
 4821SOL     OW26098   4.556   4.067   2.411  0.1476  0.3241  0.0076
 4821SOL    HW126099   4.564   4.005   2.484 -4.2674  0.0409  0.2265
 4821SOL    HW226100   4.558   4.008   2.336  0.5771  0.6664 -0.2538
 4822SOL     OW26101   2.131   1.582  13.628 -0.2170 -0.0351  0.3707
 4822SOL    HW126102   2.089   1.497  13.617  0.8947 -0.8038  2.0115
 4822SOL    HW226103   2.204   1.555  13.572 -0.7248  3.0458 -1.7697
 4823SOL     OW26104   2.920   0.253   2.297 -0.1857 -0.2089 -0.0124
 4823SOL    HW126105   2.862   0.325   2.274 -0.9482 -1.5738 -2.3526
 4823SOL    HW226106   2.851   0.193   2.324 -0.7844  0.3390 -0.3291
 4824SOL     OW26107   2.153   1.189   8.366  0.0941  0.4776  0.3994
 4824SOL    HW126108   2.101   1.270   8.372 -2.6696 -1.2708 -0.3883
 4824SOL    HW226109   2.148   1.144   8.450  2.2492  1.0587  0.8479
 4825SOL     OW26110   1.561   1.354  16.517  0.0398  0.9896  0.2879
 4825SOL    HW126111   1.496   1.357  16.587 -0.8557  3.1004 -0.6313
 4825SOL    HW226112   1.513   1.299  16.454  0.9325  0.3373  0.1830
 4826SOL     OW26113   0.805   3.455   8.292  0.4149 -0.2912  0.5241
 4826SOL    HW126114   0.771   3.384   8.346 -2.4075  1.4571  1.0287
 4826SOL    HW226115   0.825   3.413   8.208 -1.8191  3.7562 -1.9818
 4827SOL     OW26116   1.607   1.823   3.433 -0.0368  0.5053  0.3617
 4827SOL    HW126117   1.675   1.788   3.376 -1.3683  1.3995 -1.7901
 4827SOL    HW226118   1.536   1.760   3.417  1.0992 -0.3913 -1.1202
 4828SOL     OW26119   1.936   0.467  15.015 -0.0366 -0.0426 -0.3899
 4828SOL    HW126120   1.917   0.418  15.095  2.1534  3.9939  2.6223
 4828SOL    HW226121   1.930   0.400  14.947  1.1568  0.2168 -0.7438
 4829SOL     OW26122   3.987   4.666  14.473  0.2494 -0.0457 -0.1030
 4829SOL    HW126123   4.035   4.643  14.394  2.4575  2.2680  0.5580
 4829SOL    HW226124   3.897   4.647  14.446  0.5235 -1.1113 -0.2737
 4830SOL     OW26125   1.214   1.759   1.762  0.4020 -0.3396  0.1357
 4830SOL    HW126126   1.289   1.721   1.807 -0.9003 -2.9910  0.0602
 4830SOL    HW226127   1.245   1.738   1.674 -1.2497 -1.9232 -0.0626
 4831SOL     OW26128   3.082   0.375   5.697 -0.1496  0.1819  0.6486
 4831SOL    HW126129   3.079   0.356   5.791  1.8088 -1.1853  0.4484
 4831SOL    HW226130   3.169   0.414   5.689 -0.7851  1.3832 -0.5024
 4832SOL     OW26131   1.303   0.078   8.227  0.6003 -0.3673  0.1225
 4832SOL    HW126132   1.392   0.045   8.209  0.1231 -1.1707 -0.7623
 4832SOL    HW226133   1.311   0.101   8.319 -2.3128 -0.4858  0.4065
 4833SOL     OW26134   4.617   3.415   9.480  0.0573 -0.8006 -0.0105
 4833SOL    HW126135   4.552   3.426   9.549  1.7456  4.0355  0.7761
 4833SOL    HW226136   4.680   3.364   9.531  0.1520  0.5753  1.2410
 4834SOL     OW26137   3.603   1.376   2.009  1.1934  0.3233 -0.5126
 4834SOL    HW126138   3.671   1.322   1.969  0.5982  0.5951 -1.9185
 4834SOL    HW226139   3.610   1.382   2.104  0.4158 -0.5597 -0.4026
 4835SOL     OW26140   2.363   3.536  14.268  0.4990  0.1060  0.1962
 4835SOL    HW126141   2.437   3.479  14.285 -0.2370 -0.6064  0.9734
 4835SOL    HW226142   2.371   3.543  14.173  0.8016  3.8072  0.5050
 4836SOL     OW26143   2.787   4.393  17.147  0.0011 -0.1048 -0.1554
 4836SOL    HW126144   2.736   4.382  17.066 -1.1064  2.6526  0.1516
 4836SOL    HW226145   2.867   4.347  17.122  0.0078 -0.4994  0.5872
 4837SOL     OW26146   1.455   2.069   8.862  0.5673 -0.5274 -0.5077
 4837SOL    HW126147   1.511   2.056   8.939 -1.5601  0.4455  1.1990
 4837SOL    HW226148   1.402   2.139   8.900 -0.5330 -0.9060 -1.3423
 4838SOL     OW26149   3.003   3.243   7.270  0.0280 -0.2918  0.2033
 4838SOL    HW126150   3.095   3.265   7.258  0.4279 -1.9756  0.1234
 4838SOL    HW226151   2.959   3.328   7.271 -0.5418 -0.5787 -0.5045
 4839SOL     OW26152   0.499   3.885  15.213  0.8010  0.0291  0.5111
 4839SOL    HW126153   0.475   3.835  15.134  0.9305  1.1282 -0.2203
 4839SOL    HW226154   0.554   3.957  15.182  3.5459 -1.6158  1.5479
 4840SOL     OW26155   0.135   2.523   5.667  0.3057 -0.7380  0.0937
 4840SOL    HW126156   0.227   2.530   5.644  0.6388 -0.3025  1.5590
 4840SOL    HW226157   0.094   2.488   5.588  0.4925 -0.2345 -0.2233
 4841SOL     OW26158   0.585   0.980  11.872  1.0702 -0.1819 -0.0208
 4841SOL    HW126159   0.581   1.034  11.951  0.4269 -2.0153  1.1868
 4841SOL    HW226160   0.607   1.046  11.807  1.1516 -1.8969 -1.7259
 4842SOL     OW26161   0.307   2.522   8.541 -0.5817 -0.4746 -0.1906
 4842SOL    HW126162   0.264   2.593   8.492  1.6314 -2.4905 -5.0089
 4842SOL    HW226163   0.398   2.551   8.538 -0.3540 -1.1404  0.3759
 4843SOL     OW26164   3.950   2.939   7.635  0.2616 -0.2910 -0.9303
 4843SOL    HW126165   3.952   2.910   7.726 -1.3526 -0.6238 -1.0037
 4843SOL    HW226166   3.943   3.032   7.657 -1.9976 -0.7599  0.3493
 4844SOL     OW26167   4.282   0.518   8.865 -0.1658  0.3906  0.0239
 4844SOL    HW126168   4.197   0.509   8.821 -1.2509  0.9192  1.9792
 4844SOL    HW226169   4.347   0.523   8.796 -0.3892 -0.9486 -0.2889
 4845SOL     OW26170   3.734   3.842   2.628  0.5437  0.0952  0.3120
 4845SOL    HW126171   3.788   3.773   2.589  0.5179  0.1833  0.1211
 4845SOL    HW226172   3.773   3.919   2.587  1.8366  0.0117  1.3618
 4846SOL     OW26173   0.822   3.715   8.330 -0.2582  0.1902  0.2367
 4846SOL    HW126174   0.806   3.621   8.316 -0.6289  0.0057  1.8539
 4846SOL    HW226175   0.746   3.749   8.377 -0.3749  0.4378 -0.1325
 4847SOL     OW26176   4.404   3.325   0.009  0.4457  0.3169 -0.2614
 4847SOL    HW126177   4.442   3.335   0.097  1.3554 -0.1805 -0.5958
 4847SOL    HW226178   4.325   3.276   0.032 -0.5660  1.9114 -0.3344
 4848SOL     OW26179   0.299   0.641   3.423 -0.1179  0.1762 -0.3574
 4848SOL    HW126180   0.277   0.611   3.511  2.6997 -3.0315 -0.7291
 4848SOL    HW226181   0.271   0.559   3.380 -1.4407 -0.2196  1.2540
 4849SOL     OW26182   2.724   3.482   2.793 -0.2635  0.2109 -0.9184
 4849SOL    HW126183   2.688   3.396   2.771 -1.8458  0.7008 -0.2166
 4849SOL    HW226184   2.818   3.467   2.792 -0.1210  1.0405 -0.1458
 4850SOL     OW26185   0.519   1.829   9.503 -0.1334  0.4642 -0.1429
 4850SOL    HW126186   0.599   1.789   9.468 -0.5525 -1.2874  0.8698
 4850SOL    HW226187   0.513   1.800   9.594  3.1134  0.1146 -0.0434
 4851SOL     OW26188   2.119   0.537  12.016 -0.6020 -0.0895 -0.0588
 4851SOL    HW126189   2.184   0.550  12.084  0.2608 -1.4042 -0.6213
 4851SOL    HW226190   2.073   0.621  12.017  1.0674  0.8362 -1.6126
 4852SOL     OW26191   2.527   1.582   1.964  0.5571 -0.0571 -0.4617
 4852SOL    HW126192   2.610   1.535   1.954 -0.4109 -1.9171  0.3420
 4852SOL    HW226193   2.469   1.523   1.917  0.9719 -1.0385  0.2556
 4853SOL     OW26194   1.918   0.302   1.150  0.2887  0.1028  0.2784
 4853SOL    HW126195   2.004   0.337   1.173 -0.1772  0.6559  1.1574
 4853SOL    HW226196   1.921   0.233   1.216 -1.9920 -1.3736 -1.1414
 4854SOL     OW26197   4.304   4.290   3.350  0.4683 -0.0888  0.3207
 4854SOL    HW126198   4.394   4.310   3.373  0.2836 -1.7684  2.4520
 4854SOL    HW226199   4.319   4.198   3.332 -1.5004 -0.3179 -0.2209
 4855SOL     OW26200   2.762   0.015   7.277 -0.4577 -0.1175 -0.1267
 4855SOL    HW126201   2.681   0.007   7.327  1.6516 -1.7816  3.0935
 4855SOL    HW226202   2.814   0.052   7.348  0.1585  2.1599 -1.7767
 4856SOL     OW26203   0.041   2.386  15.641 -0.5938 -0.5160 -0.4806
 4856SOL    HW126204   4.716   2.428  15.701  0.4849  0.4470 -0.0378
 4856SOL    HW226205   0.119   2.419  15.686  0.0070 -2.0712 -0.3821
 4857SOL     OW26206   0.115   1.558   9.865 -0.5463 -0.4598  0.9065
 4857SOL    HW126207   0.208   1.581   9.873  0.0144 -2.2190 -0.4315
 4857SOL    HW226208   0.108   1.557   9.770 -0.5296 -2.5499  0.9153
 4858SOL     OW26209   3.376   1.639   3.881  0.1880 -0.7447  0.9098
 4858SOL    HW126210   3.451   1.656   3.825 -2.2122  0.3067 -1.9549
 4858SOL    HW226211   3.382   1.543   3.876 -0.0184 -0.8664  2.9808
 4859SOL     OW26212   3.272   2.992   4.803  0.4551 -0.7592 -0.0320
 4859SOL    HW126213   3.337   3.059   4.780 -3.2802  2.5847 -0.9067
 4859SOL    HW226214   3.215   3.006   4.728 -0.5510 -0.5829  0.7552
 4860SOL     OW26215   2.185   0.139  14.895 -0.1133  0.0632 -0.1192
 4860SOL    HW126216   2.129   0.065  14.871  1.0025 -0.8223  0.0304
 4860SOL    HW226217   2.121   0.209  14.880 -1.0185 -0.3228  1.9738
 4861SOL     OW26218   2.608   0.145  15.441  0.0783  0.6240 -0.5242
 4861SOL    HW126219   2.595   0.137  15.346 -0.6249 -0.8926 -0.2941
 4861SOL    HW226220   2.538   0.097  15.485  0.3738 -1.5778 -2.4336
 4862SOL     OW26221   4.122   2.843  17.681 -0.4749  0.2593  0.0295
 4862SOL    HW126222   4.196   2.821  17.739 -0.8428  1.5395  0.9689
 4862SOL    HW226223   4.097   2.750  17.679  2.0484 -0.4371  0.8877
 4863SOL     OW26224   4.114   2.278   7.184 -0.3329  0.9447 -0.6043
 4863SOL    HW126225   4.036   2.334   7.181 -0.6839  0.3070 -3.1650
 4863SOL    HW226226   4.090   2.211   7.120 -1.6336 -0.0483  0.9048
 4864SOL     OW26227   3.645   1.304  12.697 -0.2457  0.3707 -0.5522
 4864SOL    HW126228   3.666   1.333  12.608 -1.2011 -2.0696 -1.5953
 4864SOL    HW226229   3.554   1.277  12.686 -0.2068  0.5643 -1.3441
 4865SOL     OW26230   4.505   4.178  10.988  0.2531 -0.0268 -0.2380
 4865SOL    HW126231   4.589   4.136  11.006  1.8836  2.9134 -1.0025
 4865SOL    HW226232   4.535   4.242  10.923 -0.6745  1.5510  0.8824
 4866SOL     OW26233   1.938   1.405  11.052 -0.5723  0.0921 -0.5571
 4866SOL    HW126234   1.907   1.453  11.129  1.6817  0.4086  0.1435
 4866SOL    HW226235   2.002   1.340  11.083 -1.4105 -1.0702 -1.2486
 4867SOL     OW26236   1.822   0.009   4.803 -0.5711  0.1023 -0.2284
 4867SOL    HW126237   1.867   4.672   4.765 -0.0278  0.5940 -0.5529
 4867SOL    HW226238   1.791   0.055   4.725  0.6097 -0.1084 -0.8173
 4868SOL     OW26239   1.370   1.999  17.488  0.4686 -0.0584 -0.0436
 4868SOL    HW126240   1.292   1.949  17.515  0.1139  0.6081  0.1681
 4868SOL    HW226241   1.428   1.931  17.523 -1.2299 -1.8956 -0.8062
 4869SOL     OW26242   3.030   4.243  12.074 -0.3141  0.2085  0.1635
 4869SOL    HW126243   3.042   4.337  12.067 -0.5779  0.1430 -1.2344
 4869SOL    HW226244   2.935   4.229  12.072 -0.3079  0.3479 -1.1522
 4870SOL     OW26245   1.946   1.653  13.816 -0.4743 -0.1001 -0.2868
 4870SOL    HW126246   1.886   1.654  13.741  2.1107  0.2284 -2.3271
 4870SOL    HW226247   2.029   1.639  13.771 -0.4541  1.2649 -0.6579
 4871SOL     OW26248   3.725   1.987   3.032  0.2300  0.3806  0.8587
 4871SOL    HW126249   3.685   1.920   2.977  2.0341  0.9891 -1.2382
 4871SOL    HW226250   3.753   2.053   2.968 -1.4043 -0.5520 -0.8177
 4872SOL     OW26251   4.036   3.814   1.237  0.2611  0.3602  0.1496
 4872SOL    HW126252   4.112   3.758   1.256 -1.3030 -1.3504  1.3489
 4872SOL    HW226253   4.080   3.886   1.193 -0.1589  1.4390  1.5092
 4873SOL     OW26254   0.277   4.248  17.355 -0.5214  0.4017 -0.2253
 4873SOL    HW126255   0.278   4.285  17.443 -3.4191  0.9275 -0.3855
 4873SOL    HW226256   0.246   4.160  17.376  1.4513 -0.6106 -1.5625
 4874SOL     OW26257   3.832   1.694  15.288 -0.0457 -0.4946  0.8287
 4874SOL    HW126258   3.874   1.679  15.203  0.9190  0.2727  1.1647
 4874SOL    HW226259   3.742   1.707  15.259  1.0715 -1.0513 -2.8607
 4875SOL     OW26260   2.263   1.881  15.302  1.0813 -0.8014 -0.2505
 4875SOL    HW126261   2.317   1.917  15.232 -0.6717  1.0976 -0.6306
 4875SOL    HW226262   2.269   1.788  15.284 -0.1979 -1.3027  1.9271
 4876SOL     OW26263   3.019   3.096   2.193 -0.0640  0.1862 -0.0209
 4876SOL    HW126264   2.950   3.033   2.214 -1.0685  1.3083  0.0055
 4876SOL    HW226265   2.979   3.138   2.117  0.4326 -0.0036 -0.3934
 4877SOL     OW26266   3.028   1.783  15.065  0.2868  0.0583 -0.2040
 4877SOL    HW126267   3.002   1.696  15.096  0.4394  0.8648  2.1726
 4877SOL    HW226268   3.096   1.750  15.005  0.3879 -1.3673  0.6894
 4878SOL     OW26269   4.685   3.372   8.802 -0.6019 -0.2241 -0.4422
 4878SOL    HW126270   4.656   3.300   8.745  0.9322 -1.0083 -0.2284
 4878SOL    HW226271   4.674   3.446   8.742 -0.9809 -0.5362 -0.7627
 4879SOL     OW26272   1.174   0.474   3.522 -0.5064  0.6386  0.5329
 4879SOL    HW126273   1.111   0.447   3.589  0.4445  1.4550  1.7754
 4879SOL    HW226274   1.161   0.569   3.525 -3.3822  0.2029  1.4659
 4880SOL     OW26275   4.619   2.945   3.365 -0.3714  1.2349  0.3961
 4880SOL    HW126276   4.531   2.954   3.401 -1.5791 -2.1152 -1.7292
 4880SOL    HW226277   4.614   2.858   3.325 -1.0832  1.3648  0.2069
 4881SOL     OW26278   3.321   0.509   5.769  0.2628  0.3701 -0.0601
 4881SOL    HW126279   3.400   0.546   5.809  0.3620  1.6403 -1.4035
 4881SOL    HW226280   3.362   0.425   5.746  2.3162  1.9088 -2.0969
 4882SOL     OW26281   0.733   2.771   6.474  0.5544 -0.6005 -0.0308
 4882SOL    HW126282   0.750   2.677   6.466 -0.1104 -0.4963 -2.9003
 4882SOL    HW226283   0.663   2.769   6.539 -0.0994 -0.4701 -0.7316
 4883SOL     OW26284   3.088   2.097  11.159  0.0240 -0.0445 -0.0144
 4883SOL    HW126285   3.116   2.055  11.078 -1.0897 -1.6185  0.4073
 4883SOL    HW226286   3.040   2.027  11.204 -2.7257  2.0461  0.3015
 4884SOL     OW26287   4.393   3.231   6.257  0.2348 -0.4162 -0.1499
 4884SOL    HW126288   4.361   3.141   6.252 -0.5226 -0.2028  0.9016
 4884SOL    HW226289   4.480   3.208   6.224  1.1557  1.4900  0.9617
 4885SOL     OW26290   1.599   3.267   4.460  0.1922  0.5332  0.1804
 4885SOL    HW126291   1.583   3.173   4.458  1.0668  0.4627 -2.3385
 4885SOL    HW226292   1.649   3.276   4.379  1.0474 -0.9368  0.5358
 4886SOL     OW26293   2.722   1.753  12.285 -0.6073 -0.3398 -0.2428
 4886SOL    HW126294   2.733   1.842  12.253  1.4468 -0.8068 -0.8160
 4886SOL    HW226295   2.672   1.765  12.366  0.4885  0.3684  0.3203
 4887SOL     OW26296   4.654   1.443   7.168 -0.3138  0.9660  0.5117
 4887SOL    HW126297   4.614   1.358   7.187 -0.2230  0.8328  0.0964
 4887SOL    HW226298   4.605   1.506   7.221 -1.1069  0.2516  0.6301
 4888SOL     OW26299   3.686   0.680   8.995 -0.3352 -0.2113 -0.1579
 4888SOL    HW126300   3.604   0.722   9.020  0.2179  0.5612  0.3545
 4888SOL    HW226301   3.754   0.737   9.031 -0.8031  0.1309  0.1775
 4889SOL     OW26302   4.658   2.726   3.020  0.1966 -0.4284  0.6783
 4889SOL    HW126303   4.603   2.757   2.948  2.8920  1.8099 -0.3958
 4889SOL    HW226304   4.712   2.803   3.039 -0.4104  0.0396  0.5277
 4890SOL     OW26305   3.609   1.001   9.135  0.0896  0.3065 -0.4464
 4890SOL    HW126306   3.595   1.068   9.203 -0.2122  0.4511 -0.6526
 4890SOL    HW226307   3.699   1.019   9.107  0.3208  2.5529  1.6994
 4891SOL     OW26308   3.606   1.559   5.546  0.6148 -0.3240 -0.9311
 4891SOL    HW126309   3.549   1.631   5.519 -1.0033 -0.4355  2.2511
 4891SOL    HW226310   3.544   1.501   5.589  0.1434 -1.1023 -2.6467
 4892SOL     OW26311   2.549   2.087   8.243  0.2916  0.2499  0.6252
 4892SOL    HW126312   2.579   2.050   8.160  0.3094  3.2981 -0.7334
 4892SOL    HW226313   2.564   2.181   8.233 -1.5863  0.4026 -0.7628
 4893SOL     OW26314   4.309   2.490   0.983 -0.1986 -0.0216  0.6117
 4893SOL    HW126315   4.276   2.522   0.899  2.9160 -1.7126 -1.2664
 4893SOL    HW226316   4.344   2.405   0.955  2.9405  0.9961  1.4806
 4894SOL     OW26317   4.008   2.477   5.909 -0.1204  0.3270  0.1190
 4894SOL    HW126318   4.102   2.461   5.900 -0.4890 -0.7463 -1.9162
 4894SOL    HW226319   3.974   2.421   5.840 -0.6689  0.6784  0.0991
 4895SOL     OW26320   2.008   1.271   4.987 -0.5660  0.2962 -0.4358
 4895SOL    HW126321   2.020   1.299   4.897  1.8760 -1.9728 -0.7995
 4895SOL    HW226322   1.929   1.217   4.985 -0.6702  0.4412 -0.2330
 4896SOL     OW26323   0.565   2.559   6.185 -0.0507  0.4319  0.2288
 4896SOL    HW126324   0.503   2.538   6.256  1.6847 -0.1815  1.5610
 4896SOL    HW226325   0.598   2.470   6.175 -1.6595 -0.3086  1.3828
 4897SOL     OW26326   2.607   3.089   0.795  0.1827  0.4647 -0.2858
 4897SOL    HW126327   2.674   3.090   0.727 -2.4002  1.6537 -2.8537
 4897SOL    HW226328   2.593   2.994   0.797  1.5043  0.3646  2.6418
 4898SOL     OW26329   4.075   4.001  15.601 -0.1043 -0.3256 -0.4728
 4898SOL    HW126330   4.057   3.948  15.679 -1.7513 -0.1927 -0.7489
 4898SOL    HW226331   4.170   4.010  15.606 -0.0242 -1.3467 -0.0696
 4899SOL     OW26332   3.869   4.107  11.276  0.1612 -0.0149 -0.3416
 4899SOL    HW126333   3.897   4.060  11.197  0.7121 -0.4313  0.1062
 4899SOL    HW226334   3.938   4.172  11.288 -0.3078  0.1672  1.3473
 4900SOL     OW26335   1.841   1.899   5.860 -0.0150  0.2430  0.0406
 4900SOL    HW126336   1.909   1.881   5.925  0.2137  0.3593 -0.1652
 4900SOL    HW226337   1.875   1.975   5.813 -0.9359  0.3906 -0.3870
 4901SOL     OW26338   2.350   2.654  12.090  0.5713  0.0427 -0.6580
 4901SOL    HW126339   2.362   2.733  12.037 -0.8768 -1.2047 -2.8444
 4901SOL    HW226340   2.444   2.639  12.103  1.0486  0.9401 -3.1967
 4902SOL     OW26341   1.182   0.215   5.943  0.5294  0.2008 -0.0657
 4902SOL    HW126342   1.092   0.233   5.916  1.4908  1.2041 -2.5290
 4902SOL    HW226343   1.168   0.191   6.035 -0.8437  1.2508 -0.0119
 4903SOL     OW26344   3.865   1.128   7.566 -0.4219 -0.4064  0.1845
 4903SOL    HW126345   3.894   1.044   7.603 -0.4245 -0.1792  0.6976
 4903SOL    HW226346   3.818   1.170   7.638 -0.5589  1.2384 -0.8763
 4904SOL     OW26347   2.504   3.918  13.740  0.6743  0.3473  0.2127
 4904SOL    HW126348   2.454   4.000  13.739  1.3904  0.7895  0.2835
 4904SOL    HW226349   2.544   3.929  13.827  0.4325 -1.3607  0.5272
 4905SOL     OW26350   1.622   0.971   2.766  0.0207 -0.0904  0.3745
 4905SOL    HW126351   1.552   1.000   2.707  0.8288 -0.2657 -0.6799
 4905SOL    HW226352   1.582   0.995   2.849 -0.3148  2.6808 -0.5725
 4906SOL     OW26353   1.646   0.693   0.371 -0.0486 -0.7213  0.7503
 4906SOL    HW126354   1.602   0.738   0.299 -0.2464 -0.7323  0.8637
 4906SOL    HW226355   1.676   0.771   0.418  0.8239 -0.1232 -0.8305
 4907SOL     OW26356   1.097   1.527   7.894 -0.0817 -0.7266  0.3650
 4907SOL    HW126357   1.172   1.572   7.856 -0.5599 -0.8316 -0.7014
 4907SOL    HW226358   1.136   1.443   7.918  0.9726 -0.8740 -1.9108
 4908SOL     OW26359   3.422   1.864   7.517 -0.1992  0.2857 -0.5970
 4908SOL    HW126360   3.460   1.793   7.568 -1.1761 -0.2795 -0.6549
 4908SOL    HW226361   3.363   1.890   7.588  0.7088 -1.2500  0.7104
 4909SOL     OW26362   2.648   2.338   6.548 -0.0323  0.1673 -0.5864
 4909SOL    HW126363   2.679   2.303   6.465  0.5292  0.4017 -0.4739
 4909SOL    HW226364   2.611   2.422   6.522  3.7359  1.6414 -1.0941
 4910SOL     OW26365   0.340   0.459   4.733 -0.2109 -0.1569 -0.3133
 4910SOL    HW126366   0.418   0.408   4.755  0.2267  0.7679  0.2873
 4910SOL    HW226367   0.276   0.435   4.801 -0.1756  0.2507 -0.1325
 4911SOL     OW26368   3.002   4.461   9.752 -0.8394  0.0977  0.1633
 4911SOL    HW126369   3.009   4.549   9.790 -0.4409 -0.0588  0.4499
 4911SOL    HW226370   3.092   4.444   9.723 -0.3383 -2.1129  3.0076
 4912SOL     OW26371   3.083   1.829  11.569  0.1274 -0.0538  0.2492
 4912SOL    HW126372   3.045   1.861  11.487  2.2867 -2.0148 -1.5024
 4912SOL    HW226373   3.014   1.837  11.635 -1.3550 -0.5854 -1.2316
 4913SOL     OW26374   3.867   3.877   7.548  0.1359  0.0375  0.3766
 4913SOL    HW126375   3.799   3.830   7.597 -0.4022  0.7618  0.3309
 4913SOL    HW226376   3.816   3.910   7.474  0.2972  2.2430  1.2593
 4914SOL     OW26377   1.295   2.008   9.866  0.0117  0.1141  0.4253
 4914SOL    HW126378   1.301   2.043   9.777  1.0335  0.6695  0.7121
 4914SOL    HW226379   1.370   2.049   9.910  1.1098 -0.0896 -1.3038
 4915SOL     OW26380   3.767   4.459   6.167  0.1348 -0.1991  0.1369
 4915SOL    HW126381   3.729   4.417   6.244 -1.7101  1.5589  0.1804
 4915SOL    HW226382   3.713   4.538   6.169 -2.1445 -1.7098 -1.3592
 4916SOL     OW26383   1.216   2.146   6.333 -0.5698  0.4204 -0.1576
 4916SOL    HW126384   1.305   2.152   6.298 -0.3838 -2.4100 -0.1768
 4916SOL    HW226385   1.216   2.233   6.372 -0.4195  0.8151 -1.0482
 4917SOL     OW26386   1.358   1.522   3.610  0.0683  0.6539  0.3325
 4917SOL    HW126387   1.263   1.517   3.598  0.4016  0.5171 -2.3063
 4917SOL    HW226388   1.364   1.558   3.699  1.7769 -0.2122  0.5705
 4918SOL     OW26389   0.773   1.130   9.579  0.7214  0.3771 -0.5114
 4918SOL    HW126390   0.831   1.142   9.654 -1.2904  1.0819  0.9481
 4918SOL    HW226391   0.824   1.073   9.522  1.7845  1.0631 -0.2262
 4919SOL     OW26392   0.021   1.466   6.709  0.4122  0.0870  0.7243
 4919SOL    HW126393   0.002   1.484   6.801 -0.4327  1.0050  0.3703
 4919SOL    HW226394   4.674   1.437   6.673 -1.4036  3.5752  2.2225
 4920SOL     OW26395   4.257   1.162   7.204 -0.1266 -0.5554  0.1132
 4920SOL    HW126396   4.271   1.142   7.296 -2.5186 -1.3227  0.3010
 4920SOL    HW226397   4.217   1.082   7.172 -0.1118 -0.4138 -0.2655
 4921SOL     OW26398   3.739   4.090   6.729  0.3866  0.3315  0.4928
 4921SOL    HW126399   3.800   4.154   6.764  0.8279  0.7012 -0.9296
 4921SOL    HW226400   3.656   4.137   6.722 -0.2002 -0.8284 -0.3910
 4922SOL     OW26401   0.042   0.834  13.727  0.9217 -0.3527 -0.2549
 4922SOL    HW126402   0.039   0.832  13.632  1.0396  0.0711 -0.2655
 4922SOL    HW226403   0.132   0.865  13.725  0.3717  0.9326 -3.8546
 4923SOL     OW26404   0.830   4.108   3.000 -0.1230  0.1808  0.0778
 4923SOL    HW126405   0.877   4.140   2.923 -0.9654 -0.7633 -0.8307
 4923SOL    HW226406   0.852   4.015   3.000 -1.1236 -0.0737  3.0425
 4924SOL     OW26407   0.519   3.521  15.035 -0.2408  0.3634  0.0882
 4924SOL    HW126408   0.540   3.585  14.967  0.5086 -0.9359 -0.8955
 4924SOL    HW226409   0.567   3.546  15.114 -0.1069  0.4929 -0.0324
 4925SOL     OW26410   2.413   4.010   6.576  0.5813  0.0825  0.7903
 4925SOL    HW126411   2.503   4.013   6.608  0.3674  1.5402  1.2330
 4925SOL    HW226412   2.430   3.987   6.485 -1.6728  2.6311 -0.2520
 4926SOL     OW26413   2.050   3.671  16.924  0.5669 -0.0410 -0.1764
 4926SOL    HW126414   1.969   3.700  16.966  1.1186  0.2714  0.6620
 4926SOL    HW226415   2.043   3.576  16.926  2.7329 -0.1893  0.2222
 4927SOL     OW26416   4.422   1.425   5.119 -0.0921  0.2537 -0.4041
 4927SOL    HW126417   4.477   1.370   5.064 -0.2818 -2.3903  2.0396
 4927SOL    HW226418   4.363   1.363   5.161 -0.6112  0.4393 -0.8588
 4928SOL     OW26419   0.728   2.942   6.796  0.4145 -0.7766 -0.2701
 4928SOL    HW126420   0.760   2.990   6.720  0.8429  1.8244  1.5492
 4928SOL    HW226421   0.807   2.941   6.851  0.8741  1.9020 -0.8513
 4929SOL     OW26422   3.508   1.835   9.784 -0.3580  0.9042  0.0077
 4929SOL    HW126423   3.451   1.776   9.735  0.2325  1.9798 -1.9415
 4929SOL    HW226424   3.484   1.815   9.875  1.7682  0.1205  0.3852
 4930SOL     OW26425   2.486   3.563   2.082  0.5389 -0.6973  0.4493
 4930SOL    HW126426   2.540   3.485   2.093  1.0111 -0.4856 -0.3888
 4930SOL    HW226427   2.487   3.570   1.987  1.6796 -0.2189  0.5058
 4931SOL     OW26428   2.412   3.599  12.780  0.1267  0.0409  0.0214
 4931SOL    HW126429   2.479   3.654  12.739  1.9157 -0.6533  2.0281
 4931SOL    HW226430   2.354   3.582  12.705 -1.7029 -0.2174  1.4893
 4932SOL     OW26431   1.432   1.640   3.348 -0.2253 -0.3631  0.6666
 4932SOL    HW126432   1.407   1.551   3.320 -0.0688 -0.6606  1.4643
 4932SOL    HW226433   1.398   1.615   3.434 -2.1535  1.2029  0.3573
 4933SOL     OW26434   4.055   0.234   4.962 -0.1705  0.0878 -0.1726
 4933SOL    HW126435   4.096   0.267   5.042  1.5353 -2.9974  0.2205
 4933SOL    HW226436   3.984   0.184   5.003  0.4623 -1.2844 -0.7559
 4934SOL     OW26437   2.877   1.402   7.677 -0.0516 -0.3886 -0.5543
 4934SOL    HW126438   2.884   1.428   7.585 -0.3679 -1.0319 -0.7647
 4934SOL    HW226439   2.961   1.357   7.689 -0.6226 -1.3040 -0.0082
 4935SOL     OW26440   2.364   3.884  14.025 -0.4599  0.3776 -0.0267
 4935SOL    HW126441   2.292   3.929  13.981 -1.2981  2.2035  3.1780
 4935SOL    HW226442   2.353   3.918  14.114 -0.6784  0.0303  0.0812
 4936SOL     OW26443   1.765   4.390   2.754 -0.0463 -0.2300 -0.6310
 4936SOL    HW126444   1.711   4.469   2.762  1.3866  0.5759  1.0836
 4936SOL    HW226445   1.850   4.434   2.747 -0.3091  0.0502 -2.1289
 4937SOL     OW26446   1.903   3.161   4.809  0.3316 -0.0990  0.3818
 4937SOL    HW126447   1.831   3.225   4.813  0.6904  0.3821 -0.9230
 4937SOL    HW226448   1.868   3.107   4.738  0.4137  1.1782 -0.6377
 4938SOL     OW26449   0.623   0.718   0.612 -0.3983 -0.9555 -0.4808
 4938SOL    HW126450   0.582   0.657   0.551  3.1110 -4.0935  0.3324
 4938SOL    HW226451   0.697   0.752   0.562  0.7839  0.1814  2.0297
 4939SOL     OW26452   3.266   1.192  13.785 -0.3283  0.7443  0.1423
 4939SOL    HW126453   3.245   1.211  13.876  2.2568 -0.2433  0.9442
 4939SOL    HW226454   3.233   1.272  13.745  0.1883  2.6691  3.5781
 4940SOL     OW26455   4.088   1.554  15.579  0.8923  0.2063 -0.3237
 4940SOL    HW126456   4.135   1.480  15.616 -1.2309 -0.6332  0.6670
 4940SOL    HW226457   4.126   1.634  15.615 -0.1712  0.1775  0.8377
 4941SOL     OW26458   0.989   4.013   3.767 -0.3978 -0.5435  0.7698
 4941SOL    HW126459   1.013   3.938   3.713 -1.5221 -2.2979  2.7219
 4941SOL    HW226460   0.893   4.009   3.767 -0.3801 -0.8088  2.1076
 4942SOL     OW26461   4.360   0.106   3.778  0.8936  0.2212 -0.2743
 4942SOL    HW126462   4.274   0.063   3.769  0.4519  0.8501  0.8626
 4942SOL    HW226463   4.364   0.158   3.698 -1.9041  0.1318 -0.4797
 4943SOL     OW26464   1.871   1.860  12.353  0.1813 -0.5170 -0.0943
 4943SOL    HW126465   1.907   1.774  12.372 -0.6233 -1.4004 -2.5980
 4943SOL    HW226466   1.957   1.901  12.351 -0.5752  1.0283 -1.0445
 4944SOL     OW26467   1.597   3.874   7.409  0.5549 -0.4273 -0.1634
 4944SOL    HW126468   1.521   3.816   7.399  0.1605 -0.1086  1.0248
 4944SOL    HW226469   1.573   3.936   7.478  3.7412 -1.9606  2.2867
 4945SOL     OW26470   1.528   4.372  12.318  0.2974 -0.5276  0.3128
 4945SOL    HW126471   1.531   4.464  12.289  0.1717 -0.7051 -0.2648
 4945SOL    HW226472   1.601   4.372  12.379  0.1941  0.8114  0.4457
 4946SOL     OW26473   3.392   4.587   2.341 -0.2327  0.1412  0.1679
 4946SOL    HW126474   3.462   4.651   2.337  1.5116 -1.9530 -2.2840
 4946SOL    HW226475   3.396   4.565   2.248  2.3323  4.0009 -0.6032
 4947SOL     OW26476   0.143   2.561  12.682  0.2939  0.1600  0.7660
 4947SOL    HW126477   0.109   2.635  12.732 -0.6754  0.6314 -0.6155
 4947SOL    HW226478   0.133   2.486  12.740 -0.2574 -0.7618 -0.5242
 4948SOL     OW26479   4.191   4.289   5.475 -0.1526 -0.3715  0.4743
 4948SOL    HW126480   4.225   4.344   5.405 -1.0834  1.3669  1.4040
 4948SOL    HW226481   4.109   4.325   5.507 -1.2465 -3.5949  1.3260
 4949SOL     OW26482   2.924   0.637   4.995  0.1487 -0.3248  0.4651
 4949SOL    HW126483   2.865   0.681   4.933 -2.2953 -1.2874  2.1036
 4949SOL    HW226484   2.872   0.560   5.017 -0.8053  0.2439  0.1818
 4950SOL     OW26485   3.538   1.410   9.258  0.1892 -0.0224  0.3060
 4950SOL    HW126486   3.494   1.479   9.308  3.3507  0.5182  2.3316
 4950SOL    HW226487   3.623   1.453   9.255  0.0610  0.2836  0.9024
 4951SOL     OW26488   2.338   1.026   3.316  0.1096 -0.1410  0.4949
 4951SOL    HW126489   2.345   1.091   3.245  1.3489  0.9422  1.5923
 4951SOL    HW226490   2.354   0.945   3.268 -1.3385  0.2711 -0.6658
 4952SOL     OW26491   0.747   3.182  17.258  0.0519 -0.2934  0.4529
 4952SOL    HW126492   0.673   3.237  17.285 -1.3881 -2.2055  0.4334
 4952SOL    HW226493   0.823   3.238  17.272 -0.0252  0.0758 -0.6258
 4953SOL     OW26494   4.493   0.952  12.577  0.0973 -0.4319  0.9466
 4953SOL    HW126495   4.454   0.893  12.513  2.0709  1.2588 -1.8316
 4953SOL    HW226496   4.450   1.035  12.558  1.7073  0.3566  0.7012
 4954SOL     OW26497   0.249   0.325   0.824 -0.0499 -0.3425 -0.2992
 4954SOL    HW126498   0.205   0.287   0.900 -0.2870 -1.0512 -0.7930
 4954SOL    HW226499   0.303   0.253   0.790 -0.0349 -0.3959 -0.1645
 4955SOL     OW26500   2.553   1.756   9.170 -0.7762  0.0349 -0.2687
 4955SOL    HW126501   2.549   1.719   9.259  0.0594  1.0607  0.1983
 4955SOL    HW226502   2.649   1.759   9.163 -0.7364  3.3935  1.5791
 4956SOL     OW26503   2.662   4.495   2.631  0.5983  0.1610 -0.4820
 4956SOL    HW126504   2.731   4.537   2.682  0.5505 -0.4044  0.0554
 4956SOL    HW226505   2.619   4.437   2.693  1.4116  0.2217  0.1262
 4957SOL     OW26506   2.256   2.189   6.365  0.2313  0.2521 -0.1421
 4957SOL    HW126507   2.162   2.182   6.378 -0.1723  1.5955 -2.3643
 4957SOL    HW226508   2.260   2.192   6.270 -0.2915  1.8447 -0.1063
 4958SOL     OW26509   3.195   1.186   1.913  0.1346 -0.0744 -0.4194
 4958SOL    HW126510   3.270   1.238   1.886  0.6678 -0.5961  0.0793
 4958SOL    HW226511   3.215   1.109   1.861 -0.6612 -0.0704 -0.7404
 4959SOL     OW26512   3.982   0.386   0.941 -0.2390  0.1035 -0.0717
 4959SOL    HW126513   3.940   0.363   0.859 -0.4299 -0.7652  0.2683
 4959SOL    HW226514   3.943   0.322   1.000  1.7885 -1.0850 -0.0287
 4960SOL     OW26515   3.383   1.313  13.498  0.2252  0.2479  0.3272
 4960SOL    HW126516   3.416   1.401  13.478  1.1647  0.3597  2.3496
 4960SOL    HW226517   3.442   1.258  13.448 -1.0611 -1.8368  1.0763
 4961SOL     OW26518   2.925   0.903  12.865  0.1180  0.0267 -0.6290
 4961SOL    HW126519   2.910   0.986  12.819  0.2280 -0.1783 -1.0331
 4961SOL    HW226520   2.836   0.881  12.890 -0.9220  3.4297 -1.3309
 4962SOL     OW26521   4.368   0.960   5.459 -0.1529 -0.1231  0.4781
 4962SOL    HW126522   4.275   0.972   5.439 -0.4174 -0.7790  1.2809
 4962SOL    HW226523   4.371   0.971   5.554 -1.5372  0.1802  0.4820
 4963SOL     OW26524   3.666   1.897  16.175  0.1409  0.0035 -0.7251
 4963SOL    HW126525   3.724   1.930  16.107  1.4542 -1.8824 -0.5312
 4963SOL    HW226526   3.720   1.838  16.228 -0.7827 -0.4455 -0.2807
 4964SOL     OW26527   1.355   4.553   3.905  0.1071  0.2614  0.2024
 4964SOL    HW126528   1.400   4.575   3.823 -3.8952  2.0067 -1.5251
 4964SOL    HW226529   1.426   4.551   3.969  1.9141  0.4818 -1.8061
 4965SOL     OW26530   3.658   3.913   9.470 -0.1389 -0.2506 -0.6778
 4965SOL    HW126531   3.721   3.845   9.492  0.0275  1.0689  2.9573
 4965SOL    HW226532   3.703   3.995   9.491 -0.7198 -0.2830  0.6820
 4966SOL     OW26533   3.266   0.632   4.679 -0.0742 -0.0630  0.0316
 4966SOL    HW126534   3.241   0.704   4.736  1.7291  0.7096 -0.1538
 4966SOL    HW226535   3.254   0.565   4.747 -1.3765 -1.8359 -1.9404
 4967SOL     OW26536   2.146   4.122   4.653  0.2619 -0.0108  0.2975
 4967SOL    HW126537   2.106   4.157   4.573 -0.1010  0.7284  0.8050
 4967SOL    HW226538   2.212   4.062   4.619  0.5572 -0.0533  0.9464
 4968SOL     OW26539   0.157   4.649   2.532 -0.4026 -0.0310 -0.6561
 4968SOL    HW126540   0.084   4.659   2.472 -1.1745  2.9988  0.7582
 4968SOL    HW226541   0.230   4.631   2.473  0.1013 -1.1673  0.3126
 4969SOL     OW26542   1.716   1.811   5.165 -0.1917 -0.1528 -0.1791
 4969SOL    HW126543   1.631   1.842   5.197  0.1168 -0.6267  1.1020
 4969SOL    HW226544   1.720   1.836   5.072  0.0306  0.4623 -0.0049
 4970SOL     OW26545   2.334   4.573   9.755  0.2553  0.0983 -0.4263
 4970SOL    HW126546   2.260   4.571   9.816  1.9662  0.6125  1.6237
 4970SOL    HW226547   2.396   4.514   9.796 -1.5852 -1.8574 -0.4692
 4971SOL     OW26548   3.402   3.261  11.927 -0.2622  0.5902 -0.1522
 4971SOL    HW126549   3.442   3.247  12.013 -0.3323  1.7704  0.0720
 4971SOL    HW226550   3.311   3.236  11.946  0.7181 -2.3126  0.6517
 4972SOL     OW26551   0.595   1.268   8.251  0.6464 -0.4115 -0.3636
 4972SOL    HW126552   0.667   1.283   8.190  2.0568  0.2655  1.4703
 4972SOL    HW226553   0.637   1.277   8.337  0.7560 -0.6451 -0.3955
 4973SOL     OW26554   0.509   3.784   5.436 -0.0171  0.7205  0.5794
 4973SOL    HW126555   0.420   3.805   5.407 -0.4747 -1.2907  0.5287
 4973SOL    HW226556   0.539   3.867   5.472 -2.4097  2.7897 -2.1335
 4974SOL     OW26557   0.587   1.564   7.472 -0.0967 -0.3533 -0.7586
 4974SOL    HW126558   0.623   1.487   7.427  0.5325 -0.4911 -0.0206
 4974SOL    HW226559   0.663   1.621   7.478  0.9295 -1.5835 -2.0814
 4975SOL     OW26560   0.578   4.133  17.410 -0.3439  0.0543 -0.3028
 4975SOL    HW126561   0.645   4.183  17.363  1.0191 -1.8561 -0.3814
 4975SOL    HW226562   0.515   4.202  17.429 -1.2183 -1.1496  1.1730
 4976SOL     OW26563   3.720   3.559   8.155 -0.3261  0.2059  0.1744
 4976SOL    HW126564   3.706   3.631   8.217 -0.5676 -0.0859  0.4567
 4976SOL    HW226565   3.655   3.495   8.184 -1.3367  1.2556  0.2096
 4977SOL     OW26566   3.352   4.045   3.976 -0.3216  0.3036 -0.6129
 4977SOL    HW126567   3.441   4.079   3.985 -0.6460  0.9474  0.0639
 4977SOL    HW226568   3.312   4.074   4.058 -1.2765 -3.2439  0.1585
 4978SOL     OW26569   1.891   1.186  12.837  0.2367 -0.3922  0.3371
 4978SOL    HW126570   1.893   1.097  12.800 -0.2683  0.3127 -1.3624
 4978SOL    HW226571   1.809   1.221  12.804 -0.1935 -1.9110 -0.2336
 4979SOL     OW26572   4.332   2.343  14.847  0.2551 -0.7344 -1.3180
 4979SOL    HW126573   4.379   2.262  14.826  1.2030 -0.8989  1.4712
 4979SOL    HW226574   4.274   2.347  14.771  3.0089 -1.5430 -3.4484
 4980SOL     OW26575   0.124   4.553   4.311  0.0252  0.3189 -0.2526
 4980SOL    HW126576   0.154   4.627   4.258 -1.4074  0.5969 -0.7011
 4980SOL    HW226577   0.189   4.488   4.287 -0.0376  0.5656 -1.0855
 4981SOL     OW26578   2.822   2.817   7.823 -0.6175 -0.1891 -0.2332
 4981SOL    HW126579   2.780   2.886   7.771  0.2652  0.1457 -0.5084
 4981SOL    HW226580   2.772   2.740   7.798  1.3098 -1.2224 -0.9398
 4982SOL     OW26581   3.953   2.191   3.983 -0.2478 -0.8299 -0.7887
 4982SOL    HW126582   4.030   2.134   3.983  1.2558  1.1772 -1.5528
 4982SOL    HW226583   3.926   2.176   4.074  0.9925 -0.2271 -0.3196
 4983SOL     OW26584   3.255   4.599   4.075  0.4495  0.3530 -0.1480
 4983SOL    HW126585   3.266   4.665   4.007  0.9098  0.2098 -0.2107
 4983SOL    HW226586   3.327   4.537   4.065 -0.9587 -1.1453 -1.0459
 4984SOL     OW26587   1.542   3.998   7.652 -0.8485  0.0915 -0.4438
 4984SOL    HW126588   1.451   4.028   7.653 -1.1811 -0.9201 -0.2851
 4984SOL    HW226589   1.538   3.921   7.709  0.2796 -0.7200 -1.4581
 4985SOL     OW26590   3.828   0.605   5.113 -0.1470 -0.0155  0.7629
 4985SOL    HW126591   3.843   0.585   5.021 -0.7676  2.3405  0.1613
 4985SOL    HW226592   3.918   0.611   5.146  0.1839 -0.0059 -0.1460
 4986SOL     OW26593   3.839   2.368   1.061  0.3882  0.1942 -0.2292
 4986SOL    HW126594   3.868   2.414   1.139  3.3905 -0.1384 -1.1783
 4986SOL    HW226595   3.777   2.310   1.107 -2.5597 -0.0383 -4.4629
 4987SOL     OW26596   3.718   4.103   0.075 -0.0602 -0.7197  0.1997
 4987SOL    HW126597   3.645   4.097   0.135 -1.1067 -1.1823 -1.1166
 4987SOL    HW226598   3.787   4.058   0.123 -0.5371  0.0436  1.5852
 4988SOL     OW26599   2.314   1.815  12.510  0.1365  0.0049 -0.1280
 4988SOL    HW126600   2.393   1.772  12.544  1.4455  0.9982 -1.9158
 4988SOL    HW226601   2.260   1.791  12.586  0.4506  1.7058  0.6193
 4989SOL     OW26602   1.678   0.356   7.782  0.2989 -0.2910 -0.4697
 4989SOL    HW126603   1.628   0.282   7.816  0.1774 -0.6270 -1.3712
 4989SOL    HW226604   1.738   0.305   7.727  0.4281 -1.0277  0.3639
 4990SOL     OW26605   0.999   2.957   6.932 -0.0027  0.1377 -0.1755
 4990SOL    HW126606   1.080   2.940   6.980  0.9811  2.3262 -1.0242
 4990SOL    HW226607   0.992   2.871   6.891  0.0352  0.3208 -0.5746
 4991SOL     OW26608   3.404   2.203   9.385  0.6308 -0.1454 -0.6074
 4991SOL    HW126609   3.473   2.160   9.334  0.7749 -0.7668  0.1109
 4991SOL    HW226610   3.377   2.279   9.333  0.0367 -1.0413 -1.5907
 4992SOL     OW26611   3.264   1.047  17.288 -0.1809 -0.2009  0.0165
 4992SOL    HW126612   3.295   1.134  17.264  0.3067  0.0556  1.6118
 4992SOL    HW226613   3.201   1.034  17.216  0.4361 -1.8489 -0.2157
 4993SOL     OW26614   0.951   1.510   6.733  0.0172  0.0556 -0.1367
 4993SOL    HW126615   1.031   1.486   6.779 -0.4777 -0.4485  0.4660
 4993SOL    HW226616   0.963   1.597   6.696  2.3539 -0.4155 -0.4623
 4994SOL     OW26617   1.529   0.095   7.824  0.1633 -0.0953  0.1776
 4994SOL    HW126618   1.520   0.049   7.740 -1.8324  0.6897 -0.0482
 4994SOL    HW226619   1.439   0.128   7.833  1.0397  2.4645 -0.4445
 4995SOL     OW26620   0.949   3.470   8.554  0.1309  0.0785 -0.1811
 4995SOL    HW126621   0.927   3.470   8.461 -0.3971  2.3961 -0.0520
 4995SOL    HW226622   0.889   3.538   8.583 -1.3846 -0.0918 -2.8486
 4996SOL     OW26623   2.099   0.239   6.996 -0.0238 -0.0933 -0.7336
 4996SOL    HW126624   2.009   0.250   6.966 -1.3033  0.9203  3.4296
 4996SOL    HW226625   2.120   0.328   7.026  0.5994 -0.0544 -1.3113
 4997SOL     OW26626   3.589   2.107   7.146 -0.3134 -0.6616  0.6850
 4997SOL    HW126627   3.511   2.096   7.199 -0.4577 -3.8218 -0.1422
 4997SOL    HW226628   3.583   2.028   7.092  0.0615 -0.5345  0.4546
 4998SOL     OW26629   3.448   1.490   3.603 -0.2524  0.2766 -0.1826
 4998SOL    HW126630   3.511   1.494   3.675  0.0807  0.5445 -0.4842
 4998SOL    HW226631   3.502   1.464   3.528 -0.2122 -3.2034  1.0844
 4999SOL     OW26632   3.495   4.532  15.309 -0.0206  0.1885 -0.1153
 4999SOL    HW126633   3.590   4.542  15.315 -0.0570 -0.1953  1.1514
 4999SOL    HW226634   3.485   4.439  15.291 -1.7174  0.1647  0.9261
 5000SOL     OW26635   2.962   4.072   9.943  0.8445 -0.0906  0.3198
 5000SOL    HW126636   2.955   4.045  10.035  2.2553 -0.0266  0.4499
 5000SOL    HW226637   3.049   4.110   9.937  0.2728  0.9406 -1.3829
 5001SOL     OW26638   3.791   2.295   4.959 -0.6510  0.1275  0.8107
 5001SOL    HW126639   3.774   2.347   5.038 -1.3073  4.1737 -1.9423
 5001SOL    HW226640   3.756   2.357   4.894 -0.7466 -0.0791  0.6663
 5002SOL     OW26641   2.274   2.605  10.190 -0.1848 -0.5811 -0.2658
 5002SOL    HW126642   2.179   2.590  10.183 -0.5840  0.4804  3.1606
 5002SOL    HW226643   2.284   2.650  10.106  1.5714  1.7441  1.2155
 5003SOL     OW26644   1.372   3.469  13.209 -0.4276 -0.7895 -0.4198
 5003SOL    HW126645   1.348   3.459  13.301 -0.4093 -2.4563 -0.5961
 5003SOL    HW226646   1.365   3.379  13.178  0.3895 -0.8606 -0.3956
 5004SOL     OW26647   4.103   3.362   3.361 -0.0768  0.1809 -0.1359
 5004SOL    HW126648   4.155   3.438   3.390 -0.1961  0.0859  0.3285
 5004SOL    HW226649   4.017   3.399   3.340 -0.3027 -0.3583 -0.1398
 5005SOL     OW26650   2.298   0.940   6.649 -0.2515 -0.1434 -0.2660
 5005SOL    HW126651   2.385   0.950   6.610 -0.1374  2.7769  0.7377
 5005SOL    HW226652   2.309   0.859   6.698 -1.3106 -1.4303 -2.1435
 5006SOL     OW26653   3.004   4.568  10.612  0.1427  0.4292 -0.0644
 5006SOL    HW126654   2.979   4.515  10.687 -1.3254 -0.5059 -1.2234
 5006SOL    HW226655   2.927   4.566  10.555 -0.9002  2.1851  1.2663
 5007SOL     OW26656   4.629   3.747   1.548  0.4187 -0.2730 -0.4520
 5007SOL    HW126657   4.718   3.768   1.518 -0.9343  1.4124 -3.2183
 5007SOL    HW226658   4.651   3.696   1.626  1.8580  0.1882 -0.5434
 5008SOL     OW26659   1.685   1.723   6.019  0.6474  0.2960  0.4887
 5008SOL    HW126660   1.727   1.796   5.974  0.8686 -0.0837  0.0696
 5008SOL    HW226661   1.702   1.719   6.113  1.1632 -0.8891  0.3568
 5009SOL     OW26662   4.727   1.507   2.060  0.4745  0.4813 -0.5257
 5009SOL    HW126663   4.703   1.427   2.107 -1.5588  1.0817 -0.5259
 5009SOL    HW226664   0.078   1.517   2.095  0.4716 -1.4059  0.0168
 5010SOL     OW26665   4.172   4.004   4.318  0.3637  0.2095 -0.2167
 5010SOL    HW126666   4.134   4.092   4.313  2.7951  1.2984  0.6382
 5010SOL    HW226667   4.092   3.953   4.333  0.3270  0.1080 -0.7448
 5011SOL     OW26668   0.291   0.574   0.722  0.0465 -0.2140 -0.4647
 5011SOL    HW126669   0.200   0.602   0.731  0.0840  0.2721 -1.6462
 5011SOL    HW226670   0.282   0.493   0.772  2.6086 -0.8904 -1.1006
 5012SOL     OW26671   3.080   2.191   3.206 -0.2379 -0.4682  0.0093
 5012SOL    HW126672   3.097   2.236   3.123  2.9256  0.0450  0.9452
 5012SOL    HW226673   3.150   2.225   3.261 -0.3979 -0.7611  0.3939
 5013SOL     OW26674   0.572   4.485   7.691 -0.0743 -0.0903  0.9360
 5013SOL    HW126675   0.594   4.412   7.632  0.3348  1.3185 -0.6616
 5013SOL    HW226676   0.556   4.568   7.646 -0.4474 -1.0325 -0.6871
 5014SOL     OW26677   0.273   4.510   4.939 -0.0365  0.1435  0.3022
 5014SOL    HW126678   0.178   4.503   4.944  0.0339 -0.1775  1.2663
 5014SOL    HW226679   0.287   4.599   4.907  1.5525 -0.4653 -0.6935
 5015SOL     OW26680   4.203   2.856  14.466 -0.5082  0.1144  1.0730
 5015SOL    HW126681   4.139   2.849  14.395  0.6625  0.6856 -0.0226
 5015SOL    HW226682   4.265   2.922  14.436 -1.3446 -0.1278 -1.1953
 5016SOL     OW26683   3.838   4.141   6.001 -0.2700 -0.0187  0.3265
 5016SOL    HW126684   3.866   4.232   5.992 -0.5053 -0.0145 -0.3813
 5016SOL    HW226685   3.917   4.099   6.035  0.9142  1.3952 -0.6876
 5017SOL     OW26686   4.508   4.408   2.277 -0.3718  0.3580 -0.2071
 5017SOL    HW126687   4.415   4.390   2.261 -0.0994  1.4551 -3.0739
 5017SOL    HW226688   4.545   4.368   2.199  2.8252 -0.7373  1.8878
 5018SOL     OW26689   2.762   0.181   5.359 -0.1683  0.3889 -0.0843
 5018SOL    HW126690   2.831   0.225   5.408 -0.5453  0.7289  0.1397
 5018SOL    HW226691   2.730   0.108   5.411 -0.7113 -0.6453 -1.8721
 5019SOL     OW26692   4.561   0.548   8.050  0.0416 -0.0270  0.5446
 5019SOL    HW126693   4.520   0.611   8.109 -0.7432 -0.5021  0.5117
 5019SOL    HW226694   4.648   0.588   8.043 -0.5048  1.0009 -0.5808
 5020SOL     OW26695   3.160   3.489   3.014  0.1404 -0.1663  0.0466
 5020SOL    HW126696   3.099   3.485   2.941  0.3916 -0.2872 -0.1568
 5020SOL    HW226697   3.217   3.563   2.993 -0.3740  0.3345  0.4308
 5021SOL     OW26698   0.748   1.595   3.614  0.7478  0.1001 -0.2051
 5021SOL    HW126699   0.657   1.579   3.589  0.8235 -0.1055 -0.3476
 5021SOL    HW226700   0.732   1.640   3.697 -1.4219  0.0793 -0.6106
 5022SOL     OW26701   1.719   3.511   6.165 -0.1332  0.5636  0.0972
 5022SOL    HW126702   1.688   3.549   6.247 -0.4304 -0.9154  0.6545
 5022SOL    HW226703   1.722   3.419   6.190  1.9250  0.9912  1.4640
 5023SOL     OW26704   3.087   0.460  16.025 -0.3741  0.0898  0.2799
 5023SOL    HW126705   3.067   0.391  16.089  0.5997  1.3177  1.8890
 5023SOL    HW226706   3.006   0.467  15.974 -0.0909  0.9736 -0.0349
 5024SOL     OW26707   3.259   0.436   2.619  0.7520  0.1517  0.6011
 5024SOL    HW126708   3.182   0.471   2.664  0.9188  0.9213  0.2882
 5024SOL    HW226709   3.229   0.415   2.530  3.7447  0.9280 -0.5876
 5025SOL     OW26710   4.071   2.586   5.507 -0.1731  0.2973  0.2718
 5025SOL    HW126711   4.032   2.521   5.449 -0.1291 -0.1724  0.7655
 5025SOL    HW226712   4.091   2.651   5.440  0.5384 -0.9037 -0.6695
 5026SOL     OW26713   2.879   2.782  13.551 -0.3043  0.0877 -0.2858
 5026SOL    HW126714   2.927   2.865  13.555 -0.3049  0.2263 -2.8990
 5026SOL    HW226715   2.802   2.803  13.497  1.8074 -0.8098 -3.6823
 5027SOL     OW26716   3.981   3.813   3.461  0.1560  0.2180  0.0736
 5027SOL    HW126717   4.029   3.758   3.522 -1.9033  0.5856  2.0409
 5027SOL    HW226718   3.950   3.747   3.399 -0.0345  0.4179 -0.0485
 5028SOL     OW26719   1.622   0.543   7.319 -0.4719 -0.1205  0.2158
 5028SOL    HW126720   1.544   0.594   7.342 -1.2830  0.5933 -4.1253
 5028SOL    HW226721   1.662   0.531   7.405  0.5461  3.0782  0.1796
 5029SOL     OW26722   4.472   1.203   4.112  0.0280  0.1472  0.3971
 5029SOL    HW126723   4.482   1.178   4.020 -2.4949 -0.4548  0.2777
 5029SOL    HW226724   4.382   1.237   4.107 -0.0305 -0.1823 -0.7030
 5030SOL     OW26725   0.487   3.093   9.079  0.0174 -0.2088 -0.1314
 5030SOL    HW126726   0.547   3.074   9.151 -1.5802 -0.2969  1.1999
 5030SOL    HW226727   0.459   3.004   9.057  0.3366 -0.9307  2.3286
 5031SOL     OW26728   0.836   1.772   2.420 -0.2744  0.7740  0.8907
 5031SOL    HW126729   0.847   1.698   2.480 -1.3241  0.4556  0.6855
 5031SOL    HW226730   0.829   1.842   2.484 -0.0908  1.1310  0.5205
 5032SOL     OW26731   3.099   3.082   1.302 -0.0621 -0.2794 -0.1237
 5032SOL    HW126732   3.168   3.124   1.251  0.9801 -1.5394  0.2597
 5032SOL    HW226733   3.074   3.016   1.238  1.5634 -0.5299 -0.4826
 5033SOL     OW26734   3.923   1.292   5.644  0.1295 -0.3517  0.2161
 5033SOL    HW126735   3.918   1.307   5.738 -0.3674  1.1683 -0.0511
 5033SOL    HW226736   3.970   1.209   5.644  0.3306 -0.2387  0.7800
 5034SOL     OW26737   2.197   1.716   5.445 -0.0928  0.0758 -0.1178
 5034SOL    HW126738   2.112   1.747   5.475  0.3853  0.5651  0.7436
 5034SOL    HW226739   2.237   1.722   5.532  2.2568  0.1889 -1.2003
 5035SOL     OW26740   2.572   4.374   3.988  0.0419 -0.4209  0.1441
 5035SOL    HW126741   2.662   4.363   3.958  0.8201  2.5645  1.4314
 5035SOL    HW226742   2.580   4.386   4.083 -2.2283  0.7911  0.1724
 5036SOL     OW26743   4.612   3.584   3.893 -0.0922  0.3071  0.7963
 5036SOL    HW126744   4.677   3.570   3.962  2.0798  1.8812 -0.9696
 5036SOL    HW226745   4.547   3.634   3.943 -0.7089  0.7380 -0.4438
 5037SOL     OW26746   0.081   3.692   9.645  0.1728 -0.0065  0.0366
 5037SOL    HW126747   0.127   3.763   9.690 -1.6809  0.0679  1.7911
 5037SOL    HW226748   0.153   3.649   9.599 -0.2067 -1.5721  0.9012
 5038SOL     OW26749   3.141   1.413   1.115 -0.0073 -0.1250  0.4336
 5038SOL    HW126750   3.198   1.398   1.040 -2.8384  3.5489 -2.4536
 5038SOL    HW226751   3.188   1.364   1.183 -0.5434  1.4103  1.9153
 5039SOL     OW26752   1.312   3.427  11.113  0.7632 -0.0355  0.0424
 5039SOL    HW126753   1.218   3.426  11.094  0.6964 -0.2012  0.3908
 5039SOL    HW226754   1.349   3.384  11.036  1.4550  0.2224  0.2359
 5040SOL     OW26755   4.596   3.966  13.360  0.1395  0.5669 -0.1726
 5040SOL    HW126756   4.576   4.054  13.330  1.4760  0.8924 -0.1299
 5040SOL    HW226757   4.549   3.915  13.295 -1.5510  0.7439  0.9215
 5041SOL     OW26758   2.096   1.372   6.141 -0.3637  0.0258  0.6185
 5041SOL    HW126759   2.025   1.435   6.152 -1.2144 -0.8428  0.0602
 5041SOL    HW226760   2.065   1.311   6.073  2.1604 -2.2398  1.4784
 5042SOL     OW26761   3.210   0.512   3.020  0.4433  0.0838  0.1690
 5042SOL    HW126762   3.282   0.516   2.958  1.8002 -0.5699  1.7082
 5042SOL    HW226763   3.154   0.588   3.001  0.7863  0.0834 -0.8441
 5043SOL     OW26764   1.247   1.179   3.805  0.0245  0.3764  0.3282
 5043SOL    HW126765   1.303   1.214   3.874 -0.8719  1.4230  0.5212
 5043SOL    HW226766   1.218   1.096   3.842 -3.5289  0.4159 -2.3348
 5044SOL     OW26767   0.430   3.057   2.392 -0.8143 -0.0510 -0.0516
 5044SOL    HW126768   0.491   3.131   2.388 -0.8883 -0.0901 -2.0232
 5044SOL    HW226769   0.404   3.064   2.484  0.6442 -1.1146  0.4445
 5045SOL     OW26770   1.182   0.936   6.233  0.0057 -0.1445  0.4666
 5045SOL    HW126771   1.205   0.884   6.156 -0.8569 -0.2705  0.2842
 5045SOL    HW226772   1.088   0.949   6.219 -0.0577 -1.4926 -0.3285
 5046SOL     OW26773   1.384   4.162   9.877  0.3715 -0.3788 -0.1022
 5046SOL    HW126774   1.294   4.193   9.882  0.0394 -1.5521  1.1445
 5046SOL    HW226775   1.390   4.113   9.795 -1.5184 -1.3841  0.3828
 5047SOL     OW26776   4.024   4.199  17.725 -0.1499  0.1706 -0.2186
 5047SOL    HW126777   3.964   4.136   0.017  1.1288 -1.9142 -1.5850
 5047SOL    HW226778   4.036   4.257   0.052  0.2279 -0.0098 -0.1371
 5048SOL     OW26779   4.534   1.474  15.500 -0.5229  0.1375  0.1621
 5048SOL    HW126780   4.584   1.554  15.517  0.9811 -0.7967  0.1138
 5048SOL    HW226781   4.592   1.400  15.517 -0.2541  0.3206  0.0335
 5049SOL     OW26782   1.484   3.684  13.116 -0.4646 -0.3356  0.0785
 5049SOL    HW126783   1.455   3.596  13.138  0.0935 -0.8746 -1.3857
 5049SOL    HW226784   1.411   3.744  13.136  0.1047  0.4133 -0.1000
 5050SOL     OW26785   3.361   2.637   4.975  0.3216 -0.6733 -0.6483
 5050SOL    HW126786   3.372   2.544   4.996 -2.0562 -1.1083 -1.2693
 5050SOL    HW226787   3.412   2.647   4.894 -0.7581 -0.6047 -1.3229
 5051SOL     OW26788   0.776   0.840   7.413 -0.2559  0.6487 -0.2604
 5051SOL    HW126789   0.836   0.766   7.404 -2.1847 -0.8540 -0.9635
 5051SOL    HW226790   0.694   0.795   7.392 -0.5660  1.3248 -0.4793
 5052SOL     OW26791   4.517   2.931   6.967 -0.3706  0.2147  0.1565
 5052SOL    HW126792   4.455   2.860   6.950 -0.5411  0.9459 -2.3286
 5052SOL    HW226793   4.595   2.910   7.018 -0.1996  2.5602  0.8672
 5053SOL     OW26794   0.940   3.887   3.402 -0.0364  0.2490  0.1179
 5053SOL    HW126795   0.912   3.871   3.492  2.3480  0.8451  0.9568
 5053SOL    HW226796   1.035   3.878   3.406  0.2387  3.1517 -0.1810
 5054SOL     OW26797   3.476   2.855   2.187  0.7022 -0.1172  0.0171
 5054SOL    HW126798   3.454   2.902   2.106 -0.2670 -2.3391 -1.0142
 5054SOL    HW226799   3.418   2.898   2.250  2.5927  0.6915  1.1878
 5055SOL     OW26800   2.951   3.215   5.922  0.3441 -0.3004  0.0212
 5055SOL    HW126801   2.941   3.158   5.998 -0.2849  0.2821  0.3763
 5055SOL    HW226802   2.917   3.158   5.854  1.6369  2.4702 -2.9734
 5056SOL     OW26803   3.560   1.049   6.871 -0.4950 -0.2779 -0.0506
 5056SOL    HW126804   3.600   1.111   6.809 -0.8918 -0.2146 -0.2417
 5056SOL    HW226805   3.574   1.099   6.952  2.8408 -1.7344  0.2805
 5057SOL     OW26806   0.916   1.122   5.913 -0.5352 -0.0684  0.0026
 5057SOL    HW126807   0.959   1.204   5.937 -1.7385  0.6056 -0.1882
 5057SOL    HW226808   0.824   1.143   5.925  0.3015  2.9483  1.0349
 5058SOL     OW26809   3.398   2.346   4.832 -0.0738  0.0869 -0.1723
 5058SOL    HW126810   3.319   2.331   4.780 -0.1614  0.9464 -0.2896
 5058SOL    HW226811   3.386   2.281   4.901 -2.7735 -1.0528 -1.7319
 5059SOL     OW26812   3.106   0.851   6.699 -0.3326  0.5750 -0.6307
 5059SOL    HW126813   3.165   0.779   6.721 -1.4796  0.4738  2.1517
 5059SOL    HW226814   3.154   0.923   6.739 -1.0466  0.8192 -0.2103
 5060SOL     OW26815   1.412   3.778   3.923  0.1498  0.2881  0.1725
 5060SOL    HW126816   1.485   3.814   3.973  0.0557 -0.2364  0.6802
 5060SOL    HW226817   1.435   3.810   3.836  0.6768 -0.8865 -0.1145
 5061SOL     OW26818   4.580   0.948   3.514 -0.4097  0.3560  0.2695
 5061SOL    HW126819   4.546   0.868   3.475 -2.7689  0.3034  2.4518
 5061SOL    HW226820   4.606   0.915   3.599  1.0574 -0.7012 -0.5845
 5062SOL     OW26821   1.358   2.505   7.058 -0.3615  0.2656 -0.5767
 5062SOL    HW126822   1.387   2.421   7.094 -3.1737 -0.4379  0.0442
 5062SOL    HW226823   1.370   2.473   6.968 -0.2884 -2.8293  0.5154
 5063SOL     OW26824   1.093   1.572   3.614  0.2571 -0.3601  0.6345
 5063SOL    HW126825   1.009   1.542   3.580  0.1171  1.0510 -0.2574
 5063SOL    HW226826   1.084   1.666   3.633  0.5432 -0.4078  1.0162
 5064SOL     OW26827   4.544   3.253   6.758  0.1807 -0.4574 -0.1320
 5064SOL    HW126828   4.566   3.228   6.668  0.7224 -1.7890  0.3629
 5064SOL    HW226829   4.621   3.226   6.807  1.0025  1.1267 -0.5802
 5065SOL     OW26830   3.748   2.646   7.824  0.5063  0.9218 -0.2790
 5065SOL    HW126831   3.835   2.686   7.832  1.2870 -0.7678 -0.3566
 5065SOL    HW226832   3.731   2.661   7.731  0.1063 -1.4343 -0.5886
 5066SOL     OW26833   0.666   1.179   8.720  0.2258 -0.3007 -0.1682
 5066SOL    HW126834   0.579   1.159   8.687 -1.3610  3.6556  1.5686
 5066SOL    HW226835   0.705   1.220   8.643  0.6853 -2.6775 -1.1885
 5067SOL     OW26836   0.248   4.198   2.301 -0.0758  0.4485 -0.0961
 5067SOL    HW126837   0.291   4.228   2.221  0.5567  0.2141  0.1610
 5067SOL    HW226838   0.170   4.166   2.254 -0.5031  0.3086  0.7001
 5068SOL     OW26839   3.347   2.783   7.069  0.3109  0.0030  0.3755
 5068SOL    HW126840   3.378   2.731   7.143  0.6687  0.4154  0.5094
 5068SOL    HW226841   3.289   2.718   7.027  0.9725 -1.3048  1.4932
 5069SOL     OW26842   3.714   3.846   3.663 -0.4338  0.2068  0.5865
 5069SOL    HW126843   3.626   3.875   3.685 -0.0284  1.2479  0.7973
 5069SOL    HW226844   3.710   3.849   3.567  0.6877 -0.9168  0.4869
 5070SOL     OW26845   1.612   2.469  15.666  0.5278 -0.3922  0.4950
 5070SOL    HW126846   1.553   2.420  15.609  0.5229  0.0469  0.1218
 5070SOL    HW226847   1.662   2.525  15.607  1.0978 -1.5706 -0.1387
 5071SOL     OW26848   0.315   3.505  16.439  0.1861  0.3055 -0.5251
 5071SOL    HW126849   0.300   3.476  16.349  0.1262 -0.5274 -0.2474
 5071SOL    HW226850   0.405   3.535  16.444 -0.3437  1.7564  0.2254
 5072SOL     OW26851   3.592   4.118   1.456 -0.3668 -0.3781  0.4214
 5072SOL    HW126852   3.600   4.178   1.382  0.8918  0.6397  1.3875
 5072SOL    HW226853   3.562   4.037   1.415 -1.5165 -1.1099  2.7038
 5073SOL     OW26854   2.956   2.190   3.481  0.2418  0.0532  0.1212
 5073SOL    HW126855   3.023   2.257   3.498 -0.1626  0.6133 -0.5217
 5073SOL    HW226856   2.964   2.190   3.386 -2.6393  2.0770 -0.1143
 5074SOL     OW26857   0.064   2.515   2.654  0.0726  0.1104  0.9672
 5074SOL    HW126858   0.105   2.600   2.637 -1.3580  0.5869 -0.1835
 5074SOL    HW226859   4.721   2.549   2.694 -0.3762  1.4250 -1.0530
 5075SOL     OW26860   1.772   2.021  10.792 -0.2439  0.7428 -0.2619
 5075SOL    HW126861   1.684   2.057  10.778  0.0358  1.4872 -0.1381
 5075SOL    HW226862   1.822   2.099  10.816 -3.1408  2.6492 -0.3309
 5076SOL     OW26863   1.587   0.955   5.725 -0.0069  0.2204  0.0360
 5076SOL    HW126864   1.579   0.964   5.820  0.9945 -0.9478  0.2340
 5076SOL    HW226865   1.590   1.046   5.696  2.4684 -0.0894 -0.6523
 5077SOL     OW26866   2.140   0.813   7.267  0.4454  0.4687 -0.0017
 5077SOL    HW126867   2.226   0.852   7.252  1.2796 -0.4302  2.3411
 5077SOL    HW226868   2.100   0.849   7.188  3.2203 -1.8158 -2.4475
 5078SOL     OW26869   2.754   3.719   3.930  0.0490 -0.4739  0.4018
 5078SOL    HW126870   2.846   3.724   3.904 -0.7477 -1.5044 -2.5249
 5078SOL    HW226871   2.723   3.658   3.864 -1.7064 -0.9369  1.6432
 5079SOL     OW26872   1.015   0.378   6.472 -0.0975 -0.3977 -0.7495
 5079SOL    HW126873   1.099   0.331   6.473 -0.7361 -1.4787  3.0993
 5079SOL    HW226874   1.041   0.469   6.460  1.8104 -0.7746  0.4865
 5080SOL     OW26875   2.092   1.752   3.335 -0.2593 -0.1859  0.5888
 5080SOL    HW126876   2.156   1.781   3.401  0.1649 -1.3335  0.6796
 5080SOL    HW226877   2.147   1.709   3.269  1.2609 -0.0626  1.7546
 5081SOL     OW26878   1.871   4.135  14.428 -0.1742  0.0953 -0.6886
 5081SOL    HW126879   1.799   4.077  14.402 -0.1673 -1.3917  2.6727
 5081SOL    HW226880   1.881   4.203  14.361 -1.5946  1.2592  0.2868
 5082SOL     OW26881   0.818   0.002   4.231 -0.2481  0.4425  0.0413
 5082SOL    HW126882   0.738   0.030   4.275 -0.5770 -1.7433  0.8306
 5082SOL    HW226883   0.775   4.714   4.150 -0.9305  0.7751  0.2989
 5083SOL     OW26884   1.303   1.695   1.509  0.2475  0.2721  0.2109
 5083SOL    HW126885   1.320   1.605   1.479  1.5900  0.6574 -0.1745
 5083SOL    HW226886   1.363   1.750   1.459  1.2835 -0.7136  0.3811
 5084SOL     OW26887   1.851   2.976   7.982 -0.0023  0.3978  0.2405
 5084SOL    HW126888   1.865   2.881   7.991 -0.6735  0.3891  1.1604
 5084SOL    HW226889   1.935   3.016   7.959  0.4669  0.7501  2.5003
 5085SOL     OW26890   3.265   2.745   8.741 -0.4890  0.5014  1.1342
 5085SOL    HW126891   3.304   2.660   8.760  0.3087  0.6608  0.1685
 5085SOL    HW226892   3.277   2.765   8.648  0.8585 -0.3457  1.1199
 5086SOL     OW26893   4.134   2.071   5.009  0.1286 -0.4320  0.1568
 5086SOL    HW126894   4.206   2.071   4.945 -0.0353 -2.6439 -0.0280
 5086SOL    HW226895   4.148   1.983   5.042  0.6420 -0.2571  0.4106
 5087SOL     OW26896   1.769   3.345  10.372 -0.0624  0.6218 -0.0915
 5087SOL    HW126897   1.694   3.298  10.336  0.3287 -2.1799  2.7734
 5087SOL    HW226898   1.834   3.321  10.306  0.0984 -0.7239  0.5647
 5088SOL     OW26899   3.646   2.111   9.300  0.0449  0.0449  0.5623
 5088SOL    HW126900   3.704   2.070   9.365  1.2733  1.0961  0.1435
 5088SOL    HW226901   3.702   2.185   9.274  0.4480 -0.0071  1.2657
 5089SOL     OW26902   3.717   2.981   9.184  0.2684 -0.4539  0.1688
 5089SOL    HW126903   3.726   3.000   9.090 -0.8739  0.3151  0.2123
 5089SOL    HW226904   3.630   2.940   9.182 -0.5492  1.3241  0.0514
 5090SOL     OW26905   2.991   4.262   6.826 -0.3094 -0.2225  0.3869
 5090SOL    HW126906   3.010   4.332   6.764 -1.1855 -2.2755 -2.2017
 5090SOL    HW226907   3.079   4.247   6.862  0.8685  3.3905 -0.9352
 5091SOL     OW26908   0.530   1.824   7.675  0.4724 -0.2991 -0.1758
 5091SOL    HW126909   0.524   1.729   7.662 -1.9587 -0.0127 -1.2089
 5091SOL    HW226910   0.586   1.853   7.603  2.1885 -0.2470  1.1703
 5092SOL     OW26911   3.712   1.456   2.861  0.1467 -0.0882 -0.0463
 5092SOL    HW126912   3.786   1.505   2.897  1.2385  0.1065 -2.5862
 5092SOL    HW226913   3.638   1.515   2.875 -1.1472 -1.6814 -0.2287
 5093SOL     OW26914   0.851   3.988  10.305  0.3254  0.2256  0.3865
 5093SOL    HW126915   0.935   3.955  10.337  0.9675 -1.2324 -2.7995
 5093SOL    HW226916   0.817   4.042  10.376  0.8276  0.5812  0.3612
 5094SOL     OW26917   3.368   2.876   5.426 -0.5144 -0.1943 -0.0642
 5094SOL    HW126918   3.377   2.861   5.332 -3.4502  0.8306 -0.5168
 5094SOL    HW226919   3.442   2.831   5.466 -0.2352 -1.0400 -1.5372
 5095SOL     OW26920   1.203   0.413   7.422 -0.0859  0.2886  0.0610
 5095SOL    HW126921   1.161   0.431   7.338 -1.1751  0.3923  0.6297
 5095SOL    HW226922   1.250   0.331   7.408  0.4403  0.4749  0.7660
 5096SOL     OW26923   4.185   3.868  13.113 -0.0696 -0.2376  0.7278
 5096SOL    HW126924   4.200   3.906  13.027  0.5454  0.1243  0.9923
 5096SOL    HW226925   4.096   3.901  13.127 -0.1815 -1.1306  2.1510
 5097SOL     OW26926   3.059   0.449   6.697  0.3933  0.4244 -0.2290
 5097SOL    HW126927   3.139   0.444   6.645 -0.7180 -1.2262 -1.7788
 5097SOL    HW226928   3.057   0.366   6.745 -0.4472  0.2704 -0.5384
 5098SOL     OW26929   4.322   4.354   7.466  0.0768  0.5802  0.6370
 5098SOL    HW126930   4.401   4.377   7.416  0.8945  0.1212  1.7261
 5098SOL    HW226931   4.275   4.302   7.400  3.5288 -1.8129  0.0719
 5099SOL     OW26932   0.499   1.578  11.461 -0.2896 -0.0965  0.0151
 5099SOL    HW126933   0.518   1.663  11.500  0.6290 -0.0179 -0.6211
 5099SOL    HW226934   0.500   1.600  11.368 -0.2187 -1.2498 -0.2603
 5100SOL     OW26935   0.913   3.607  12.881 -0.6577 -0.0094  0.0922
 5100SOL    HW126936   0.872   3.682  12.837 -0.4924 -0.3124 -0.5764
 5100SOL    HW226937   1.006   3.617  12.859 -0.2348  0.3153  1.9714
 5101SOL     OW26938   0.906   3.144   9.884  0.3613 -0.1180 -0.5828
 5101SOL    HW126939   0.999   3.161   9.898  0.4164 -0.9970  0.1288
 5101SOL    HW226940   0.899   3.049   9.875  1.6609 -0.1197 -1.4744
 5102SOL     OW26941   0.670   3.237  14.131 -0.5662  0.4815 -0.0400
 5102SOL    HW126942   0.631   3.216  14.216 -0.0692 -0.2817  0.0001
 5102SOL    HW226943   0.614   3.186  14.073 -1.0210 -1.7226  2.3618
 5103SOL     OW26944   3.951   0.691   9.169 -0.0481  0.1338 -0.2699
 5103SOL    HW126945   3.953   0.601   9.138  0.1506 -0.3584  1.1680
 5103SOL    HW226946   4.009   0.738   9.109  1.5878  0.8304  1.8352
 5104SOL     OW26947   3.367   2.939   8.965 -0.2553  0.3021 -0.0319
 5104SOL    HW126948   3.339   2.877   8.897  4.1785 -0.9661 -0.6805
 5104SOL    HW226949   3.314   3.014   8.939 -1.8355 -0.6446  0.4501
 5105SOL     OW26950   3.390   0.560   4.144 -0.9847 -0.3970  0.2145
 5105SOL    HW126951   3.423   0.593   4.227  1.0424 -1.2346 -0.2353
 5105SOL    HW226952   3.372   0.641   4.096  2.9436  0.0375 -0.5542
 5106SOL     OW26953   1.015   2.266   8.116 -0.0997  0.1361 -0.2744
 5106SOL    HW126954   0.965   2.233   8.042 -2.0537  1.6158  0.3947
 5106SOL    HW226955   1.041   2.181   8.153 -0.6351  0.6281  1.2198
 5107SOL     OW26956   2.918   1.310   1.033 -0.5506 -0.1949 -0.5184
 5107SOL    HW126957   2.996   1.363   1.050 -1.0836  0.5680 -0.4549
 5107SOL    HW226958   2.949   1.221   1.052 -0.3068 -0.6309 -2.9887
 5108SOL     OW26959   1.074   1.126   4.287 -0.3136 -0.2045 -0.2852
 5108SOL    HW126960   1.076   1.048   4.342 -1.6722 -0.3117 -0.3670
 5108SOL    HW226961   1.166   1.148   4.275 -1.1167  0.8371 -4.4870
 5109SOL     OW26962   1.304   3.444   9.857  0.4641  0.2028  0.3756
 5109SOL    HW126963   1.387   3.471   9.897  0.7740  0.2592 -0.3051
 5109SOL    HW226964   1.322   3.458   9.764  3.3513  0.6324  1.0061
 5110SOL     OW26965   3.897   4.078   7.083  0.5909 -0.3627 -0.4467
 5110SOL    HW126966   3.981   4.038   7.105  0.0939 -1.2879 -0.2172
 5110SOL    HW226967   3.843   4.002   7.060  0.3494 -0.2100 -0.3800
 5111SOL     OW26968   1.462   1.546   5.714 -0.0124  0.5080 -0.0800
 5111SOL    HW126969   1.435   1.624   5.666 -3.2195 -0.0233  0.8847
 5111SOL    HW226970   1.383   1.505   5.748  0.5293 -0.4564  0.0404
 5112SOL     OW26971   2.337   3.934   5.379  0.0874 -0.1024  0.1450
 5112SOL    HW126972   2.370   4.024   5.379 -0.1293 -0.0271 -1.1925
 5112SOL    HW226973   2.301   3.921   5.292  0.3106  0.1099  0.0223
 5113SOL     OW26974   4.589   2.354   6.081 -0.2924  0.1350 -0.9759
 5113SOL    HW126975   4.605   2.444   6.107  0.0428 -0.7507  1.8864
 5113SOL    HW226976   4.646   2.347   6.005 -0.5694 -2.2264 -0.9793
 5114SOL     OW26977   0.715   1.339   7.395 -0.7194  0.6731 -0.1876
 5114SOL    HW126978   0.773   1.286   7.450 -1.0347 -0.8536 -1.3346
 5114SOL    HW226979   0.709   1.282   7.318  1.2045  0.3780 -0.1337
 5115SOL     OW26980   2.839   0.756   0.291  1.3537  0.6777  0.1069
 5115SOL    HW126981   2.846   0.702   0.213  0.6218  2.2455 -1.0445
 5115SOL    HW226982   2.754   0.724   0.321 -0.0474  2.5978 -1.8450
 5116SOL     OW26983   0.551   4.045  11.618 -0.7909  0.3205  0.0865
 5116SOL    HW126984   0.608   4.116  11.589 -1.2687 -0.1945 -2.0802
 5116SOL    HW226985   0.495   4.047  11.541 -1.4866  0.3787  0.5952
 5117SOL     OW26986   1.076   3.736   2.090  0.9299  0.0827 -0.6696
 5117SOL    HW126987   0.999   3.680   2.083  0.6353  0.6669 -2.1331
 5117SOL    HW226988   1.034   3.806   2.141 -2.0283 -1.7386 -0.5877
 5118SOL     OW26989   2.883   3.852   4.376  0.2267 -0.2617  0.5284
 5118SOL    HW126990   2.804   3.872   4.428 -1.5686 -1.1748 -1.8309
 5118SOL    HW226991   2.849   3.771   4.337 -1.5319  0.1754  1.1215
 5119SOL     OW26992   2.367   4.641  15.943 -0.1014  0.5404 -0.3215
 5119SOL    HW126993   2.312   4.567  15.919 -2.0059  1.4603  1.2372
 5119SOL    HW226994   2.450   4.597  15.961 -0.1905  1.3687  2.0474
 5120SOL     OW26995   4.545   0.069   7.300  0.1422  0.5135  0.0685
 5120SOL    HW126996   4.505   0.156   7.299  1.6895  1.2101  0.6656
 5120SOL    HW226997   4.593   0.084   7.381  1.7905 -2.2705 -0.3904
 5121SOL     OW26998   3.504   3.085   6.635 -0.0558  0.4920  0.5199
 5121SOL    HW126999   3.560   3.122   6.704  0.9353  0.5826 -0.3222
 5121SOL    HW227000   3.435   3.047   6.688  0.9584 -1.3125  0.5460
 5122SOL     OW27001   4.234   1.770  15.656 -0.0334 -0.1145 -0.4989
 5122SOL    HW127002   4.321   1.748  15.690 -0.1290  0.6481  0.2443
 5122SOL    HW227003   4.269   1.816  15.580  0.1573  0.6567  0.0534
 5123SOL     OW27004   0.747   2.673   9.964 -0.2904 -0.0198 -0.0871
 5123SOL    HW127005   0.817   2.734   9.989 -3.2793  2.9320  0.9774
 5123SOL    HW227006   0.696   2.726   9.903  0.4794  0.3497 -0.4178
 5124SOL     OW27007   3.418   3.068   4.046 -0.2813 -0.7238 -0.1926
 5124SOL    HW127008   3.404   3.064   3.951  0.3293 -1.4172 -0.2512
 5124SOL    HW227009   3.332   3.097   4.078  0.1856  1.2225 -0.7642
 5125SOL     OW27010   3.973   0.882   6.321 -0.0253  0.5051 -0.0916
 5125SOL    HW127011   3.945   0.905   6.409 -0.2911 -0.8990  0.1846
 5125SOL    HW227012   3.943   0.791   6.322  0.5239  0.3372  1.2039
 5126SOL     OW27013   0.459   0.410   8.800  0.0695 -0.4663 -0.1032
 5126SOL    HW127014   0.392   0.380   8.862  0.3289  1.3055  1.0217
 5126SOL    HW227015   0.411   0.477   8.752  0.3532  0.3377  0.7409
 5127SOL     OW27016   1.319   1.791   9.103  0.2058  0.3780  0.6445
 5127SOL    HW127017   1.350   1.856   9.166 -0.6964  0.0204  1.4564
 5127SOL    HW227018   1.225   1.811   9.108  0.1818  0.3158  0.4536
 5128SOL     OW27019   0.115   2.973  14.770  0.3762  0.4725 -0.3708
 5128SOL    HW127020   0.094   2.997  14.861 -3.3480  0.9967 -1.3743
 5128SOL    HW227021   0.132   3.057  14.729 -1.3278 -0.1294 -2.3148
 5129SOL     OW27022   4.672   1.393   3.603  0.5825 -0.4707 -0.2800
 5129SOL    HW127023   4.619   1.467   3.573  1.8991  0.1989 -0.9954
 5129SOL    HW227024   4.647   1.397   3.696  0.5797 -1.8540 -0.2207
 5130SOL     OW27025   2.741   4.377   4.544  0.1743  0.2473 -0.8597
 5130SOL    HW127026   2.801   4.308   4.514  0.3465 -0.7519  1.8201
 5130SOL    HW227027   2.658   4.329   4.549 -1.2202  2.5075 -2.4555
 5131SOL     OW27028   2.375   2.728   7.098  0.0532  0.5578  0.3115
 5131SOL    HW127029   2.426   2.659   7.140 -0.5310 -0.8806 -1.3580
 5131SOL    HW227030   2.443   2.795   7.086  1.2100 -0.8084 -0.6921
 5132SOL     OW27031   0.900   1.490  12.598  0.3379 -0.6583 -0.2199
 5132SOL    HW127032   0.948   1.408  12.588  0.5712 -0.4809 -0.6017
 5132SOL    HW227033   0.973   1.550  12.581 -0.3054  0.3324  0.5220
 5133SOL     OW27034   1.418   2.273   0.631 -0.3476  0.3431  0.4800
 5133SOL    HW127035   1.371   2.202   0.589  1.5260  0.0440 -1.1084
 5133SOL    HW227036   1.474   2.296   0.557  1.8345 -2.5218  1.2434
 5134SOL     OW27037   2.750   2.567  13.644 -0.5475  0.1244 -0.0634
 5134SOL    HW127038   2.812   2.635  13.617  0.7304 -1.8040 -1.9939
 5134SOL    HW227039   2.819   2.511  13.681 -1.1174  1.1757  2.6113
 5135SOL     OW27040   1.071   1.238   2.791  0.0174 -0.7218  0.4872
 5135SOL    HW127041   1.095   1.300   2.721  0.0902  2.4612  3.3440
 5135SOL    HW227042   1.149   1.238   2.846 -1.2913 -1.2492  2.3194
 5136SOL     OW27043   0.767   2.539   7.423  0.3115  0.0046 -0.0402
 5136SOL    HW127044   0.676   2.521   7.399  0.1832  0.6674 -0.0483
 5136SOL    HW227045   0.752   2.583   7.506 -0.7395  1.4401 -0.9837
 5137SOL     OW27046   4.575   2.702   8.055  0.3781  0.3686  0.4843
 5137SOL    HW127047   4.575   2.788   8.014 -0.2763  0.6676  1.1187
 5137SOL    HW227048   4.510   2.654   8.004  0.2731  1.1010 -0.0664
 5138SOL     OW27049   0.827   0.276   6.211 -0.2235 -0.4199  0.8400
 5138SOL    HW127050   0.876   0.321   6.279 -1.7141 -1.5486  2.6555
 5138SOL    HW227051   0.879   0.195   6.210  1.0916  0.4713 -2.8733
 5139SOL     OW27052   2.811   0.598  17.546 -0.0366 -0.1660 -0.1720
 5139SOL    HW127053   2.727   0.613  17.501  0.8775  1.9876 -1.1530
 5139SOL    HW227054   2.798   0.508  17.575  0.4759 -1.3603 -3.6412
 5140SOL     OW27055   0.718   0.392   9.740 -0.4937 -0.5598 -0.5743
 5140SOL    HW127056   0.706   0.453   9.667 -2.6090  0.8207  0.9448
 5140SOL    HW227057   0.639   0.391   9.793 -0.9965  4.5074 -1.2682
 5141SOL     OW27058   2.729   1.755   6.029 -0.1852  0.2356 -0.0614
 5141SOL    HW127059   2.823   1.744   6.044  0.0077  0.8814 -0.8484
 5141SOL    HW227060   2.722   1.766   5.934  1.0192  3.2082  0.1956
 5142SOL     OW27061   3.093   0.828   6.229  0.6169 -0.8931  0.5031
 5142SOL    HW127062   3.100   0.800   6.138 -0.2141 -1.3312  0.5709
 5142SOL    HW227063   3.010   0.876   6.231 -0.0238 -1.8930 -1.7353
 5143SOL     OW27064   1.726   1.439   9.387 -0.4374 -0.0577 -0.2937
 5143SOL    HW127065   1.653   1.494   9.360  0.2751  0.5609 -0.9576
 5143SOL    HW227066   1.796   1.502   9.367 -1.1065 -0.3118 -3.3622
 5144SOL     OW27067   0.416   0.730   4.730 -0.0778  0.1415  0.3630
 5144SOL    HW127068   0.375   0.654   4.688  0.9410  0.2571 -0.8578
 5144SOL    HW227069   0.416   0.717   4.825  0.5099  2.0278  0.6202
 5145SOL     OW27070   1.932   1.782  11.453  0.0853 -0.1519 -0.0380
 5145SOL    HW127071   2.012   1.754  11.410  0.1300 -0.1153  0.0204
 5145SOL    HW227072   1.963   1.836  11.526  0.4421 -2.3086  1.4019
 5146SOL     OW27073   3.147   2.032   6.166 -0.7361 -0.1497 -0.8010
 5146SOL    HW127074   3.210   1.960   6.170  0.5777  1.0390  0.0687
 5146SOL    HW227075   3.200   2.109   6.187  1.6140 -1.7715 -0.8013
 5147SOL     OW27076   0.431   1.211  15.963  0.1948 -0.2089  0.1411
 5147SOL    HW127077   0.526   1.213  15.954  0.2353 -0.9690  0.3892
 5147SOL    HW227078   0.415   1.284  16.023  1.4761 -0.5364  0.8838
 5148SOL     OW27079   4.600   2.555  16.230 -0.1838  0.1456 -0.4097
 5148SOL    HW127080   4.666   2.558  16.299 -1.4561  3.1945  0.6464
 5148SOL    HW227081   4.588   2.460  16.231 -0.7946  0.2064 -2.1967
 5149SOL     OW27082   3.518   3.624   5.862  1.4877 -0.3072 -0.0727
 5149SOL    HW127083   3.438   3.667   5.833  2.6193  1.0652 -1.1578
 5149SOL    HW227084   3.583   3.691   5.838  2.2093 -2.5453 -4.4203
 5150SOL     OW27085   1.357   4.054  17.564 -0.3017  0.2345  0.0624
 5150SOL    HW127086   1.427   4.044  17.629 -1.0984 -0.2664  0.8316
 5150SOL    HW227087   1.317   3.967  17.567 -1.9228  0.9603 -0.4098
 5151SOL     OW27088   2.867   0.562   4.407 -0.8126  0.0958  0.2980
 5151SOL    HW127089   2.775   0.578   4.429  0.2261  2.8640  2.5642
 5151SOL    HW227090   2.911   0.626   4.462  0.5565 -0.8507  0.3043
 5152SOL     OW27091   4.317   2.049   9.993  0.0873 -0.1549 -0.6940
 5152SOL    HW127092   4.406   2.014  10.004 -0.6410 -1.6717  0.3212
 5152SOL    HW227093   4.347   2.139  10.011  1.5312 -1.1304  1.7309
 5153SOL     OW27094   0.019   0.970   5.354 -0.2242 -0.3070 -0.3013
 5153SOL    HW127095   4.721   0.881   5.353  0.3632 -0.5403 -1.1375
 5153SOL    HW227096   0.025   0.991   5.261 -1.8679 -2.2929 -0.8739
 5154SOL     OW27097   3.338   0.039   3.885 -0.2172 -0.2119  0.5153
 5154SOL    HW127098   3.369   0.050   3.795  1.1107 -1.3700  0.8244
 5154SOL    HW227099   3.384   0.106   3.935  3.0114  0.8434 -3.8484
 5155SOL     OW27100   3.805   0.874   7.669  0.5460 -0.0101 -0.3547
 5155SOL    HW127101   3.777   0.824   7.593  1.2883 -0.3901 -0.3705
 5155SOL    HW227102   3.720   0.914   7.689  0.6150 -0.6056  1.1612
 5156SOL     OW27103   1.015   4.503   7.797  0.1525  0.3972 -0.2750
 5156SOL    HW127104   1.044   4.576   7.852  0.2280  0.8812 -0.9548
 5156SOL    HW227105   1.031   4.431   7.859 -0.1646 -0.1414 -0.8187
 5157SOL     OW27106   3.005   4.486   6.664 -0.0295 -0.0905 -0.0983
 5157SOL    HW127107   2.948   4.544   6.714  1.1569  0.6627  0.3808
 5157SOL    HW227108   2.962   4.502   6.580 -1.9714 -2.7546  0.3836
 5158SOL     OW27109   3.069   0.021   5.542  0.3093 -0.0141  0.2970
 5158SOL    HW127110   3.019   0.002   5.621  0.8396 -2.9663 -0.0389
 5158SOL    HW227111   3.017   4.698   5.487  1.2612 -0.0565 -0.5628
 5159SOL     OW27112   1.373   2.248   1.861  0.2529  0.2802  0.1373
 5159SOL    HW127113   1.443   2.209   1.913 -0.9894 -2.7603 -0.4717
 5159SOL    HW227114   1.328   2.180   1.810  0.2478 -0.3006  0.9173
 5160SOL     OW27115   3.273   2.633   1.752  0.0591  0.0632  0.6485
 5160SOL    HW127116   3.301   2.563   1.810 -1.7497  0.5958  2.1460
 5160SOL    HW227117   3.244   2.578   1.679 -0.0821  1.3966 -0.3061
 5161SOL     OW27118   1.989   1.804   8.436  0.1750  0.1098  0.1403
 5161SOL    HW127119   1.951   1.793   8.349 -1.7959  0.4878  0.9566
 5161SOL    HW227120   2.066   1.746   8.433 -0.5578 -0.8508 -0.1827
 5162SOL     OW27121   0.939   2.385   8.971  0.6215 -0.0825 -0.6655
 5162SOL    HW127122   0.978   2.418   9.052  1.0226  0.4891 -1.0878
 5162SOL    HW227123   0.915   2.298   9.003  0.3058 -0.4499 -1.8830
 5163SOL     OW27124   1.905   0.025   2.667 -0.6665  0.2174  0.2603
 5163SOL    HW127125   1.988   4.714   2.669 -1.3937 -1.0395 -0.1794
 5163SOL    HW227126   1.851   4.686   2.645 -0.5839 -0.1307  1.2999
 5164SOL     OW27127   3.907   2.468   7.180 -0.4195  0.2453  0.2407
 5164SOL    HW127128   3.956   2.528   7.236 -0.4324  1.3332 -0.9130
 5164SOL    HW227129   3.838   2.446   7.243  0.8494  1.4154  2.0621
 5165SOL     OW27130   1.169   1.014  11.994 -0.3161 -0.6326  0.0669
 5165SOL    HW127131   1.089   1.038  11.946 -0.1854  1.0255  0.7160
 5165SOL    HW227132   1.186   0.931  11.948  1.9721 -0.8552  1.3294
 5166SOL     OW27133   1.304   2.542   5.532  0.0331 -0.0284 -0.9380
 5166SOL    HW127134   1.243   2.596   5.583  1.6622  0.1806  0.7875
 5166SOL    HW227135   1.273   2.557   5.443  0.6536 -0.5122 -1.2375
 5167SOL     OW27136   3.011   3.858  14.083 -0.2441  0.1320  0.3101
 5167SOL    HW127137   2.953   3.829  14.012  0.5616  1.2425 -0.8197
 5167SOL    HW227138   3.056   3.936  14.051 -2.2045  2.0834  2.3189
 5168SOL     OW27139   4.076   0.164  12.701 -0.4362 -0.2457  0.2308
 5168SOL    HW127140   4.010   0.198  12.641 -1.2017 -2.3104 -0.0992
 5168SOL    HW227141   4.022   0.120  12.766  1.9360  0.0556  2.3951
 5169SOL     OW27142   1.203   2.568   7.268 -0.3318 -0.6703 -0.0640
 5169SOL    HW127143   1.260   2.529   7.202  2.4120  0.3566  1.6728
 5169SOL    HW227144   1.164   2.493   7.314 -0.7101 -0.4532 -0.0305
 5170SOL     OW27145   2.036   2.549   2.295 -0.3301 -0.0631  0.5237
 5170SOL    HW127146   1.942   2.561   2.299 -0.4831 -0.2611 -2.3395
 5170SOL    HW227147   2.054   2.635   2.257 -2.5069 -0.5130 -1.5172
 5171SOL     OW27148   2.243   4.678   2.153  0.6391  0.5740 -0.2520
 5171SOL    HW127149   2.318   4.716   2.107  1.6485  2.4078  2.9497
 5171SOL    HW227150   2.181   4.668   2.080 -0.1289  2.2870  0.1483
 5172SOL     OW27151   2.706   3.788  10.616 -0.0611  0.3235 -0.1706
 5172SOL    HW127152   2.639   3.747  10.670 -0.5979  0.1497 -0.9657
 5172SOL    HW227153   2.784   3.752  10.660  0.6156  0.4136 -1.2923
 5173SOL     OW27154   0.721   0.489   0.310 -0.0166  0.2978 -0.0214
 5173SOL    HW127155   0.764   0.411   0.276 -2.9192 -1.4907  0.3762
 5173SOL    HW227156   0.736   0.557   0.244 -0.3914  0.3984 -0.0020
 5174SOL     OW27157   4.388   1.400   3.785 -0.3838  0.1558  0.3066
 5174SOL    HW127158   4.402   1.308   3.808  1.9914  0.7491  1.2609
 5174SOL    HW227159   4.318   1.386   3.720 -1.8636  1.0701  1.7194
 5175SOL     OW27160   1.630   4.000   6.589 -0.1735 -0.2900 -0.3884
 5175SOL    HW127161   1.722   4.006   6.615 -0.3889 -1.0148  0.5409
 5175SOL    HW227162   1.602   4.074   6.644 -0.0724  0.4196 -1.2843
 5176SOL     OW27163   2.236   2.608   7.997 -0.5627 -0.5144  0.4168
 5176SOL    HW127164   2.186   2.681   7.961 -0.5562 -0.4492  0.5369
 5176SOL    HW227165   2.268   2.565   7.918 -0.9940 -2.4896  1.3107
 5177SOL     OW27166   4.279   1.599   5.645 -0.1428  1.2443 -0.0366
 5177SOL    HW127167   4.238   1.559   5.722  1.1616  0.6434  0.3430
 5177SOL    HW227168   4.205   1.575   5.588 -1.3214  3.2602  0.6678
 5178SOL     OW27169   0.764   2.947   1.909  0.0064  0.3869 -0.4852
 5178SOL    HW127170   0.693   2.930   1.971  1.4051 -1.3929  0.6433
 5178SOL    HW227171   0.807   2.863   1.893 -0.0844  0.1278  0.6312
 5179SOL     OW27172   2.643   3.899   8.206  0.1004 -0.1932  0.6631
 5179SOL    HW127173   2.609   3.895   8.295 -0.9040 -1.4090  0.2260
 5179SOL    HW227174   2.596   3.834   8.155  1.6820 -0.2297 -0.7450
 5180SOL     OW27175   3.685   1.814  13.380  0.2099 -0.0349  0.4630
 5180SOL    HW127176   3.770   1.772  13.392  0.3792  0.0357 -0.4712
 5180SOL    HW227177   3.638   1.738  13.345  0.2013  0.0479  0.2969
 5181SOL     OW27178   0.737   0.176  10.970  0.2240  0.0695 -0.7888
 5181SOL    HW127179   0.703   0.090  10.945 -1.3348  0.3479  0.3705
 5181SOL    HW227180   0.812   0.143  11.020 -0.6431  0.4245  0.7260
 5182SOL     OW27181   0.849   0.856   2.680 -0.2185 -0.4136 -0.2658
 5182SOL    HW127182   0.818   0.895   2.761 -1.2515 -0.8141 -0.4691
 5182SOL    HW227183   0.943   0.841   2.691  0.2360  2.0954 -0.8628
 5183SOL     OW27184   1.349   3.767   7.406  0.1322  0.1021 -0.1761
 5183SOL    HW127185   1.320   3.694   7.459  1.2618  0.4199  0.8774
 5183SOL    HW227186   1.278   3.830   7.419 -1.3541 -1.2880 -1.5084
 5184SOL     OW27187   1.046   3.004   9.431 -0.2907 -0.0611 -0.0197
 5184SOL    HW127188   0.966   2.957   9.411 -0.0327  1.6135 -5.0989
 5184SOL    HW227189   1.096   2.938   9.479 -1.6634  0.2884  1.8838
 5185SOL     OW27190   4.316   0.966   4.463 -0.3716 -0.0931  0.4404
 5185SOL    HW127191   4.383   1.030   4.438 -0.8017  0.4116  0.5759
 5185SOL    HW227192   4.262   0.976   4.385 -0.6713  0.8285  0.7753
 5186SOL     OW27193   1.168   4.398   3.805  0.1404 -0.1923  0.2700
 5186SOL    HW127194   1.202   4.415   3.717 -0.6426 -0.1508 -0.0219
 5186SOL    HW227195   1.234   4.450   3.850  0.1889  1.7189 -1.9747
 5187SOL     OW27196   3.754   4.109   1.690  0.4403 -0.5203  0.1052
 5187SOL    HW127197   3.702   4.130   1.612 -1.5040 -1.0774  1.2365
 5187SOL    HW227198   3.778   4.017   1.680  0.4557 -0.3957 -1.0171
 5188SOL     OW27199   1.431   1.379   8.761 -0.3163 -0.5008  0.1605
 5188SOL    HW127200   1.512   1.351   8.719 -0.7000  1.5247 -1.9218
 5188SOL    HW227201   1.473   1.390   8.847  0.8844 -0.3364 -0.4571
 5189SOL     OW27202   0.704   1.325  12.020  0.2126  1.1705  0.0182
 5189SOL    HW127203   0.627   1.314  12.074  0.1973  0.9936 -0.0405
 5189SOL    HW227204   0.670   1.292  11.937 -0.7306  0.7869  0.5670
 5190SOL     OW27205   4.081   1.252   1.158 -0.3520  0.7192  0.4958
 5190SOL    HW127206   4.068   1.226   1.066  0.5865  1.0184  0.2735
 5190SOL    HW227207   4.033   1.179   1.196 -0.0879  0.2341 -0.0963
 5191SOL     OW27208   0.671   0.691   4.670 -0.4063 -0.3874 -0.5266
 5191SOL    HW127209   0.583   0.718   4.695  0.1779 -0.4541  1.6372
 5191SOL    HW227210   0.657   0.599   4.648 -1.2871  0.8654 -5.2062
 5192SOL     OW27211   0.787   3.645  12.084 -0.4244  0.1650  0.3625
 5192SOL    HW127212   0.770   3.707  12.156 -1.0669  0.2087  0.1724
 5192SOL    HW227213   0.721   3.577  12.093  0.0359 -0.4434 -0.9080
 5193SOL     OW27214   4.342   4.221   6.374  0.3372  0.1759 -0.2514
 5193SOL    HW127215   4.280   4.256   6.310  1.5621  2.6262 -0.0910
 5193SOL    HW227216   4.331   4.132   6.339 -2.5322  0.8176 -0.9674
 5194SOL     OW27217   1.931   2.204  17.525  0.4064 -0.4637  0.2169
 5194SOL    HW127218   1.968   2.128  17.480 -1.2249 -1.7513  1.0785
 5194SOL    HW227219   1.889   2.258  17.458 -1.6931 -0.8010  1.2980
 5195SOL     OW27220   2.899   4.617   8.178 -0.7055 -0.2166  0.0135
 5195SOL    HW127221   2.882   4.691   8.120  2.0639  0.4459  0.0627
 5195SOL    HW227222   2.987   4.637   8.211  0.5899 -2.5957 -2.0127
 5196SOL     OW27223   3.002   2.252   6.951 -0.0132 -0.0401  0.6562
 5196SOL    HW127224   2.956   2.266   6.868  0.8970  0.3238  0.2167
 5196SOL    HW227225   3.092   2.233   6.926 -0.3816 -0.0437 -0.6625
 5197SOL     OW27226   1.259   3.428   7.903 -0.5504 -0.3727 -0.4227
 5197SOL    HW127227   1.179   3.456   7.860  0.7110  0.9049 -1.9171
 5197SOL    HW227228   1.295   3.350   7.860  1.3363 -0.9294  2.1093
 5198SOL     OW27229   3.762   0.617   7.812 -0.4369 -0.2578 -0.2302
 5198SOL    HW127230   3.792   0.706   7.792 -0.2558  0.0552  1.4060
 5198SOL    HW227231   3.790   0.569   7.734 -1.0299 -0.9055 -0.0475
 5199SOL     OW27232   2.310   1.116   7.093 -0.2108 -0.3910 -0.9114
 5199SOL    HW127233   2.271   1.034   7.061  0.5885  0.1907 -3.3556
 5199SOL    HW227234   2.278   1.186   7.035 -4.5956 -0.8711  0.9082
 5200SOL     OW27235   1.845   1.535   6.167 -0.0749  0.6253  0.0107
 5200SOL    HW127236   1.810   1.447   6.156 -0.6686  0.5665  2.3318
 5200SOL    HW227237   1.871   1.543   6.259 -0.5738  3.6373 -0.0983
 5201SOL     OW27238   3.953   1.078   7.318 -0.1695  0.0366  0.1366
 5201SOL    HW127239   3.930   1.101   7.408 -0.4184 -0.5926  0.2318
 5201SOL    HW227240   4.045   1.105   7.325 -0.4341  0.6135  1.4569
 5202SOL     OW27241   0.755   3.712   7.795  0.0842  0.2514  0.0294
 5202SOL    HW127242   0.700   3.725   7.873  1.0320 -2.4349  1.1641
 5202SOL    HW227243   0.833   3.765   7.807 -0.5696  1.0777  0.6503
 5203SOL     OW27244   4.117   3.004   5.070 -0.3530  0.7811 -0.7107
 5203SOL    HW127245   4.094   3.088   5.030  1.1811  0.5129 -2.1741
 5203SOL    HW227246   4.201   3.000   5.024 -0.6996 -1.8457 -1.1271
 5204SOL     OW27247   0.005   0.038   6.064 -0.5503  0.1184 -0.2236
 5204SOL    HW127248   4.719   0.115   6.116 -2.2639  0.4388 -1.4534
 5204SOL    HW227249   0.096   0.048   6.036 -0.2560  2.6477  1.6285
 5205SOL     OW27250   1.041   2.155  13.144 -0.5135 -0.4932 -0.3307
 5205SOL    HW127251   1.026   2.249  13.128  1.7751 -0.2211 -0.9807
 5205SOL    HW227252   1.094   2.162  13.223 -1.4979  2.9772  0.0509
 5206SOL     OW27253   0.111   1.011   2.460  0.1861 -0.3451 -0.2449
 5206SOL    HW127254   0.171   0.964   2.518 -1.0586  1.4526  2.5094
 5206SOL    HW227255   0.097   1.091   2.512  0.8665 -0.2005 -0.2861
 5207SOL     OW27256   2.550   1.096   6.601 -0.0250 -0.0481  0.2960
 5207SOL    HW127257   2.495   1.152   6.546 -2.2776 -2.9859 -0.4494
 5207SOL    HW227258   2.595   1.037   6.540  2.6542  0.6390  1.5918
 5208SOL     OW27259   0.358   2.767   2.411  0.2954  0.9523  0.0679
 5208SOL    HW127260   0.451   2.787   2.401  1.3196 -3.7077  0.0270
 5208SOL    HW227261   0.328   2.741   2.324  0.5828 -1.7310  0.7558
 5209SOL     OW27262   2.569   0.369  14.193  0.0211 -0.1102  0.1149
 5209SOL    HW127263   2.504   0.437  14.172 -0.0449 -1.0228 -2.6011
 5209SOL    HW227264   2.516   0.289  14.184  1.3576 -1.1242  1.3474
 5210SOL     OW27265   2.832   1.335   2.273 -0.2702  0.4063  1.0171
 5210SOL    HW127266   2.820   1.240   2.270 -1.7578  0.6854 -2.0991
 5210SOL    HW227267   2.912   1.346   2.222 -0.0716 -2.3244  0.7731
 5211SOL     OW27268   0.306   4.043   2.540  0.0399 -0.1449  0.7407
 5211SOL    HW127269   0.285   4.089   2.458 -1.0738  1.1488  1.7593
 5211SOL    HW227270   0.233   3.982   2.550  0.4705 -1.1157 -1.8272
 5212SOL     OW27271   1.007   1.350   1.410  0.2997 -0.0458 -0.3814
 5212SOL    HW127272   0.912   1.362   1.406  0.3518  0.2838 -0.5736
 5212SOL    HW227273   1.012   1.262   1.374  1.8428  0.0834 -0.4541
 5213SOL     OW27274   4.329   3.068  17.065  0.4714  0.2135  0.4137
 5213SOL    HW127275   4.288   3.077  16.979 -1.7361 -1.5113  1.2953
 5213SOL    HW227276   4.334   3.159  17.097 -0.8283  0.3432  0.2640
 5214SOL     OW27277   1.587   1.509  11.284 -0.3676  0.1097 -0.0100
 5214SOL    HW127278   1.561   1.441  11.222  0.8942 -1.0537  0.7456
 5214SOL    HW227279   1.523   1.579  11.272  0.1132  0.6216  0.4419
 5215SOL     OW27280   2.843   0.929   7.727  0.2535 -0.5145  0.1264
 5215SOL    HW127281   2.780   0.993   7.761 -0.8043 -0.6860 -1.5078
 5215SOL    HW227282   2.786   0.852   7.722 -0.6551  0.0387  1.9256
 5216SOL     OW27283   3.928   3.968  12.947 -0.2299  0.2722 -0.5870
 5216SOL    HW127284   3.971   3.956  12.862  0.8413 -0.1704  0.0184
 5216SOL    HW227285   3.842   4.009  12.938  0.2657  1.0281 -1.8184
 5217SOL     OW27286   2.019   2.280  12.905  0.1839 -0.1100 -0.0970
 5217SOL    HW127287   2.060   2.278  12.819 -3.3902  2.1409 -1.8637
 5217SOL    HW227288   1.998   2.189  12.927  2.6484  0.2181  3.4679
 5218SOL     OW27289   2.738   2.978   7.250  0.0957 -0.0949 -0.0210
 5218SOL    HW127290   2.744   3.025   7.167 -3.5157  0.3793  0.0070
 5218SOL    HW227291   2.650   3.004   7.276 -0.4432 -3.6947  1.7836
 5219SOL     OW27292   4.642   0.716   6.729  0.5995  0.4166 -0.1079
 5219SOL    HW127293   0.000   0.711   6.727  0.5948 -1.4609  4.0159
 5219SOL    HW227294   4.617   0.697   6.820  3.3323 -2.3496  0.0943
 5220SOL     OW27295   4.200   0.036   3.402 -0.2585 -0.0062 -0.5325
 5220SOL    HW127296   4.165   0.001   3.484  0.8271  1.1104  0.4204
 5220SOL    HW227297   4.232   4.691   3.365  0.5125  1.0045 -2.1212
 5221SOL     OW27298   2.599   0.881  13.299 -0.5534 -0.1666 -0.0600
 5221SOL    HW127299   2.519   0.888  13.351 -0.0062  1.0124  0.6238
 5221SOL    HW227300   2.559   0.857  13.215  0.1123  0.6266 -0.6020
 5222SOL     OW27301   1.240   1.566   8.847 -0.9061  0.0099  0.4158
 5222SOL    HW127302   1.295   1.638   8.879  1.0707 -0.2474 -2.4550
 5222SOL    HW227303   1.305   1.499   8.828  0.8200  0.4223  4.6997
 5223SOL     OW27304   2.860   0.055   6.319  0.2478  0.0439 -0.0417
 5223SOL    HW127305   2.877   4.699   6.306  0.3100 -0.1355  1.2874
 5223SOL    HW227306   2.869   0.052   6.415 -2.5769  1.1406  0.2469
 5224SOL     OW27307   4.556   2.954   4.355  0.4905 -0.3277 -0.0549
 5224SOL    HW127308   4.621   2.884   4.360 -0.3132 -0.8914  2.4594
 5224SOL    HW227309   4.601   3.024   4.402 -1.7165  1.3855 -0.4980
 5225SOL     OW27310   3.450   4.413   8.174  0.1969 -0.0489 -0.5164
 5225SOL    HW127311   3.478   4.436   8.086 -1.1958 -0.4087 -1.0494
 5225SOL    HW227312   3.518   4.355   8.208  1.8263 -0.5263 -4.6253
 5226SOL     OW27313   4.577   1.858  12.509  0.6074  0.2290 -0.6045
 5226SOL    HW127314   4.611   1.806  12.582  0.7744  1.0669 -0.0868
 5226SOL    HW227315   4.625   1.820  12.435 -0.6980  0.0766 -1.3758
 5227SOL     OW27316   0.489   0.137   5.134  0.1044  0.0573 -0.1917
 5227SOL    HW127317   0.441   0.201   5.082  1.2961 -0.3066 -1.7555
 5227SOL    HW227318   0.578   0.127   5.099  0.0704  1.4951 -0.7014
 5228SOL     OW27319   1.530   3.546   5.506  0.2243  0.2767 -0.2525
 5228SOL    HW127320   1.514   3.464   5.458  0.1636  0.6503 -0.8710
 5228SOL    HW227321   1.580   3.505   5.576 -0.1775 -1.6277 -1.0486
 5229SOL     OW27322   1.476   2.531   8.856 -0.3806 -0.5178 -0.0168
 5229SOL    HW127323   1.491   2.463   8.922  1.6327 -0.7390 -0.7033
 5229SOL    HW227324   1.498   2.606   8.912 -1.8220  0.3991 -0.6696
 5230SOL     OW27325   1.117   1.763  16.770  0.1122 -0.0471 -0.3596
 5230SOL    HW127326   1.110   1.740  16.863  0.9590  2.2350  0.2518
 5230SOL    HW227327   1.210   1.785  16.769  0.3791 -1.1302  0.4932
 5231SOL     OW27328   3.946   1.502   5.231  0.2638 -0.4395 -0.1103
 5231SOL    HW127329   3.982   1.425   5.188 -0.3223  0.7937 -2.8534
 5231SOL    HW227330   3.859   1.471   5.254 -0.8591  1.1748 -2.1670
 5232SOL     OW27331   0.816   3.885  17.407  0.4262  0.3503 -0.4374
 5232SOL    HW127332   0.786   3.923  17.324  0.0575  0.0756 -0.4285
 5232SOL    HW227333   0.897   3.842  17.380  0.7179  0.0992  0.8353
 5233SOL     OW27334   3.828   3.449  11.163  0.5398  0.3671  0.2407
 5233SOL    HW127335   3.849   3.378  11.102  1.2711  1.1135 -0.3820
 5233SOL    HW227336   3.733   3.445  11.162  0.7407 -4.9655  2.5483
 5234SOL     OW27337   0.840   1.774   4.711  0.1950 -0.6955  0.1320
 5234SOL    HW127338   0.913   1.756   4.771  1.4728 -0.4476 -1.3581
 5234SOL    HW227339   0.862   1.737   4.626  1.5248  0.3023  0.0459
 5235SOL     OW27340   0.499   1.628   6.408  0.2944  0.0341  0.0746
 5235SOL    HW127341   0.448   1.629   6.327 -1.3903  0.4854  1.1445
 5235SOL    HW227342   0.518   1.722   6.413  0.6094 -0.1160  1.6120
 5236SOL     OW27343   3.305   1.590   8.267  0.5205  0.5375  0.5058
 5236SOL    HW127344   3.275   1.502   8.245  2.9660  0.0362 -0.8125
 5236SOL    HW227345   3.342   1.585   8.355  0.3526 -1.2147  0.4731
 5237SOL     OW27346   3.568   1.450   1.049 -0.2067  0.3740 -0.0016
 5237SOL    HW127347   3.642   1.389   1.052  0.8270  1.5926 -0.9125
 5237SOL    HW227348   3.503   1.421   0.985  0.2942 -1.5352  0.3308
 5238SOL     OW27349   3.619   1.646   2.468  0.2744  0.5859 -0.3157
 5238SOL    HW127350   3.637   1.719   2.409  3.1841 -0.6795 -0.9898
 5238SOL    HW227351   3.575   1.692   2.540 -0.4410  0.1597 -0.4824
 5239SOL     OW27352   2.672   3.507  16.887 -0.0705  0.0944 -0.4559
 5239SOL    HW127353   2.638   3.453  16.816  1.2473 -3.3030  1.4751
 5239SOL    HW227354   2.594   3.562  16.896 -1.0006 -1.2654 -0.1123
 5240SOL     OW27355   3.864   4.400   4.370 -0.1514 -0.2310 -0.1117
 5240SOL    HW127356   3.781   4.417   4.326  0.5501  3.6486  0.0138
 5240SOL    HW227357   3.843   4.435   4.457  2.1528 -0.3461  0.4775
 5241SOL     OW27358   3.464   2.561  12.398  0.2593 -0.3942 -0.2761
 5241SOL    HW127359   3.427   2.513  12.324 -0.4506 -0.2401 -0.0213
 5241SOL    HW227360   3.491   2.484  12.448 -0.0425 -0.6865 -0.5644
 5242SOL     OW27361   3.753   0.161   8.878 -0.1730  0.2965  0.1398
 5242SOL    HW127362   3.766   0.142   8.786  1.5684 -1.5255  0.7720
 5242SOL    HW227363   3.662   0.131   8.889  0.2061 -0.9919 -0.3030
 5243SOL     OW27364   1.596   3.987   2.201  0.1721  0.2190  0.3753
 5243SOL    HW127365   1.505   3.957   2.190  0.2315  0.0511  0.3447
 5243SOL    HW227366   1.640   3.929   2.139 -1.8851 -2.6640  1.6186
 5244SOL     OW27367   4.260   3.678   1.300 -0.3992 -0.3993  0.0105
 5244SOL    HW127368   4.280   3.604   1.244  2.3132  0.0665  0.4034
 5244SOL    HW227369   4.351   3.706   1.311 -1.9981  5.2136 -0.7846
 5245SOL     OW27370   1.842   0.217   7.581 -0.0599  0.3067  0.6642
 5245SOL    HW127371   1.814   0.191   7.493  0.1904  0.5245  0.5193
 5245SOL    HW227372   1.912   0.157   7.606  2.5175  2.1584 -2.0713
 5246SOL     OW27373   4.708   1.008   2.217 -0.1722 -0.1767  0.1296
 5246SOL    HW127374   4.640   0.939   2.217 -0.7624  0.4056  0.4181
 5246SOL    HW227375   0.007   1.009   2.305 -1.7766 -1.5589  0.8162
 5247SOL     OW27376   3.614   3.702   2.815  0.4467 -0.3992  0.1881
 5247SOL    HW127377   3.676   3.715   2.886  0.4702 -1.9002  0.4383
 5247SOL    HW227378   3.658   3.755   2.749  0.3854  0.5607  0.9212
 5248SOL     OW27379   1.809   1.043   5.283 -0.0038  0.1231  0.4157
 5248SOL    HW127380   1.738   1.104   5.265  0.5408  0.5965 -0.1193
 5248SOL    HW227381   1.885   1.098   5.300 -0.4411  1.3321 -1.5240
 5249SOL     OW27382   3.943   3.845  12.656  0.2665 -0.3443  0.3902
 5249SOL    HW127383   3.896   3.784  12.599 -0.1470  1.6672 -1.4416
 5249SOL    HW227384   3.896   3.927  12.639 -1.3655 -1.1368  1.0846
 5250SOL     OW27385   1.601   2.096   4.536  0.0807  0.0834  0.0946
 5250SOL    HW127386   1.534   2.133   4.479 -1.7089 -3.7572 -0.2801
 5250SOL    HW227387   1.559   2.088   4.621 -3.1595 -0.3218 -1.5654
 5251SOL     OW27388   0.027   1.685   7.598  0.2658  0.3283  0.0816
 5251SOL    HW127389   0.079   1.740   7.658  3.3465 -2.7662  0.3115
 5251SOL    HW227390   4.679   1.728   7.600  0.8588  1.6393 -4.0909
 5252SOL     OW27391   1.423   3.218  13.840  0.3905 -0.1211  0.0200
 5252SOL    HW127392   1.331   3.199  13.856  0.3994 -0.0447  0.1597
 5252SOL    HW227393   1.452   3.235  13.930 -0.6674  2.5756 -0.1548
 5253SOL     OW27394   3.864   2.013   8.413  0.4259 -0.1118 -0.2294
 5253SOL    HW127395   3.826   2.096   8.444  2.4553  1.1319 -1.0551
 5253SOL    HW227396   3.926   2.047   8.349  0.8228 -0.0974  0.1656
 5254SOL     OW27397   0.046   2.961   9.769  0.0190 -0.6273  0.3605
 5254SOL    HW127398   0.094   3.035   9.734  1.3010 -0.9762  1.3775
 5254SOL    HW227399   0.074   2.894   9.707  0.0425  0.1872 -0.4965
 5255SOL     OW27400   2.970   4.455   8.931  0.1716 -0.5663  0.0631
 5255SOL    HW127401   2.949   4.362   8.928 -0.6136 -0.3688 -0.7449
 5255SOL    HW227402   3.052   4.457   8.881 -0.2824 -1.0578 -0.7025
 5256SOL     OW27403   3.547   2.187   7.951  0.0219 -0.3610  0.8162
 5256SOL    HW127404   3.502   2.201   8.034  3.4006  3.8610  1.9694
 5256SOL    HW227405   3.595   2.105   7.958  0.4567 -0.3811 -2.0017
 5257SOL     OW27406   1.524   2.691   3.813  0.1913 -0.0387 -0.0225
 5257SOL    HW127407   1.576   2.650   3.744  1.8049  1.9271  0.0334
 5257SOL    HW227408   1.490   2.619   3.866  0.1976  0.1122  0.1865
 5258SOL     OW27409   1.953   2.059   4.313  0.0953 -0.4804  0.4754
 5258SOL    HW127410   2.039   2.085   4.348 -0.7222 -0.2264  2.2798
 5258SOL    HW227411   1.927   1.979   4.359  0.8369 -1.5810 -1.0018
 5259SOL     OW27412   1.202   2.427   2.839 -0.1647  0.4600 -0.0359
 5259SOL    HW127413   1.283   2.475   2.821 -0.0795  1.2176  2.3849
 5259SOL    HW227414   1.227   2.335   2.839 -1.2578  0.1622  0.0418
 5260SOL     OW27415   1.112   3.222   6.387 -0.5318 -0.1729  0.0360
 5260SOL    HW127416   1.142   3.147   6.437 -1.3432  0.2119  1.0938
 5260SOL    HW227417   1.087   3.283   6.456 -1.2887  0.7015 -1.0008
 5261SOL     OW27418   2.156   0.045  17.106  0.4853 -0.8163  0.1007
 5261SOL    HW127419   2.192   0.126  17.142  1.6828 -2.2709  2.2066
 5261SOL    HW227420   2.157   4.736  17.190  1.7124  0.9135  1.0438
 5262SOL     OW27421   4.730   2.741   1.964  0.1416  0.1036 -0.1562
 5262SOL    HW127422   0.075   2.693   1.957  0.1199  0.0854 -0.2798
 5262SOL    HW227423   4.683   2.680   2.020 -0.5484  1.8043  1.1458
 5263SOL     OW27424   0.931   0.734  11.822  0.6568  0.4671 -0.0274
 5263SOL    HW127425   1.025   0.751  11.827  0.5835  0.9757 -0.3611
 5263SOL    HW227426   0.930   0.647  11.862  1.6340  0.0864 -0.8469
 5264SOL     OW27427   2.448   2.611   5.734 -0.6818 -0.5368 -0.1378
 5264SOL    HW127428   2.517   2.564   5.687 -0.3846 -0.1738 -0.0613
 5264SOL    HW227429   2.458   2.571   5.820  1.9826 -1.7357 -1.0133
 5265SOL     OW27430   3.989   3.782   2.791  0.7634 -0.2072  0.2545
 5265SOL    HW127431   3.931   3.722   2.744 -0.8583  2.6799 -1.4694
 5265SOL    HW227432   3.926   3.827   2.846  0.3163 -0.5250  0.0073
 5266SOL     OW27433   1.849   1.524   4.763  0.2829  0.4706 -0.4182
 5266SOL    HW127434   1.823   1.564   4.680 -0.4484  0.6678 -0.0877
 5266SOL    HW227435   1.908   1.454   4.734  1.8160  2.1674 -1.3973
 5267SOL     OW27436   2.678   2.696  10.271  0.2361  0.4826 -0.2451
 5267SOL    HW127437   2.708   2.779  10.309  0.3323 -0.7732  2.4180
 5267SOL    HW227438   2.589   2.687  10.304 -0.0984  0.5794 -1.1333
 5268SOL     OW27439   0.476   1.771   9.101  0.5767 -0.4916  0.8010
 5268SOL    HW127440   0.456   1.679   9.119  0.1364 -0.4406  0.5679
 5268SOL    HW227441   0.420   1.807   9.170  0.6137  0.1957  0.4721
 5269SOL     OW27442   4.638   1.005   0.447 -0.2073 -0.6073  0.1729
 5269SOL    HW127443   4.700   0.936   0.422  0.5903 -0.6415  2.2753
 5269SOL    HW227444   4.681   1.025   0.530 -0.5652  0.0386  0.1985
 5270SOL     OW27445   3.980   1.286   3.992 -0.3071 -0.4016  0.0784
 5270SOL    HW127446   3.919   1.334   4.048  1.1136  1.8904 -0.3309
 5270SOL    HW227447   3.957   1.195   4.011  0.0373 -1.3273 -3.9133
 5271SOL     OW27448   1.731   4.624   8.377 -0.2936 -0.1748 -0.3394
 5271SOL    HW127449   1.684   4.622   8.460  0.1157  0.2084 -0.0984
 5271SOL    HW227450   1.682   4.699   8.342  0.3609  0.1951 -0.4850
 5272SOL     OW27451   1.314   3.208   0.545 -0.2461 -0.4535 -0.1377
 5272SOL    HW127452   1.299   3.154   0.467 -1.7164 -0.8468  0.4210
 5272SOL    HW227453   1.319   3.143   0.615 -1.2551 -0.5968 -0.1983
 5273SOL     OW27454   0.446   4.084   5.242  0.4489 -0.0092 -0.0174
 5273SOL    HW127455   0.452   4.031   5.163  0.0283  0.7143 -0.5354
 5273SOL    HW227456   0.371   4.142   5.227  0.9554  0.9134  1.0092
 5274SOL     OW27457   4.585   2.372   7.362  0.4071 -0.4094 -0.1132
 5274SOL    HW127458   4.550   2.333   7.282 -0.6105 -0.1590  0.2101
 5274SOL    HW227459   4.527   2.336   7.429  0.5215 -0.2136  0.0928
 5275SOL     OW27460   4.618   3.706   6.332 -0.5112 -0.1634  0.2019
 5275SOL    HW127461   4.559   3.688   6.258  1.7320 -0.1692 -1.5880
 5275SOL    HW227462   4.609   3.629   6.388  0.8928 -1.6939 -1.6192
 5276SOL     OW27463   2.696   4.403   4.939 -0.5907 -0.4504 -0.8061
 5276SOL    HW127464   2.634   4.332   4.922 -1.4145  0.1291 -0.2251
 5276SOL    HW227465   2.775   4.350   4.948 -0.0377  0.6211  0.6736
 5277SOL     OW27466   2.788   1.903   3.708  0.1152  0.4797  0.5995
 5277SOL    HW127467   2.830   1.987   3.726  1.1148  0.6268 -2.3812
 5277SOL    HW227468   2.871   1.861   3.688 -0.5803 -0.4784 -0.2549
 5278SOL     OW27469   1.620   2.321  16.807 -0.6196  0.3258  0.3223
 5278SOL    HW127470   1.546   2.261  16.810 -0.2003 -0.0855  2.3635
 5278SOL    HW227471   1.693   2.259  16.806  0.5462  1.6409  3.3663
 5279SOL     OW27472   1.385   4.224   8.649 -0.7372 -0.1614 -0.9976
 5279SOL    HW127473   1.403   4.147   8.703 -2.1730  0.4611  0.3918
 5279SOL    HW227474   1.357   4.291   8.711 -1.3795 -2.6585  1.4165
 5280SOL     OW27475   3.385   2.779   0.284  0.1037 -0.0507 -0.2274
 5280SOL    HW127476   3.371   2.685   0.292  0.6527 -0.0314  0.9163
 5280SOL    HW227477   3.386   2.774   0.188 -0.7968 -0.5628 -0.2128
 5281SOL     OW27478   4.332   3.994   6.782 -0.5791  0.1967 -0.0944
 5281SOL    HW127479   4.377   3.950   6.710  0.1427 -1.2414  1.2298
 5281SOL    HW227480   4.329   4.086   6.758  1.8445  0.5958  1.1415
 5282SOL     OW27481   0.128   3.057   4.335 -0.2853 -0.0546  0.1492
 5282SOL    HW127482   0.136   2.962   4.338  0.1725  0.0635  2.9663
 5282SOL    HW227483   0.190   3.078   4.406 -1.4165 -1.3165  1.5020
 5283SOL     OW27484   1.427   4.451   2.517 -0.6218  0.0993  0.4439
 5283SOL    HW127485   1.387   4.404   2.590 -1.0941 -1.4294 -0.7979
 5283SOL    HW227486   1.455   4.387   2.451  0.1984  1.8718 -0.9460
 5284SOL     OW27487   1.430   4.267   3.119  0.3327 -0.1568  0.3221
 5284SOL    HW127488   1.353   4.293   3.068  1.2354 -2.9809 -2.5181
 5284SOL    HW227489   1.476   4.348   3.139  0.0011 -0.0092  0.4805
 5285SOL     OW27490   0.230   2.227   5.207  0.1737  0.4873  0.2814
 5285SOL    HW127491   0.314   2.253   5.169 -0.5447  0.3834 -1.3733
 5285SOL    HW227492   0.214   2.301   5.265  0.0813  1.2456 -0.7054
 5286SOL     OW27493   0.639   4.159   7.126 -0.2060  0.4730  0.7786
 5286SOL    HW127494   0.573   4.110   7.174 -0.9884 -0.0050 -0.7849
 5286SOL    HW227495   0.694   4.093   7.084  0.5717  0.9876  0.9768
 5287SOL     OW27496   1.680   1.903   6.267 -0.3198  0.6936 -0.0344
 5287SOL    HW127497   1.705   1.991   6.240 -2.9130  1.5234  0.3267
 5287SOL    HW227498   1.728   1.888   6.349  1.2684 -2.0500 -1.4708
 5288SOL     OW27499   2.169   1.032   3.740 -0.1340 -0.3137  0.0949
 5288SOL    HW127500   2.095   1.077   3.781  2.0347  2.9836  0.3846
 5288SOL    HW227501   2.191   0.977   3.816  0.4339 -1.1529 -0.6717
 5289SOL     OW27502   0.451   2.231   8.460 -0.1482  0.0254 -0.1489
 5289SOL    HW127503   0.400   2.195   8.387 -0.5123  1.4263 -0.5933
 5289SOL    HW227504   0.466   2.159   8.520  0.6305  2.2162  2.2947
 5290SOL     OW27505   2.354   1.834  10.445  0.4955  0.3164 -0.5557
 5290SOL    HW127506   2.395   1.827  10.531  1.0419  3.0636 -0.5978
 5290SOL    HW227507   2.265   1.812  10.474  0.2463  0.3487 -1.3090
 5291SOL     OW27508   2.713   3.840   0.680  0.0302  0.0793 -0.5780
 5291SOL    HW127509   2.717   3.905   0.750  0.1240 -0.7861  0.2288
 5291SOL    HW227510   2.619   3.845   0.665 -0.2826 -1.5644  0.7565
 5292SOL     OW27511   3.316   3.962   8.686 -0.3519 -0.3878  0.4014
 5292SOL    HW127512   3.258   3.967   8.610  1.9310 -0.6307 -1.3741
 5292SOL    HW227513   3.342   4.054   8.687  1.1350 -0.8084 -0.5112
 5293SOL     OW27514   2.152   4.635   4.377 -0.0818 -0.4105 -0.2282
 5293SOL    HW127515   2.138   4.665   4.467  0.3739  1.3434 -0.7402
 5293SOL    HW227516   2.214   4.698   4.341  0.0788  0.9447  2.3911
 5294SOL     OW27517   3.920   1.002   7.029 -0.4910 -0.3029  0.9780
 5294SOL    HW127518   3.950   1.090   7.053  1.6847 -1.2356  1.6773
 5294SOL    HW227519   3.885   0.983   7.116 -3.1338  2.6459  0.5867
 5295SOL     OW27520   1.512   0.040   4.896 -0.1708 -0.1005 -0.4267
 5295SOL    HW127521   1.538   0.059   4.806 -0.9096 -0.9370 -0.8171
 5295SOL    HW227522   1.593   0.016   4.942  0.7185  1.7234 -1.0614
 5296SOL     OW27523   0.473   0.497   3.177  0.3294  0.6686  0.1189
 5296SOL    HW127524   0.429   0.426   3.130 -1.0522  1.8724 -0.4073
 5296SOL    HW227525   0.394   0.545   3.203  0.0455  0.5793 -0.6048
 5297SOL     OW27526   2.383   1.462  16.514  0.2317  0.0243  0.0014
 5297SOL    HW127527   2.331   1.516  16.573 -1.0048  1.2329 -2.2290
 5297SOL    HW227528   2.453   1.431  16.572  0.2975 -2.3461 -1.3248
 5298SOL     OW27529   4.378   2.890   3.702  0.4281 -0.2807  0.0936
 5298SOL    HW127530   4.313   2.906   3.770  0.8246  0.3640  0.3223
 5298SOL    HW227531   4.408   2.799   3.711 -2.4558 -0.9553  3.0034
 5299SOL     OW27532   1.395   1.896   2.450  0.0246 -0.4668 -0.1680
 5299SOL    HW127533   1.326   1.832   2.431 -1.0377  1.8849 -4.4023
 5299SOL    HW227534   1.383   1.968   2.388  0.1118  1.5507  2.1392
 5300SOL     OW27535   2.175   1.398   3.318  0.8577 -0.3072 -0.4711
 5300SOL    HW127536   2.179   1.366   3.227 -0.7964  1.2478 -1.0879
 5300SOL    HW227537   2.262   1.438   3.325  0.6017  0.0920  0.3303
 5301SOL     OW27538   1.651   3.143   7.681 -0.6383  0.6784  0.3320
 5301SOL    HW127539   1.670   3.055   7.647 -2.1708  0.4217  0.1314
 5301SOL    HW227540   1.630   3.189   7.600 -1.2146 -0.3432 -0.1133
 5302SOL     OW27541   0.937   2.561   9.395 -0.3002 -0.0502  0.7896
 5302SOL    HW127542   0.899   2.480   9.430 -0.0625  0.1114  1.4234
 5302SOL    HW227543   0.887   2.571   9.314 -0.7590 -0.8892  0.9681
 5303SOL     OW27544   3.001   3.473  11.066 -0.1104 -0.0390  0.2998
 5303SOL    HW127545   3.006   3.443  10.975 -1.2773 -0.5257  0.4054
 5303SOL    HW227546   2.960   3.395  11.101 -0.0535 -0.5524 -0.7730
 5304SOL     OW27547   1.354   0.077  10.222 -0.0006  0.5294  0.1531
 5304SOL    HW127548   1.299   0.030  10.159 -1.2973  2.1746  0.0761
 5304SOL    HW227549   1.405   0.000  10.249 -1.1351 -0.9707 -1.9721
 5305SOL     OW27550   2.712   1.481   8.486  0.3272 -0.6392 -0.3668
 5305SOL    HW127551   2.721   1.387   8.505  1.7262 -0.1650  1.2894
 5305SOL    HW227552   2.625   1.497   8.522 -0.0077  0.7334 -1.8012
 5306SOL     OW27553   2.959   1.717   0.748  0.4834 -0.3510  0.9532
 5306SOL    HW127554   2.902   1.643   0.770  0.6393 -0.9130 -0.5420
 5306SOL    HW227555   2.991   1.686   0.664  0.4329  1.2239  0.3538
 5307SOL     OW27556   1.112   1.387  16.653 -0.5443  0.0845  0.0952
 5307SOL    HW127557   1.069   1.443  16.589  1.2093  0.7248 -0.5429
 5307SOL    HW227558   1.164   1.333  16.593 -1.9561 -0.0903 -0.9521
 5308SOL     OW27559   3.603   3.168   8.746 -0.9826  0.0885  0.0819
 5308SOL    HW127560   3.590   3.096   8.684  1.1975 -1.1815  1.0666
 5308SOL    HW227561   3.513   3.200   8.754 -1.6299 -1.5480 -0.4994
 5309SOL     OW27562   0.103   2.533  17.392  0.1734 -0.4422 -0.2321
 5309SOL    HW127563   0.198   2.538  17.405  0.4037  0.0457 -2.0742
 5309SOL    HW227564   0.091   2.586  17.313  0.8410 -0.2111 -0.1756
 5310SOL     OW27565   1.636   3.735   9.679  0.0840 -0.1258 -0.7958
 5310SOL    HW127566   1.606   3.718   9.590 -1.5767 -1.4267  0.0075
 5310SOL    HW227567   1.726   3.765   9.668 -0.1359  0.9517  0.2544
 5311SOL     OW27568   1.423   3.967   0.609  1.0908 -0.5597 -0.0833
 5311SOL    HW127569   1.486   3.900   0.585  3.3932  0.8508  1.9050
 5311SOL    HW227570   1.468   4.009   0.683  0.6410 -0.6455  0.2468
 5312SOL     OW27571   1.890   2.704   7.952 -0.4719  0.0882 -0.0185
 5312SOL    HW127572   1.942   2.690   7.873  0.9238  1.4577  0.6478
 5312SOL    HW227573   1.811   2.660   7.921 -2.1439  2.2759  1.2332
 5313SOL     OW27574   1.632   3.254   8.986 -0.6013  0.3583 -0.0509
 5313SOL    HW127575   1.669   3.183   9.037 -2.2228  0.1112  0.7953
 5313SOL    HW227576   1.550   3.212   8.960 -0.5039 -1.0357  1.9104
 5314SOL     OW27577   0.549   0.128  16.873 -0.2171  0.3482 -0.7411
 5314SOL    HW127578   0.534   0.187  16.947 -0.0900 -0.0296 -0.4150
 5314SOL    HW227579   0.480   0.157  16.813 -1.9313  0.6924  1.3915
 5315SOL     OW27580   4.448   2.967   7.942 -0.0319  0.3588  0.9044
 5315SOL    HW127581   4.372   2.965   8.000 -0.0080  0.3627  0.9357
 5315SOL    HW227582   4.409   2.976   7.855  1.6667  0.0225  0.1275
 5316SOL     OW27583   4.263   3.396   6.036  0.1623 -0.6653  0.5111
 5316SOL    HW127584   4.314   3.377   6.115  0.4170 -1.3599  0.1846
 5316SOL    HW227585   4.232   3.309   6.012 -0.3290 -0.3396 -0.0330
 5317SOL     OW27586   2.860   2.732   3.053 -0.1503 -0.3904 -0.2792
 5317SOL    HW127587   2.874   2.638   3.043 -1.6916 -0.8564  1.8385
 5317SOL    HW227588   2.929   2.749   3.117  0.0004  0.0453 -0.5598
 5318SOL     OW27589   1.215   2.877   1.895 -0.1120 -0.3829 -0.4267
 5318SOL    HW127590   1.183   2.906   1.810 -0.0648 -0.8604 -0.6030
 5318SOL    HW227591   1.303   2.844   1.877  0.3929  1.6438 -1.6782
 5319SOL     OW27592   3.626   4.072  12.960 -0.1037 -0.6766 -0.2593
 5319SOL    HW127593   3.586   4.021  13.031  2.4065 -2.5699 -0.1956
 5319SOL    HW227594   3.549   4.123  12.934  1.5992  1.2030 -1.6004
 5320SOL     OW27595   2.002   3.921  15.422 -0.2271 -1.1297  0.4426
 5320SOL    HW127596   1.987   4.004  15.467  2.0827 -0.6972  0.4010
 5320SOL    HW227597   1.956   3.856  15.476  3.5491 -4.3222 -0.2275
 5321SOL     OW27598   2.943   2.012  17.148  0.0059  0.4836  0.1943
 5321SOL    HW127599   3.015   2.064  17.182  1.9387 -1.3089 -1.1555
 5321SOL    HW227600   2.956   1.924  17.185  0.7198  0.0379 -1.1141
 5322SOL     OW27601   1.934   4.508   7.269 -0.2326 -0.7073  0.0300
 5322SOL    HW127602   1.955   4.590   7.223 -2.6168  0.1501  0.4872
 5322SOL    HW227603   2.002   4.501   7.337  1.4824  1.0241 -1.4866
 5323SOL     OW27604   3.224   4.562   7.467 -0.0245  0.2836  0.3173
 5323SOL    HW127605   3.304   4.570   7.415 -1.2605  0.1451 -1.6242
 5323SOL    HW227606   3.225   4.471   7.495 -2.2917  0.2232  0.1953
 5324SOL     OW27607   3.294   2.225   0.281  0.0744 -0.3957  0.2876
 5324SOL    HW127608   3.293   2.191   0.370 -2.5165 -1.5032 -0.1546
 5324SOL    HW227609   3.378   2.192   0.250  0.2003  0.2925 -0.1210
 5325SOL     OW27610   1.104   2.127   5.150  0.5431  0.5155  0.3393
 5325SOL    HW127611   1.160   2.061   5.109  1.6522 -0.1303  2.8780
 5325SOL    HW227612   1.053   2.166   5.079  1.2498  1.5444  0.4024
 5326SOL     OW27613   0.790   3.802  10.969 -0.1791  1.1691 -0.6078
 5326SOL    HW127614   0.785   3.822  10.875 -0.8307  0.1517 -0.7814
 5326SOL    HW227615   0.877   3.762  10.969 -0.8273 -0.2236 -2.9368
 5327SOL     OW27616   1.064   2.696   3.802  0.3388  0.6482 -0.3917
 5327SOL    HW127617   1.119   2.733   3.871 -1.2966  2.1431  0.1029
 5327SOL    HW227618   1.000   2.648   3.854 -0.8036 -0.8953 -3.1727
 5328SOL     OW27619   0.548   1.138   2.183  0.1232 -0.0291  0.9318
 5328SOL    HW127620   0.609   1.201   2.222  0.2663  0.8561 -0.6821
 5328SOL    HW227621   0.490   1.197   2.134  2.0389  2.1164  1.2389
 5329SOL     OW27622   0.710   2.446   6.725 -0.2601 -0.4238  0.7516
 5329SOL    HW127623   0.771   2.448   6.651  1.8167 -0.0111  2.4752
 5329SOL    HW227624   0.630   2.435   6.674  1.7834  1.6513 -2.8511
 5330SOL     OW27625   4.481   1.752  14.710 -0.2659 -0.0783 -0.2533
 5330SOL    HW127626   4.544   1.819  14.685  2.6304 -1.9198  2.1807
 5330SOL    HW227627   4.402   1.798  14.678 -0.5078 -0.3430 -0.0333
 5331SOL     OW27628   3.796   2.048   6.688 -0.5162 -0.4706  0.2946
 5331SOL    HW127629   3.768   2.124   6.738 -0.7195  0.3322 -1.0603
 5331SOL    HW227630   3.762   1.980   6.747 -1.5954 -2.1732 -2.3047
 5332SOL     OW27631   4.122   3.767   7.493 -0.1401  0.6021 -0.4297
 5332SOL    HW127632   4.122   3.703   7.564 -1.0824  1.7711  0.6110
 5332SOL    HW227633   4.053   3.827   7.521  1.6265  1.1595  2.7066
 5333SOL     OW27634   3.487   4.209  10.053  0.0800  0.0659  0.2967
 5333SOL    HW127635   3.495   4.292  10.099  1.6203 -0.9864  1.9027
 5333SOL    HW227636   3.450   4.228   9.967 -1.9805 -0.3714  1.0689
 5334SOL     OW27637   2.319   2.311   6.601 -0.5868 -0.0801  0.2206
 5334SOL    HW127638   2.374   2.242   6.640 -0.8185 -0.0697  0.5674
 5334SOL    HW227639   2.285   2.269   6.522  2.5151 -0.1758 -1.0370
 5335SOL     OW27640   1.878   0.265   8.234  0.3209 -0.1440  0.0281
 5335SOL    HW127641   1.917   0.191   8.187 -1.2400 -0.9246 -0.0423
 5335SOL    HW227642   1.896   0.340   8.178 -1.0446 -1.3205 -1.9992
 5336SOL     OW27643   4.062   0.688   4.120  0.1371  0.5315 -0.0551
 5336SOL    HW127644   4.032   0.641   4.042  2.3890 -1.0138 -0.0109
 5336SOL    HW227645   4.118   0.624   4.165  0.5729  0.9865  0.0464
 5337SOL     OW27646   1.323   1.853  11.457  0.5252 -0.0161 -0.0747
 5337SOL    HW127647   1.236   1.886  11.435  0.4571 -0.2198 -0.1114
 5337SOL    HW227648   1.296   1.762  11.468  2.4696 -0.2796  2.5695
 5338SOL     OW27649   2.709   0.469   9.023 -0.2977  0.4168  0.1488
 5338SOL    HW127650   2.701   0.427   8.938 -0.8698 -1.3124  1.0461
 5338SOL    HW227651   2.671   0.399   9.076 -1.1636  0.4022 -0.4867
 5339SOL     OW27652   0.525   4.338   2.985  0.3424 -0.0871  0.1864
 5339SOL    HW127653   0.505   4.422   2.945 -0.9800  0.0690  1.1909
 5339SOL    HW227654   0.507   4.273   2.917 -0.6451  1.5230 -1.0607
 5340SOL     OW27655   0.484   2.313  11.599 -0.1786 -0.4012  0.9780
 5340SOL    HW127656   0.394   2.309  11.566  0.6137 -1.1568 -1.1242
 5340SOL    HW227657   0.522   2.386  11.550 -0.9786  1.3635  3.0232
 5341SOL     OW27658   1.863   0.675   3.809 -0.0469 -0.1541 -0.6560
 5341SOL    HW127659   1.792   0.611   3.801  0.5293 -0.4842 -3.1825
 5341SOL    HW227660   1.824   0.718   3.885  0.5021 -0.4131 -0.2253
 5342SOL     OW27661   1.428   1.123   2.677 -0.1394  0.3168 -0.0657
 5342SOL    HW127662   1.404   1.157   2.764 -3.2963  0.6738 -1.0888
 5342SOL    HW227663   1.342   1.104   2.640 -0.6322  0.4068  1.0326
 5343SOL     OW27664   2.867   0.625   5.334  0.1497  0.0737  0.7195
 5343SOL    HW127665   2.922   0.557   5.295  0.7244  0.9582 -0.0027
 5343SOL    HW227666   2.795   0.580   5.378  0.7013 -0.0121  1.5380
 5344SOL     OW27667   2.303   3.784   7.486  0.4355 -0.5104  0.6188
 5344SOL    HW127668   2.277   3.729   7.561  0.8164  0.0368  1.1511
 5344SOL    HW227669   2.376   3.836   7.520  0.4037 -1.0352  1.4789
 5345SOL     OW27670   3.289   3.270   7.336 -0.2706  0.4196  0.3655
 5345SOL    HW127671   3.286   3.176   7.318  0.4816  0.6239 -0.8649
 5345SOL    HW227672   3.379   3.301   7.344 -0.3983  1.3467 -1.7390
 5346SOL     OW27673   2.595   2.499   1.164  0.3204 -0.2249 -0.7739
 5346SOL    HW127674   2.635   2.450   1.236 -2.6764 -1.4782  0.0771
 5346SOL    HW227675   2.539   2.428   1.134  0.3156  0.5701 -2.6567
 5347SOL     OW27676   1.337   4.294   8.382  0.0135 -0.0717  0.3459
 5347SOL    HW127677   1.384   4.225   8.334 -1.0775 -1.5639  1.4479
 5347SOL    HW227678   1.373   4.287   8.470  1.1810 -1.4783 -0.2309
 5348SOL     OW27679   4.203   2.428   6.547  0.0192  0.2551 -0.0956
 5348SOL    HW127680   4.219   2.357   6.484 -1.0149  1.1616 -1.3745
 5348SOL    HW227681   4.229   2.382   6.627  0.7143  0.4856 -0.1922
 5349SOL     OW27682   0.945   2.454   8.292 -0.1805  0.2876 -0.3505
 5349SOL    HW127683   0.864   2.421   8.330 -0.4852  1.6565  0.1754
 5349SOL    HW227684   0.968   2.388   8.227  1.1407  1.0256 -0.6409
 5350SOL     OW27685   1.867   2.106   9.353  0.2520  0.2655  0.3200
 5350SOL    HW127686   1.805   2.175   9.328 -1.1977 -1.6327 -1.2428
 5350SOL    HW227687   1.922   2.117   9.275  0.8242  2.3546  1.0189
 5351SOL     OW27688   0.592   1.598   6.924  0.2021  0.0875 -0.1051
 5351SOL    HW127689   0.560   1.542   6.854 -0.4651 -0.8518  0.9359
 5351SOL    HW227690   0.527   1.575   6.991  2.2085  0.3691  1.9649
 5352SOL     OW27691   0.660   1.422   8.930  0.5176 -0.1731 -0.3012
 5352SOL    HW127692   0.676   1.331   8.955  0.4154 -0.1076  0.0033
 5352SOL    HW227693   0.582   1.449   8.979  2.1686  2.8698  0.6838
 5353SOL     OW27694   0.744   0.332   2.941 -0.4222  0.2997 -0.4081
 5353SOL    HW127695   0.717   0.292   2.859 -0.6593 -1.2748  0.4337
 5353SOL    HW227696   0.812   0.271   2.969 -0.9974  0.6470  1.7843
 5354SOL     OW27697   1.612   1.620   2.350  0.3761  0.1898 -0.4300
 5354SOL    HW127698   1.628   1.660   2.265  1.0072 -0.1402 -0.4650
 5354SOL    HW227699   1.648   1.683   2.411 -0.2210  0.5317 -0.4288
 5355SOL     OW27700   3.412   3.586   7.821 -0.3646  0.1401 -0.4698
 5355SOL    HW127701   3.320   3.589   7.847 -0.3762  0.7133 -0.5800
 5355SOL    HW227702   3.464   3.546   7.892  0.1023  0.8451 -0.4114
 5356SOL     OW27703   3.002   1.175   2.518 -0.4527 -0.0032 -0.1350
 5356SOL    HW127704   3.030   1.234   2.448 -2.6444  3.2476  1.7030
 5356SOL    HW227705   3.064   1.103   2.509  1.2177  1.3535  0.4353
 5357SOL     OW27706   1.827   1.420   5.542  0.4128  0.2769 -0.0550
 5357SOL    HW127707   1.848   1.477   5.616 -1.6664  1.2081 -0.1959
 5357SOL    HW227708   1.904   1.364   5.553 -1.6006 -2.0376  2.3369
 5358SOL     OW27709   0.685   4.723   7.381 -0.1996  0.0214 -0.1743
 5358SOL    HW127710   0.596   4.692   7.397 -1.2536  2.9271 -0.3877
 5358SOL    HW227711   0.713   0.022   7.464  0.2206 -1.1555  0.1966
 5359SOL     OW27712   1.506   1.236   4.749  0.4494 -0.3120  0.1671
 5359SOL    HW127713   1.472   1.188   4.824 -1.3275 -0.0796 -0.4973
 5359SOL    HW227714   1.576   1.282   4.795 -0.4407 -1.9259  3.1391
 5360SOL     OW27715   0.393   0.008   6.834 -0.3867  0.0904 -0.6889
 5360SOL    HW127716   0.369   4.680   6.769  1.4067 -0.8075 -0.4578
 5360SOL    HW227717   0.358   4.713   6.916  1.8314 -0.6933 -0.0652
 5361SOL     OW27718   1.665   0.997   4.180  0.3785  0.0451 -0.1640
 5361SOL    HW127719   1.635   1.084   4.155 -0.7534 -0.1481  0.5309
 5361SOL    HW227720   1.757   1.020   4.172  1.0028 -1.8507  1.6188
 5362SOL     OW27721   4.049   4.288  12.971  0.1804 -0.3985 -0.0904
 5362SOL    HW127722   3.967   4.261  12.930  0.1505 -0.3385 -0.0706
 5362SOL    HW227723   4.030   4.382  12.982 -2.2574 -0.9759  0.5451
 5363SOL     OW27724   4.282   3.473   5.209  0.0045  0.3793  0.6140
 5363SOL    HW127725   4.347   3.535   5.175 -0.4671  1.3024  1.3805
 5363SOL    HW227726   4.320   3.439   5.291  0.5949  0.2464  0.2838
 5364SOL     OW27727   4.233   1.271   6.736  0.0432  0.1196 -0.2327
 5364SOL    HW127728   4.266   1.183   6.721  2.7160  1.1610 -0.4287
 5364SOL    HW227729   4.291   1.301   6.806  0.1359  0.9375 -0.6569
 5365SOL     OW27730   3.219   3.107   1.851 -0.0890  0.0420  0.2253
 5365SOL    HW127731   3.204   3.169   1.923 -1.1878 -1.3772  1.2285
 5365SOL    HW227732   3.131   3.098   1.814  0.5953  0.8552 -1.6177
 5366SOL     OW27733   0.287   4.050   8.383 -0.4603 -0.2823  0.0128
 5366SOL    HW127734   0.377   4.028   8.357 -0.9163 -0.7749 -1.1386
 5366SOL    HW227735   0.293   4.072   8.476 -0.3234  2.2084 -0.5923
 5367SOL     OW27736   2.637   4.696   2.115 -0.1145 -0.1439  0.3771
 5367SOL    HW127737   2.721   4.684   2.158  1.0082  3.3706 -0.8300
 5367SOL    HW227738   2.647   4.638   2.040 -0.7620  1.5171 -0.9947
 5368SOL     OW27739   4.627   3.988   5.248 -0.1170 -0.1718  0.2052
 5368SOL    HW127740   4.661   3.934   5.177 -0.6879  1.3028 -1.1858
 5368SOL    HW227741   4.555   3.930   5.273  0.4479 -0.2664  1.6207
 5369SOL     OW27742   0.722   4.682   3.382  0.1431 -1.0217  0.0510
 5369SOL    HW127743   0.704   0.006   3.310 -2.3638 -0.8622  0.8312
 5369SOL    HW227744   0.740   0.006   3.454  0.1880  0.0114 -0.8321
 5370SOL     OW27745   1.091   3.936   5.248 -0.0218  0.4645 -0.5061
 5370SOL    HW127746   1.133   3.931   5.334 -1.9587  2.0868  0.5456
 5370SOL    HW227747   1.009   3.892   5.270  0.0412  1.2394  1.2950
 5371SOL     OW27748   1.308   1.387  10.543 -0.0581  0.4045  0.0289
 5371SOL    HW127749   1.232   1.440  10.519 -0.8207 -0.8249 -0.2610
 5371SOL    HW227750   1.295   1.305  10.496 -0.8587  0.0000  0.9406
 5372SOL     OW27751   2.195   0.035   3.136  0.1811 -0.9048  0.1063
 5372SOL    HW127752   2.258   4.734   3.197  0.0989 -1.6331 -0.2591
 5372SOL    HW227753   2.241   0.118   3.120 -0.4626 -0.2862  1.5510
 5373SOL     OW27754   1.448   1.517   2.866  0.1767  0.0582  0.3614
 5373SOL    HW127755   1.476   1.538   2.777  1.3938  0.7073  0.9016
 5373SOL    HW227756   1.502   1.578   2.917 -0.3778  1.4916 -0.7879
 5374SOL     OW27757   4.696   0.403   6.412  0.1532  0.2310  0.1511
 5374SOL    HW127758   0.048   0.418   6.442  0.7209 -0.7271 -1.0989
 5374SOL    HW227759   4.657   0.491   6.422 -1.0702 -0.0707 -1.9507
 5375SOL     OW27760   0.125   1.559   0.584  0.2091  0.3149 -0.1072
 5375SOL    HW127761   0.124   1.464   0.571  3.9654  0.2436  0.0837
 5375SOL    HW227762   0.180   1.572   0.507  1.2478 -0.2968  0.5347
 5376SOL     OW27763   2.845   1.131   4.104  0.2868  0.1755  0.1038
 5376SOL    HW127764   2.896   1.188   4.162  1.7475  0.4653 -1.4684
 5376SOL    HW227765   2.893   1.052   4.129  1.2322  1.0159  0.9735
 5377SOL     OW27766   0.405   0.063   9.081  0.5741  0.4178  0.7147
 5377SOL    HW127767   0.442   0.069   8.993  0.9986 -1.7987  0.7540
 5377SOL    HW227768   0.476   0.110   9.126  1.1920 -0.7712  0.9596
 5378SOL     OW27769   4.511   1.624   5.260 -0.1839  0.0713 -0.1903
 5378SOL    HW127770   4.473   1.544   5.224  0.0287 -0.6195  1.1088
 5378SOL    HW227771   4.545   1.655   5.176 -0.2910 -1.5657 -0.8394
 5379SOL     OW27772   2.659   1.250   3.584 -0.3920  0.2583 -0.3913
 5379SOL    HW127773   2.650   1.317   3.516 -1.0622  1.3763  0.7908
 5379SOL    HW227774   2.593   1.188   3.553  0.8191 -1.6214  0.7894
 5380SOL     OW27775   1.067   2.398   3.938 -0.1544  0.5876  0.3160
 5380SOL    HW127776   1.019   2.433   4.012 -1.1303 -1.2541  0.5434
 5380SOL    HW227777   1.088   2.313   3.978 -0.3512 -0.4535 -1.7804
 5381SOL     OW27778   2.441   4.701   0.737  0.7578  0.0325  0.1762
 5381SOL    HW127779   2.362   0.000   0.778  0.3922 -0.2914 -0.2380
 5381SOL    HW227780   2.416   4.611   0.756 -1.9903  0.7310 -0.0995
 5382SOL     OW27781   3.004   1.992  17.581  0.0178  0.1636  0.1199
 5382SOL    HW127782   2.962   2.056  17.524 -1.0920 -0.2058  0.5180
 5382SOL    HW227783   3.062   1.950  17.517 -0.5512 -1.7269  0.8481
 5383SOL     OW27784   3.390   1.702   5.366 -0.1221  0.3746 -0.3660
 5383SOL    HW127785   3.405   1.717   5.272  1.4486 -0.8308 -0.3254
 5383SOL    HW227786   3.412   1.788   5.400 -1.5190  0.1828  1.0139
 5384SOL     OW27787   0.162   3.414   6.859 -0.3214  0.2093  0.1232
 5384SOL    HW127788   0.130   3.437   6.772 -1.6445 -0.4831  0.4372
 5384SOL    HW227789   0.151   3.321   6.873  2.3846 -0.5774 -2.7874
 5385SOL     OW27790   3.398   2.619  17.189 -0.1582  0.2723 -0.5946
 5385SOL    HW127791   3.464   2.654  17.130  0.8536 -1.1290 -0.2965
 5385SOL    HW227792   3.439   2.541  17.227 -1.7424 -0.1572  0.2430
 5386SOL     OW27793   0.427   2.866   4.883  0.8416 -0.2230 -0.0990
 5386SOL    HW127794   0.348   2.900   4.925  2.0888  1.9993  0.4393
 5386SOL    HW227795   0.396   2.783   4.847  0.0005 -0.4521  1.1672
 5387SOL     OW27796   1.510   3.881   3.714 -0.0133 -0.6637  0.5942
 5387SOL    HW127797   1.584   3.931   3.748 -0.6573 -0.0207  1.0398
 5387SOL    HW227798   1.559   3.803   3.688 -0.3690 -1.4216  2.2620
 5388SOL     OW27799   1.546   3.171  10.335 -0.0513 -0.1083 -0.0709
 5388SOL    HW127800   1.497   3.219  10.268 -1.0451 -0.7341  0.2104
 5388SOL    HW227801   1.476   3.114  10.366 -0.5994  0.4410 -0.2948
 5389SOL     OW27802   2.714   3.257   3.250 -0.1696  0.4042  0.7014
 5389SOL    HW127803   2.691   3.350   3.257  2.3453  0.8505  3.1162
 5389SOL    HW227804   2.786   3.261   3.188 -1.5389  1.0492 -0.8452
 5390SOL     OW27805   0.000   2.552   9.074 -0.1400  0.4532  0.4628
 5390SOL    HW127806   0.060   2.608   9.124 -1.5728  1.1085  1.4371
 5390SOL    HW227807   4.698   2.509   9.150  1.1935 -0.0545  0.8634
 5391SOL     OW27808   2.466   0.385   7.981  0.1320  0.4973  0.3843
 5391SOL    HW127809   2.407   0.423   8.047 -2.5329 -1.1093 -1.0758
 5391SOL    HW227810   2.464   0.292   8.002  0.9120  0.2571 -0.6207
 5392SOL     OW27811   0.778   0.861   6.741  0.0705  0.2690  0.0753
 5392SOL    HW127812   0.846   0.928   6.755 -0.0177  0.3755 -0.0031
 5392SOL    HW227813   0.720   0.879   6.815  1.5780 -0.9610  1.5707
 5393SOL     OW27814   4.671   0.920   5.796  0.4029 -0.2958  0.2505
 5393SOL    HW127815   0.017   0.967   5.794  0.6690 -0.7531  0.7381
 5393SOL    HW227816   4.706   0.836   5.825 -1.0014 -0.6158  1.0475
 5394SOL     OW27817   0.428   3.196   3.586 -0.0042  0.0232 -0.4050
 5394SOL    HW127818   0.510   3.199   3.537 -0.3120  1.6703 -0.8341
 5394SOL    HW227819   0.383   3.124   3.542  1.0511 -0.0775 -1.3274
 5395SOL     OW27820   2.877   4.360   3.885 -0.5179  0.3400  0.1328
 5395SOL    HW127821   2.861   4.399   3.799 -0.5676  2.2861  1.0155
 5395SOL    HW227822   2.926   4.429   3.930 -1.3369  1.1748 -0.2595
 5396SOL     OW27823   2.895   2.188   4.611  0.2945  0.1432  1.0096
 5396SOL    HW127824   2.843   2.245   4.666 -0.3026  0.1230  0.4650
 5396SOL    HW227825   2.873   2.108   4.659  1.7045 -0.4591  0.6847
 5397SOL     OW27826   0.949   2.128   7.467  0.2722 -0.0067  0.5093
 5397SOL    HW127827   0.887   2.180   7.518 -1.0204 -1.4110  0.3989
 5397SOL    HW227828   1.006   2.114   7.542  1.0331  0.7440  0.0725
 5398SOL     OW27829   1.651   0.355   2.842 -0.2960  0.2222  0.1766
 5398SOL    HW127830   1.557   0.361   2.830  0.2987  0.6554 -4.5586
 5398SOL    HW227831   1.685   0.431   2.794 -2.0300  0.5966 -0.4551
 5399SOL     OW27832   0.408   0.177   7.634 -0.6577 -0.0159 -0.2183
 5399SOL    HW127833   0.337   0.142   7.687 -1.2996  1.2066 -0.2889
 5399SOL    HW227834   0.425   0.259   7.680 -0.3163 -0.8510  1.1376
 5400SOL     OW27835   2.432   1.638   4.843 -0.1966  0.2974 -0.1122
 5400SOL    HW127836   2.410   1.556   4.798  1.6087  0.8611 -2.0309
 5400SOL    HW227837   2.349   1.685   4.848 -0.9454 -0.8713 -1.4904
 5401SOL     OW27838   2.382   2.629   1.464 -0.5969  0.0077  0.3425
 5401SOL    HW127839   2.469   2.602   1.492 -0.3322 -0.6085 -1.0897
 5401SOL    HW227840   2.332   2.547   1.461  0.9805 -0.9672  0.6731
 5402SOL     OW27841   4.204   4.629   7.684 -0.1855 -0.8385 -0.2959
 5402SOL    HW127842   4.167   4.626   7.772  1.9722  0.5537  0.6661
 5402SOL    HW227843   4.292   4.598   7.708 -0.0545  1.6068  2.3385
 5403SOL     OW27844   2.926   2.667   9.610 -0.1592  0.6426 -0.5012
 5403SOL    HW127845   2.859   2.675   9.542  0.5444  1.0343 -1.1520
 5403SOL    HW227846   2.974   2.748   9.594  0.5372  0.0771 -1.3394
 5404SOL     OW27847   2.774   2.432   6.761 -0.2632  0.0257 -1.3353
 5404SOL    HW127848   2.696   2.470   6.801 -0.0818  0.4221 -1.3666
 5404SOL    HW227849   2.743   2.412   6.673 -1.8634 -2.0647 -0.3214
 5405SOL     OW27850   1.809   1.606   3.625  0.1701  0.0141 -0.8446
 5405SOL    HW127851   1.893   1.566   3.601 -0.4769 -1.2062 -1.1127
 5405SOL    HW227852   1.746   1.549   3.579 -1.8357  0.2005  1.6462
 5406SOL     OW27853   4.593   1.173   9.295 -0.0460  0.1936  0.2910
 5406SOL    HW127854   4.612   1.252   9.345 -0.5547  0.3947  0.1709
 5406SOL    HW227855   4.545   1.203   9.217  0.1491  1.8114  0.8026
 5407SOL     OW27856   2.712   3.575  10.432  0.1430 -0.0950 -0.4531
 5407SOL    HW127857   2.701   3.535  10.519  0.0434  3.0488  0.9657
 5407SOL    HW227858   2.688   3.667  10.442 -0.5522 -0.1677 -1.3971
 5408SOL     OW27859   1.920   0.013  15.573 -0.2210 -0.1524  0.2589
 5408SOL    HW127860   1.853   0.070  15.611 -0.1275  1.0906 -1.4397
 5408SOL    HW227861   1.901   0.030  15.481  0.2811 -0.9046  0.0164
 5409SOL     OW27862   4.096   1.967   8.670 -0.1314  0.1554 -0.8693
 5409SOL    HW127863   4.117   1.970   8.763 -1.6812  0.2971 -0.5205
 5409SOL    HW227864   4.042   2.045   8.653 -0.6882 -0.3849 -1.5846
 5410SOL     OW27865   0.127   0.596   0.967 -0.4738 -0.0972  0.3421
 5410SOL    HW127866   0.085   0.544   1.036  1.5583 -1.3268  0.6598
 5410SOL    HW227867   0.117   0.684   1.002  0.3222 -0.5567  1.7114
 5411SOL     OW27868   2.085   2.334   5.470  0.2925  0.4401 -0.6607
 5411SOL    HW127869   2.162   2.389   5.458 -0.3371  1.7767  1.4040
 5411SOL    HW227870   2.046   2.343   5.383 -1.1304  4.2711  0.3401
 5412SOL     OW27871   4.361   0.718   2.856  0.6792  0.0145 -0.2770
 5412SOL    HW127872   4.300   0.745   2.787 -0.0188  0.3306  0.4763
 5412SOL    HW227873   4.441   0.701   2.806 -0.4430 -0.6581 -1.8820
 5413SOL     OW27874   3.760   0.673   6.711  0.2283  0.1153  0.0943
 5413SOL    HW127875   3.842   0.703   6.750  0.2725 -0.1463  0.2011
 5413SOL    HW227876   3.703   0.665   6.787  1.3374 -0.5570  0.8465
 5414SOL     OW27877   1.547   1.713  15.039 -0.5588  0.0229  0.4266
 5414SOL    HW127878   1.591   1.635  15.004 -2.8324 -0.4725 -1.3165
 5414SOL    HW227879   1.623   1.755  15.080 -0.4949 -1.6043  1.9784
 5415SOL     OW27880   0.065   2.372   8.547  0.9799 -0.0611  0.2289
 5415SOL    HW127881   0.098   2.284   8.528 -1.8032 -0.7425 -1.3484
 5415SOL    HW227882   0.145   2.426   8.547 -0.0770  1.5181 -0.7110
 5416SOL     OW27883   1.137   1.621   3.318 -0.6352  0.7388 -0.2787
 5416SOL    HW127884   1.193   1.609   3.241 -0.5680 -0.2409 -0.0818
 5416SOL    HW227885   1.143   1.542   3.372 -3.4901 -0.2080 -1.3545
 5417SOL     OW27886   2.905   0.728   2.450 -0.4175  0.1563 -0.1237
 5417SOL    HW127887   2.894   0.634   2.436 -2.1750  0.2065  0.9611
 5417SOL    HW227888   2.974   0.760   2.391 -1.1262 -1.6794 -1.9493
 5418SOL     OW27889   0.580   3.282   2.146  0.1888 -0.3550 -0.0514
 5418SOL    HW127890   0.621   3.364   2.172 -0.9405 -0.2306  1.3438
 5418SOL    HW227891   0.647   3.214   2.143 -0.4446 -0.9889 -0.0157
 5419SOL     OW27892   1.682   1.345   8.677 -0.0092  0.5418 -0.0303
 5419SOL    HW127893   1.759   1.402   8.677  1.0106 -0.8630  1.6875
 5419SOL    HW227894   1.720   1.257   8.684  0.6339  0.5929 -2.8671
 5420SOL     OW27895   4.460   0.910   1.911  0.2406  0.2149  0.3945
 5420SOL    HW127896   4.480   0.964   1.834 -0.7105 -1.3769 -0.9629
 5420SOL    HW227897   4.417   0.836   1.869  3.2035 -1.9140  1.0674
 5421SOL     OW27898   3.727   1.392   1.346  0.0324  0.6805 -0.0323
 5421SOL    HW127899   3.733   1.352   1.259 -0.0372  0.5792  0.0106
 5421SOL    HW227900   3.696   1.480   1.325 -1.9352  0.2706  1.2309
 5422SOL     OW27901   4.274   0.644   8.223  0.0154  0.6116  0.7911
 5422SOL    HW127902   4.195   0.642   8.278  0.8474 -1.9217  1.9204
 5422SOL    HW227903   4.232   0.681   8.146 -2.3819 -0.4283  1.5854
 5423SOL     OW27904   3.952   1.433   6.377  0.0753 -0.0999 -0.1959
 5423SOL    HW127905   3.895   1.357   6.366  1.2994 -0.8105 -1.5485
 5423SOL    HW227906   4.036   1.388   6.376  0.6647  0.9794  0.4859
 5424SOL     OW27907   1.678   3.466   8.381 -0.2230 -0.1226  0.1202
 5424SOL    HW127908   1.658   3.559   8.369  1.2334  0.1881  0.1603
 5424SOL    HW227909   1.715   3.460   8.469  1.1779  0.0356 -0.4533
 5425SOL     OW27910   1.328   1.228   9.506 -0.3748  0.0783 -0.7066
 5425SOL    HW127911   1.295   1.316   9.521 -1.0597  0.0283 -1.9166
 5425SOL    HW227912   1.421   1.242   9.486 -0.5759  0.1959 -1.5479
 5426SOL     OW27913   1.927   0.481   8.091 -0.3421 -0.6468  0.4304
 5426SOL    HW127914   1.971   0.459   8.009 -2.0319 -1.2582 -0.3234
 5426SOL    HW227915   1.898   0.569   8.069  1.6014  0.1448  1.0711
 5427SOL     OW27916   4.730   1.970   4.195  0.2551  0.0367  0.2701
 5427SOL    HW127917   4.715   1.892   4.141 -0.5621 -0.3167  0.9909
 5427SOL    HW227918   4.639   1.998   4.201  0.4263  0.8360 -1.0087
 5428SOL     OW27919   0.745   0.137   2.201 -0.6313 -0.6788  0.0561
 5428SOL    HW127920   0.771   0.176   2.118  1.7303 -0.1477  1.0626
 5428SOL    HW227921   0.796   0.056   2.197  1.0226  0.3080  1.3902
 5429SOL     OW27922   0.387   1.905   6.629  0.2131 -0.1855 -0.1678
 5429SOL    HW127923   0.325   1.834   6.641  0.4389 -0.0994  1.5110
 5429SOL    HW227924   0.443   1.885   6.704 -0.2054  0.3185  0.2802
 5430SOL     OW27925   3.663   4.396   5.509 -0.5252 -0.5187 -0.3996
 5430SOL    HW127926   3.597   4.371   5.444 -2.6953  0.0608  1.6255
 5430SOL    HW227927   3.641   4.486   5.532  1.3292 -0.4090  0.9610
 5431SOL     OW27928   0.249   3.318   2.758  0.3525 -0.0884 -0.1827
 5431SOL    HW127929   0.274   3.405   2.727  1.8900 -0.0919  1.0598
 5431SOL    HW227930   0.158   3.331   2.784 -0.3936 -4.3740 -0.6291
 5432SOL     OW27931   0.445   1.499   6.633 -0.8705 -0.2008  0.0881
 5432SOL    HW127932   0.535   1.470   6.645 -1.5241 -1.9120  0.9926
 5432SOL    HW227933   0.442   1.532   6.543  0.5936  2.4512  1.0377
 5433SOL     OW27934   3.026   1.461   5.305 -0.0977  0.1093  0.3861
 5433SOL    HW127935   2.959   1.394   5.314 -1.2976  1.1969 -0.4653
 5433SOL    HW227936   3.027   1.495   5.215  1.3046  0.5465  0.5657
 5434SOL     OW27937   3.522   0.952   8.757  0.3219 -0.2079  0.3532
 5434SOL    HW127938   3.503   1.045   8.753 -1.0589 -0.3826  2.9859
 5434SOL    HW227939   3.442   0.921   8.713  0.0401  0.1822  0.5954
 5435SOL     OW27940   3.654   2.137  16.539  0.3950 -0.4390 -0.6360
 5435SOL    HW127941   3.724   2.161  16.599 -0.3473 -0.8682  0.3941
 5435SOL    HW227942   3.611   2.063  16.583 -0.8644  0.3535 -0.5375
 5436SOL     OW27943   0.326   1.191   1.069  0.2437  0.1778 -0.3355
 5436SOL    HW127944   0.413   1.151   1.076  0.6985  0.6264 -3.5582
 5436SOL    HW227945   0.350   1.257   1.004 -0.5656  0.7525 -0.0516
 5437SOL     OW27946   2.725   3.331   9.588  0.7200  0.1381 -0.0493
 5437SOL    HW127947   2.630   3.326   9.577  0.7473 -0.5650  0.0579
 5437SOL    HW227948   2.742   3.247   9.630  0.3733 -0.4314 -1.0356
 5438SOL     OW27949   1.485   4.692   5.241 -0.2698 -0.5818  0.0858
 5438SOL    HW127950   1.445   0.041   5.244 -0.4240 -0.6367 -0.4014
 5438SOL    HW227951   1.450   4.650   5.319 -1.2802 -0.9614 -0.5655
 5439SOL     OW27952   3.589   2.745   6.910  0.5961  0.9374  0.8869
 5439SOL    HW127953   3.513   2.733   6.966  0.9377  1.7646  1.5372
 5439SOL    HW227954   3.556   2.788   6.831  0.4104  0.9966  0.9979
 5440SOL     OW27955   4.097   0.303   5.894 -0.0523  0.0597 -0.3270
 5440SOL    HW127956   4.131   0.222   5.932  0.8798 -1.8032 -5.1277
 5440SOL    HW227957   4.159   0.321   5.823 -0.1082 -1.1311 -0.6866
 5441SOL     OW27958   0.499   1.898   7.090 -0.6577  0.4045 -0.3611
 5441SOL    HW127959   0.535   1.851   7.015 -1.8166 -1.7948  0.4543
 5441SOL    HW227960   0.445   1.825   7.119 -0.4827 -0.8495 -3.2619
 5442SOL     OW27961   3.305   0.979  16.137  0.1134 -0.3826  0.5108
 5442SOL    HW127962   3.370   0.916  16.103 -1.0603 -0.9743 -0.6695
 5442SOL    HW227963   3.230   0.921  16.147  0.4546 -1.2857 -2.0531
 5443SOL     OW27964   4.347   4.576   3.261  0.2442  0.7375  0.0406
 5443SOL    HW127965   4.309   4.489   3.277  2.5871 -0.4484 -0.8014
 5443SOL    HW227966   4.441   4.561   3.275  0.2054 -1.7759 -2.3831
 5444SOL     OW27967   2.121   3.075   7.180  0.2172  0.5498  1.0249
 5444SOL    HW127968   2.200   3.100   7.132  0.9617  0.3874  2.1524
 5444SOL    HW227969   2.142   3.096   7.271  0.9230  0.1174  0.9644
 5445SOL     OW27970   2.915   3.682  10.760  0.5781  0.1568  0.3802
 5445SOL    HW127971   3.005   3.716  10.761  0.1962  1.2119 -0.8535
 5445SOL    HW227972   2.928   3.592  10.731 -2.7345  0.1546 -1.1099
 5446SOL     OW27973   3.151   2.023   8.833 -0.2511 -0.3874 -0.4548
 5446SOL    HW127974   3.100   1.991   8.758  0.9421  0.0281 -1.4476
 5446SOL    HW227975   3.173   1.939   8.873 -0.8790 -0.1366  0.4154
 5447SOL     OW27976   2.637   0.947   3.966  0.0867  0.0766  0.3341
 5447SOL    HW127977   2.682   1.027   3.994 -0.1333 -0.2672  1.6349
 5447SOL    HW227978   2.561   0.979   3.917 -0.5249 -1.3155  0.3887
 5448SOL     OW27979   3.071   3.031   0.888 -0.1697  0.3236 -0.2199
 5448SOL    HW127980   3.027   2.968   0.831 -1.1230  1.5145 -0.8163
 5448SOL    HW227981   3.006   3.101   0.887  0.5585  0.9856 -2.6247
 5449SOL     OW27982   1.130   1.800  15.458  0.1366  0.2783  0.0759
 5449SOL    HW127983   1.104   1.858  15.530 -3.3767 -0.0651 -0.9032
 5449SOL    HW227984   1.081   1.718  15.469  0.4652  0.2641  1.4415
 5450SOL     OW27985   2.681   0.879   6.468 -0.2110 -0.3862  0.4566
 5450SOL    HW127986   2.773   0.855   6.461 -0.6660 -1.8843 -0.2624
 5450SOL    HW227987   2.657   0.890   6.376 -0.1693 -1.0483  0.3673
 5451SOL     OW27988   3.033   2.881  13.261 -0.4237 -0.0283  0.4216
 5451SOL    HW127989   3.035   2.974  13.285 -0.0107  0.1483 -0.3147
 5451SOL    HW227990   2.957   2.865  13.206  0.1682 -1.1436 -0.0684
 5452SOL     OW27991   1.736   2.373   5.720 -0.4627  0.1596 -0.3218
 5452SOL    HW127992   1.736   2.467   5.738  1.7337  0.1520 -0.3050
 5452SOL    HW227993   1.659   2.364   5.664  0.0230 -1.9906 -0.6400
 5453SOL     OW27994   0.404   2.399   8.062 -0.1878 -0.6407  0.4927
 5453SOL    HW127995   0.356   2.316   8.057 -0.5132 -0.4262  0.0441
 5453SOL    HW227996   0.484   2.355   8.090 -0.3591 -0.9858  0.4458
 5454SOL     OW27997   0.629   4.507  10.600 -0.6945 -0.3853  0.0001
 5454SOL    HW127998   0.718   4.473  10.594 -0.0199  1.2080  1.0998
 5454SOL    HW227999   0.637   4.575  10.666  2.8951 -2.0058  1.2773
 5455SOL     OW28000   2.447   2.946  13.395 -0.1716  0.1452 -0.5021
 5455SOL    HW128001   2.483   2.947  13.306  1.7892 -0.5576  0.2802
 5455SOL    HW228002   2.449   3.041  13.406 -1.9266 -0.1937  2.7029
 5456SOL     OW28003   3.176   2.173   4.649  0.4494 -0.3854 -0.5250
 5456SOL    HW128004   3.081   2.167   4.646  0.3298  1.0647  0.3411
 5456SOL    HW228005   3.199   2.080   4.647  1.4195 -0.0848 -2.9368
 5457SOL     OW28006   0.053   4.346   0.336 -0.0964  0.4570  0.4997
 5457SOL    HW128007   0.026   4.438   0.325 -0.9555  0.2288  0.6688
 5457SOL    HW228008   0.137   4.343   0.381 -1.4310  1.2975  3.0369
 5458SOL     OW28009   4.562   3.900   2.205 -0.1243 -0.5092  0.1809
 5458SOL    HW128010   4.621   3.827   2.186  0.2120  0.5890 -2.9915
 5458SOL    HW228011   4.518   3.907   2.120 -1.6332 -0.1110  0.9998
 5459SOL     OW28012   3.249   0.445   4.868  0.0166 -0.0783 -0.2041
 5459SOL    HW128013   3.171   0.390   4.868  2.3632 -3.3964 -1.3490
 5459SOL    HW228014   3.234   0.493   4.950 -0.5272 -0.7421  0.0769
 5460SOL     OW28015   0.753   1.881  10.240  0.6707  0.0889  0.4510
 5460SOL    HW128016   0.811   1.940  10.289 -0.3869  0.2279  1.5287
 5460SOL    HW228017   0.684   1.947  10.243 -0.5763 -1.0780 -2.0542
 5461SOL     OW28018   3.982   1.770   5.149  0.0728 -0.1546 -0.5850
 5461SOL    HW128019   3.972   1.681   5.181  1.3243 -0.2482 -0.4698
 5461SOL    HW228020   3.891   1.800   5.154  0.2929  0.2755  0.6818
 5462SOL     OW28021   4.151   3.237   0.082 -0.5340 -0.2004  0.4024
 5462SOL    HW128022   4.075   3.188   0.114  0.4366 -0.8797  1.6750
 5462SOL    HW228023   4.113   3.234  17.743 -1.7251 -2.3527  0.9950
 5463SOL     OW28024   3.846   1.884   4.357  0.0562  0.4761  0.2864
 5463SOL    HW128025   3.816   1.931   4.434 -1.4059  1.9147 -1.1604
 5463SOL    HW228026   3.900   1.816   4.398 -2.2515 -0.6302  1.4634
 5464SOL     OW28027   0.719   2.028   5.482  0.3736 -0.1696 -0.3672
 5464SOL    HW128028   0.724   2.120   5.508 -0.8392  0.4099 -2.1651
 5464SOL    HW228029   0.808   1.995   5.471  0.1340 -0.9957  0.1506
 5465SOL     OW28030   1.957   1.965  11.679 -0.2805 -0.2756 -0.5251
 5465SOL    HW128031   1.978   2.047  11.634 -0.9782  1.2761  1.9417
 5465SOL    HW228032   1.877   1.978  11.731  2.0499 -1.6623  3.3967
 5466SOL     OW28033   2.028   0.401  16.262 -0.2762  0.4936  0.6827
 5466SOL    HW128034   1.982   0.450  16.195  2.1452  1.7493 -0.0637
 5466SOL    HW228035   1.957   0.356  16.307  1.2531 -1.8816  0.7620
 5467SOL     OW28036   3.531   3.321   6.303  0.8323 -0.1109  0.2828
 5467SOL    HW128037   3.447   3.346   6.343 -1.4964 -1.1423 -4.0569
 5467SOL    HW228038   3.562   3.407   6.275  0.9624 -0.4414 -0.5837
 5468SOL     OW28039   2.889   4.660   3.306  0.1487 -0.0260  0.0382
 5468SOL    HW128040   2.959   4.664   3.371  2.6850  1.7703 -2.8119
 5468SOL    HW228041   2.814   4.653   3.366 -0.5098 -1.0028 -0.9121
 5469SOL     OW28042   2.471   1.485   9.586 -0.0703 -0.4449 -0.2414
 5469SOL    HW128043   2.381   1.459   9.604 -0.2689  0.0026 -0.5966
 5469SOL    HW228044   2.500   1.414   9.528 -0.5334 -0.0622 -0.9478
 5470SOL     OW28045   3.637   4.306   7.356  0.6444  0.0131 -0.2337
 5470SOL    HW128046   3.674   4.226   7.321  0.3976  1.1614 -3.0897
 5470SOL    HW228047   3.658   4.369   7.288  0.8001  0.2764  0.0587
 5471SOL     OW28048   2.792   2.276  11.505  0.0919  0.3526 -0.2976
 5471SOL    HW128049   2.853   2.225  11.558 -1.0375 -0.9242 -0.2239
 5471SOL    HW228050   2.746   2.314  11.580  0.6050 -0.0272  0.2099
 5472SOL     OW28051   4.433   3.664   4.071 -0.3328 -0.1771  0.1124
 5472SOL    HW128052   4.376   3.739   4.052  1.2431  0.7194 -1.0701
 5472SOL    HW228053   4.373   3.598   4.106  1.4458 -1.3691  0.8994
 5473SOL     OW28054   1.807   0.758   2.468 -0.0185  0.0208  0.0837
 5473SOL    HW128055   1.887   0.796   2.505  0.8368 -1.3810 -0.3219
 5473SOL    HW228056   1.857   0.722   2.395  0.1978  1.5583 -0.5294
 5474SOL     OW28057   0.714   3.083   4.547  0.2473 -0.0876  0.3123
 5474SOL    HW128058   0.712   3.076   4.451 -2.0691  1.1248  0.2553
 5474SOL    HW228059   0.666   3.165   4.559  1.1916  0.3971  0.7486
 5475SOL     OW28060   0.603   3.476   2.921  0.1769 -0.1370  0.2640
 5475SOL    HW128061   0.688   3.432   2.918  0.1488 -0.1673 -0.1944
 5475SOL    HW228062   0.556   3.413   2.866  1.3324 -0.0058 -0.8775
 5476SOL     OW28063   1.454   2.445   3.019  0.1466 -0.4425  0.3881
 5476SOL    HW128064   1.548   2.438   3.004 -0.0187 -1.0312 -0.3830
 5476SOL    HW228065   1.414   2.359   3.008 -0.4035  0.0657 -1.7291
 5477SOL     OW28066   4.045   2.825   4.428 -0.8522  0.2675  0.3063
 5477SOL    HW128067   3.962   2.813   4.382  0.2500  1.4165 -1.9618
 5477SOL    HW228068   4.021   2.855   4.516 -0.3698  1.0547  0.1693
 5478SOL     OW28069   3.623   0.472   5.836  0.0758 -0.3788 -0.0058
 5478SOL    HW128070   3.619   0.378   5.816  0.7690  0.0295 -2.0627
 5478SOL    HW228071   3.636   0.469   5.930  0.7501 -1.1057 -0.1234
 5479SOL     OW28072   0.655   0.702   5.475  0.3991 -0.3875 -0.1335
 5479SOL    HW128073   0.625   0.754   5.550 -1.6874 -0.3123 -1.0344
 5479SOL    HW228074   0.596   0.748   5.416  1.2215 -0.0854 -0.7223
 5480SOL     OW28075   0.603   2.567   8.521 -0.1087 -0.7604 -0.9255
 5480SOL    HW128076   0.677   2.628   8.530 -0.0618 -0.9475  0.0119
 5480SOL    HW228077   0.642   2.481   8.503 -1.5847 -1.6645  0.2600
 5481SOL     OW28078   1.747   4.377  14.276 -0.1917  0.1047  0.6841
 5481SOL    HW128079   1.769   4.443  14.211 -1.2530  1.0157  1.2571
 5481SOL    HW228080   1.652   4.369  14.263  0.0230 -0.9647 -0.2352
 5482SOL     OW28081   3.776   3.210   6.442  0.6010  0.0796 -0.5137
 5482SOL    HW128082   3.704   3.250   6.393 -0.0864 -0.3477  0.1658
 5482SOL    HW228083   3.753   3.118   6.446  1.4875 -0.0739  1.1953
 5483SOL     OW28084   2.523   0.574  12.772  0.7060  0.1122 -0.6591
 5483SOL    HW128085   2.517   0.512  12.845  0.1320 -1.4396 -2.0147
 5483SOL    HW228086   2.615   0.556  12.749  0.8873 -0.0234  0.1859
 5484SOL     OW28087   1.061   1.760   0.407  0.0690  0.2681 -0.3044
 5484SOL    HW128088   1.114   1.740   0.484 -3.0069 -2.1606  1.1659
 5484SOL    HW228089   0.994   1.692   0.415  1.6701 -1.0537  1.7387
 5485SOL     OW28090   4.139   3.426   6.866 -0.3889  0.4149 -0.2891
 5485SOL    HW128091   4.063   3.383   6.826 -1.1600  3.6776 -2.3734
 5485SOL    HW228092   4.090   3.460   6.940  0.4445  0.5819  0.1814
 5486SOL     OW28093   4.601   1.651   9.672 -0.4652 -0.1045 -0.6070
 5486SOL    HW128094   4.625   1.623   9.760 -1.5144  0.5799 -0.1103
 5486SOL    HW228095   4.520   1.600   9.666 -0.9580  0.9429 -3.0350
 5487SOL     OW28096   0.049   3.318   9.074 -0.0672  0.4049  0.1371
 5487SOL    HW128097   0.123   3.378   9.071 -1.0247  1.6343  0.9031
 5487SOL    HW228098   0.012   3.328   8.986 -1.5720 -0.2994  0.6878
 5488SOL     OW28099   3.382   0.781  10.440 -0.1745 -0.1121 -0.1369
 5488SOL    HW128100   3.451   0.725  10.475 -0.6755  0.4762  1.7608
 5488SOL    HW228101   3.307   0.735  10.476 -1.4536  1.7284 -0.4171
 5489SOL     OW28102   4.193   0.588   0.904 -0.1349  0.4107  0.4211
 5489SOL    HW128103   4.131   0.523   0.870  0.7517 -0.3606  0.2624
 5489SOL    HW228104   4.254   0.605   0.832 -0.6156 -2.4675 -0.6763
 5490SOL     OW28105   4.051   2.579   6.363  0.0208  0.4137 -0.8855
 5490SOL    HW128106   4.082   2.511   6.423  0.2821  0.4828 -0.9393
 5490SOL    HW228107   4.067   2.657   6.416 -0.6705 -0.7298  1.0062
 5491SOL     OW28108   4.513   4.228   5.318  0.8387 -0.0791  0.2772
 5491SOL    HW128109   4.560   4.254   5.398  1.0788 -1.4962  0.5948
 5491SOL    HW228110   4.562   4.148   5.296  0.2809 -0.7974  1.6582
 5492SOL     OW28111   2.974   1.158  15.655  0.3560 -0.5409  0.4971
 5492SOL    HW128112   3.064   1.157  15.686  0.5567  1.0030 -0.0191
 5492SOL    HW228113   2.931   1.140  15.739  0.0943  0.7380  0.6416
 5493SOL     OW28114   3.233   1.068   6.138 -0.1318 -0.0435  0.5048
 5493SOL    HW128115   3.234   1.132   6.209 -3.6549 -0.0616  0.5678
 5493SOL    HW228116   3.206   0.985   6.178 -0.7779  0.6478  1.4946
 5494SOL     OW28117   1.866   4.522   1.630 -0.2604  0.1756  0.1130
 5494SOL    HW128118   1.818   4.604   1.643  0.7371  0.8205 -0.2825
 5494SOL    HW228119   1.854   4.476   1.713 -1.0713  3.2038  1.6838
 5495SOL     OW28120   1.764   0.138   9.058 -0.0384 -0.0358 -0.0377
 5495SOL    HW128121   1.762   0.069   8.992 -1.4843 -0.1888  0.1697
 5495SOL    HW228122   1.764   0.087   9.140  0.5538 -1.7476 -1.0951
 5496SOL     OW28123   0.851   1.731   7.624  0.2427 -0.0637  0.5519
 5496SOL    HW128124   0.812   1.802   7.572 -0.5349 -1.6742 -1.0915
 5496SOL    HW228125   0.901   1.789   7.680  0.0334 -0.5576  1.2428
 5497SOL     OW28126   2.455   3.421  15.834 -0.0888 -0.1085 -0.0650
 5497SOL    HW128127   2.521   3.423  15.903 -0.0852 -1.3269 -0.0365
 5497SOL    HW228128   2.510   3.440  15.758  1.4217  0.8716  1.2760
 5498SOL     OW28129   2.040   1.484   3.543 -0.7520 -0.0896  0.1469
 5498SOL    HW128130   2.089   1.566   3.549 -0.0198 -0.6095  1.4352
 5498SOL    HW228131   2.074   1.448   3.462 -3.8280 -1.3797 -0.5470
 5499SOL     OW28132   0.291   0.704   9.910  0.2294  0.3898 -0.0962
 5499SOL    HW128133   0.212   0.758   9.914  1.9870  3.0416 -0.7894
 5499SOL    HW228134   0.330   0.720   9.996  0.6467  2.0337 -0.5799
 5500SOL     OW28135   0.455   0.379  10.585 -0.3052  0.7256 -0.2338
 5500SOL    HW128136   0.526   0.337  10.633 -1.8814 -0.4774  1.0315
 5500SOL    HW228137   0.459   0.348  10.495 -3.2994  3.1623 -1.2247
 5501SOL     OW28138   0.225   2.509   4.967  0.2813  0.0601  0.7289
 5501SOL    HW128139   0.303   2.531   5.018 -0.1745  1.1593  0.9476
 5501SOL    HW228140   0.253   2.542   4.882  1.9723 -2.2730  0.3860
 5502SOL     OW28141   1.044   1.102   6.787  0.1469  0.2005  0.1403
 5502SOL    HW128142   0.956   1.139   6.790  0.2801  0.7573 -2.7447
 5502SOL    HW228143   1.068   1.095   6.695 -0.5188 -1.2878  0.0796
 5503SOL     OW28144   0.685   0.960   6.963  0.4139 -0.4647  0.0896
 5503SOL    HW128145   0.591   0.971   6.980  0.0780  0.4525 -2.3907
 5503SOL    HW228146   0.723   1.027   7.020 -0.5878  1.7760 -1.8327
 5504SOL     OW28147   3.907   2.676   2.032  0.3260  0.1945 -0.5194
 5504SOL    HW128148   3.841   2.613   2.003 -0.4640  0.3366  0.9928
 5504SOL    HW228149   3.850   2.733   2.083  0.2019 -1.8924  1.6946
 5505SOL     OW28150   2.341   4.359   0.522 -0.2541  0.2697  0.1290
 5505SOL    HW128151   2.428   4.323   0.542 -0.5379 -0.9736 -0.8671
 5505SOL    HW228152   2.331   4.406   0.605 -1.2986  0.1961  0.0480
 5506SOL     OW28153   3.370   2.036   4.196  0.4572 -0.1944 -0.0275
 5506SOL    HW128154   3.389   2.072   4.283  0.4637 -2.3408  0.8658
 5506SOL    HW228155   3.278   2.057   4.181 -0.0878 -2.3873  0.2255
 5507SOL     OW28156   0.267   1.206   2.042 -0.4867  0.3314  0.2546
 5507SOL    HW128157   0.201   1.245   1.983  0.5678  0.2279 -0.9969
 5507SOL    HW228158   0.229   1.224   2.128  0.1533 -2.6131  1.1269
 5508SOL     OW28159   3.524   3.166   9.834  0.2648 -0.5129 -0.3119
 5508SOL    HW128160   3.531   3.071   9.842 -1.9692 -0.5937  0.6130
 5508SOL    HW228161   3.472   3.170   9.754  1.0494  1.0147 -0.7544
 5509SOL     OW28162   2.339   2.255   7.827  0.2293 -0.1470  0.3115
 5509SOL    HW128163   2.333   2.226   7.736 -0.8083 -1.0251  0.6492
 5509SOL    HW228164   2.372   2.343   7.811 -1.9257  0.7693  0.7800
 5510SOL     OW28165   4.251   3.913  14.481 -0.2505 -0.0346  0.1982
 5510SOL    HW128166   4.341   3.893  14.508 -0.8481 -2.8834  0.0607
 5510SOL    HW228167   4.260   3.985  14.419  0.1927 -0.5244 -0.3060
 5511SOL     OW28168   1.179   3.430  11.903 -0.5878  0.4574 -0.2529
 5511SOL    HW128169   1.246   3.471  11.958  1.1603 -0.5125 -1.6713
 5511SOL    HW228170   1.109   3.420  11.968 -1.5298  0.5210 -1.2545
 5512SOL     OW28171   2.067   1.849  15.055 -0.8621  0.4842 -0.1009
 5512SOL    HW128172   2.019   1.910  15.110  0.7000 -0.0499  1.8678
 5512SOL    HW228173   2.136   1.826  15.117 -1.2651 -1.8705 -0.5387
 5513SOL     OW28174   1.588   1.223   5.291  0.0073 -0.0094 -0.0548
 5513SOL    HW128175   1.644   1.295   5.264  1.6748 -1.5270 -0.6797
 5513SOL    HW228176   1.561   1.251   5.379 -0.0946 -3.0940  0.9017
 5514SOL     OW28177   4.284   3.431   8.485  0.0730  0.4215  0.0803
 5514SOL    HW128178   4.216   3.363   8.481  0.0517  0.6150 -2.8483
 5514SOL    HW228179   4.230   3.510   8.482  2.8054  2.2030 -2.1984
 5515SOL     OW28180   2.158   0.306  16.478 -0.4222  0.2729 -0.4924
 5515SOL    HW128181   2.135   0.349  16.396  0.4902  1.2852 -0.2338
 5515SOL    HW228182   2.071   0.272  16.499 -0.1980  0.3681  0.6264
 5516SOL     OW28183   4.248   2.212   6.382  0.4155  0.1436  0.4170
 5516SOL    HW128184   4.229   2.120   6.400 -0.4866  0.6925  2.2773
 5516SOL    HW228185   4.318   2.214   6.318  0.5038 -0.4687  0.5003
 5517SOL     OW28186   4.311   3.336   8.824 -0.2689 -0.5668 -0.2993
 5517SOL    HW128187   4.266   3.363   8.744 -1.8968  0.3716  0.9406
 5517SOL    HW228188   4.240   3.334   8.887  1.4781 -1.0786  1.6357
 5518SOL     OW28189   4.637   3.438  13.893 -0.1227 -0.1248  0.3827
 5518SOL    HW128190   4.556   3.414  13.847  1.1541 -0.7048 -1.5447
 5518SOL    HW228191   4.678   3.355  13.916  3.5618  1.7958  0.6267
 5519SOL     OW28192   2.724   2.886  11.411 -0.8917 -1.0642  0.1848
 5519SOL    HW128193   2.779   2.866  11.487  0.6392  1.4864 -0.2300
 5519SOL    HW228194   2.778   2.861  11.337  0.9576 -2.9596  2.1815
 5520SOL     OW28195   4.711   0.958   7.645 -0.0586  0.3328  0.2502
 5520SOL    HW128196   0.002   0.941   7.734 -0.0114 -1.2000 -0.0446
 5520SOL    HW228197   4.657   0.881   7.630  0.4002  0.2816 -1.1964
 5521SOL     OW28198   3.979   4.082   5.253 -0.5960  0.0068  0.1160
 5521SOL    HW128199   3.968   4.165   5.300  5.1520  0.6494  0.2825
 5521SOL    HW228200   4.038   4.111   5.183  0.2683  0.5710  1.0801
 5522SOL     OW28201   1.872   0.396   0.100  0.0094 -0.2807 -0.0671
 5522SOL    HW128202   1.964   0.374   0.091  0.1399  0.8867 -1.5334
 5522SOL    HW228203   1.875   0.457   0.027 -2.9028 -0.0792 -0.0326
 5523SOL     OW28204   2.720   0.579   3.678  0.6537 -0.4508 -0.0264
 5523SOL    HW128205   2.717   0.644   3.749  1.2842 -0.9681  0.4790
 5523SOL    HW228206   2.633   0.540   3.669 -0.4779  2.2103 -0.6011
 5524SOL     OW28207   0.633   1.225   5.776 -0.1629  0.2683 -0.2783
 5524SOL    HW128208   0.706   1.212   5.716 -0.5314  0.5325 -0.7878
 5524SOL    HW228209   0.564   1.187   5.722 -0.8303  2.8678 -1.2600
 5525SOL     OW28210   4.235   1.538   6.958 -0.3917  0.3872 -0.3766
 5525SOL    HW128211   4.311   1.511   6.906  0.1436 -0.8341  1.0356
 5525SOL    HW228212   4.286   1.520   7.037 -2.3950  1.0959  1.0613
 5526SOL     OW28213   0.414   3.652   5.677  0.5656  0.4397 -0.0774
 5526SOL    HW128214   0.371   3.583   5.627  1.2022  0.3377 -0.4884
 5526SOL    HW228215   0.462   3.693   5.604 -2.1245  1.8384 -1.0592
 5527SOL     OW28216   0.645   3.801   1.954 -0.0233 -0.4622  0.1791
 5527SOL    HW128217   0.634   3.713   1.919  0.9377 -0.6013  0.2147
 5527SOL    HW228218   0.708   3.785   2.024  2.3486  1.4955 -1.5251
 5528SOL     OW28219   2.624   0.263   7.634  0.2818  0.1276  0.5773
 5528SOL    HW128220   2.677   0.275   7.713  0.3412  0.3490  0.5026
 5528SOL    HW228221   2.537   0.289   7.664  0.1988 -1.9047  2.0545
 5529SOL     OW28222   3.463   0.698   5.493 -0.1277  0.0644 -0.2450
 5529SOL    HW128223   3.468   0.759   5.419 -0.7279  0.8716  0.3926
 5529SOL    HW228224   3.557   0.678   5.503  0.1174  1.3966  0.0634
 5530SOL     OW28225   3.097   0.856  12.265  0.1122 -0.0307  0.1632
 5530SOL    HW128226   3.158   0.883  12.196  2.1141 -1.0913  1.5181
 5530SOL    HW228227   3.083   0.762  12.261  0.7417 -0.1514  0.7651
 5531SOL     OW28228   0.294   1.747  13.567  0.0059 -0.2427  0.3618
 5531SOL    HW128229   0.204   1.750  13.597  0.4059  0.7055  1.4765
 5531SOL    HW228230   0.281   1.666  13.517 -0.7252 -0.5260  1.0079
 5532SOL     OW28231   4.246   1.953  12.138  0.5009  0.0760  0.1143
 5532SOL    HW128232   4.309   1.910  12.196  0.0438 -2.1363 -1.0604
 5532SOL    HW228233   4.262   2.048  12.139 -0.9524  0.3243 -0.5814
 5533SOL     OW28234   1.377   0.496   6.023  0.0983 -0.1404 -0.7420
 5533SOL    HW128235   1.354   0.505   5.931 -0.9300  0.2746 -0.4438
 5533SOL    HW228236   1.288   0.505   6.057  0.4718 -1.4351  0.5739
 5534SOL     OW28237   1.780   4.362   6.465 -0.4624 -0.4817 -0.1143
 5534SOL    HW128238   1.824   4.444   6.489 -0.4211 -0.8442  1.0565
 5534SOL    HW228239   1.849   4.323   6.411  0.5783  0.3947  0.5812
 5535SOL     OW28240   0.760   2.213   2.316 -0.2303 -0.0032 -0.4632
 5535SOL    HW128241   0.694   2.255   2.261  0.4594  0.8745 -0.6004
 5535SOL    HW228242   0.786   2.149   2.249 -0.2603  0.8869 -1.3332
 5536SOL     OW28243   3.116   3.103   8.565 -0.6092 -0.2953  0.4994
 5536SOL    HW128244   3.088   3.118   8.656 -2.1637 -0.3353  0.0211
 5536SOL    HW228245   3.190   3.164   8.557 -0.9533  0.1943  1.0663
 5537SOL     OW28246   3.391   1.882   7.931  0.3123 -0.6805 -1.1231
 5537SOL    HW128247   3.372   1.793   7.901 -1.9797 -0.0081 -1.6894
 5537SOL    HW228248   3.394   1.859   8.023  2.3136  1.0348 -0.7554
 5538SOL     OW28249   2.495   2.771   8.056 -0.2772 -0.1658  0.0792
 5538SOL    HW128250   2.406   2.744   8.077  0.3541 -1.0509  1.6042
 5538SOL    HW228251   2.479   2.772   7.961  1.0165  2.2269 -0.1198
 5539SOL     OW28252   3.306   3.558   8.119  0.0602  0.2716 -0.5542
 5539SOL    HW128253   3.264   3.600   8.194  1.4934  1.2555 -0.3037
 5539SOL    HW228254   3.250   3.565   8.041 -1.4859  2.0862  0.7073
 5540SOL     OW28255   3.120   4.031   1.662 -0.5555 -0.3817  0.2346
 5540SOL    HW128256   3.027   4.048   1.678 -0.3657  0.4974  0.3893
 5540SOL    HW228257   3.152   4.113   1.624 -0.9379 -1.3323 -2.1427
 5541SOL     OW28258   1.023   3.225   1.706  0.3570 -0.3590  0.0295
 5541SOL    HW128259   1.015   3.311   1.665  0.4273  0.3746  1.5551
 5541SOL    HW228260   1.012   3.244   1.799 -1.8706 -0.8040 -0.1509
 5542SOL     OW28261   0.932   0.771   5.396  0.0771 -0.3820  0.7472
 5542SOL    HW128262   0.859   0.724   5.436  0.6744 -1.2860  0.7901
 5542SOL    HW228263   0.881   0.850   5.381 -0.8565 -1.5850 -2.4144
 5543SOL     OW28264   0.770   3.718  10.719 -0.1274  0.4951  0.2621
 5543SOL    HW128265   0.752   3.675  10.635  0.7929 -0.1109  0.3711
 5543SOL    HW228266   0.779   3.808  10.689 -1.0483  1.2282  2.1992
 5544SOL     OW28267   1.946   1.614   7.173  0.0975  0.3581  0.2188
 5544SOL    HW128268   1.994   1.686   7.132  2.5456 -2.0980 -1.2496
 5544SOL    HW228269   1.868   1.615   7.118  0.1378 -0.5746  0.1406
 5545SOL     OW28270   0.811   3.649  15.961 -0.5311 -0.1479  0.2106
 5545SOL    HW128271   0.740   3.713  15.959  0.7749  1.2256 -1.5582
 5545SOL    HW228272   0.772   3.591  16.027 -0.1496 -0.4366  0.1832
 5546SOL     OW28273   2.740   1.572   6.329 -0.1243  0.4736  0.0260
 5546SOL    HW128274   2.689   1.632   6.383  0.3029 -0.7400  1.7966
 5546SOL    HW228275   2.810   1.628   6.296 -2.4170  1.3384 -3.3194
 5547SOL     OW28276   2.274   2.404  10.486 -0.1757  0.4386  0.2209
 5547SOL    HW128277   2.237   2.488  10.458  2.0408  0.9491 -1.1516
 5547SOL    HW228278   2.264   2.353  10.406  0.4085  0.4307  0.1587
 5548SOL     OW28279   2.124   3.463   5.817 -0.3391  0.4740  0.3149
 5548SOL    HW128280   2.029   3.453   5.806  0.0351 -0.9637 -1.6098
 5548SOL    HW228281   2.152   3.401   5.883  0.3703 -0.3584 -0.7698
 5549SOL     OW28282   1.555   0.514  15.729 -0.1207  0.5465 -0.1117
 5549SOL    HW128283   1.466   0.512  15.763 -0.8333 -2.1088 -2.2010
 5549SOL    HW228284   1.526   0.546  15.644  0.7111  0.0002 -0.5977
 5550SOL     OW28285   0.526   1.424  10.200  0.2386 -0.1235  0.1191
 5550SOL    HW128286   0.478   1.450  10.121 -0.6793  0.0243  0.7195
 5550SOL    HW228287   0.596   1.488  10.203  0.4285 -0.2851 -1.0372
 5551SOL     OW28288   0.336   0.801   0.564  0.4962  0.2440  0.5628
 5551SOL    HW128289   0.429   0.825   0.568  0.5366  0.1237  0.3570
 5551SOL    HW228290   0.336   0.706   0.558 -1.3181  0.3304 -0.7635
 5552SOL     OW28291   3.674   4.376   6.626  0.8073  0.6810  0.4207
 5552SOL    HW128292   3.700   4.450   6.572  1.5919 -0.2834 -0.5255
 5552SOL    HW228293   3.709   4.403   6.711 -1.8654 -1.8044  2.3537
 5553SOL     OW28294   4.200   1.301   3.313  0.1244 -0.5432 -0.6722
 5553SOL    HW128295   4.271   1.308   3.249 -0.2005  0.3067 -0.9508
 5553SOL    HW228296   4.227   1.215   3.346 -1.3606 -1.9665 -3.1793
 5554SOL     OW28297   1.809   0.309  16.424  0.3127  0.4295  0.5836
 5554SOL    HW128298   1.745   0.374  16.453  0.9039  2.6016 -3.0777
 5554SOL    HW228299   1.815   0.255  16.503 -1.3357 -1.1719 -0.3753
 5555SOL     OW28300   3.702   1.402  15.311 -0.0075  0.1237  0.2925
 5555SOL    HW128301   3.772   1.338  15.328  1.5871  1.9738  0.6262
 5555SOL    HW228302   3.722   1.477  15.367  0.5502 -0.6460  1.1485
 5556SOL     OW28303   3.815   3.726   2.364  0.3256  0.2031  0.2928
 5556SOL    HW128304   3.815   3.810   2.318  0.5651 -0.4660 -0.9321
 5556SOL    HW228305   3.908   3.705   2.374  0.1863 -1.6089 -2.2291
 5557SOL     OW28306   2.606   1.772  14.024 -0.1231  0.5424  0.3807
 5557SOL    HW128307   2.638   1.757  14.113 -0.1168  0.0873  0.3012
 5557SOL    HW228308   2.596   1.683  13.991  0.2221  1.6708 -2.8053
 5558SOL     OW28309   4.410   4.148   3.899  0.1532  0.1631 -0.0254
 5558SOL    HW128310   4.428   4.163   3.806  2.1553 -0.0381  0.3361
 5558SOL    HW228311   4.352   4.073   3.884  1.2447 -0.5977 -0.4781
 5559SOL     OW28312   2.406   4.021  10.145 -0.2476 -0.1256 -0.0124
 5559SOL    HW128313   2.385   3.958  10.214 -0.1065 -0.4359 -0.2527
 5559SOL    HW228314   2.483   4.065  10.179  1.5902 -1.7290 -2.1195
 5560SOL     OW28315   0.705   1.633   3.080  0.2237 -0.3007  0.8096
 5560SOL    HW128316   0.714   1.591   3.165 -1.5708 -1.3159  0.5124
 5560SOL    HW228317   0.787   1.679   3.063  1.0156 -2.8068 -2.2295
 5561SOL     OW28318   3.574   3.873  15.227  0.5933  0.2220 -0.2131
 5561SOL    HW128319   3.494   3.918  15.199  0.1903 -0.8142 -0.7232
 5561SOL    HW228320   3.623   3.951  15.254 -0.5305  0.2007  1.8931
 5562SOL     OW28321   1.462   0.402   8.356 -0.0531 -0.0492 -0.5522
 5562SOL    HW128322   1.475   0.462   8.430 -1.7153  0.5046 -0.7177
 5562SOL    HW228323   1.534   0.422   8.296  0.9641 -2.6673 -0.1856
 5563SOL     OW28324   0.404   1.154   7.617  0.4111 -0.2205 -0.2512
 5563SOL    HW128325   0.485   1.108   7.594 -0.0575 -0.7665 -0.8061
 5563SOL    HW228326   0.361   1.088   7.672  0.3017  1.4478  1.6542
 5564SOL     OW28327   3.176   1.983   3.842 -0.5488 -0.6232 -0.3578
 5564SOL    HW128328   3.157   2.011   3.752 -0.4848  0.3871 -0.0661
 5564SOL    HW228329   3.263   2.022   3.850 -0.7469 -0.6703  2.1113
 5565SOL     OW28330   3.823   2.654   5.910  0.3305  0.4972  0.2830
 5565SOL    HW128331   3.899   2.596   5.916 -0.6210 -0.6747  1.2894
 5565SOL    HW228332   3.759   2.613   5.852 -1.2382  0.7148  1.8639
 5566SOL     OW28333   0.181   2.765  16.908  0.2158 -0.3324 -0.2105
 5566SOL    HW128334   0.109   2.828  16.898 -0.4626 -1.3015 -1.3607
 5566SOL    HW228335   0.228   2.808  16.980 -0.1385  1.0421 -0.7912
 5567SOL     OW28336   2.019   2.854   2.477 -0.0006 -0.3066  0.1997
 5567SOL    HW128337   1.970   2.875   2.556 -0.4063  2.6373 -0.8146
 5567SOL    HW228338   1.984   2.921   2.419 -0.6173 -0.7379  0.0768
 5568SOL     OW28339   1.625   3.658  12.299  0.1289  0.6050 -0.1764
 5568SOL    HW128340   1.570   3.724  12.258  1.3477  1.5951 -0.1971
 5568SOL    HW228341   1.571   3.581  12.283  4.8591 -2.8297  0.2346
 5569SOL     OW28342   4.611   1.513  15.004 -0.2899  0.1030 -0.6182
 5569SOL    HW128343   4.665   1.475  14.935  2.3829  0.3840  1.3232
 5569SOL    HW228344   4.578   1.431  15.043 -2.2921  0.3982 -1.6911
 5570SOL     OW28345   0.614   4.058  11.892 -0.4353  0.2652  0.1462
 5570SOL    HW128346   0.683   3.992  11.885 -0.0947  0.5969  0.4341
 5570SOL    HW228347   0.561   4.044  11.813  1.7614  0.1179 -1.3011
 5571SOL     OW28348   3.307   2.906   9.484 -0.3430 -0.1394 -0.3536
 5571SOL    HW128349   3.287   2.940   9.397 -0.5271 -0.2234 -0.3448
 5571SOL    HW228350   3.359   2.830   9.458  0.7704  0.5793 -0.2418
 5572SOL     OW28351   3.853   2.265   9.032  0.3511  0.2256  0.2128
 5572SOL    HW128352   3.887   2.179   9.008  0.6145  0.3150  0.2668
 5572SOL    HW228353   3.760   2.247   9.019  0.3118 -0.2348  1.1461
 5573SOL     OW28354   3.232   2.467   8.040 -0.4947  0.2067  0.2329
 5573SOL    HW128355   3.172   2.399   8.011 -0.0181 -0.1388  0.0597
 5573SOL    HW228356   3.291   2.469   7.965 -0.8066  0.1163 -0.0136
 5574SOL     OW28357   0.197   1.192   8.996 -0.4898 -0.6018 -0.1232
 5574SOL    HW128358   0.234   1.233   9.074  0.8038 -1.8255 -0.0930
 5574SOL    HW228359   0.142   1.124   9.035  1.6026 -2.2793 -0.1476
 5575SOL     OW28360   1.734   3.423   1.468 -0.0861  0.2831 -0.4824
 5575SOL    HW128361   1.737   3.432   1.373  0.0393  2.2032 -0.2958
 5575SOL    HW228362   1.811   3.366   1.474  0.4482  1.1193  0.5747
 5576SOL     OW28363   0.556   0.973   8.400 -0.2150  0.1247 -0.7005
 5576SOL    HW128364   0.511   0.967   8.315 -0.1957 -0.1594 -0.6913
 5576SOL    HW228365   0.513   1.049   8.438  1.4135 -0.4510  2.2814
 5577SOL     OW28366   2.037   0.621   6.852 -0.7353  0.2084 -0.3284
 5577SOL    HW128367   2.056   0.553   6.787  0.2386 -0.4315  0.6203
 5577SOL    HW228368   2.070   0.577   6.931  1.1064  0.9259 -0.7050
 5578SOL     OW28369   1.424   2.136   6.068 -0.2500  0.2444 -0.0832
 5578SOL    HW128370   1.507   2.168   6.103 -0.2246 -0.6086  0.6349
 5578SOL    HW228371   1.360   2.206   6.086 -0.6277 -0.2592  0.5593
 5579SOL     OW28372   4.088   4.281  17.010  0.0125 -0.2083 -0.5918
 5579SOL    HW128373   4.036   4.283  16.929 -1.3735 -2.2886  0.2640
 5579SOL    HW228374   4.050   4.359  17.052 -1.6091 -1.4055  0.1416
 5580SOL     OW28375   3.841   2.060   4.566 -0.2350 -0.2016  0.2628
 5580SOL    HW128376   3.851   2.154   4.581  2.3988 -0.5590  0.8344
 5580SOL    HW228377   3.892   2.027   4.641  1.3778  1.5259 -0.0787
 5581SOL     OW28378   1.333   0.678   8.777  0.0122  0.0083  0.2190
 5581SOL    HW128379   1.391   0.681   8.853 -0.5115 -1.3570  0.6828
 5581SOL    HW228380   1.338   0.767   8.743  0.4916 -0.2150 -0.3051
 5582SOL     OW28381   3.686   3.201   8.172  0.5165 -0.4824  0.3169
 5582SOL    HW128382   3.636   3.283   8.173 -0.3884 -1.0765  2.5548
 5582SOL    HW228383   3.608   3.152   8.146  0.9107 -0.3887 -1.0325
 5583SOL     OW28384   2.686   4.682   5.528 -0.2480 -0.1828  0.8579
 5583SOL    HW128385   2.770   4.640   5.547 -1.3753 -3.6282 -1.7389
 5583SOL    HW228386   2.633   4.622   5.581  3.8169 -3.7253  0.9084
 5584SOL     OW28387   2.649   0.344   2.849 -0.1730 -0.0856  0.6134
 5584SOL    HW128388   2.610   0.261   2.821  0.3178 -0.9598  2.5874
 5584SOL    HW228389   2.624   0.416   2.790  0.3726  0.7455  1.4106
 5585SOL     OW28390   2.872   1.684   3.432 -0.1251  0.0894  0.2633
 5585SOL    HW128391   2.929   1.613   3.460 -0.5037 -1.9139 -3.9999
 5585SOL    HW228392   2.928   1.756   3.461  0.1933  0.1198 -0.4406
 5586SOL     OW28393   4.472   0.291   1.786 -0.4650  0.4682  0.0541
 5586SOL    HW128394   4.384   0.330   1.786 -0.5814  0.2160 -0.7512
 5586SOL    HW228395   4.512   0.356   1.843 -0.2240 -1.3770  1.9953
 5587SOL     OW28396   0.519   0.921  12.756  0.1410  0.4259 -0.1912
 5587SOL    HW128397   0.607   0.943  12.787  0.0710  0.5375 -0.0719
 5587SOL    HW228398   0.532   0.887  12.667 -0.3950 -1.3775  0.4324
 5588SOL     OW28399   0.279   1.297  15.577  0.2503 -0.1173 -0.2452
 5588SOL    HW128400   0.276   1.389  15.550  0.8291  0.7835  2.7487
 5588SOL    HW228401   0.348   1.259  15.523  0.2235 -0.0419 -0.3320
 5589SOL     OW28402   4.104   3.665   8.490 -0.1392  0.0463  0.2698
 5589SOL    HW128403   4.075   3.743   8.443  0.8426 -0.9559 -2.0366
 5589SOL    HW228404   4.134   3.706   8.571  0.1185 -0.9478  0.6742
 5590SOL     OW28405   3.090   1.244   9.324 -0.3067  0.4370 -0.3931
 5590SOL    HW128406   3.062   1.255   9.415 -0.8427 -2.4664 -0.1871
 5590SOL    HW228407   3.156   1.312   9.318 -1.4619  1.6964  1.3084
 5591SOL     OW28408   0.395   4.563  12.598 -1.0534  0.0714  0.2415
 5591SOL    HW128409   0.336   4.497  12.562 -1.4603  1.1907 -1.1043
 5591SOL    HW228410   0.356   4.567  12.686 -0.1530 -2.2969  0.7475
 5592SOL     OW28411   0.827   4.605   7.609  0.1837  0.9240  0.6347
 5592SOL    HW128412   0.883   4.553   7.667  0.3766  1.1687  0.6704
 5592SOL    HW228413   0.777   4.531   7.575  1.4858  0.4852 -0.3315
 5593SOL     OW28414   0.176   2.489   2.999 -0.3014 -0.1552 -0.2217
 5593SOL    HW128415   0.172   2.574   2.954 -3.3447 -0.7313 -1.0032
 5593SOL    HW228416   0.260   2.456   2.966  0.6555 -0.0003  2.0772
 5594SOL     OW28417   2.467   3.763  13.004 -0.4641  0.7754 -0.3826
 5594SOL    HW128418   2.479   3.685  12.950  1.8217  0.4201  0.6432
 5594SOL    HW228419   2.379   3.742  13.033 -1.0202  0.9488 -1.9230
 5595SOL     OW28420   0.159   3.580   6.355  0.4417 -0.3310  0.4727
 5595SOL    HW128421   0.095   3.650   6.340  0.3648 -0.2928  0.9989
 5595SOL    HW228422   0.098   3.508   6.338 -0.1044 -0.1447  1.6273
 5596SOL     OW28423   2.349   1.809   0.909  0.1667 -0.3433 -0.1459
 5596SOL    HW128424   2.344   1.715   0.926 -1.5751 -0.0157  1.0752
 5596SOL    HW228425   2.277   1.825   0.848 -0.2731 -2.6023 -0.2012
 5597SOL     OW28426   1.144   4.107  15.111 -0.0639  0.0292  0.0327
 5597SOL    HW128427   1.234   4.135  15.129 -0.4166  0.6418  0.8287
 5597SOL    HW228428   1.163   4.029  15.058 -0.4300  0.8369 -1.2970
 5598SOL     OW28429   4.726   1.229   5.996  0.1559  0.1981  0.0732
 5598SOL    HW128430   4.714   1.258   5.905  0.9076  0.8970  0.2038
 5598SOL    HW228431   0.082   1.213   5.994  0.3891  1.5254 -0.0415
 5599SOL     OW28432   0.723   1.669   9.397 -0.2632  0.2278  0.0007
 5599SOL    HW128433   0.694   1.605   9.463  0.4856  0.5212  0.6187
 5599SOL    HW228434   0.729   1.616   9.318 -0.2300  0.5029 -0.1794
 5600SOL     OW28435   2.883   3.487   9.752 -0.4479  0.2850 -0.2340
 5600SOL    HW128436   2.898   3.508   9.660  2.0337 -0.0925  0.0814
 5600SOL    HW228437   2.811   3.424   9.744  0.5787 -1.1535  1.6905
 5601SOL     OW28438   1.896   4.734   5.087 -0.4447 -0.5306 -0.0038
 5601SOL    HW128439   1.824   0.056   5.108  2.0946  1.6828  2.4603
 5601SOL    HW228440   1.883   4.735   4.993  1.8161 -0.7470 -0.3315
 5602SOL     OW28441   2.276   2.611   8.897 -0.3706 -0.1008  0.0437
 5602SOL    HW128442   2.339   2.659   8.843  0.2888 -1.9768 -0.8746
 5602SOL    HW228443   2.196   2.632   8.849 -0.6015 -0.1135  0.4242
 5603SOL     OW28444   2.009   3.739   6.202 -0.4336  0.0613 -0.3354
 5603SOL    HW128445   1.937   3.688   6.166 -0.2713 -1.6469  1.7929
 5603SOL    HW228446   2.037   3.791   6.126 -0.3747  0.0233 -0.3402
 5604SOL     OW28447   1.232   4.590  13.483  0.7649  0.4685  0.1757
 5604SOL    HW128448   1.229   4.518  13.419  0.3240 -0.2850  1.0411
 5604SOL    HW228449   1.150   4.575  13.529 -0.4210  1.7252 -1.5625
 5605SOL     OW28450   2.885   0.053   6.599  0.0904  0.2152  0.2287
 5605SOL    HW128451   2.852   4.729   6.665  0.1258 -1.6773 -1.5018
 5605SOL    HW228452   2.826   0.126   6.618 -0.0336  0.0184  0.6088
 5606SOL     OW28453   4.546   3.202   7.143 -0.4157  0.1425 -0.3823
 5606SOL    HW128454   4.477   3.259   7.176  0.3819  0.9593 -0.1246
 5606SOL    HW228455   4.509   3.115   7.134 -0.6859  0.3928 -1.7291
 5607SOL     OW28456   3.137   0.645  10.540 -0.6578  0.0463 -0.4263
 5607SOL    HW128457   3.142   0.589  10.463  0.9317 -0.7181  0.2292
 5607SOL    HW228458   3.048   0.680  10.536 -0.4459  0.5832 -0.4395
 5608SOL     OW28459   4.469   1.385  17.422  0.2321  0.5236 -0.0244
 5608SOL    HW128460   4.441   1.394  17.331 -0.1907 -1.4801 -0.0905
 5608SOL    HW228461   4.513   1.470  17.431 -0.5184  0.8363  0.6500
 5609SOL     OW28462   0.734   4.065   3.622 -0.1339  0.2909 -0.6854
 5609SOL    HW128463   0.650   4.038   3.586 -0.0721 -0.2629 -0.4114
 5609SOL    HW228464   0.772   4.077   3.535 -0.6953  2.9006 -0.5773
 5610SOL     OW28465   2.562   0.527   4.038  0.1450 -0.1070 -0.2255
 5610SOL    HW128466   2.504   0.558   3.969  0.4060  2.2859  0.6093
 5610SOL    HW228467   2.605   0.609   4.064  1.2962 -0.9586  0.5387
 5611SOL     OW28468   3.033   4.223   1.900 -0.6512  0.0521  0.2413
 5611SOL    HW128469   2.963   4.202   1.963  1.2441  0.0642  2.3362
 5611SOL    HW228470   2.989   4.174   1.831 -0.3482  0.9367 -0.5826
 5612SOL     OW28471   2.922   1.974  14.658  0.1669  0.6015 -0.2619
 5612SOL    HW128472   2.980   1.901  14.682  0.2725  0.5305 -0.7184
 5612SOL    HW228473   2.983   2.047  14.672 -1.4232  1.9832 -0.5714
 5613SOL     OW28474   3.282   1.145   8.419  0.3688 -0.0033  0.2953
 5613SOL    HW128475   3.249   1.058   8.395 -1.7144  0.5299  1.2359
 5613SOL    HW228476   3.375   1.124   8.434  0.2760 -1.3187 -0.9254
 5614SOL     OW28477   3.873   0.858   5.329 -0.5872  0.5776 -0.6550
 5614SOL    HW128478   3.796   0.879   5.277 -0.4967  0.1233 -0.9721
 5614SOL    HW228479   3.833   0.791   5.383  2.1253 -0.2187  0.3669
 5615SOL     OW28480   0.298   2.729   2.870 -0.3117 -0.2766  0.2191
 5615SOL    HW128481   0.246   2.772   2.802 -2.5436 -2.6156  0.4295
 5615SOL    HW228482   0.379   2.712   2.821 -1.6948 -2.2336 -1.4197
 5616SOL     OW28483   3.307   1.023  16.817  0.3362 -0.4206  0.4448
 5616SOL    HW128484   3.246   0.954  16.842  1.4867 -1.2820  0.9052
 5616SOL    HW228485   3.251   1.084  16.769  0.7448  0.1806  0.7289
 5617SOL     OW28486   0.410   4.518   2.815  0.0048  0.1266 -0.2521
 5617SOL    HW128487   0.324   4.478   2.808  0.8019 -1.6389  0.1961
 5617SOL    HW228488   0.384   4.607   2.841  0.4010  0.7817 -2.0836
 5618SOL     OW28489   3.134   1.244   4.633  0.1445  0.1027  0.1637
 5618SOL    HW128490   3.200   1.197   4.684  2.5417  3.0474 -0.1765
 5618SOL    HW228491   3.067   1.176   4.639 -0.5394  0.7399 -0.3136
 5619SOL     OW28492   4.117   0.147   9.676 -0.6636 -0.5599 -0.1103
 5619SOL    HW128493   4.152   0.196   9.602  1.3611 -2.1039 -0.1700
 5619SOL    HW228494   4.105   0.059   9.639  0.8216 -0.1665 -1.5120
 5620SOL     OW28495   4.447   1.270   9.076  0.2540  0.0886  0.2819
 5620SOL    HW128496   4.421   1.179   9.093 -0.8860  0.0677 -1.5666
 5620SOL    HW228497   4.486   1.263   8.989 -1.2029  1.1300 -0.4568
 5621SOL     OW28498   0.032   2.275   5.525 -0.0400  0.7911 -0.1066
 5621SOL    HW128499   4.699   2.211   5.533  0.9468 -0.3092 -0.1191
 5621SOL    HW228500   0.112   2.222   5.521  0.2028  1.0546  1.1569
 5622SOL     OW28501   1.572   4.586   1.464  0.0766 -0.0191 -0.0781
 5622SOL    HW128502   1.587   4.502   1.507  2.4324 -0.6296 -2.0712
 5622SOL    HW228503   1.604   4.647   1.531 -1.5429  1.0002 -0.2162
 5623SOL     OW28504   3.965   0.527   6.941  0.1062 -0.2289  0.2178
 5623SOL    HW128505   3.887   0.540   6.995  0.2701  2.0180 -0.1128
 5623SOL    HW228506   3.923   0.481   6.868  2.3212 -0.5359 -0.8557
 5624SOL     OW28507   0.184   4.050   4.188 -0.1767  0.5903  0.0073
 5624SOL    HW128508   0.170   3.986   4.117  0.3158 -0.1105  0.5437
 5624SOL    HW228509   0.095   4.073   4.216 -0.6153  0.9873 -1.7270
 5625SOL     OW28510   2.287   3.414   3.012  0.0359 -0.4116 -0.0264
 5625SOL    HW128511   2.371   3.451   2.984 -1.5515  1.0426 -2.8394
 5625SOL    HW228512   2.300   3.395   3.105  0.1609 -1.8191 -0.3346
 5626SOL     OW28513   4.253   0.270   1.504 -0.0552  0.2706  0.3017
 5626SOL    HW128514   4.202   0.332   1.555 -0.0424 -0.8889  1.7371
 5626SOL    HW228515   4.179   0.222   1.466 -0.1985  1.2090 -0.6128
 5627SOL     OW28516   1.232   2.108   7.604  0.2106  0.2194 -0.2156
 5627SOL    HW128517   1.248   2.202   7.608 -0.8790  0.4035 -0.1206
 5627SOL    HW228518   1.316   2.078   7.570  0.3842  1.7603 -1.1069
 5628SOL     OW28519   2.480   3.616   2.481 -0.4863 -0.2529  0.0642
 5628SOL    HW128520   2.400   3.644   2.435  0.7409  0.1654 -1.8158
 5628SOL    HW228521   2.484   3.524   2.456 -2.6522 -0.3388  0.0056
 5629SOL     OW28522   0.973   2.967   8.800  0.3797 -0.2325  0.4694
 5629SOL    HW128523   1.056   2.924   8.819  0.5101  0.4426  1.4484
 5629SOL    HW228524   0.996   3.046   8.751 -1.6583 -0.9443 -1.6127
 5630SOL     OW28525   3.357   0.371  13.545  0.0125  0.2420 -0.3164
 5630SOL    HW128526   3.444   0.371  13.504  0.6523  0.3340  1.0690
 5630SOL    HW228527   3.358   0.448  13.602  0.1500 -0.1195  0.1695
 5631SOL     OW28528   0.338   0.137   5.446  0.0250  0.6748  0.0726
 5631SOL    HW128529   0.385   0.058   5.472 -1.4085  0.2037  1.2780
 5631SOL    HW228530   0.265   0.100   5.396  1.3625  0.0652 -1.4188
 5632SOL     OW28531   0.875   4.154   6.306  0.2990 -0.1952 -0.4921
 5632SOL    HW128532   0.906   4.082   6.252  3.0555  0.5566  0.1136
 5632SOL    HW228533   0.852   4.111   6.389  1.0081 -2.4011 -1.4436
 5633SOL     OW28534   2.964   1.971   6.991 -0.1004 -0.3006 -0.4041
 5633SOL    HW128535   2.958   2.066   7.001  0.6948 -0.2839 -0.0158
 5633SOL    HW228536   2.941   1.961   6.899 -0.2249 -2.7023 -0.1011
 5634SOL     OW28537   3.262   0.903   5.769  0.2845  0.2626  0.5767
 5634SOL    HW128538   3.342   0.854   5.752  0.6286  0.7675  0.7391
 5634SOL    HW228539   3.218   0.867   5.846  1.8741 -4.1369 -0.6141
 5635SOL     OW28540   2.116   2.246   2.874  0.0290 -0.1028  0.2646
 5635SOL    HW128541   2.127   2.268   2.781  1.0186  0.0162  0.4135
 5635SOL    HW228542   2.093   2.329   2.916 -0.5803 -0.6050  0.9200
 5636SOL     OW28543   4.023   4.009  11.061 -0.0507  0.0993  0.2577
 5636SOL    HW128544   4.107   3.995  11.104  0.7538  0.7708 -1.1116
 5636SOL    HW228545   4.024   3.932  11.003 -0.7765 -0.7183  1.3347
 5637SOL     OW28546   0.352   4.118   7.956  0.1791  0.8284  0.1351
 5637SOL    HW128547   0.403   4.078   7.885  0.2624  2.1234 -0.5526
 5637SOL    HW228548   0.277   4.059   7.954 -1.1616  2.5582 -1.8546
 5638SOL     OW28549   0.461   0.357  17.743  0.0438  0.2642 -0.2091
 5638SOL    HW128550   0.406   0.284   0.024 -0.1954  0.3082 -0.5538
 5638SOL    HW228551   0.425   0.389  17.660 -1.3013 -2.1267 -0.5513
 5639SOL     OW28552   0.457   0.417   4.360 -0.0848 -0.0064 -0.4020
 5639SOL    HW128553   0.509   0.375   4.291  0.8353 -0.2620  0.4485
 5639SOL    HW228554   0.525   0.452   4.417  1.1785 -0.5379 -1.5937
 5640SOL     OW28555   1.771   0.069   4.183  0.1165  0.4143 -0.2638
 5640SOL    HW128556   1.699   0.120   4.221 -0.5837 -0.8444  0.1255
 5640SOL    HW228557   1.839   0.136   4.179 -0.4232  0.9547 -0.3621
 5641SOL     OW28558   0.803   0.357   4.143  0.1746 -0.3679  0.0889
 5641SOL    HW128559   0.863   0.302   4.194  1.6438  0.7464 -0.4515
 5641SOL    HW228560   0.866   0.376   4.074  1.2082  0.1554  1.1683
 5642SOL     OW28561   4.128   0.917   4.668 -0.1108  0.1463 -0.1339
 5642SOL    HW128562   4.161   1.001   4.702 -1.3501  0.2199  0.8923
 5642SOL    HW228563   4.185   0.918   4.591 -1.4886  0.6272 -1.1489
 5643SOL     OW28564   2.143   0.607   8.523 -0.7144 -0.1594  0.0248
 5643SOL    HW128565   2.093   0.686   8.542 -1.4362 -0.8134  0.8954
 5643SOL    HW228566   2.235   0.633   8.528 -1.2468  1.6051  0.6709
 5644SOL     OW28567   0.714   0.238   8.125 -0.4755  0.4808  0.0112
 5644SOL    HW128568   0.735   0.202   8.039  0.4680  0.9979  0.0245
 5644SOL    HW228569   0.759   0.160   8.160  0.1976  0.6988 -0.3669
 5645SOL     OW28570   4.568   2.564   1.159 -0.0631 -0.8562 -0.3282
 5645SOL    HW128571   4.490   2.557   1.213  1.3743  1.2104  2.0231
 5645SOL    HW228572   4.537   2.543   1.071 -0.2164  1.1404 -0.7452
 5646SOL     OW28573   2.019   3.492  11.044 -0.2662 -0.2742  0.5271
 5646SOL    HW128574   1.993   3.479  11.136  0.4280 -0.5035  0.6960
 5646SOL    HW228575   1.956   3.444  10.991  0.1307  1.3341 -1.4047
 5647SOL     OW28576   1.046   0.563   1.663 -0.7980  0.7602  0.5265
 5647SOL    HW128577   0.976   0.602   1.611 -0.0669 -3.3335 -3.4972
 5647SOL    HW228578   1.034   0.592   1.754 -2.8829 -1.5554  1.0105
 5648SOL     OW28579   2.798   2.079   9.977 -0.3654  0.3491  0.4091
 5648SOL    HW128580   2.801   2.163  10.022  0.1136 -0.4941  1.9440
 5648SOL    HW228581   2.856   2.092   9.902 -0.5832 -0.2615  0.1353
 5649SOL     OW28582   0.205   3.059  16.272 -0.0698 -0.5355 -0.1636
 5649SOL    HW128583   0.218   3.153  16.259  1.2369 -0.6669  0.2038
 5649SOL    HW228584   0.110   3.051  16.283 -0.1306  0.0295 -0.2847
 5650SOL     OW28585   1.700   1.008   3.098  0.4087  0.6246 -0.4695
 5650SOL    HW128586   1.773   1.024   3.158 -1.5718  2.2786  1.5111
 5650SOL    HW228587   1.710   0.914   3.085 -0.9662  0.0257  2.8011
 5651SOL     OW28588   0.583   4.703   2.564 -0.5548  0.7176  0.1344
 5651SOL    HW128589   0.520   4.683   2.634  0.3101 -0.5607  0.5310
 5651SOL    HW228590   0.659   4.723   2.619 -0.3826  0.0246  0.1513
 5652SOL     OW28591   2.911   3.265   0.898  0.3231 -0.0543  0.1341
 5652SOL    HW128592   2.845   3.310   0.845  0.0522 -3.1240 -2.1300
 5652SOL    HW228593   2.989   3.318   0.879 -1.0929  2.3744  1.0943
 5653SOL     OW28594   2.256   0.407   3.881  0.1805 -0.1208 -0.2028
 5653SOL    HW128595   2.225   0.494   3.855 -0.2348 -0.4368 -0.7676
 5653SOL    HW228596   2.172   0.366   3.902  1.4608 -3.2233 -1.2047
 5654SOL     OW28597   1.595   3.597   1.617 -0.0709  0.5031  0.2818
 5654SOL    HW128598   1.641   3.526   1.572 -0.3662  0.0581  0.6754
 5654SOL    HW228599   1.652   3.667   1.588 -0.7621  1.2522  0.7389
 5655SOL     OW28600   4.257   4.078   5.630  0.3558 -0.1212 -0.2218
 5655SOL    HW128601   4.168   4.046   5.618  0.1668 -0.1136  1.2503
 5655SOL    HW228602   4.251   4.157   5.575  0.9815 -0.4582 -0.7774
 5656SOL     OW28603   3.096   2.249  12.625 -0.5774  1.0972  0.1697
 5656SOL    HW128604   3.104   2.154  12.623 -0.6501  1.0886  0.3493
 5656SOL    HW228605   3.181   2.282  12.655 -2.2631  2.7574  3.0314
 5657SOL     OW28606   2.693   2.052  17.050  0.2492 -0.3342 -0.5370
 5657SOL    HW128607   2.783   2.052  17.082 -0.0974  1.5422  0.4539
 5657SOL    HW228608   2.671   2.143  17.031  1.3206  0.1665  0.5958
 5658SOL     OW28609   2.615   4.226   8.928 -0.2868 -0.5770  0.5131
 5658SOL    HW128610   2.628   4.288   8.856  1.3741 -1.3111  0.1778
 5658SOL    HW228611   2.622   4.144   8.879  0.9471 -0.0564 -0.1941
 5659SOL     OW28612   2.838   4.103   8.722 -0.0766  0.0605  0.6545
 5659SOL    HW128613   2.830   4.059   8.807 -1.1352 -1.1530 -0.0683
 5659SOL    HW228614   2.901   4.050   8.672  0.2793 -1.1471  2.3752
 5660SOL     OW28615   3.511   0.868   6.642  0.2789  0.4886 -0.1959
 5660SOL    HW128616   3.477   0.779   6.632 -0.9189  1.1234 -1.8598
 5660SOL    HW228617   3.475   0.899   6.725 -1.8711  0.3717 -1.0811
 5661SOL     OW28618   0.618   3.051   4.841 -1.2120 -0.0120  0.0228
 5661SOL    HW128619   0.539   2.999   4.855 -1.1929 -0.0480 -0.0033
 5661SOL    HW228620   0.620   3.013   4.753 -2.7704  0.0222 -0.0312
 5662SOL     OW28621   1.249   1.543   6.990  0.0800 -0.0924  0.2883
 5662SOL    HW128622   1.273   1.519   7.080 -1.1865 -0.8867  0.4114
 5662SOL    HW228623   1.231   1.453   6.961  4.6826 -0.6544 -0.9733
 5663SOL     OW28624   0.493   0.450   6.917 -0.4045 -0.1974  0.1251
 5663SOL    HW128625   0.561   0.509   6.950 -1.2413  1.3476 -0.9533
 5663SOL    HW228626   0.472   0.405   6.999  2.4656 -2.2494 -0.2721
 5664SOL     OW28627   2.388   0.528   5.590  0.2701 -0.0828  0.0424
 5664SOL    HW128628   2.413   0.545   5.680  4.3800 -1.7223 -0.7852
 5664SOL    HW228629   2.296   0.555   5.599  0.2861  0.8859 -2.5845
 5665SOL     OW28630   1.518   2.470   1.751 -0.1332  0.1953  0.7719
 5665SOL    HW128631   1.471   2.405   1.802  0.0567 -1.7809 -1.6207
 5665SOL    HW228632   1.469   2.460   1.670 -0.3202 -0.6431  0.9930
 5666SOL     OW28633   0.322   2.544  13.536 -0.1972  0.6211 -0.1258
 5666SOL    HW128634   0.365   2.494  13.605 -0.6363 -1.4871 -1.3881
 5666SOL    HW228635   0.344   2.636  13.553  0.4731  0.1359  1.5810
 5667SOL     OW28636   2.651   2.555  13.305  0.1926  0.4616 -0.2298
 5667SOL    HW128637   2.634   2.628  13.245  1.5129 -0.2460 -1.4620
 5667SOL    HW228638   2.610   2.585  13.386  1.7912 -0.9994  1.1095
 5668SOL     OW28639   3.685   1.844   1.486 -0.0536 -0.0638 -0.5624
 5668SOL    HW128640   3.652   1.795   1.410  1.6430  0.2467 -1.4961
 5668SOL    HW228641   3.714   1.773   1.544  1.1453  0.4920 -0.4824
 5669SOL     OW28642   0.922   2.712   6.832  0.2052 -0.3116  0.4683
 5669SOL    HW128643   1.007   2.669   6.819  0.1809  0.4258 -1.9291
 5669SOL    HW228644   0.872   2.634   6.857 -0.1775 -0.1739  0.1206
 5670SOL     OW28645   1.053   1.988  17.412  0.0210  0.0302 -0.1122
 5670SOL    HW128646   1.089   2.062  17.363  0.2848 -0.9375 -1.3825
 5670SOL    HW228647   0.975   1.979  17.357  1.4040 -0.5984 -1.9579
 5671SOL     OW28648   0.552   0.814   3.648  0.0644  0.7318  0.1880
 5671SOL    HW128649   0.623   0.787   3.706 -0.8290 -0.1660  0.8665
 5671SOL    HW228650   0.498   0.735   3.648  0.0433  0.7562  4.2943
 5672SOL     OW28651   2.547   2.739  12.620  0.0592 -0.2059 -0.1561
 5672SOL    HW128652   2.503   2.658  12.594  0.9854 -0.7402 -0.0350
 5672SOL    HW228653   2.536   2.794  12.543 -0.3695  1.8993  1.4147
 5673SOL     OW28654   2.512   3.718  10.799 -0.3870 -0.0647 -0.3130
 5673SOL    HW128655   2.551   3.767  10.871 -1.2159  0.4838 -0.2402
 5673SOL    HW228656   2.468   3.647  10.845  0.5322  0.3925  1.2638
 5674SOL     OW28657   2.154   0.980  13.164 -0.0549 -0.6873 -0.3402
 5674SOL    HW128658   2.069   0.975  13.120 -0.5420  2.5529  0.2475
 5674SOL    HW228659   2.139   0.945  13.252 -0.2071  0.7461  0.1958
 5675SOL     OW28660   1.647   3.756  11.374  0.5072  0.6335  0.5660
 5675SOL    HW128661   1.579   3.698  11.338 -0.0076  0.2567  2.1296
 5675SOL    HW228662   1.649   3.822  11.305  0.6680 -0.5620 -0.5747
 5676SOL     OW28663   4.713   1.917   3.185 -0.1195  0.0632 -0.4138
 5676SOL    HW128664   0.005   2.003   3.215  2.0731 -0.8357  0.0528
 5676SOL    HW228665   4.620   1.933   3.198 -0.1467 -0.4379 -0.0021
 5677SOL     OW28666   2.600   3.791   6.767 -0.4659 -0.5912 -0.2444
 5677SOL    HW128667   2.695   3.779   6.761 -0.5432 -0.5016 -1.7633
 5677SOL    HW228668   2.593   3.850   6.841  0.6878 -1.8520  0.8622
 5678SOL     OW28669   4.310   3.171   2.591 -0.4764  0.4237 -0.1603
 5678SOL    HW128670   4.284   3.117   2.517 -0.8032  0.9844 -0.4539
 5678SOL    HW228671   4.366   3.229   2.539  1.3054  0.6867  2.0447
 5679SOL     OW28672   0.603   4.587   5.802 -0.1151  0.2417  0.5685
 5679SOL    HW128673   0.635   4.674   5.781 -0.6721  0.4138  0.4320
 5679SOL    HW228674   0.658   4.542   5.739 -0.1980  1.1898 -0.1649
 5680SOL     OW28675   2.260   1.832  12.970  0.6722  0.4517 -0.3597
 5680SOL    HW128676   2.213   1.823  12.887  0.7064 -3.8993  0.0910
 5680SOL    HW228677   2.219   1.915  12.993  2.2721  1.0043  0.4919
 5681SOL     OW28678   3.434   1.111   1.273 -0.6350 -0.4385 -0.3146
 5681SOL    HW128679   3.411   1.080   1.186  0.2032 -1.6143 -0.1172
 5681SOL    HW228680   3.376   1.187   1.275  1.4363  1.1640 -0.6888
 5682SOL     OW28681   3.761   3.787   8.347 -0.6074 -0.7150 -0.1757
 5682SOL    HW128682   3.807   3.854   8.296  2.2030 -3.1512 -0.8040
 5682SOL    HW228683   3.670   3.797   8.321 -0.7309 -1.2523  0.0519
 5683SOL     OW28684   0.152   1.851   4.867  0.0940  0.1347 -0.4672
 5683SOL    HW128685   0.129   1.910   4.795 -0.1565  0.1879 -0.3432
 5683SOL    HW228686   0.206   1.917   4.910 -0.1212  1.1930 -1.8155
 5684SOL     OW28687   1.426   4.022   6.399 -0.0185 -0.0270 -0.0012
 5684SOL    HW128688   1.491   3.998   6.464  0.3941  0.8571 -0.0956
 5684SOL    HW228689   1.460   4.108   6.374 -0.3334 -0.3290 -1.4618
 5685SOL     OW28690   2.558   1.195   6.851  0.2260 -0.1180 -0.0108
 5685SOL    HW128691   2.568   1.266   6.788 -1.6550 -0.5660 -0.8125
 5685SOL    HW228692   2.565   1.125   6.786 -1.2156 -0.0341 -0.2539
 5686SOL     OW28693   4.402   4.550   1.749  0.5072  0.3963  0.0224
 5686SOL    HW128694   4.405   4.553   1.845  2.1900  0.8483 -0.0341
 5686SOL    HW228695   4.472   4.611   1.725 -2.3436  3.1072 -1.4282
 5687SOL     OW28696   3.517   3.904  16.439  0.9086 -0.0718  0.1018
 5687SOL    HW128697   3.605   3.904  16.403  2.3044 -3.4139  3.5534
 5687SOL    HW228698   3.527   3.978  16.499 -1.9887  2.0267 -2.0283
 5688SOL     OW28699   0.731   1.196  16.380  0.6249  0.4376 -0.0453
 5688SOL    HW128700   0.672   1.124  16.403 -0.8483  1.7701  0.3846
 5688SOL    HW228701   0.786   1.195  16.458  1.6351  1.1761 -0.7422
 5689SOL     OW28702   0.788   0.202   4.481  0.1643 -0.1517 -0.0924
 5689SOL    HW128703   0.828   0.180   4.565  2.3911  1.9409 -0.6104
 5689SOL    HW228704   0.855   0.186   4.414 -0.5658  2.6350 -1.5064
 5690SOL     OW28705   3.686   2.063   9.777 -0.1905  0.2463 -0.2155
 5690SOL    HW128706   3.610   2.005   9.774  0.6828 -0.8405 -1.1928
 5690SOL    HW228707   3.653   2.120   9.708 -1.5174  0.7543  0.8373
 5691SOL     OW28708   3.625   3.902   6.461  0.0151  0.1162  0.7277
 5691SOL    HW128709   3.667   3.898   6.375  1.3630  1.2114  1.3297
 5691SOL    HW228710   3.693   3.938   6.519  0.1381 -1.6403  1.6581
 5692SOL     OW28711   3.563   3.303   0.336  0.6797 -0.3461  0.1900
 5692SOL    HW128712   3.542   3.240   0.405 -0.3868  0.1006  0.2814
 5692SOL    HW228713   3.656   3.287   0.320  0.1490 -2.9576 -0.2603
 5693SOL     OW28714   4.158   2.193   1.853  0.1858 -0.3680 -0.0251
 5693SOL    HW128715   4.189   2.147   1.931 -0.4235  1.0537  1.0649
 5693SOL    HW228716   4.169   2.285   1.878 -1.4479  0.3838 -2.0615
 5694SOL     OW28717   2.796   2.915   9.931  0.2856 -0.2712  0.1011
 5694SOL    HW128718   2.763   2.826   9.942 -1.0025  0.3721  1.4854
 5694SOL    HW228719   2.888   2.892   9.917  0.3004  0.6136 -1.3200
 5695SOL     OW28720   1.265   2.869   2.370 -0.6689 -0.0637  0.5601
 5695SOL    HW128721   1.276   2.783   2.411 -2.3592 -0.6679 -0.2510
 5695SOL    HW228722   1.175   2.851   2.344 -0.9298  1.2731  0.5445
 5696SOL     OW28723   4.012   3.490   4.423  0.3367  0.2230  0.3801
 5696SOL    HW128724   3.961   3.563   4.387 -0.9264  0.0624  1.8578
 5696SOL    HW228725   4.037   3.532   4.505  2.2631  1.6879 -0.9584
 5697SOL     OW28726   0.331   2.120  10.786 -0.2464 -0.0051 -0.4795
 5697SOL    HW128727   0.251   2.145  10.833  0.2604 -1.9281  1.4012
 5697SOL    HW228728   0.371   2.206  10.773  1.5708 -0.7531  0.3100
 5698SOL     OW28729   3.882   1.741   4.107  0.1370  0.2316 -0.2036
 5698SOL    HW128730   3.845   1.766   4.192 -0.3832 -2.5186  0.3639
 5698SOL    HW228731   3.827   1.794   4.049  1.8302  3.6929  1.3702
 5699SOL     OW28732   4.443   4.187  10.271  0.4636  0.2475  0.1166
 5699SOL    HW128733   4.362   4.237  10.270  1.2209  1.4438 -0.7333
 5699SOL    HW228734   4.444   4.162  10.179 -1.3785 -1.7547  0.6410
 5700SOL     OW28735   2.183   1.713   4.843 -0.0236  0.8430  0.4391
 5700SOL    HW128736   2.139   1.685   4.763  1.4894 -0.0208 -0.0945
 5700SOL    HW228737   2.113   1.686   4.902 -0.6246 -0.4869 -0.8966
 5701SOL     OW28738   2.888   2.331   5.172 -0.1855  0.1841  0.6306
 5701SOL    HW128739   2.812   2.276   5.151  1.3085 -0.8080 -2.1921
 5701SOL    HW228740   2.951   2.296   5.109  0.1433  0.0129  1.0606
 5702SOL     OW28741   3.290   2.262  11.618  0.1890  0.1468 -0.0993
 5702SOL    HW128742   3.364   2.322  11.621 -0.6164  1.2062 -1.6823
 5702SOL    HW228743   3.280   2.246  11.524 -0.3758  1.4253 -0.2600
 5703SOL     OW28744   3.879   1.205   6.212  0.0287 -0.1170  0.7200
 5703SOL    HW128745   3.848   1.181   6.300 -0.9726 -0.2332  0.3324
 5703SOL    HW228746   3.814   1.161   6.159  0.5803  0.8244 -0.7317
 5704SOL     OW28747   4.103   3.004  16.878  0.1718 -0.4171  0.0800
 5704SOL    HW128748   4.153   2.924  16.861 -1.1451 -1.2427  0.0359
 5704SOL    HW228749   4.025   2.990  16.824  0.2029  0.1441 -0.1048
 5705SOL     OW28750   3.093   3.092  16.634 -0.1830 -0.1211 -0.3579
 5705SOL    HW128751   3.107   3.043  16.553 -0.1137 -1.7803  0.6496
 5705SOL    HW228752   3.180   3.070  16.667 -0.7168 -0.4040  0.8566
 5706SOL     OW28753   1.663   0.202   3.541 -0.1006  0.7099  0.1051
 5706SOL    HW128754   1.667   0.296   3.561 -0.3635  0.3844  1.7130
 5706SOL    HW228755   1.741   0.194   3.487  0.0421  0.9946  0.2658
 5707SOL     OW28756   1.520   2.599   7.746 -0.1720  0.0544 -0.0308
 5707SOL    HW128757   1.557   2.620   7.832 -0.4479  1.3380 -0.2258
 5707SOL    HW228758   1.491   2.688   7.726  1.1180  0.5187  0.1528
 5708SOL     OW28759   2.986   2.537   7.574  0.1460  0.0837  0.5130
 5708SOL    HW128760   2.894   2.535   7.545 -0.1588 -1.0282  1.5156
 5708SOL    HW228761   2.996   2.450   7.612 -0.6244 -0.4337 -0.4578
 5709SOL     OW28762   4.358   2.478   4.536  0.1291 -0.4594  0.2667
 5709SOL    HW128763   4.299   2.492   4.462 -0.6606 -0.4568  0.9045
 5709SOL    HW228764   4.403   2.402   4.500  0.7583 -0.0331  0.1533
 5710SOL     OW28765   0.037   4.082   0.350  0.0603  0.2248 -0.3994
 5710SOL    HW128766   0.040   4.176   0.334  0.2458  0.2085 -0.4575
 5710SOL    HW228767   4.721   4.084   0.429 -1.1420  0.4006 -1.2182
 5711SOL     OW28768   2.995   3.766   6.178  0.3431 -0.1358  0.0396
 5711SOL    HW128769   3.013   3.846   6.128 -2.5473  0.2708 -0.3506
 5711SOL    HW228770   3.070   3.713   6.151  0.4902 -0.1262  0.4338
 5712SOL     OW28771   1.586   2.690   7.205  0.2326  0.6652  0.2398
 5712SOL    HW128772   1.666   2.689   7.152  0.0630 -1.2039  0.0238
 5712SOL    HW228773   1.517   2.645   7.156  0.5070 -0.1964  0.6444
 5713SOL     OW28774   2.883   1.801   7.405  0.1390  0.0259  0.4500
 5713SOL    HW128775   2.945   1.743   7.450 -1.4369 -1.4203  0.7744
 5713SOL    HW228776   2.834   1.740   7.350 -1.0412  1.3165  0.1016
 5714SOL     OW28777   1.479   2.424   4.542 -0.3010 -0.0491  0.1677
 5714SOL    HW128778   1.506   2.386   4.459  2.0611  0.3103  0.7745
 5714SOL    HW228779   1.397   2.383   4.569 -0.0867  0.6149  1.8208
 5715SOL     OW28780   0.830   0.072   7.925  0.0514 -0.2514 -0.2108
 5715SOL    HW128781   0.923   0.063   7.946 -0.0804  0.4565  0.6877
 5715SOL    HW228782   0.798   4.724   7.896 -1.3307  0.2275 -0.0719
 5716SOL     OW28783   3.574   2.853   3.574 -0.4254 -0.5317  0.6601
 5716SOL    HW128784   3.512   2.802   3.522 -0.5257 -0.9060  1.1494
 5716SOL    HW228785   3.527   2.936   3.569 -2.6165 -1.8006  0.3829
 5717SOL     OW28786   3.731   2.982   2.464 -0.1841  0.1720 -0.3877
 5717SOL    HW128787   3.798   2.966   2.531  0.9689  1.1689 -1.3278
 5717SOL    HW228788   3.781   3.021   2.394  1.4872  0.7956  1.1586
 5718SOL     OW28789   3.966   1.425   1.446 -0.1334  0.9408  0.3005
 5718SOL    HW128790   3.960   1.520   1.444  0.9535  0.9550 -1.8694
 5718SOL    HW228791   3.878   1.403   1.417  1.0716 -0.1860 -2.4915
 5719SOL     OW28792   3.895   2.224   7.533 -0.1120 -0.1668  0.3078
 5719SOL    HW128793   3.853   2.194   7.452  0.9944  0.2328 -0.4059
 5719SOL    HW228794   3.816   2.247   7.583 -1.1942  0.5226 -1.6919
 5720SOL     OW28795   1.390   3.208  16.939 -0.3245 -0.6267 -0.1336
 5720SOL    HW128796   1.437   3.182  16.860  0.2868 -1.9036  0.6406
 5720SOL    HW228797   1.310   3.163  16.914 -1.3153  0.1299  1.6394
 5721SOL     OW28798   3.458   1.451   7.975  0.3283 -0.6978  0.5675
 5721SOL    HW128799   3.551   1.464   7.961 -0.2467 -0.4422 -2.8191
 5721SOL    HW228800   3.448   1.431   8.069  2.6763  0.2638  1.0192
 5722SOL     OW28801   1.952   1.468   0.478 -0.0464 -0.2355  0.1930
 5722SOL    HW128802   1.973   1.442   0.568 -1.7419  2.1328  1.2966
 5722SOL    HW228803   2.012   1.542   0.473 -0.4479  0.0203 -0.8218
 5723SOL     OW28804   2.650   1.553   2.652  0.1285  0.5630  0.3803
 5723SOL    HW128805   2.733   1.510   2.631 -0.6137 -0.6108 -0.1699
 5723SOL    HW228806   2.604   1.542   2.569 -0.4155  0.0855  0.7509
 5724SOL     OW28807   4.332   2.617   9.425  0.0224 -0.4142  0.1584
 5724SOL    HW128808   4.277   2.667   9.486  0.6815  1.5119 -0.8143
 5724SOL    HW228809   4.266   2.597   9.360  0.2771 -1.4660  0.2206
 5725SOL     OW28810   0.340   0.208   1.740  0.7932 -0.3705 -0.3837
 5725SOL    HW128811   0.354   0.262   1.818 -0.6814 -1.4894  0.6634
 5725SOL    HW228812   0.341   0.281   1.678 -1.5830  0.2966  0.3726
 5726SOL     OW28813   0.130   3.606   5.312  0.2390 -0.0652 -0.5817
 5726SOL    HW128814   0.044   3.646   5.326  0.2140 -0.0581 -0.7575
 5726SOL    HW228815   0.120   3.558   5.230 -1.6167 -0.0049 -0.3864
 5727SOL     OW28816   1.789   3.778  14.992  0.1020  0.1587 -0.3235
 5727SOL    HW128817   1.788   3.687  15.020 -0.7705 -0.5882 -2.8922
 5727SOL    HW228818   1.861   3.805  15.050  0.7411 -0.4181 -0.8532
 5728SOL     OW28819   2.555   2.214   6.923  0.5240  0.4309  0.5788
 5728SOL    HW128820   2.562   2.158   7.000 -0.6020 -1.2266 -0.5151
 5728SOL    HW228821   2.588   2.296   6.960 -0.8233  0.9608  0.6067
 5729SOL     OW28822   4.041   1.354   6.089 -0.2694  0.4348 -0.2840
 5729SOL    HW128823   3.991   1.301   6.151  1.9519  0.4984  1.5557
 5729SOL    HW228824   4.049   1.434   6.141  2.1357  0.6078 -0.8987
 5730SOL     OW28825   1.482   3.064  14.183  0.2666 -0.3467 -0.0073
 5730SOL    HW128826   1.477   3.130  14.252 -2.1355  1.3713 -1.8220
 5730SOL    HW228827   1.571   3.076  14.149  0.2976  1.5670  0.7749
 5731SOL     OW28828   2.336   1.584  13.437 -0.0648 -0.0013  0.2423
 5731SOL    HW128829   2.341   1.632  13.354  2.0576 -0.7763 -0.0845
 5731SOL    HW228830   2.428   1.557  13.444 -0.8039 -2.5627 -0.2028
 5732SOL     OW28831   0.157   1.538  16.747 -0.0656 -0.5072  0.2608
 5732SOL    HW128832   0.187   1.452  16.716 -3.4436 -1.0432 -1.4929
 5732SOL    HW228833   0.240   1.567  16.787  0.1617 -1.9718  0.8560
 5733SOL     OW28834   4.553   0.777   2.286 -0.4960 -0.3348  0.6150
 5733SOL    HW128835   4.506   0.694   2.295  0.5789 -1.2223 -2.1894
 5733SOL    HW228836   4.484   0.833   2.250  0.5157  1.0870  0.8633
 5734SOL     OW28837   0.282   0.610   6.992  0.3424  0.2917 -0.4902
 5734SOL    HW128838   0.280   0.573   7.081 -0.3096  0.2113 -0.5405
 5734SOL    HW228839   0.348   0.554   6.950 -0.2103  0.2650 -1.3148
 5735SOL     OW28840   1.016   4.489  12.142  0.5287  0.4823  0.1227
 5735SOL    HW128841   1.050   4.500  12.053 -1.0161 -0.0026 -0.5248
 5735SOL    HW228842   0.958   4.414  12.131 -0.7793  1.3640  0.9825
 5736SOL     OW28843   0.158   4.113  17.073  0.5102  0.3744  0.1614
 5736SOL    HW128844   0.240   4.064  17.082  0.9101  1.0831  0.2893
 5736SOL    HW228845   0.156   4.174  17.146  1.7159  0.1244  0.4060
 5737SOL     OW28846   1.046   3.369  17.622  0.2160 -0.1181  0.3785
 5737SOL    HW128847   1.042   3.392  17.715  0.0562  1.7035 -0.0958
 5737SOL    HW228848   1.050   3.273  17.616 -0.6625 -0.0552 -1.2222
 5738SOL     OW28849   3.137   2.766   4.957 -0.0968 -0.0842 -0.0155
 5738SOL    HW128850   3.215   2.711   4.954  1.0857  1.5345  2.0658
 5738SOL    HW228851   3.168   2.850   4.926 -0.4191  0.0762  0.0933
 5739SOL     OW28852   4.613   4.151   4.999 -0.1561 -0.2244 -0.0004
 5739SOL    HW128853   4.608   4.101   5.081  0.4568 -2.3649 -1.2477
 5739SOL    HW228854   4.686   4.106   4.957  1.1003  1.7712  0.0381
 5740SOL     OW28855   2.484   2.963  14.777  0.4987  0.0828 -0.0637
 5740SOL    HW128856   2.526   3.044  14.749 -1.2022  0.8864 -0.3189
 5740SOL    HW228857   2.406   2.957  14.721  1.7946 -0.0384 -1.8470
 5741SOL     OW28858   1.525   2.255  13.300  0.1012  0.2822  0.6441
 5741SOL    HW128859   1.571   2.294  13.226 -1.9472  0.3992 -0.5691
 5741SOL    HW228860   1.575   2.289  13.374 -1.0395  3.2406  0.0230
 5742SOL     OW28861   1.345   2.843   4.615  0.4141  0.4771 -0.1628
 5742SOL    HW128862   1.382   2.790   4.685 -2.0313  0.5744  1.2048
 5742SOL    HW228863   1.253   2.837   4.642  0.2061 -1.0968 -1.2112
 5743SOL     OW28864   1.710   1.947   1.875  0.3032 -0.3714  0.5808
 5743SOL    HW128865   1.627   1.963   1.919  1.5961  2.2590  2.0602
 5743SOL    HW228866   1.749   2.034   1.871 -3.6442  1.2552 -2.3381
 5744SOL     OW28867   2.202   4.380  11.088 -0.1600  0.2082 -0.1232
 5744SOL    HW128868   2.268   4.393  11.020 -1.0774  0.8965 -0.8841
 5744SOL    HW228869   2.119   4.397  11.043  0.5145 -0.9574 -1.8287
 5745SOL     OW28870   0.555   3.289   8.034  0.0823  0.0902 -0.1007
 5745SOL    HW128871   0.526   3.300   8.125  2.8702  1.3773  0.6195
 5745SOL    HW228872   0.493   3.225   8.000 -0.1613  0.6704 -0.7516
 5746SOL     OW28873   2.547   2.491  13.784 -0.1835 -0.9892  0.0952
 5746SOL    HW128874   2.605   2.534  13.721  0.8900 -0.1694  1.6088
 5746SOL    HW228875   2.588   2.514  13.868  0.2819 -2.4180  0.2515
 5747SOL     OW28876   4.535   2.631   6.102 -0.1346 -0.8169 -0.0426
 5747SOL    HW128877   4.441   2.638   6.118 -0.5635  0.5335 -3.2127
 5747SOL    HW228878   4.537   2.589   6.016 -0.5629  1.6039 -1.2156
 5748SOL     OW28879   3.614   4.588   2.703 -0.1164  0.0688  0.2038
 5748SOL    HW128880   3.541   4.527   2.717  0.4812 -0.9062 -0.9059
 5748SOL    HW228881   3.603   4.640   2.782  0.6586  1.3741 -0.5506
 5749SOL     OW28882   3.731   0.304  14.368  0.0513 -0.1641  0.4112
 5749SOL    HW128883   3.638   0.322  14.364  0.1945  0.1752 -1.6861
 5749SOL    HW228884   3.751   0.342  14.453 -1.6897 -0.8660  1.1257
 5750SOL     OW28885   0.878   3.313   9.653  0.1994  0.4260  0.3470
 5750SOL    HW128886   0.932   3.347   9.724 -1.8860  0.0847  2.0543
 5750SOL    HW228887   0.833   3.238   9.691  0.0145  0.0368 -0.6406
 5751SOL     OW28888   1.622   2.198  11.561  0.1886 -0.0670 -0.3748
 5751SOL    HW128889   1.618   2.104  11.548 -2.1460  0.2787 -2.1877
 5751SOL    HW228890   1.712   2.206  11.593  0.3595  0.4581 -0.9915
 5752SOL     OW28891   3.935   0.392   5.261  0.1406 -0.0441  0.1474
 5752SOL    HW128892   3.866   0.458   5.262 -0.5965 -0.8172  0.5950
 5752SOL    HW228893   4.014   0.445   5.253  1.2810 -2.0531 -1.8765
 5753SOL     OW28894   1.982   0.778   8.814 -0.1666  0.1124 -0.0544
 5753SOL    HW128895   2.031   0.859   8.823 -0.0387  0.1994 -1.4137
 5753SOL    HW228896   2.055   0.716   8.808  1.5729  2.0344  1.5869
 5754SOL     OW28897   3.451   4.336   4.500  0.0356 -0.0326 -0.4341
 5754SOL    HW128898   3.422   4.395   4.430  1.1739  2.3234  1.0573
 5754SOL    HW228899   3.540   4.372   4.506 -0.1575  0.2181  0.8918
 5755SOL     OW28900   4.447   3.418   3.262  0.2417 -0.7725 -0.3926
 5755SOL    HW128901   4.382   3.363   3.307 -1.3415  2.6868  1.4976
 5755SOL    HW228902   4.524   3.391   3.311 -0.4787  1.2579  1.8248
 5756SOL     OW28903   0.577   0.481   8.146 -0.0225  0.4779  0.1743
 5756SOL    HW128904   0.639   0.408   8.135  0.5057  0.4843  3.1041
 5756SOL    HW228905   0.561   0.487   8.241  1.4596 -0.5347  0.4981
 5757SOL     OW28906   0.995   3.534   3.729 -0.4405  0.2734 -0.1974
 5757SOL    HW128907   0.993   3.479   3.807 -3.7042 -0.2779 -0.6715
 5757SOL    HW228908   0.994   3.479   3.650  0.2775  0.8864 -0.6290
 5758SOL     OW28909   3.118   1.871   5.808 -0.2015  0.4784 -0.2598
 5758SOL    HW128910   3.154   1.811   5.742  1.1462  0.7968  0.2002
 5758SOL    HW228911   3.197   1.918   5.832  0.6475  0.0661 -2.2716
 5759SOL     OW28912   0.840   0.881   9.791  0.3159  0.1788  0.1424
 5759SOL    HW128913   0.753   0.871   9.830 -0.9169  0.8414 -2.3814
 5759SOL    HW228914   0.841   0.975   9.771 -1.4941  0.9468  3.6257
 5760SOL     OW28915   4.523   1.045   3.083 -0.0528  0.1135 -0.6788
 5760SOL    HW128916   4.469   0.973   3.117 -3.0309  0.9840 -3.5708
 5760SOL    HW228917   4.470   1.123   3.095 -0.8729 -0.3985 -0.9298
 5761SOL     OW28918   0.242   0.142   5.768 -0.3007  0.1790 -0.2373
 5761SOL    HW128919   0.252   0.189   5.685 -1.8276 -0.4421 -0.7738
 5761SOL    HW228920   0.149   0.123   5.760  0.4769 -3.6843 -0.3254
 5762SOL     OW28921   1.030   0.811   4.857  0.1629 -0.0651  0.0772
 5762SOL    HW128922   1.025   0.775   4.946 -1.3398 -0.1556 -0.0439
 5762SOL    HW228923   1.123   0.813   4.835  0.0004  0.4930 -0.5447
 5763SOL     OW28924   2.189   1.252   8.662 -0.3004 -0.4018 -0.2294
 5763SOL    HW128925   2.160   1.343   8.666  0.0760 -0.3609  1.4260
 5763SOL    HW228926   2.181   1.224   8.753 -0.7055 -1.0991 -0.4741
 5764SOL     OW28927   0.470   2.493   2.378  0.6101 -0.7171 -0.3945
 5764SOL    HW128928   0.426   2.476   2.461  0.4093  0.0017 -0.3504
 5764SOL    HW228929   0.413   2.466   2.306 -1.0489  0.1796  0.5791
 5765SOL     OW28930   1.519   0.141  14.394  0.3614 -0.0292 -0.3114
 5765SOL    HW128931   1.565   0.198  14.333  0.9955  0.4193  0.5813
 5765SOL    HW228932   1.582   0.124  14.464  1.1666 -0.4241 -1.1343
 5766SOL     OW28933   3.937   4.707  12.400 -0.4551 -0.0391 -0.3951
 5766SOL    HW128934   3.905   0.053  12.364  0.0360  0.7358  0.9325
 5766SOL    HW228935   4.020   0.000  12.437 -0.3634  0.5531 -1.0821
 5767SOL     OW28936   2.585   2.845  17.711 -0.0960  0.4644 -0.0126
 5767SOL    HW128937   2.631   2.762  17.696  0.1815  0.3992  1.2063
 5767SOL    HW228938   2.647   2.904  17.669  0.2474 -0.4028 -0.7330
 5768SOL     OW28939   3.550   2.073  10.092 -0.0796  0.4173 -0.3482
 5768SOL    HW128940   3.534   1.985  10.123  1.0962  0.3836  0.1531
 5768SOL    HW228941   3.646   2.075  10.101 -0.0655 -2.6491  0.1429
 5769SOL     OW28942   1.789   2.764   5.661  0.7350  0.2757 -0.1229
 5769SOL    HW128943   1.883   2.776   5.652  0.8804  0.5833  1.9326
 5769SOL    HW228944   1.771   2.727   5.574  0.4444 -1.2282  0.5750
 5770SOL     OW28945   0.257   2.694   2.169  0.2906  0.2846 -0.1102
 5770SOL    HW128946   0.202   2.772   2.162 -0.0028 -0.1981 -3.0953
 5770SOL    HW228947   0.308   2.699   2.087  0.9518 -1.3118  0.2008
 5771SOL     OW28948   3.234   3.157  17.013 -0.5948  0.3789 -0.2789
 5771SOL    HW128949   3.169   3.104  16.966  0.8199 -0.5690 -1.1636
 5771SOL    HW228950   3.189   3.184  17.093  0.9142 -1.5986  1.2345
 5772SOL     OW28951   0.812   4.269   3.892 -0.0651 -0.3028 -0.1176
 5772SOL    HW128952   0.760   4.244   3.816 -0.9815  1.0260  0.0667
 5772SOL    HW228953   0.772   4.220   3.964 -3.5500  1.4713 -0.8284
 5773SOL     OW28954   2.576   1.061   1.161  0.0773 -0.1872 -0.3784
 5773SOL    HW128955   2.655   1.020   1.197 -0.3650 -1.5356 -0.9320
 5773SOL    HW228956   2.513   0.989   1.170  1.7353 -1.6271 -0.0515
 5774SOL     OW28957   1.788   2.614  14.463 -0.4470 -0.2464 -0.0233
 5774SOL    HW128958   1.698   2.635  14.486  0.3407  1.2531  1.7141
 5774SOL    HW228959   1.805   2.549  14.532 -0.2905  1.0831  1.1882
 5775SOL     OW28960   4.419   1.241   2.156  0.2478 -0.5381 -0.3134
 5775SOL    HW128961   4.501   1.241   2.106  1.0100 -1.5370  0.9521
 5775SOL    HW228962   4.414   1.334   2.177 -0.2447 -0.0439 -2.6121
 5776SOL     OW28963   1.759   0.379  14.234  0.0031  0.2452 -0.1469
 5776SOL    HW128964   1.834   0.439  14.236  1.0898 -1.0130 -2.7581
 5776SOL    HW228965   1.743   0.411  14.146 -1.4109 -0.7571 -0.2440
 5777SOL     OW28966   3.115   0.892   7.315 -0.1545 -0.2191  0.1783
 5777SOL    HW128967   3.082   0.912   7.402  2.2826  1.0106  0.8037
 5777SOL    HW228968   3.045   0.845   7.270 -1.8602  0.9750  1.5975
 5778SOL     OW28969   3.914   2.373   3.758  0.0754  0.1546 -0.5344
 5778SOL    HW128970   3.919   2.307   3.828 -0.7219  2.5934  1.8395
 5778SOL    HW228971   3.951   2.445   3.810 -2.5319 -0.0189  1.5998
 5779SOL     OW28972   1.971   3.073  13.553  0.2958 -0.0751 -0.1327
 5779SOL    HW128973   2.011   3.018  13.486  0.5653  0.5412 -0.4761
 5779SOL    HW228974   1.996   3.020  13.629 -1.8239 -0.2184  0.4661
 5780SOL     OW28975   3.719   1.523   7.950 -0.0891  0.2103 -1.1284
 5780SOL    HW128976   3.808   1.491   7.963  0.0682  0.9118 -0.4893
 5780SOL    HW228977   3.738   1.590   7.884  0.5321  0.4247 -0.7257
 5781SOL     OW28978   2.480   0.014  16.902 -0.2964  0.3374  0.3697
 5781SOL    HW128979   2.571   4.727  16.883  0.8872  3.2371  2.2480
 5781SOL    HW228980   2.497   0.104  16.929 -0.0787  0.8488 -1.4562
 5782SOL     OW28981   3.573   3.758  14.148  0.4243 -0.1666 -0.1611
 5782SOL    HW128982   3.517   3.836  14.149  0.2398 -0.3181  1.0821
 5782SOL    HW228983   3.659   3.791  14.122  1.4699 -1.5072  1.6587
 5783SOL     OW28984   4.733   0.777  16.238 -0.0006  0.3396  0.4537
 5783SOL    HW128985   0.081   0.737  16.220 -0.8478 -1.1443 -0.2233
 5783SOL    HW228986   4.725   0.824  16.155  1.6142  0.0203  0.1134
 5784SOL     OW28987   4.144   2.754   2.853  0.1087 -0.0510 -0.0346
 5784SOL    HW128988   4.184   2.838   2.831 -0.4051 -0.3371 -2.1183
 5784SOL    HW228989   4.116   2.738   2.762 -0.1679  0.0245  0.0389
 5785SOL     OW28990   0.740   0.036   2.781 -0.5893 -0.3114 -0.1652
 5785SOL    HW128991   0.783   4.718   2.846  0.9411  1.7250  0.5702
 5785SOL    HW228992   0.824   0.069   2.748  0.2398 -2.2979 -0.0698
 5786SOL     OW28993   2.476   4.457   8.970  0.2136 -0.4562  0.2239
 5786SOL    HW128994   2.534   4.534   8.974 -0.0912 -0.1324 -1.4387
 5786SOL    HW228995   2.539   4.386   8.980  1.4686  0.4091 -1.3670
 5787SOL     OW28996   4.191   3.876   9.395 -0.5894  0.0606  0.3010
 5787SOL    HW128997   4.260   3.813   9.374 -1.0896 -0.6023  0.6146
 5787SOL    HW228998   4.229   3.925   9.468  0.3757  0.4047 -0.4265
 5788SOL     OW28999   3.159   3.654   8.315  0.1828 -0.3581  0.0127
 5788SOL    HW129000   3.108   3.581   8.349  1.7112 -1.9689 -1.1629
 5788SOL    HW229001   3.210   3.673   8.393 -1.9971  3.1375  0.5652
 5789SOL     OW29002   0.475   2.167  13.784  0.1544  0.3389 -0.0133
 5789SOL    HW129003   0.389   2.124  13.789  0.6203 -0.6808 -0.9104
 5789SOL    HW229004   0.537   2.096  13.795 -0.2022  0.1666  0.8954
 5790SOL     OW29005   2.293   0.604   3.465 -0.0000  0.1219 -0.2676
 5790SOL    HW129006   2.204   0.630   3.489  0.2190  1.5042 -0.9418
 5790SOL    HW229007   2.347   0.679   3.488  0.1254 -0.3855  1.0776
 5791SOL     OW29008   1.364   2.992   6.399  0.2435 -0.3176  0.2604
 5791SOL    HW129009   1.297   3.004   6.466 -0.9759 -1.0866 -0.8316
 5791SOL    HW229010   1.340   3.055   6.332 -1.1115 -0.1480  0.9079
 5792SOL     OW29011   3.618   2.960   6.423 -0.1959  0.0822  0.3417
 5792SOL    HW129012   3.665   2.890   6.468  0.4833  1.4083  1.6938
 5792SOL    HW229013   3.570   2.996   6.497  1.3014  2.8583 -0.0185
 5793SOL     OW29014   4.583   2.495   6.815  0.0333 -0.0538 -0.0992
 5793SOL    HW129015   4.506   2.439   6.828  0.9450 -1.0602  0.8949
 5793SOL    HW229016   4.552   2.553   6.745  2.1440  2.1376  0.7623
 5794SOL     OW29017   3.720   2.435  10.811 -0.1965  0.3447 -0.4788
 5794SOL    HW129018   3.788   2.495  10.841  0.9139 -1.5323  0.8167
 5794SOL    HW229019   3.780   2.361  10.795  1.0283  0.9814  1.0970
 5795SOL     OW29020   3.262   0.125   5.842 -0.3462 -0.1322 -0.0905
 5795SOL    HW129021   3.224   0.042   5.868 -0.9231 -0.0961 -0.8088
 5795SOL    HW229022   3.204   0.180   5.895  1.7712  0.6728  1.3735
 5796SOL     OW29023   0.342   1.676   2.707  0.1465 -0.4539  0.1912
 5796SOL    HW129024   0.437   1.683   2.698  0.3611 -0.9683  2.0649
 5796SOL    HW229025   0.339   1.616   2.782  3.1355 -0.8085  0.0376
 5797SOL     OW29026   4.046   0.285   8.197  0.1731  0.2270  0.2312
 5797SOL    HW129027   4.040   0.342   8.120  0.7927 -1.7219 -1.2593
 5797SOL    HW229028   3.972   0.230   8.173  1.3566 -1.2949  0.0869
 5798SOL     OW29029   3.126   1.977   8.194 -0.6506 -0.4728  0.5773
 5798SOL    HW129030   3.108   1.884   8.180 -0.8791 -0.3187 -0.1526
 5798SOL    HW229031   3.064   1.997   8.265 -0.5536 -1.4542  0.9306
 5799SOL     OW29032   3.232   4.148   4.860  0.0745  0.0102  0.0484
 5799SOL    HW129033   3.260   4.238   4.843  1.7452 -1.1079 -3.0543
 5799SOL    HW229034   3.278   4.091   4.799  0.7090  1.2883 -0.6744
 5800SOL     OW29035   3.772   3.521   5.484  0.2135 -0.1327  0.5686
 5800SOL    HW129036   3.764   3.469   5.564  0.4667 -2.0743 -0.6668
 5800SOL    HW229037   3.844   3.480   5.436  1.3927  1.8967  0.6020
 5801SOL     OW29038   1.916   1.899   6.479 -0.2288  0.4489 -0.3300
 5801SOL    HW129039   1.962   1.896   6.563  0.4388  0.8405 -0.6833
 5801SOL    HW229040   1.944   1.985   6.448 -0.9720  0.9759  0.4549
 5802SOL     OW29041   2.440   2.281   4.176 -0.1302  0.0730 -0.0293
 5802SOL    HW129042   2.397   2.197   4.155  1.5834 -0.5264 -1.1432
 5802SOL    HW229043   2.494   2.264   4.252  1.1436  1.6363 -0.5920
 5803SOL     OW29044   2.762   1.896   6.635  0.8222 -0.4884  0.1508
 5803SOL    HW129045   2.779   1.982   6.673  0.3081 -1.0866  1.7209
 5803SOL    HW229046   2.851   1.864   6.623  1.5200  1.7292 -0.5885
 5804SOL     OW29047   0.773   2.451  13.646 -0.0050 -0.8377  0.1677
 5804SOL    HW129048   0.710   2.380  13.634 -1.7013  0.5333  0.9871
 5804SOL    HW229049   0.856   2.412  13.620 -0.2663 -2.1763  1.3534
 5805SOL     OW29050   1.375   3.888   2.653  0.2946 -0.6492 -0.0624
 5805SOL    HW129051   1.414   3.863   2.737 -1.1650  0.3955  0.9314
 5805SOL    HW229052   1.372   3.982   2.673  2.3267 -0.7701  0.8005
 5806SOL     OW29053   1.616   3.826   7.046  0.1165 -0.2520 -0.4130
 5806SOL    HW129054   1.650   3.915   7.049 -0.4237 -0.0477 -0.3944
 5806SOL    HW229055   1.538   3.833   6.991  0.5377  0.7517 -0.8768
 5807SOL     OW29056   3.319   1.806   6.186  0.5791  0.9585 -0.9202
 5807SOL    HW129057   3.322   1.738   6.120 -2.3393  1.1843 -1.2925
 5807SOL    HW229058   3.308   1.755   6.267 -1.2056  1.4731 -0.8441
 5808SOL     OW29059   3.954   3.975   0.163 -0.3520 -0.3459  0.2440
 5808SOL    HW129060   3.999   3.897   0.132 -2.5829 -1.6362  0.2390
 5808SOL    HW229061   3.943   3.941   0.252  1.9163  2.5384  1.6526
 5809SOL     OW29062   1.011   3.560   5.407 -0.0101 -0.0488  0.2913
 5809SOL    HW129063   0.973   3.642   5.437  0.2468 -0.6736  2.2715
 5809SOL    HW229064   1.098   3.566   5.446 -0.7027 -0.7133  1.9318
 5810SOL     OW29065   2.661   1.353   5.297  0.7523 -0.5560  0.2202
 5810SOL    HW129066   2.671   1.421   5.364 -0.9256 -0.6318  0.5598
 5810SOL    HW229067   2.662   1.272   5.347  2.2236 -0.6165  0.0859
 5811SOL     OW29068   1.107   3.993   8.691 -0.2179  0.3877  0.2100
 5811SOL    HW129069   1.120   3.953   8.778 -0.7869 -0.2362  0.0112
 5811SOL    HW229070   1.189   3.970   8.647 -0.5347 -0.9154  0.2883
 5812SOL     OW29071   2.734   1.905   4.281  0.1001 -0.0897  0.5124
 5812SOL    HW129072   2.796   1.901   4.353  0.0428  2.1320  0.6879
 5812SOL    HW229073   2.759   1.986   4.237  0.1576 -0.5680 -0.3447
 5813SOL     OW29074   0.189   0.588   7.531  0.0218  0.3929  0.2363
 5813SOL    HW129075   0.154   0.676   7.542 -0.7051  0.0224  0.9205
 5813SOL    HW229076   0.214   0.558   7.618  2.0157  0.7161 -0.2129
 5814SOL     OW29077   2.726   4.345   8.713 -0.2648 -0.6522 -0.0653
 5814SOL    HW129078   2.773   4.261   8.714 -0.8670 -1.0344 -2.3951
 5814SOL    HW229079   2.787   4.402   8.666  0.5095 -0.9877  0.5342
 5815SOL     OW29080   0.221   1.511   2.190 -0.3115 -0.7187 -0.4889
 5815SOL    HW129081   0.227   1.419   2.215 -2.7008 -0.6229  0.4547
 5815SOL    HW229082   0.257   1.551   2.269 -4.7401 -0.4421  1.4139
 5816SOL     OW29083   3.315   4.526   4.363  0.7011  0.3155  0.4611
 5816SOL    HW129084   3.290   4.550   4.274  1.0562  1.1437  0.5813
 5816SOL    HW229085   3.375   4.597   4.385  0.2383  0.3376  1.6843
 5817SOL     OW29086   3.193   2.985   0.333  0.0245  0.0895  0.0789
 5817SOL    HW129087   3.197   3.020   0.244 -0.5232  0.0001  0.0164
 5817SOL    HW229088   3.257   2.914   0.329  0.3328  0.4327 -1.1151
 5818SOL     OW29089   2.382   2.001   4.105 -0.2055  0.1911 -0.2452
 5818SOL    HW129090   2.445   1.956   4.049 -1.5482 -2.0847  0.0652
 5818SOL    HW229091   2.333   2.059   4.046 -1.8016 -1.8214 -0.8756
 5819SOL     OW29092   1.265   1.153  10.433  0.0580  0.2619 -0.0513
 5819SOL    HW129093   1.293   1.154  10.342  0.3998  0.5077  0.0558
 5819SOL    HW229094   1.340   1.112  10.476  0.2651 -1.3891 -1.9538
 5820SOL     OW29095   1.426   2.119  16.782 -0.2384  0.5227 -0.0571
 5820SOL    HW129096   1.381   2.052  16.835 -1.1219  1.1639  0.0042
 5820SOL    HW229097   1.350   2.157  16.738 -0.5482 -1.2344 -1.0658
 5821SOL     OW29098   1.855   3.202   3.998  0.4315 -0.2058  0.1112
 5821SOL    HW129099   1.820   3.118   3.970 -2.6105  1.3014 -0.5767
 5821SOL    HW229100   1.929   3.204   3.936  0.0116 -2.3365 -0.4804
 5822SOL     OW29101   4.575   3.578   4.320 -0.0622  0.7528  0.0591
 5822SOL    HW129102   4.546   3.499   4.367  1.4252 -0.7343 -1.5090
 5822SOL    HW229103   4.541   3.557   4.233  0.6864  1.9511 -0.5220
 5823SOL     OW29104   3.766   2.376  10.090  0.4032 -0.2101 -0.0765
 5823SOL    HW129105   3.832   2.307  10.083  0.2156 -0.2648 -1.3002
 5823SOL    HW229106   3.812   2.449  10.131 -0.2153  0.0267  0.2028
 5824SOL     OW29107   1.861   1.326   6.349 -0.3595  0.0525 -0.0233
 5824SOL    HW129108   1.919   1.342   6.423  0.1612 -2.5115  0.1083
 5824SOL    HW229109   1.875   1.233   6.335 -2.1957 -0.4809  1.7012
 5825SOL     OW29110   2.711   3.053  17.552 -0.4443 -0.1057  0.2187
 5825SOL    HW129111   2.720   3.146  17.573 -0.4811 -0.0373 -0.0780
 5825SOL    HW229112   2.719   3.048  17.457  0.4565 -1.1380  0.3386
 5826SOL     OW29113   2.833   0.511   5.701 -0.1424 -0.2433 -0.4779
 5826SOL    HW129114   2.907   0.455   5.677  0.6398  0.6093 -0.0684
 5826SOL    HW229115   2.765   0.455   5.665 -1.5133 -0.4730  2.4227
 5827SOL     OW29116   4.289   1.544   4.304  0.1038 -0.0132 -0.1310
 5827SOL    HW129117   4.214   1.558   4.246 -0.2891  0.2836  0.4448
 5827SOL    HW229118   4.313   1.452   4.299 -0.6752 -0.3306  1.8542
 5828SOL     OW29119   1.580   4.579   4.668  0.4678  0.2168  0.3750
 5828SOL    HW129120   1.615   4.526   4.739 -2.1655 -1.3509  0.4937
 5828SOL    HW229121   1.485   4.578   4.680  0.5146 -2.5223  0.4585
 5829SOL     OW29122   4.301   2.578   9.832  1.5359  0.6196 -0.2681
 5829SOL    HW129123   4.371   2.643   9.834  0.4919  1.6496  2.2877
 5829SOL    HW229124   4.243   2.613   9.899  0.8022  0.6581 -0.9326
 5830SOL     OW29125   2.272   4.531   5.333  0.5120 -0.2772  0.1523
 5830SOL    HW129126   2.345   4.518   5.273  1.8569  0.2107  1.6984
 5830SOL    HW229127   2.240   4.620   5.317  1.1533  0.3608  2.5006
 5831SOL     OW29128   0.130   3.343   4.343 -0.1786  0.1132 -0.1379
 5831SOL    HW129129   0.131   3.252   4.317 -0.3847  0.1630 -0.3129
 5831SOL    HW229130   0.194   3.381   4.283 -0.4685  1.4060  0.3708
 5832SOL     OW29131   0.534   2.969   2.061  0.3966  0.3075  0.6042
 5832SOL    HW129132   0.455   2.921   2.034  1.4525 -0.6212 -0.8364
 5832SOL    HW229133   0.494   3.056   2.062 -2.0550 -0.7525 -2.4976
 5833SOL     OW29134   0.831   0.803   1.922  0.0526  0.3373  0.4668
 5833SOL    HW129135   0.763   0.741   1.896  0.7859 -0.6750  0.9755
 5833SOL    HW229136   0.798   0.857   1.994 -1.5612 -0.2883  0.2043
 5834SOL     OW29137   2.615   2.277  16.959 -0.4927 -0.1410 -0.1243
 5834SOL    HW129138   2.645   2.287  16.869 -2.3300  0.0467 -0.7276
 5834SOL    HW229139   2.663   2.344  17.006 -0.0589  0.4899 -1.4588
 5835SOL     OW29140   4.040   1.835  12.277 -0.5014  0.4834  0.0985
 5835SOL    HW129141   4.086   1.761  12.316  5.4057  3.9397 -0.3431
 5835SOL    HW229142   4.066   1.827  12.185  0.8021  3.2969  0.2134
 5836SOL     OW29143   2.115   0.908   3.987 -0.8076  0.2280  0.7136
 5836SOL    HW129144   2.032   0.945   4.018 -1.3873 -1.0694  0.7030
 5836SOL    HW229145   2.182   0.964   4.027 -1.0081  0.7008  0.3913
 5837SOL     OW29146   3.486   3.408   8.254 -0.8305  0.6928 -0.5391
 5837SOL    HW129147   3.421   3.342   8.278 -2.2112  1.8145 -1.1265
 5837SOL    HW229148   3.430   3.479   8.222 -0.8709  0.1977 -1.5860
 5838SOL     OW29149   4.148   3.392   2.339  0.0501 -0.2105 -0.1877
 5838SOL    HW129150   4.072   3.363   2.289  0.0833 -0.2544 -0.2131
 5838SOL    HW229151   4.129   3.376   2.431  1.0303  2.3655  0.4710
 5839SOL     OW29152   3.412   2.242   3.854  0.2966 -0.1687 -0.4342
 5839SOL    HW129153   3.476   2.297   3.901  0.7662 -0.0418 -1.2132
 5839SOL    HW229154   3.447   2.157   3.880 -2.8575 -1.8644 -1.7945
 5840SOL     OW29155   3.782   3.974   7.316  0.5216 -0.7317 -1.0866
 5840SOL    HW129156   3.836   4.051   7.299  0.0088 -0.8533 -3.2652
 5840SOL    HW229157   3.748   3.957   7.228  0.3816  1.0402 -1.3660
 5841SOL     OW29158   4.064   0.908  11.217  0.2085 -0.1299 -0.0326
 5841SOL    HW129159   4.051   0.817  11.188 -2.3291 -0.4547  2.1449
 5841SOL    HW229160   4.157   0.926  11.203  0.4154 -2.2212 -1.4238
 5842SOL     OW29161   2.089   1.875   5.688 -0.3407 -0.1332  0.0012
 5842SOL    HW129162   2.101   1.927   5.767 -2.4388 -1.7061  1.3688
 5842SOL    HW229163   2.053   1.933   5.621 -1.7048 -0.1123  0.7519
 5843SOL     OW29164   2.047   1.030   5.703 -0.1700  0.3464 -0.2744
 5843SOL    HW129165   1.980   0.964   5.686  1.3716 -1.0720 -0.8306
 5843SOL    HW229166   2.129   0.981   5.704  1.0382  2.4044  1.4157
 5844SOL     OW29167   1.488   3.315  14.353  0.0722  0.3361  0.1289
 5844SOL    HW129168   1.427   3.253  14.393  0.3758  0.8541  1.4010
 5844SOL    HW229169   1.443   3.397  14.372 -0.6532 -0.7411  3.1255
 5845SOL     OW29170   2.156   2.068   4.900 -0.0013 -0.2672  0.5321
 5845SOL    HW129171   2.064   2.080   4.878 -0.1345 -0.9105  0.7436
 5845SOL    HW229172   2.196   2.024   4.826  1.3156 -1.1657  1.7749
 5846SOL     OW29173   3.251   0.967   2.079 -0.1821 -0.2864 -0.2413
 5846SOL    HW129174   3.321   0.957   2.015  0.1268 -1.2301  0.2521
 5846SOL    HW229175   3.227   1.056   2.055 -0.4923  0.0578  1.3305
 5847SOL     OW29176   4.300   0.102   4.473  0.0838  0.0125  0.2217
 5847SOL    HW129177   4.245   0.141   4.541  2.2061  1.9907  0.8007
 5847SOL    HW229178   4.307   0.173   4.410  0.8989 -0.2841 -0.0328
 5848SOL     OW29179   0.003   3.305   7.287  0.3201  0.0225 -0.0981
 5848SOL    HW129180   4.674   3.262   7.234  0.7216 -3.0907  1.8833
 5848SOL    HW229181   0.078   3.247   7.271 -1.1359 -1.6114 -0.9477
 5849SOL     OW29182   2.126   0.413  17.495  0.2495 -0.3860  0.3394
 5849SOL    HW129183   2.060   0.394  17.428  1.3218 -1.2161 -0.4796
 5849SOL    HW229184   2.074   0.427  17.575  0.7444 -3.8228  1.2759
 5850SOL     OW29185   2.186   0.217   2.892  0.1003 -0.0804  0.4768
 5850SOL    HW129186   2.249   0.218   2.963 -2.4547 -1.4003  2.7859
 5850SOL    HW229187   2.233   0.210   2.809 -2.2641  0.2481 -0.9241
 5851SOL     OW29188   4.447   4.145   3.624  0.8048 -0.0536 -0.0039
 5851SOL    HW129189   4.501   4.201   3.569  0.7803  1.9180  1.9756
 5851SOL    HW229190   4.390   4.107   3.557 -1.2860 -2.1090  2.9300
 5852SOL     OW29191   2.406   0.671   9.448 -0.4284 -0.0032 -0.1357
 5852SOL    HW129192   2.494   0.698   9.419 -1.2996  0.0748 -2.7397
 5852SOL    HW229193   2.403   0.694   9.541  0.6063  0.5787 -0.2462
 5853SOL     OW29194   1.441   0.140   0.113  0.1197 -0.5408 -0.2873
 5853SOL    HW129195   1.536   0.134   0.100  0.2559  0.0056  0.4253
 5853SOL    HW229196   1.413   0.085   0.040  0.0755  0.5576 -1.0866
 5854SOL     OW29197   0.106   2.368  16.477  0.1354  0.0050 -0.5157
 5854SOL    HW129198   0.064   2.452  16.499 -2.7142 -1.5066 -0.2079
 5854SOL    HW229199   0.195   2.403  16.482  0.7841 -1.7166 -0.3662
 5855SOL     OW29200   4.638   1.723   8.463  0.3595 -0.4152 -0.6792
 5855SOL    HW129201   4.544   1.709   8.457  0.0213  1.1537  1.0935
 5855SOL    HW229202   4.668   1.698   8.375 -0.2765  1.4278 -1.4008
 5856SOL     OW29203   0.952   3.843  11.638 -0.9105 -0.1351  0.1554
 5856SOL    HW129204   0.871   3.797  11.619  0.2645 -1.8738 -0.6698
 5856SOL    HW229205   0.935   3.861  11.731  0.1487 -1.8847  0.6825
 5857SOL     OW29206   1.521   0.297   9.066  0.4142  0.3963  0.4528
 5857SOL    HW129207   1.590   0.231   9.068 -1.4244 -1.5311 -0.0243
 5857SOL    HW229208   1.440   0.260   9.030  1.0962 -0.5950 -0.0546
 5858SOL     OW29209   0.873   1.442   4.747  0.6840  0.2244 -0.1937
 5858SOL    HW129210   0.912   1.492   4.818  0.4924 -0.0972  0.1360
 5858SOL    HW229211   0.862   1.362   4.797  3.5372  0.9782  1.6450
 5859SOL     OW29212   3.098   2.823  16.964  0.1505  0.8974 -0.6160
 5859SOL    HW129213   3.154   2.796  16.891  1.3214  2.2942 -0.2578
 5859SOL    HW229214   3.051   2.897  16.924 -0.7619  1.3042  1.2107
 5860SOL     OW29215   4.538   0.352   2.600 -0.3854  0.5385  0.3948
 5860SOL    HW129216   4.470   0.316   2.542 -1.0696  1.6470  0.4880
 5860SOL    HW229217   4.618   0.353   2.548  0.4779 -0.9082  1.7351
 5861SOL     OW29218   2.026   4.571   5.436  0.1534 -0.3767  0.9125
 5861SOL    HW129219   2.057   4.635   5.372  3.4330 -0.8275  2.0253
 5861SOL    HW229220   2.105   4.522   5.459  1.0922  1.3248  1.3623
 5862SOL     OW29221   4.215   0.701   7.926  0.2579 -0.6132 -0.2851
 5862SOL    HW129222   4.278   0.641   7.886 -1.8801 -3.4125  0.5340
 5862SOL    HW229223   4.268   0.778   7.946  0.6721 -0.5738 -1.5003
 5863SOL     OW29224   4.295   2.410   7.339 -0.0232  0.3055  0.0670
 5863SOL    HW129225   4.247   2.335   7.302  0.6807 -1.1952  2.2380
 5863SOL    HW229226   4.242   2.423   7.417 -1.1776  1.8462 -0.9780
 5864SOL     OW29227   2.807   1.939   0.775 -0.0381  0.1948 -0.3100
 5864SOL    HW129228   2.866   1.866   0.752  1.3721  0.9929  0.8055
 5864SOL    HW229229   2.726   1.895   0.802  1.1849 -2.3781 -0.7823
 5865SOL     OW29230   4.514   4.661   7.028  0.9766 -0.0691 -0.6685
 5865SOL    HW129231   4.591   4.682   7.081  1.0528 -1.2833 -0.3125
 5865SOL    HW229232   4.442   4.663   7.092  0.0895  0.5885 -1.6783
 5866SOL     OW29233   0.388   3.305   4.785 -0.1268  0.3778 -0.5250
 5866SOL    HW129234   0.432   3.235   4.833  1.5107  1.0702 -1.0200
 5866SOL    HW229235   0.457   3.319   4.720 -1.2822  1.4950 -1.5097
 5867SOL     OW29236   2.699   2.640   9.982  0.1573 -0.4912  0.2482
 5867SOL    HW129237   2.620   2.610   9.938 -0.1215 -1.3272  1.3188
 5867SOL    HW229238   2.660   2.639  10.069  0.3405  1.0502  0.3542
 5868SOL     OW29239   0.372   4.346   8.632  0.1120 -0.4638  0.0200
 5868SOL    HW129240   0.344   4.364   8.722  2.4215  4.3206 -0.2307
 5868SOL    HW229241   0.342   4.256   8.620 -0.8629 -0.0390 -0.6810
 5869SOL     OW29242   3.019   0.123  13.264  0.1421  0.3159 -0.3128
 5869SOL    HW129243   3.099   0.159  13.226  0.5959 -0.4681 -0.0757
 5869SOL    HW229244   3.051   0.061  13.328  0.3955  0.4698 -0.2920
 5870SOL     OW29245   1.234   1.842   0.182  0.2799 -0.3962  0.0512
 5870SOL    HW129246   1.193   1.814   0.101 -0.0810 -2.2151  0.8502
 5870SOL    HW229247   1.209   1.774   0.245  0.4590  0.1195  0.6840
 5871SOL     OW29248   2.461   1.190  12.546 -0.2220  0.1702  0.5305
 5871SOL    HW129249   2.404   1.171  12.621  0.0538  1.3133  1.0392
 5871SOL    HW229250   2.527   1.243  12.591  0.6898 -1.9189  1.6454
 5872SOL     OW29251   4.565   3.832  10.885 -0.0873 -0.0491  0.6287
 5872SOL    HW129252   4.620   3.782  10.824 -0.9406 -1.0269  0.6587
 5872SOL    HW229253   4.626   3.904  10.900  0.3243 -0.1602 -0.5186
 5873SOL     OW29254   0.893   0.154   8.616  0.2526 -0.6057 -0.0074
 5873SOL    HW129255   0.842   0.090   8.566 -0.8189  0.7303 -0.6193
 5873SOL    HW229256   0.827   0.209   8.659  0.7555  1.4788 -1.8982
 5874SOL     OW29257   1.089   1.480   9.271  0.0324 -0.0654  0.4861
 5874SOL    HW129258   1.183   1.466   9.259 -0.1316  1.1914 -2.1347
 5874SOL    HW229259   1.089   1.495   9.366 -0.8600  0.6230  0.3729
 5875SOL     OW29260   3.305   1.929   9.110 -0.0725 -0.2954  0.5844
 5875SOL    HW129261   3.263   1.864   9.054 -1.4827  0.3753  0.8682
 5875SOL    HW229262   3.391   1.949   9.073 -0.8809 -0.5391 -1.4291
 5876SOL     OW29263   3.105   0.271  13.566 -0.1053 -0.3206 -0.3555
 5876SOL    HW129264   3.187   0.307  13.534 -0.4225  0.6639 -0.0706
 5876SOL    HW229265   3.119   0.179  13.542 -0.4383 -0.5416  0.2809
 5877SOL     OW29266   4.204   2.130   2.928 -0.2391  0.1966 -0.3290
 5877SOL    HW129267   4.274   2.149   2.990 -0.5442 -0.0849  0.1046
 5877SOL    HW229268   4.243   2.057   2.880  1.9877 -0.0964  1.9586
 5878SOL     OW29269   4.506   2.409  13.634 -0.0671  0.1460 -0.1252
 5878SOL    HW129270   4.591   2.365  13.637 -0.9459 -1.7534 -3.2022
 5878SOL    HW229271   4.457   2.362  13.701  2.8079 -1.2908  0.9634
 5879SOL     OW29272   4.272   2.729   8.943 -0.2826  0.3357 -0.2671
 5879SOL    HW129273   4.237   2.780   9.016  0.1410 -0.2684  0.3646
 5879SOL    HW229274   4.358   2.769   8.951  0.4999 -1.3029 -0.6166
 5880SOL     OW29275   2.182   0.726   5.904  0.5245  0.1969 -0.0099
 5880SOL    HW129276   2.216   0.810   5.936  1.2881  0.3659 -1.2603
 5880SOL    HW229277   2.110   0.758   5.848  0.8294  1.3799  0.2687
 5881SOL     OW29278   4.088   0.701   6.739 -0.2394  0.3162  0.0309
 5881SOL    HW129279   4.079   0.688   6.833  1.2733 -1.3166 -0.0586
 5881SOL    HW229280   4.065   0.794   6.738 -0.0028  0.3733 -1.5479
 5882SOL     OW29281   3.233   3.547   6.564  0.4798  0.1869 -0.1918
 5882SOL    HW129282   3.221   3.545   6.469 -2.6801 -1.9338  0.2614
 5882SOL    HW229283   3.302   3.613   6.573  1.7482 -1.0876 -0.5736
 5883SOL     OW29284   0.133   2.435  13.355 -0.6836  0.4749 -0.2963
 5883SOL    HW129285   0.152   2.492  13.281  0.4466  0.4521 -0.0151
 5883SOL    HW229286   0.186   2.478  13.421  0.3480  0.7950 -1.3514
 5884SOL     OW29287   2.239   3.969   8.653 -0.2877  0.3664 -0.5816
 5884SOL    HW129288   2.317   3.937   8.698  1.1861  1.4289 -2.3955
 5884SOL    HW229289   2.215   4.047   8.704 -0.3183  0.6157 -0.9801
 5885SOL     OW29290   2.267   2.132  10.617  0.6270  0.3824 -0.0277
 5885SOL    HW129291   2.258   2.079  10.538  0.8214 -1.2210  1.0220
 5885SOL    HW229292   2.263   2.224  10.594 -1.0490 -0.3344 -2.5372
 5886SOL     OW29293   3.866   3.389  14.722  0.2593  0.1593 -0.2285
 5886SOL    HW129294   3.867   3.466  14.779  3.3563 -1.2090  1.5350
 5886SOL    HW229295   3.834   3.426  14.639 -0.3298  0.7728  0.2626
 5887SOL     OW29296   2.225   1.591  11.089  0.1626  0.1396 -0.1473
 5887SOL    HW129297   2.280   1.666  11.066  0.6414  0.3606  1.7417
 5887SOL    HW229298   2.184   1.632  11.166  2.2892  1.5491  0.2112
 5888SOL     OW29299   3.702   2.238   6.856  0.0446 -0.6017  0.5025
 5888SOL    HW129300   3.696   2.200   6.944  1.2143 -1.5193  0.1847
 5888SOL    HW229301   3.747   2.321   6.871 -0.2820 -0.2585 -0.4325
 5889SOL     OW29302   1.228   2.219   5.381 -0.3371  0.0611 -0.1366
 5889SOL    HW129303   1.224   2.313   5.363  1.1677  0.1914  0.1629
 5889SOL    HW229304   1.199   2.174   5.301 -1.0503  1.9112 -0.9172
 5890SOL     OW29305   4.176   0.561   4.928 -0.5782  0.1458 -0.3313
 5890SOL    HW129306   4.206   0.611   5.004  2.0428 -0.2928 -1.0773
 5890SOL    HW229307   4.207   0.478   4.965 -1.2170 -1.2166 -2.8504
 5891SOL     OW29308   1.994   1.670   2.220  0.2448  0.3439  0.4516
 5891SOL    HW129309   1.976   1.717   2.302  0.6887 -0.7950  1.2153
 5891SOL    HW229310   1.989   1.581   2.255 -0.4655  0.7219  1.3094
 5892SOL     OW29311   3.168   0.120   5.200  0.1060  0.0024 -0.4318
 5892SOL    HW129312   3.084   0.084   5.228  1.0193 -1.6664  0.1467
 5892SOL    HW229313   3.172   0.084   5.112 -3.0509  1.7543 -1.2908
 5893SOL     OW29314   3.623   4.231   8.693  0.0144  0.3696  0.4086
 5893SOL    HW129315   3.613   4.146   8.736 -0.6924 -0.4188 -1.3121
 5893SOL    HW229316   3.595   4.289   8.763 -0.9090 -0.5595  0.8090
 5894SOL     OW29317   3.001   3.789  11.953 -0.1599 -0.5743  0.0424
 5894SOL    HW129318   2.980   3.711  11.900  0.8966 -0.5726 -0.3841
 5894SOL    HW229319   3.095   3.769  11.959  0.0347  0.8000  1.4152
 5895SOL     OW29320   0.899   3.803   5.491  0.3059  0.3334  0.0717
 5895SOL    HW129321   0.979   3.853   5.508  0.5165  0.1430 -0.3706
 5895SOL    HW229322   0.859   3.794   5.577 -1.2593  1.9215 -0.4831
 5896SOL     OW29323   2.404   1.534   2.773  0.5505  0.3017 -0.2927
 5896SOL    HW129324   2.414   1.629   2.778  2.6226  0.0414  0.6841
 5896SOL    HW229325   2.484   1.531   2.720  0.3133 -0.4781 -0.6226
 5897SOL     OW29326   1.108   1.696   5.170 -0.3689  0.3016  0.6155
 5897SOL    HW129327   1.050   1.665   5.239 -3.7118  1.1493 -1.8310
 5897SOL    HW229328   1.188   1.651   5.197  0.8584  1.7093 -0.6214
 5898SOL     OW29329   4.214   3.947   3.801  0.4541  0.1887  0.3714
 5898SOL    HW129330   4.214   3.903   3.886 -0.3541  0.3413  0.4570
 5898SOL    HW229331   4.122   3.972   3.790  0.2071 -0.5551  0.7158
 5899SOL     OW29332   4.477   0.865   8.666  0.3149  0.5613 -0.2432
 5899SOL    HW129333   4.573   0.863   8.667  0.2808 -0.4622  0.8535
 5899SOL    HW229334   4.454   0.822   8.583 -0.1050 -1.2389  0.8211
 5900SOL     OW29335   1.168   0.858   6.731 -0.8300 -1.0169 -0.1820
 5900SOL    HW129336   1.113   0.924   6.772  2.2534  0.2900  1.9253
 5900SOL    HW229337   1.239   0.909   6.692 -0.0503  0.1098  2.7196
 5901SOL     OW29338   0.191   4.392  13.466  0.2851 -0.0235  0.3075
 5901SOL    HW129339   0.150   4.341  13.396  1.4938  2.3548 -2.1421
 5901SOL    HW229340   0.249   4.326  13.507 -0.4189 -0.8776 -0.0678
 5902SOL     OW29341   1.396   0.694   5.715 -0.7728  0.2545 -0.0061
 5902SOL    HW129342   1.490   0.712   5.703 -0.9066  0.3850 -0.8080
 5902SOL    HW229343   1.360   0.773   5.676  0.5841  0.8588 -0.0541
 5903SOL     OW29344   1.169   4.656   7.405  0.0045  0.0228 -0.3111
 5903SOL    HW129345   1.127   4.641   7.320 -3.1066  0.1927  1.2215
 5903SOL    HW229346   1.150   4.568   7.438 -1.4630  0.9782  1.3896
 5904SOL     OW29347   0.711   0.250  17.718 -0.4562 -0.7915 -0.2051
 5904SOL    HW129348   0.637   0.310  17.724  0.7036  0.5931  0.0693
 5904SOL    HW229349   0.758   0.287  17.644 -0.5274  0.2227  0.2627
 5905SOL     OW29350   4.728   0.505   5.698 -0.2759  0.3384  0.0476
 5905SOL    HW129351   4.731   0.581   5.757  1.3648  1.2113 -1.1654
 5905SOL    HW229352   4.730   0.434   5.761 -0.0440  0.2738 -0.0358
 5906SOL     OW29353   1.843   0.043  15.309  0.2147 -0.5695  0.2724
 5906SOL    HW129354   1.784   4.706  15.318 -0.2475 -0.2421 -0.0369
 5906SOL    HW229355   1.922   4.730  15.290  0.9381  0.5693  0.2354
 5907SOL     OW29356   0.813   3.999  13.859 -0.0005 -0.2509  0.9869
 5907SOL    HW129357   0.807   4.093  13.878 -0.6301 -0.2946  1.0307
 5907SOL    HW229358   0.737   3.966  13.909 -1.2171  0.0319 -0.6741
 5908SOL     OW29359   3.374   3.076   5.817 -0.2602 -0.7458  0.6013
 5908SOL    HW129360   3.405   3.001   5.868  2.3847 -0.6322 -0.8378
 5908SOL    HW229361   3.456   3.091   5.771 -0.1628 -2.9828  0.0156
 5909SOL     OW29362   3.151   3.554   7.876  0.2682  0.3789  0.5236
 5909SOL    HW129363   3.080   3.545   7.813 -0.4162  1.3438  1.1479
 5909SOL    HW229364   3.111   3.617   7.937 -1.8092 -1.2693  0.8534
 5910SOL     OW29365   4.057   1.867   3.512 -0.0105 -0.1745  0.0262
 5910SOL    HW129366   4.035   1.903   3.427  2.0993  1.9279  0.3623
 5910SOL    HW229367   4.054   1.772   3.507  1.2514 -0.1981 -0.3832
 5911SOL     OW29368   0.829   3.498   4.739  0.1023 -0.6471 -0.5141
 5911SOL    HW129369   0.816   3.587   4.706  3.4681 -0.4879 -1.3592
 5911SOL    HW229370   0.888   3.460   4.675  0.6774  0.0037 -0.3727
 5912SOL     OW29371   1.060   0.145   9.060  0.3179  0.1172  0.3155
 5912SOL    HW129372   1.051   0.082   8.988 -0.3535  2.9111 -2.0484
 5912SOL    HW229373   0.985   0.198   9.033 -1.1118 -1.5535  1.0373
 5913SOL     OW29374   4.312   3.002   6.508  0.0144  0.0909  0.0840
 5913SOL    HW129375   4.375   3.062   6.548  0.0663  0.0996 -0.0117
 5913SOL    HW229376   4.235   3.032   6.556 -0.4847 -1.7012  0.4234
 5914SOL     OW29377   4.706   0.033   3.007  0.0844  0.1712  0.9045
 5914SOL    HW129378   4.667   4.688   3.034 -0.1327 -0.8361 -2.4882
 5914SOL    HW229379   4.659   0.034   2.924 -1.0122 -0.4474  1.5138
 5915SOL     OW29380   3.833   1.408   4.909  0.0673  0.0901  0.2843
 5915SOL    HW129381   3.907   1.360   4.947 -0.4138  1.1320  2.5743
 5915SOL    HW229382   3.767   1.340   4.920 -1.4665  1.4031 -1.0207
 5916SOL     OW29383   4.215   1.117  16.770 -0.3936 -0.2989  0.4533
 5916SOL    HW129384   4.133   1.103  16.818 -1.5412  1.6497 -0.9204
 5916SOL    HW229385   4.207   1.212  16.757  3.2766  0.0891  1.1538
 5917SOL     OW29386   1.546   2.008   8.015  0.1658 -0.4326 -0.1328
 5917SOL    HW129387   1.543   2.101   8.037 -1.7929 -0.4171 -0.4513
 5917SOL    HW229388   1.464   1.995   7.966  1.4994  0.5325 -2.6568
 5918SOL     OW29389   2.222   2.064   0.178 -0.5085  0.2857  0.3088
 5918SOL    HW129390   2.268   2.095   0.101 -1.9084  0.2982 -0.5129
 5918SOL    HW229391   2.277   2.075   0.256 -1.0693 -0.7926  0.8605
 5919SOL     OW29392   4.732   3.716   2.113 -0.1890 -0.3415  0.0324
 5919SOL    HW129393   0.090   3.728   2.110 -0.0576 -1.1515  0.8339
 5919SOL    HW229394   4.732   3.623   2.135  3.0447 -0.0872  1.1159
 5920SOL     OW29395   1.518   0.798  16.350  0.2508 -0.1893  0.0160
 5920SOL    HW129396   1.573   0.761  16.420 -0.0151 -4.1290 -1.8493
 5920SOL    HW229397   1.428   0.788  16.383  0.5620  0.7354  1.1747
 5921SOL     OW29398   0.472   2.573   5.091 -0.0883 -0.3849  0.0193
 5921SOL    HW129399   0.457   2.657   5.134 -1.7604 -0.2796 -0.7395
 5921SOL    HW229400   0.550   2.595   5.041  0.7531 -2.1369  0.5774
 5922SOL     OW29401   3.776   3.264  15.867  1.1584 -0.3841 -0.5519
 5922SOL    HW129402   3.789   3.269  15.962 -1.1360  0.4070 -0.2939
 5922SOL    HW229403   3.684   3.240  15.866  1.0488 -0.1440  2.1319
 5923SOL     OW29404   3.078   1.891   5.518  0.0858  0.4915  0.6188
 5923SOL    HW129405   3.110   1.819   5.572  0.8059 -0.7467 -1.4629
 5923SOL    HW229406   3.103   1.870   5.428  0.2128  1.6447  0.3870
 5924SOL     OW29407   0.206   4.658   6.607  0.3916  0.6703  1.0231
 5924SOL    HW129408   0.129   4.692   6.561 -0.3632 -1.1507  0.9249
 5924SOL    HW229409   0.190   4.568   6.636  0.7395  0.2551 -0.0699
 5925SOL     OW29410   0.804   3.072  15.164  0.3162 -0.4802 -0.0893
 5925SOL    HW129411   0.729   3.095  15.109  1.0142 -0.3264 -0.9728
 5925SOL    HW229412   0.836   3.156  15.198 -2.1591  0.7804 -0.8281
 5926SOL     OW29413   1.135   2.719  11.832  0.7599 -0.5394 -0.2785
 5926SOL    HW129414   1.076   2.680  11.768  2.3438 -0.6908 -1.6177
 5926SOL    HW229415   1.137   2.643  11.890  1.5050  0.7715  1.4308
 5927SOL     OW29416   0.853   1.212   2.097  0.0239  0.0476 -0.4367
 5927SOL    HW129417   0.879   1.276   2.031  1.9276  0.5313  0.7503
 5927SOL    HW229418   0.815   1.269   2.164 -0.2558  0.0610 -0.6103
 5928SOL     OW29419   4.403   0.725   5.796  0.3172 -0.1023  0.2271
 5928SOL    HW129420   4.403   0.758   5.886  0.2380  3.7917 -1.1988
 5928SOL    HW229421   4.426   0.811   5.760 -1.6213  0.5180  0.4424
 5929SOL     OW29422   1.616   0.841  14.327  0.3445  0.3310  0.3752
 5929SOL    HW129423   1.554   0.888  14.383 -1.6545  0.0089 -1.5612
 5929SOL    HW229424   1.640   0.773  14.390 -2.9193  0.4083  1.7185
 5930SOL     OW29425   0.235   0.485   7.813  0.7802  0.5886 -0.2313
 5930SOL    HW129426   0.223   0.424   7.886  0.0213  0.9171 -0.0817
 5930SOL    HW229427   0.331   0.490   7.811  0.8354 -0.3389  0.3478
 5931SOL     OW29428   1.640   0.439   0.273 -0.0458 -0.1061 -0.3214
 5931SOL    HW129429   1.659   0.533   0.281  0.4768 -0.1934 -0.4878
 5931SOL    HW229430   1.720   0.408   0.231 -0.0721 -0.1638 -0.3287
 5932SOL     OW29431   3.022   3.774   6.517  0.0715 -0.4640  0.1149
 5932SOL    HW129432   3.026   3.738   6.429 -5.5867 -1.1814  0.1619
 5932SOL    HW229433   3.107   3.817   6.526 -0.0864 -0.5442  2.0526
 5933SOL     OW29434   0.435   4.370   6.146  0.5222 -0.5231  0.2821
 5933SOL    HW129435   0.362   4.402   6.093  0.3059  1.2903  1.6769
 5933SOL    HW229436   0.442   4.281   6.111 -1.3318  0.8324 -3.4439
 5934SOL     OW29437   0.876   1.208   7.585 -0.0875 -0.5657 -0.1101
 5934SOL    HW129438   0.886   1.303   7.600  1.0091 -1.1192  2.6274
 5934SOL    HW229439   0.943   1.179   7.646 -1.0195  1.5259  1.9058
 5935SOL     OW29440   3.055   2.279   7.676 -0.4059 -0.1696 -0.3133
 5935SOL    HW129441   3.097   2.277   7.762 -2.4220  1.2063  0.6894
 5935SOL    HW229442   2.970   2.240   7.696 -0.7861 -0.2614 -2.0925
 5936SOL     OW29443   4.415   1.894   2.584 -0.2120 -0.2841  0.1908
 5936SOL    HW129444   4.331   1.851   2.603 -1.4107  0.2984 -3.7848
 5936SOL    HW229445   4.469   1.816   2.577  0.3714  0.1767 -0.4501
 5937SOL     OW29446   1.637   3.205   6.039 -0.0494 -0.2920  0.2347
 5937SOL    HW129447   1.622   3.117   6.073 -0.0861 -0.4753 -0.2656
 5937SOL    HW229448   1.581   3.212   5.962  0.5056  2.7409  0.1289
 5938SOL     OW29449   4.221   0.426   3.302 -0.1510  0.2651 -0.0565
 5938SOL    HW129450   4.158   0.366   3.263  0.8391 -1.5655  1.1839
 5938SOL    HW229451   4.204   0.399   3.392  1.0504 -1.8096 -0.4651
 5939SOL     OW29452   1.410   2.133   2.324  0.1498  0.5091  0.0200
 5939SOL    HW129453   1.481   2.164   2.268 -0.5316  2.6296  0.3244
 5939SOL    HW229454   1.371   2.220   2.338  1.1610  0.8290  0.8712
 5940SOL     OW29455   0.288   2.307   8.869  0.1356 -0.3014 -0.0827
 5940SOL    HW129456   0.272   2.246   8.797  2.1583 -1.4131  0.3946
 5940SOL    HW229457   0.371   2.345   8.841  1.4740 -0.8451  3.1130
 5941SOL     OW29458   1.212   0.044   3.401  0.1548  0.4824 -0.0649
 5941SOL    HW129459   1.182   0.055   3.491  0.0567 -2.6331  0.2934
 5941SOL    HW229460   1.276   0.113   3.387 -0.3582  1.1805  1.0658
 5942SOL     OW29461   1.927   4.337   7.041  0.0513  0.2619 -0.5670
 5942SOL    HW129462   1.916   4.390   7.119  0.9375 -2.7187  1.5753
 5942SOL    HW229463   2.008   4.361   6.994  0.7019 -0.5425  0.1418
 5943SOL     OW29464   2.839   1.576   9.029  0.4987 -0.3019  0.0485
 5943SOL    HW129465   2.894   1.634   8.976 -0.0542 -0.1105 -0.3242
 5943SOL    HW229466   2.775   1.539   8.968 -0.7610  1.7582  0.0843
 5944SOL     OW29467   2.067   4.033   9.356  0.4818  0.0147  0.0081
 5944SOL    HW129468   2.145   4.085   9.340  0.1975  0.0761 -1.1340
 5944SOL    HW229469   2.047   3.995   9.271 -2.7829 -1.1542  1.2889
 5945SOL     OW29470   2.093   4.063   5.974  0.5835 -0.0741 -0.0624
 5945SOL    HW129471   2.011   4.095   6.010  1.5393  1.5003  0.6991
 5945SOL    HW229472   2.066   3.975   5.949  0.7794  0.0572 -0.7237
 5946SOL     OW29473   3.583   2.299   6.449 -0.0663 -0.4020  0.2148
 5946SOL    HW129474   3.514   2.344   6.500 -0.8951  0.6308 -1.8253
 5946SOL    HW229475   3.630   2.368   6.402 -0.6861 -1.0178 -1.2695
 5947SOL     OW29476   1.418   2.413   5.879 -0.1922 -0.4135  0.0806
 5947SOL    HW129477   1.361   2.413   5.956  0.3991 -1.3407  0.5229
 5947SOL    HW229478   1.399   2.504   5.855  2.7776 -0.5175 -2.5947
 5948SOL     OW29479   1.659   2.629   4.959  0.2810  0.0546 -0.1029
 5948SOL    HW129480   1.594   2.612   4.890 -0.7473 -2.0265  1.3679
 5948SOL    HW229481   1.609   2.685   5.018 -1.0534  2.4801 -3.5197
 5949SOL     OW29482   3.344   2.245   6.235 -0.2065 -0.0501  0.0606
 5949SOL    HW129483   3.364   2.222   6.326 -0.1121  0.6659  0.2194
 5949SOL    HW229484   3.348   2.341   6.233 -0.1287 -0.0500  0.2278
 5950SOL     OW29485   3.943   2.762   7.017  0.3660  0.4671 -0.2311
 5950SOL    HW129486   3.868   2.740   7.073  0.7286  1.4077  0.6238
 5950SOL    HW229487   4.010   2.777   7.083 -1.3493 -1.3958  1.9792
 5951SOL     OW29488   1.431   3.386   3.511  0.5043 -0.2861  0.5698
 5951SOL    HW129489   1.452   3.297   3.540  1.0183 -0.7970 -1.3556
 5951SOL    HW229490   1.457   3.438   3.587  0.3138  2.5045 -1.2725
 5952SOL     OW29491   1.259   3.617   6.066 -0.0266 -0.2391 -0.8374
 5952SOL    HW129492   1.176   3.649   6.030 -0.3657 -1.7936 -1.4140
 5952SOL    HW229493   1.245   3.642   6.158  0.9648 -0.1277 -0.7216
 5953SOL     OW29494   4.514   1.965   3.762 -0.3111 -0.5304  0.4659
 5953SOL    HW129495   4.599   1.949   3.721 -0.1831  1.2463  0.0240
 5953SOL    HW229496   4.445   1.926   3.709  0.4986 -0.8803 -0.3343
 5954SOL     OW29497   3.622   0.388  16.655 -0.0753  0.1217  0.4198
 5954SOL    HW129498   3.697   0.346  16.698 -0.1083  0.6629  1.0076
 5954SOL    HW229499   3.550   0.327  16.670  0.1210 -0.2788 -0.2614
 5955SOL     OW29500   2.740   2.297   1.316 -0.3870 -0.2529 -0.0845
 5955SOL    HW129501   2.835   2.306   1.317 -0.2808 -1.3491 -0.5907
 5955SOL    HW229502   2.726   2.211   1.277 -3.3899  0.2201 -0.0367
 5956SOL     OW29503   2.237   4.347   4.800  0.3165  0.3899 -0.1943
 5956SOL    HW129504   2.312   4.299   4.834  0.4282 -0.2998 -1.4176
 5956SOL    HW229505   2.177   4.281   4.768 -1.6495  1.6930  0.7752
 5957SOL     OW29506   4.535   4.244   5.844 -0.5563 -0.1918 -0.1953
 5957SOL    HW129507   4.534   4.270   5.752 -1.3060  0.0842 -0.1089
 5957SOL    HW229508   4.628   4.221   5.844 -0.6263 -0.4566 -1.6769
 5958SOL     OW29509   0.866   2.486   8.738  0.0277 -0.5932 -0.1045
 5958SOL    HW129510   0.831   2.399   8.720 -0.0102 -0.4777 -0.5899
 5958SOL    HW229511   0.891   2.469   8.829  0.6412 -1.1654 -0.3794
 5959SOL     OW29512   2.286   4.678   9.517  0.3069  0.1397  0.3502
 5959SOL    HW129513   2.199   4.656   9.551  0.7922 -2.0596  0.1607
 5959SOL    HW229514   2.329   4.656   9.600 -1.0950  1.5563  1.4527
 5960SOL     OW29515   1.728   2.025   7.790  0.2081 -0.5235  0.5771
 5960SOL    HW129516   1.696   1.968   7.860  1.6435 -0.7700  1.0225
 5960SOL    HW229517   1.757   2.094   7.849  0.8035 -0.2665 -0.0222
 5961SOL     OW29518   3.480   3.327   3.206 -0.1327  0.3993 -0.3260
 5961SOL    HW129519   3.446   3.304   3.120 -0.8204 -0.3003  0.1346
 5961SOL    HW229520   3.478   3.240   3.245 -0.8840 -0.2720 -1.8715
 5962SOL     OW29521   2.011   0.577  13.241  0.1718  0.3079  0.2402
 5962SOL    HW129522   1.999   0.671  13.226 -0.8922 -0.2521 -2.4227
 5962SOL    HW229523   2.083   0.573  13.304 -0.9845  0.3647  1.5495
 5963SOL     OW29524   3.154   2.807   4.187  0.1953 -0.0449 -0.4579
 5963SOL    HW129525   3.144   2.887   4.238  0.6085  0.9367 -1.9275
 5963SOL    HW229526   3.214   2.758   4.244 -1.0106 -0.4222  0.4867
 5964SOL     OW29527   2.604   2.005   7.982 -0.8952  0.1913  0.2527
 5964SOL    HW129528   2.620   2.071   7.915 -1.7059  0.1892  0.0603
 5964SOL    HW229529   2.523   1.971   7.944 -2.0187  0.1956  2.6389
 5965SOL     OW29530   4.619   1.040   8.425 -0.3111 -0.3150 -0.1711
 5965SOL    HW129531   4.570   0.967   8.386 -1.1837 -0.1261  0.5655
 5965SOL    HW229532   4.713   1.035   8.409 -0.4942 -1.0673 -1.0186
 5966SOL     OW29533   4.694   2.062   7.394  0.1369 -1.1109  0.8067
 5966SOL    HW129534   4.643   2.123   7.340  1.6624 -0.5739 -0.0117
 5966SOL    HW229535   0.030   2.121   7.408 -1.2717  0.8225  0.1523
 5967SOL     OW29536   4.347   1.689   8.472 -0.0482 -0.0547 -0.1657
 5967SOL    HW129537   4.307   1.646   8.396  0.6156 -0.0213 -0.5376
 5967SOL    HW229538   4.294   1.768   8.472 -0.3690 -0.2575 -2.7411
 5968SOL     OW29539   2.998   2.931   8.398  0.5015  0.0339  0.1274
 5968SOL    HW129540   3.009   2.980   8.316  1.0765 -1.0523 -0.4461
 5968SOL    HW229541   3.023   2.999   8.461 -0.4589  0.5883 -0.0765
 5969SOL     OW29542   3.615   4.711   7.396  0.6630  0.3993 -0.0011
 5969SOL    HW129543   3.659   4.627   7.387 -0.2732 -0.3963  2.7383
 5969SOL    HW229544   3.687   0.035   7.380 -1.5062  2.6754 -1.1082
 5970SOL     OW29545   0.323   0.678   5.850 -0.5093  0.0010  0.3971
 5970SOL    HW129546   0.360   0.661   5.936  1.3577  2.4537  0.0970
 5970SOL    HW229547   0.325   0.587   5.822 -2.5919 -0.0379  0.4123
 5971SOL     OW29548   1.400   2.059   2.670 -0.4018 -0.6449  0.0183
 5971SOL    HW129549   1.388   2.015   2.586 -2.4517  0.0923 -0.0642
 5971SOL    HW229550   1.358   1.997   2.729  2.0614 -1.5268  0.8626
 5972SOL     OW29551   3.347   4.395   4.775  0.0793 -0.2117 -0.2047
 5972SOL    HW129552   3.310   4.481   4.752  0.7141 -0.0625 -0.6564
 5972SOL    HW229553   3.379   4.374   4.687  1.3627 -0.9837  0.4506
 5973SOL     OW29554   0.246   1.023   5.836  0.5990 -0.1575 -0.0426
 5973SOL    HW129555   0.283   1.006   5.750  2.8930 -1.1895  1.1633
 5973SOL    HW229556   0.258   1.117   5.845  0.6581 -0.0605 -1.0921
 5974SOL     OW29557   0.284   3.062   5.050  0.3453  0.0475  0.1494
 5974SOL    HW129558   0.351   3.120   5.088 -0.0575 -2.0421  4.1334
 5974SOL    HW229559   0.232   3.111   4.987  1.1598  0.7084 -0.0088
 5975SOL     OW29560   0.740   4.116   5.167 -0.1541  0.6116  0.1425
 5975SOL    HW129561   0.745   4.154   5.080 -2.3696  0.0628 -0.2254
 5975SOL    HW229562   0.644   4.113   5.173 -0.2071  0.0385 -0.9684
 5976SOL     OW29563   3.288   1.050   1.036  0.2020  0.2388  0.5902
 5976SOL    HW129564   3.266   1.082   0.949 -0.6288 -0.2391  0.6292
 5976SOL    HW229565   3.199   1.044   1.070  0.6998 -1.2392  1.6111
 5977SOL     OW29566   2.456   4.211   3.270 -0.1143  0.6599 -0.2453
 5977SOL    HW129567   2.425   4.155   3.199  1.9129  1.2839 -1.6439
 5977SOL    HW229568   2.536   4.164   3.293 -0.6507  0.0193  0.3180
 5978SOL     OW29569   2.099   4.354   4.173 -0.1978  0.2271  0.0126
 5978SOL    HW129570   2.017   4.344   4.125 -0.5243  0.4525  0.5219
 5978SOL    HW229571   2.149   4.418   4.122 -0.7805 -0.3071 -1.2481
 5979SOL     OW29572   2.854   4.382   7.614  0.0406 -0.0275 -0.5460
 5979SOL    HW129573   2.768   4.406   7.578 -1.0357  1.7376  3.1538
 5979SOL    HW229574   2.879   4.454   7.673  0.3044 -1.5523  1.1953
 5980SOL     OW29575   1.470   3.130   3.545  0.3788 -0.0518 -0.7353
 5980SOL    HW129576   1.517   3.103   3.624  1.1423  5.1449  0.5846
 5980SOL    HW229577   1.505   3.057   3.495  1.1294 -0.4216  0.3294
 5981SOL     OW29578   0.642   1.936   5.217  0.2915  0.1121  0.5896
 5981SOL    HW129579   0.552   1.936   5.186  0.4178  0.9572  0.2195
 5981SOL    HW229580   0.638   2.001   5.287  0.1612  1.9768 -1.1432
 5982SOL     OW29581   1.396   1.187   4.490  0.3168 -0.3499 -0.4137
 5982SOL    HW129582   1.338   1.120   4.524 -0.4139  0.3217 -0.3406
 5982SOL    HW229583   1.457   1.188   4.564 -0.5943 -0.6348  0.3286
 5983SOL     OW29584   4.656   1.051  13.982 -0.1635 -0.2618  0.4105
 5983SOL    HW129585   4.634   0.961  13.959  1.7223 -0.6844  0.2486
 5983SOL    HW229586   4.722   1.036  14.050 -1.0033  2.0924  1.7651
 5984SOL     OW29587   1.025   2.041   0.505  0.3217  0.2109 -0.2187
 5984SOL    HW129588   0.935   2.008   0.505 -0.4950  2.4489  1.8248
 5984SOL    HW229589   1.051   1.968   0.448 -0.0829 -0.4678  0.4549
 5985SOL     OW29590   1.403   3.329   1.789 -0.0437 -0.3077  0.5569
 5985SOL    HW129591   1.375   3.420   1.775  1.9906  0.0269 -1.2385
 5985SOL    HW229592   1.436   3.316   1.701  0.0729  4.0503 -0.0558
 5986SOL     OW29593   0.503   3.380   8.999  0.0912 -0.2155  0.9892
 5986SOL    HW129594   0.458   3.298   9.019  1.0766 -1.0652 -0.2063
 5986SOL    HW229595   0.595   3.354   9.005 -0.4785 -2.7888 -1.0811
 5987SOL     OW29596   1.832   2.763   8.578  0.2227  0.0817  0.1423
 5987SOL    HW129597   1.814   2.822   8.651 -0.7362 -0.5780  0.4349
 5987SOL    HW229598   1.845   2.680   8.623 -2.0738  0.1076  0.8456
 5988SOL     OW29599   0.957   1.415   1.948  0.2562 -0.0231 -0.3741
 5988SOL    HW129600   0.965   1.406   1.853 -1.1926 -0.5443 -0.4426
 5988SOL    HW229601   0.930   1.507   1.955  0.0602 -0.1460  0.5152
 5989SOL     OW29602   0.972   1.800  14.901 -0.5569  0.4639  0.3511
 5989SOL    HW129603   1.008   1.824  14.986  1.4716  2.6070 -1.0949
 5989SOL    HW229604   0.983   1.705  14.898 -0.4908  0.5445 -2.3073
 5990SOL     OW29605   4.270   1.443  13.813 -0.2409 -0.1576 -0.5744
 5990SOL    HW129606   4.187   1.462  13.770 -0.8611  0.1224  0.7562
 5990SOL    HW229607   4.262   1.467  13.905  1.3682  2.1886 -1.0479
 5991SOL     OW29608   2.064   3.510   2.878  0.0045  0.9551 -0.0629
 5991SOL    HW129609   2.033   3.549   2.960 -0.4143 -1.1000  0.7407
 5991SOL    HW229610   2.150   3.497   2.918 -0.0210  1.5263  0.1822
 5992SOL     OW29611   2.568   4.286   6.955 -0.3952 -0.1343 -0.2550
 5992SOL    HW129612   2.638   4.256   6.898 -1.2539 -1.6388 -0.5066
 5992SOL    HW229613   2.502   4.325   6.897 -0.2126  1.1278  0.3918
 5993SOL     OW29614   2.332   0.256   2.665  0.3112  0.7060  0.0446
 5993SOL    HW129615   2.278   0.304   2.602 -0.0037  0.8523  0.4232
 5993SOL    HW229616   2.421   0.257   2.630 -0.0781 -2.1334 -1.0798
 5994SOL     OW29617   2.788   1.766   5.728 -1.0087 -0.5580  0.2529
 5994SOL    HW129618   2.848   1.724   5.667  0.9041  0.2549  1.5948
 5994SOL    HW229619   2.746   1.833   5.674 -2.3921 -1.4181  0.2622
 5995SOL     OW29620   4.669   3.624   3.263  0.1181  0.1621 -0.3350
 5995SOL    HW129621   4.630   3.567   3.196 -1.3826  2.0454 -1.0719
 5995SOL    HW229622   0.025   3.619   3.243  0.6527  0.1481  2.1566
 5996SOL     OW29623   2.165   4.133   0.934 -0.1859 -0.2536  0.5271
 5996SOL    HW129624   2.109   4.106   0.861  1.9148  0.4276 -1.3278
 5996SOL    HW229625   2.198   4.047   0.961 -1.5721 -0.6575  0.9531
 5997SOL     OW29626   3.439   1.986   4.803 -0.9991  0.0156  0.7684
 5997SOL    HW129627   3.508   2.037   4.763 -1.2661 -0.4610 -0.2879
 5997SOL    HW229628   3.386   1.955   4.730 -0.7630  1.3492  0.0348
 5998SOL     OW29629   0.608   0.660   6.309  0.3174 -0.2054 -0.8993
 5998SOL    HW129630   0.657   0.584   6.341 -0.4334 -0.4089 -0.2446
 5998SOL    HW229631   0.650   0.721   6.371  1.8912 -3.6068  1.3811
 5999SOL     OW29632   2.672   0.067   2.779 -0.0325 -0.4835 -0.5048
 5999SOL    HW129633   2.732   4.735   2.754  0.4592 -0.7280  1.3134
 5999SOL    HW229634   2.642   0.035   2.864 -0.7368 -0.2852 -0.6753
 6000SOL     OW29635   0.479   1.583   5.645  0.3834  0.3118 -0.1420
 6000SOL    HW129636   0.428   1.578   5.725  1.4996 -0.8335  0.4954
 6000SOL    HW229637   0.411   1.558   5.582  0.2967  0.7629 -0.2247
 6001SOL     OW29638   3.583   1.384   4.047 -0.3864 -0.0216 -0.2667
 6001SOL    HW129639   3.506   1.369   3.993 -0.5678  3.0422 -0.8410
 6001SOL    HW229640   3.594   1.297   4.086 -3.8177 -0.1156  0.5095
 6002SOL     OW29641   4.184   1.521  14.044  0.2557  0.3427 -0.4490
 6002SOL    HW129642   4.131   1.600  14.056  0.5729  0.3596  0.8383
 6002SOL    HW229643   4.121   1.456  14.074  0.9093  1.0111  2.3399
 6003SOL     OW29644   1.702   4.733   6.299  0.0621 -0.4023  0.4300
 6003SOL    HW129645   1.611   0.025   6.290  0.1428  0.0224  1.0488
 6003SOL    HW229646   1.723   0.017   6.389 -1.7500 -1.4312  1.1056
 6004SOL     OW29647   3.336   4.462   3.693  0.1053 -0.0615 -0.3475
 6004SOL    HW129648   3.254   4.441   3.737 -1.3886  1.5869 -2.4249
 6004SOL    HW229649   3.405   4.428   3.751 -1.1276 -2.2181 -0.1484
 6005SOL     OW29650   4.482   0.237   4.249 -0.2837  0.1751 -0.6844
 6005SOL    HW129651   4.431   0.182   4.190  0.5792  0.6081 -1.8359
 6005SOL    HW229652   4.549   0.174   4.278 -0.4969  0.7207  0.9970
 6006SOL     OW29653   2.379   4.350   9.927 -0.4108  0.3720  0.1621
 6006SOL    HW129654   2.473   4.354   9.944 -0.2753  1.5761 -0.9022
 6006SOL    HW229655   2.348   4.373  10.014 -1.8731 -0.7954 -0.0488
 6007SOL     OW29656   3.066   0.857   7.885  0.3163  0.2985 -0.4996
 6007SOL    HW129657   2.996   0.890   7.830 -0.2798  1.9426  1.2475
 6007SOL    HW229658   3.048   0.886   7.975 -1.6227 -3.7051  0.4109
 6008SOL     OW29659   0.346   4.626  13.518  0.5533  0.3873 -0.0989
 6008SOL    HW129660   0.271   4.566  13.519  1.2848 -0.4940  1.9503
 6008SOL    HW229661   0.407   4.572  13.569  0.2648 -1.0399 -1.2400
 6009SOL     OW29662   0.074   3.891   2.399 -0.1456  0.2262  0.0711
 6009SOL    HW129663   4.717   3.879   2.405  0.2470 -1.7632  2.4210
 6009SOL    HW229664   0.103   3.821   2.458 -0.4211 -0.5809 -0.7353
 6010SOL     OW29665   0.250   1.892   2.936  0.2884 -0.3939 -0.4883
 6010SOL    HW129666   0.241   1.853   2.849 -1.5319 -0.8954 -0.0803
 6010SOL    HW229667   0.204   1.835   2.998 -0.0283  0.1546 -0.2214
 6011SOL     OW29668   1.958   3.961  10.838 -0.1061  0.2916  0.1892
 6011SOL    HW129669   1.991   3.885  10.789 -1.2051  0.0971 -0.2365
 6011SOL    HW229670   1.888   3.990  10.780 -0.3156 -0.2938  0.1492
 6012SOL     OW29671   3.274   1.896   3.256  0.1376 -0.0376 -0.4519
 6012SOL    HW129672   3.247   1.978   3.297 -2.6534 -0.4947 -1.3474
 6012SOL    HW229673   3.287   1.929   3.167 -1.0406 -0.5866 -0.8338
 6013SOL     OW29674   0.475   3.220   7.310  0.3253 -0.4053 -0.3983
 6013SOL    HW129675   0.460   3.268   7.228  0.4459 -1.9312 -1.3166
 6013SOL    HW229676   0.534   3.280   7.356  0.4376 -0.2816 -0.6988
 6014SOL     OW29677   0.680   4.609   7.043 -0.0497  0.3126 -0.2761
 6014SOL    HW129678   0.664   4.703   7.047 -2.0057 -0.0790  0.5599
 6014SOL    HW229679   0.627   4.576   7.115  0.7021  0.2963  0.2642
 6015SOL     OW29680   1.945   1.777   7.878 -0.0468  0.0818 -0.1539
 6015SOL    HW129681   1.905   1.806   7.960  1.2429  1.1665  0.0736
 6015SOL    HW229682   1.898   1.693   7.872  2.8403 -1.6020  0.9241
 6016SOL     OW29683   3.308   4.558  16.174 -0.2276 -0.3878 -0.1936
 6016SOL    HW129684   3.350   4.579  16.091 -1.9741 -0.0925 -1.0099
 6016SOL    HW229685   3.339   4.627  16.233  1.1150 -1.8093  0.7666
 6017SOL     OW29686   3.547   0.716   6.262 -0.1529  0.3387  0.4812
 6017SOL    HW129687   3.566   0.669   6.343  0.9552  1.1540  0.6898
 6017SOL    HW229688   3.623   0.772   6.244  0.0944  0.1176  0.8491
 6018SOL     OW29689   2.209   3.474   2.254  0.2258  0.5111 -0.5990
 6018SOL    HW129690   2.249   3.555   2.222 -1.2982  1.5689  0.1735
 6018SOL    HW229691   2.167   3.437   2.176 -1.2707  1.9341 -0.4872
 6019SOL     OW29692   1.449   2.709  15.674  0.1387  0.0624 -0.1919
 6019SOL    HW129693   1.495   2.789  15.646  0.6147 -0.8186 -1.9339
 6019SOL    HW229694   1.509   2.642  15.640 -0.4013 -0.1745 -0.6743
 6020SOL     OW29695   0.367   3.066   8.402  0.2879  0.0722  0.4627
 6020SOL    HW129696   0.288   3.059   8.455 -0.7010 -1.3754 -1.2488
 6020SOL    HW229697   0.429   3.005   8.443  0.2403 -0.4908 -0.3032
 6021SOL     OW29698   4.647   1.209   7.541 -0.9467  0.0573  0.1727
 6021SOL    HW129699   4.675   1.121   7.569 -1.5274 -0.0021  0.5608
 6021SOL    HW229700   4.732   1.253   7.535 -0.4945 -0.7478  0.6439
 6022SOL     OW29701   2.762   1.829   7.640 -0.4932  0.0927  0.0554
 6022SOL    HW129702   2.810   1.844   7.558 -2.0086  0.0097 -0.8405
 6022SOL    HW229703   2.703   1.760   7.610 -0.3773  0.1758 -0.3709
 6023SOL     OW29704   0.400   4.488   3.464 -0.5428 -0.4234 -0.1126
 6023SOL    HW129705   0.456   4.565   3.467 -1.4405  0.1800  0.9711
 6023SOL    HW229706   0.364   4.479   3.552 -2.7571 -2.0600 -1.1799
 6024SOL     OW29707   2.548   3.592  17.196  0.0904  0.5977 -0.2212
 6024SOL    HW129708   2.506   3.591  17.282  3.0220 -1.5009  1.1609
 6024SOL    HW229709   2.639   3.572  17.217 -0.1122  0.7180  0.7773
 6025SOL     OW29710   1.913   0.640   4.418 -0.9330 -0.4395 -0.5725
 6025SOL    HW129711   1.844   0.573   4.411 -2.8426  1.3289  1.2200
 6025SOL    HW229712   1.952   0.630   4.331 -1.5856 -0.3670 -0.8792
 6026SOL     OW29713   4.613   4.197   4.057  0.1304  0.1175 -0.6325
 6026SOL    HW129714   4.528   4.191   4.013  0.3091 -0.6627 -0.8784
 6026SOL    HW229715   4.643   4.276   4.013  0.4118 -0.6293 -1.7638
 6027SOL     OW29716   0.050   2.074   7.922  0.1587  0.1579  0.0273
 6027SOL    HW129717   0.016   2.099   8.008  1.7618 -3.0413  1.5566
 6027SOL    HW229718   0.045   2.155   7.871 -1.1295  0.6035  0.8480
 6028SOL     OW29719   1.439   1.048   8.526  0.0801  0.1478  0.0346
 6028SOL    HW129720   1.363   1.063   8.470 -1.1669 -0.6237  1.5178
 6028SOL    HW229721   1.501   1.107   8.483  1.8103 -1.2890  0.5685
 6029SOL     OW29722   0.513   3.390   4.013  0.1085  0.2132 -0.2646
 6029SOL    HW129723   0.487   3.432   3.931 -0.9974  0.7782  0.3831
 6029SOL    HW229724   0.506   3.301   3.980 -0.1391 -0.9835  3.0820
 6030SOL     OW29725   3.066   2.876   1.126  0.1510  0.1585 -0.4199
 6030SOL    HW129726   3.140   2.817   1.138 -0.3987 -0.2392  1.0291
 6030SOL    HW229727   3.095   2.931   1.052 -2.3456  2.3500  0.2063
 6031SOL     OW29728   3.450   3.582  12.142 -0.6996 -0.4111 -0.3757
 6031SOL    HW129729   3.493   3.628  12.070  1.0550 -3.3603 -1.1921
 6031SOL    HW229730   3.512   3.513  12.165  0.0829 -0.0122 -1.3287
 6032SOL     OW29731   4.338   1.071   3.431  0.1862  0.3342  0.4883
 6032SOL    HW129732   4.417   1.051   3.481 -1.3940 -0.9912  2.4620
 6032SOL    HW229733   4.288   0.990   3.424 -1.4663  1.1882  2.6024
 6033SOL     OW29734   2.919   1.514   6.601  0.1407  0.0205  0.0892
 6033SOL    HW129735   2.954   1.594   6.640  0.5888 -0.3502  0.4514
 6033SOL    HW229736   2.984   1.501   6.532 -0.0534  4.2239 -0.9244
 6034SOL     OW29737   1.700   1.423   3.204  1.0288  0.2526 -0.0680
 6034SOL    HW129738   1.779   1.464   3.239  0.2744  1.1638  0.5774
 6034SOL    HW229739   1.674   1.497   3.149 -2.7178 -1.7367 -0.9408
 6035SOL     OW29740   1.227   3.905   6.710  0.0230  0.3409  0.4128
 6035SOL    HW129741   1.178   3.983   6.684  0.9415  0.8534  0.2288
 6035SOL    HW229742   1.167   3.831   6.701  1.1205 -0.7580  2.2737
 6036SOL     OW29743   1.881   2.683   3.812  0.2324 -0.0221 -0.2590
 6036SOL    HW129744   1.870   2.642   3.726  0.7378 -1.7027  0.5033
 6036SOL    HW229745   1.944   2.624   3.851  0.4662  0.2958 -0.1555
 6037SOL     OW29746   2.956   1.306   9.073  0.4034  0.0028  1.2828
 6037SOL    HW129747   2.942   1.323   9.166 -1.8058 -2.0945  1.3558
 6037SOL    HW229748   2.926   1.390   9.040  3.1231 -1.0273 -3.8248
 6038SOL     OW29749   0.405   3.549  12.059  0.2255 -0.1891 -0.1346
 6038SOL    HW129750   0.403   3.620  12.123  0.4222  1.2437 -1.7045
 6038SOL    HW229751   0.487   3.500  12.072 -0.0380 -0.4615  0.4907
 6039SOL     OW29752   1.048   3.456   2.215 -0.2561 -0.0424 -0.2088
 6039SOL    HW129753   1.082   3.434   2.302  1.4551  2.6120 -0.2026
 6039SOL    HW229754   1.122   3.503   2.175  0.3174 -2.8176 -2.3860
 6040SOL     OW29755   0.397   1.592   2.383 -0.4166 -0.1666 -0.1672
 6040SOL    HW129756   0.463   1.528   2.411 -0.6613 -0.3186  0.0638
 6040SOL    HW229757   0.405   1.649   2.460  0.4035  0.3947 -0.6667
 6041SOL     OW29758   0.207   3.149   7.222  0.4916  0.3364  0.2435
 6041SOL    HW129759   0.265   3.224   7.205 -0.7502  1.0362 -0.9612
 6041SOL    HW229760   0.266   3.077   7.245 -0.4216  0.1753  2.0484
 6042SOL     OW29761   0.466   2.298   4.711 -0.0446 -0.3153  0.1147
 6042SOL    HW129762   0.376   2.298   4.679 -0.6516 -1.6070  1.8691
 6042SOL    HW229763   0.448   2.283   4.804 -0.9842 -0.7363 -0.1306
 6043SOL     OW29764   1.257   3.594   7.593 -0.3540 -0.1170 -0.0775
 6043SOL    HW129765   1.340   3.577   7.637 -2.0275 -1.5283  2.5567
 6043SOL    HW229766   1.252   3.512   7.544 -1.0930 -0.1329  0.0323
 6044SOL     OW29767   3.434   0.142   7.525 -0.4905 -0.2790  0.0673
 6044SOL    HW129768   3.503   0.086   7.491 -0.3479 -0.6840  1.0279
 6044SOL    HW229769   3.357   0.117   7.474 -0.1645  0.9078 -0.9983
 6045SOL     OW29770   3.888   1.158   1.523  0.4830 -0.3303 -0.3863
 6045SOL    HW129771   3.927   1.232   1.476  2.3410 -1.5375 -0.7435
 6045SOL    HW229772   3.844   1.102   1.460 -0.3469  0.6569 -0.6919
 6046SOL     OW29773   3.985   2.419   6.875 -0.1053  0.1203  0.6056
 6046SOL    HW129774   4.039   2.476   6.821 -1.7150 -1.0972 -2.3002
 6046SOL    HW229775   3.917   2.482   6.896  0.7304  0.4372  2.3653
 6047SOL     OW29776   2.710   3.079  10.131 -0.6206  0.1557 -0.1820
 6047SOL    HW129777   2.745   3.029  10.057 -1.8018  0.2152 -0.7841
 6047SOL    HW229778   2.672   3.156  10.088 -0.5287 -0.1043 -0.7301
 6048SOL     OW29779   4.099   3.246  17.568 -0.6615  0.2129  0.0772
 6048SOL    HW129780   4.125   3.280  17.482  0.2842  1.1047  0.7119
 6048SOL    HW229781   4.081   3.156  17.541 -1.1187  1.0226 -2.3692
 6049SOL     OW29782   3.393   1.332   1.840 -0.1680 -0.0894  0.5111
 6049SOL    HW129783   3.460   1.351   1.907 -0.7931  1.9607  0.5678
 6049SOL    HW229784   3.445   1.310   1.763  0.3302  1.9533  0.2603
 6050SOL     OW29785   0.584   2.722  12.200 -0.4981 -0.2317  0.4667
 6050SOL    HW129786   0.631   2.759  12.275  0.4589  0.4807 -0.4892
 6050SOL    HW229787   0.491   2.727  12.223 -1.1538  1.4420 -2.5358
 6051SOL     OW29788   3.538   1.871   7.008 -0.0879  0.4888  0.6516
 6051SOL    HW129789   3.505   1.800   7.064 -0.8196 -0.8385 -1.4897
 6051SOL    HW229790   3.461   1.884   6.953 -0.0319 -1.5532  0.0969
 6052SOL     OW29791   4.279   3.950   6.298  0.2302 -0.2780 -0.0236
 6052SOL    HW129792   4.286   3.938   6.393 -1.2487 -0.1836  0.0915
 6052SOL    HW229793   4.299   3.862   6.268  0.3610 -0.3614  0.3081
 6053SOL     OW29794   2.142   3.407   8.656  0.4743 -0.3222  0.0391
 6053SOL    HW129795   2.154   3.439   8.567 -1.1499 -1.0686 -0.4405
 6053SOL    HW229796   2.197   3.476   8.692  1.5713 -1.0902 -0.1766
 6054SOL     OW29797   0.721   0.943   2.125  0.6124  1.2507  0.1630
 6054SOL    HW129798   0.786   1.010   2.100 -0.9716  1.6745 -2.9002
 6054SOL    HW229799   0.650   1.001   2.151 -0.6157 -1.0977  2.0059
 6055SOL     OW29800   3.311   2.268  11.000 -0.0236 -0.3397  0.1704
 6055SOL    HW129801   3.242   2.223  10.952 -1.2494  2.0988 -0.3633
 6055SOL    HW229802   3.365   2.285  10.922 -0.9074  0.5141 -0.2470
 6056SOL     OW29803   3.743   4.256  12.400 -0.2761 -0.1977 -0.1539
 6056SOL    HW129804   3.797   4.303  12.337  1.0833 -0.2494  0.9667
 6056SOL    HW229805   3.795   4.273  12.479 -0.4657 -1.8902  0.3495
 6057SOL     OW29806   4.380   2.482   3.035 -0.2929 -0.0557 -0.3880
 6057SOL    HW129807   4.435   2.498   2.958 -1.3632  1.3031 -0.8798
 6057SOL    HW229808   4.370   2.387   3.033 -3.2284  0.2971 -1.8844
 6058SOL     OW29809   4.304   4.689   3.008 -0.1223 -1.0315 -0.1507
 6058SOL    HW129810   4.379   4.654   2.959  1.2469  0.2487  1.0427
 6058SOL    HW229811   4.346   4.689   3.093 -1.4722 -2.2525  0.5061
 6059SOL     OW29812   1.015   3.272   3.841  0.4138 -0.0560 -0.1807
 6059SOL    HW129813   1.024   3.302   3.931 -4.0870  0.8689 -0.0058
 6059SOL    HW229814   1.039   3.180   3.853 -1.1592 -0.4205  0.2052
 6060SOL     OW29815   4.489   3.001   4.662 -0.2601  0.5107 -0.1924
 6060SOL    HW129816   4.565   3.044   4.624  0.8571 -0.1653  1.2916
 6060SOL    HW229817   4.511   2.908   4.664  2.6931  1.1924 -0.6893
 6061SOL     OW29818   2.619   0.332   8.216  0.4383  0.1443 -0.6008
 6061SOL    HW129819   2.603   0.301   8.305  0.2266  2.5812  0.2252
 6061SOL    HW229820   2.593   0.424   8.227  0.7070  0.1966 -0.4129
 6062SOL     OW29821   3.049   1.690   8.269  0.2919 -0.1641  0.4433
 6062SOL    HW129822   3.021   1.668   8.358 -2.7714  1.2486 -0.1628
 6062SOL    HW229823   3.142   1.670   8.282 -0.2547 -1.0038  3.0642
 6063SOL     OW29824   0.381   3.165   5.890  0.7274  0.1610 -0.0750
 6063SOL    HW129825   0.414   3.138   5.975 -3.1892  0.5259  1.5435
 6063SOL    HW229826   0.411   3.256   5.887 -1.5966  0.9229  0.4148
 6064SOL     OW29827   3.753   1.152   1.774 -0.1690  0.3798 -0.0164
 6064SOL    HW129828   3.716   1.222   1.720  1.2356  1.2354  0.1421
 6064SOL    HW229829   3.795   1.098   1.708 -0.1214  1.1321 -0.5989
 6065SOL     OW29830   3.992   2.759   7.881 -0.1216 -0.2285 -0.0432
 6065SOL    HW129831   3.972   2.704   7.958 -0.1666  1.3611  1.0828
 6065SOL    HW229832   4.075   2.720   7.852  1.3192  1.9675  1.1158
 6066SOL     OW29833   0.233   3.027   2.192 -0.0109  0.2579  0.5218
 6066SOL    HW129834   0.227   3.121   2.181 -1.7674 -0.3142 -3.3798
 6066SOL    HW229835   0.299   3.022   2.261 -0.4745 -3.1336  0.7316
 6067SOL     OW29836   1.359   2.072  13.942  0.1632  0.3797 -0.4998
 6067SOL    HW129837   1.323   1.983  13.945 -1.3802  1.0908  1.3269
 6067SOL    HW229838   1.344   2.099  13.852 -1.6998  0.2066 -0.2256
 6068SOL     OW29839   0.130   1.811   0.385  0.1256  0.1511  0.1613
 6068SOL    HW129840   0.130   1.716   0.373  0.1370  0.1244  0.3783
 6068SOL    HW229841   0.035   1.822   0.383  0.1501  0.6576  1.5365
 6069SOL     OW29842   2.564   2.689   3.894 -0.5155  0.2767  0.0069
 6069SOL    HW129843   2.505   2.641   3.952 -2.7496  2.5078 -0.4634
 6069SOL    HW229844   2.640   2.701   3.952 -0.3345  0.4806 -0.2724
 6070SOL     OW29845   1.410   0.693   7.908 -0.2881  0.0568  0.2295
 6070SOL    HW129846   1.325   0.720   7.873  0.7151  1.0280 -1.4501
 6070SOL    HW229847   1.396   0.738   7.991 -0.8751 -1.5677  1.0001
 6071SOL     OW29848   2.105   1.170   7.453 -0.0012 -0.0832 -0.1546
 6071SOL    HW129849   2.051   1.235   7.407 -0.9025  0.0333  1.0630
 6071SOL    HW229850   2.061   1.171   7.538 -0.2343  1.4330 -0.2976
 6072SOL     OW29851   0.247   4.529   3.712 -0.1393 -0.2948  0.1264
 6072SOL    HW129852   0.173   4.469   3.698 -0.7991 -0.0969  2.7801
 6072SOL    HW229853   0.267   4.508   3.803 -0.9711  1.8093  0.7874
 6073SOL     OW29854   2.009   3.164  14.033 -0.7583 -0.3732 -0.0503
 6073SOL    HW129855   2.021   3.126  13.946  0.7372  0.0967 -0.0652
 6073SOL    HW229856   2.063   3.244  14.031  0.7760 -1.4045  0.4161
 6074SOL     OW29857   0.121   2.272   4.898 -0.1576  0.3874  0.1095
 6074SOL    HW129858   0.142   2.352   4.946  0.1336  1.3665 -1.6836
 6074SOL    HW229859   0.034   2.293   4.864 -0.5359 -2.3257 -0.5760
 6075SOL     OW29860   0.103   0.560  10.164 -0.3269  0.4768  0.4741
 6075SOL    HW129861   0.120   0.485  10.106 -0.9180  0.5742  0.1667
 6075SOL    HW229862   0.160   0.529  10.234  0.8553  0.9564 -0.2748
 6076SOL     OW29863   2.573   4.443  10.307  0.9207 -0.5108  0.3286
 6076SOL    HW129864   2.567   4.453  10.212 -0.6760  0.6563  0.5515
 6076SOL    HW229865   2.486   4.417  10.336  0.9833 -2.2882 -1.1065
 6077SOL     OW29866   4.584   3.486  12.721  0.0341  0.1599 -0.3129
 6077SOL    HW129867   4.560   3.410  12.774  1.1949  0.1133  0.1458
 6077SOL    HW229868   4.530   3.557  12.754 -2.3335 -1.2810 -1.1056
 6078SOL     OW29869   2.664   3.334  17.666 -0.2411  0.1612 -0.2563
 6078SOL    HW129870   2.692   3.426  17.660 -1.5570  0.5623 -0.1152
 6078SOL    HW229871   2.701   3.320   0.005 -0.6137  3.1356  0.3765
 6079SOL     OW29872   0.748   0.309  12.812  0.4011  0.0159  0.1158
 6079SOL    HW129873   0.755   0.327  12.718  1.3284 -0.2251  0.1387
 6079SOL    HW229874   0.658   0.337  12.826  0.1118 -0.6999 -0.3168
 6080SOL     OW29875   0.025   4.140   2.154 -0.2436  0.2180 -0.1945
 6080SOL    HW129876   4.714   4.110   2.231  0.3797 -1.4054 -0.4301
 6080SOL    HW229877   4.696   4.191   2.108 -1.7210  0.3173  2.1013
 6081SOL     OW29878   1.276   4.205   5.048 -0.0378  0.2999  0.0640
 6081SOL    HW129879   1.341   4.232   4.982  1.5344 -0.3478  1.3409
 6081SOL    HW229880   1.341   4.188   5.117 -1.9506 -0.7986  1.5737
 6082SOL     OW29881   0.471   0.414   4.001  0.1730  0.4301 -0.8249
 6082SOL    HW129882   0.391   0.400   3.951  0.0148  0.9602 -0.7209
 6082SOL    HW229883   0.495   0.323   4.018 -0.8764  0.0836 -1.2077
 6083SOL     OW29884   1.462   0.769  15.434 -0.7073 -0.1416  0.3945
 6083SOL    HW129885   1.453   0.864  15.443  2.8019  0.2694 -0.5859
 6083SOL    HW229886   1.556   0.754  15.444 -0.7269 -2.0143 -2.2550
 6084SOL     OW29887   3.099   2.345  13.342  0.1917  0.5318  0.4330
 6084SOL    HW129888   3.036   2.415  13.359 -1.1272 -0.2563 -1.2308
 6084SOL    HW229889   3.100   2.301  13.427 -0.7706 -2.6063 -1.1888
 6085SOL     OW29890   1.034   1.246   9.571  0.1391  0.5345 -0.3990
 6085SOL    HW129891   1.047   1.215   9.660 -1.1990  0.5050 -0.2140
 6085SOL    HW229892   0.996   1.162   9.545 -1.2051  0.8484  0.5208
 6086SOL     OW29893   1.224   1.727  17.232  0.2468 -0.3635 -0.1869
 6086SOL    HW129894   1.310   1.687  17.216  0.3737 -0.7384  1.3732
 6086SOL    HW229895   1.263   1.813  17.248 -0.5254  0.0915 -0.8039
 6087SOL     OW29896   2.786   3.182   1.529  0.5603  0.0753  0.3768
 6087SOL    HW129897   2.703   3.135   1.541  0.8891 -0.1294  1.7873
 6087SOL    HW229898   2.799   3.178   1.434  1.5844  1.1805  0.4737
 6088SOL     OW29899   1.878   2.215   3.962  0.4003 -0.4186 -0.4971
 6088SOL    HW129900   1.785   2.224   3.940 -0.5107  0.5959  3.8543
 6088SOL    HW229901   1.913   2.186   3.878  2.2034 -0.6761  0.3351
 6089SOL     OW29902   3.266   2.057   3.582  0.6448 -0.2558 -0.6487
 6089SOL    HW129903   3.326   1.984   3.599  1.1597 -0.1905 -2.1465
 6089SOL    HW229904   3.322   2.109   3.524  3.0211 -0.8894  1.0608
 6090SOL     OW29905   3.644   1.606  10.684 -0.0510  0.8125 -0.1055
 6090SOL    HW129906   3.621   1.685  10.635  0.3909  0.4493 -0.8993
 6090SOL    HW229907   3.591   1.537  10.646  0.0473  0.2250  0.8289
 6091SOL     OW29908   1.569   0.323  12.734  0.2029  0.0958 -0.6493
 6091SOL    HW129909   1.516   0.253  12.772 -1.0485  1.6598  0.4940
 6091SOL    HW229910   1.513   0.399  12.750  1.3818  0.5248  1.5536
 6092SOL     OW29911   0.636   1.946  13.780 -0.1429  0.0238  0.1413
 6092SOL    HW129912   0.618   1.936  13.687  0.9282 -2.9170  0.2545
 6092SOL    HW229913   0.599   1.864  13.813 -0.7544  0.4215  0.4443
 6093SOL     OW29914   2.709   3.029   1.062  0.3344  0.3741 -0.5826
 6093SOL    HW129915   2.689   3.085   0.987 -0.9484  1.2649  0.4245
 6093SOL    HW229916   2.621   3.016   1.097  0.7812  0.3983  0.5398
 6094SOL     OW29917   3.364   1.851  10.171  0.1852 -0.4283  0.0846
 6094SOL    HW129918   3.284   1.818  10.128  0.6361 -1.5507  0.1170
 6094SOL    HW229919   3.368   1.807  10.255  1.1396 -1.4303 -0.4817
 6095SOL     OW29920   4.517   2.552   1.835  0.5220 -0.3704 -0.2651
 6095SOL    HW129921   4.563   2.585   1.758  1.1330 -0.0022  0.2585
 6095SOL    HW229922   4.462   2.629   1.850  0.8171  0.0985 -1.5619
 6096SOL     OW29923   4.690   2.511   2.152  0.1121  0.4045 -0.0407
 6096SOL    HW129924   4.600   2.499   2.183  0.1897 -0.4389 -0.1520
 6096SOL    HW229925   4.732   2.450   2.213 -1.8186 -1.7354 -0.8762
 6097SOL     OW29926   4.356   0.561   5.296 -0.2450 -0.1640 -0.2840
 6097SOL    HW129927   4.417   0.488   5.290 -0.7836 -0.6598  0.3337
 6097SOL    HW229928   4.380   0.584   5.386 -0.6133 -1.7773  0.2166
 6098SOL     OW29929   4.146   1.993   3.903  0.2377 -0.1064  0.1778
 6098SOL    HW129930   4.226   2.045   3.912  0.0940 -0.3723  2.7847
 6098SOL    HW229931   4.151   1.927   3.971  2.0956 -0.3889 -0.2443
 6099SOL     OW29932   4.678   2.740   4.823  0.2814  0.6031 -0.0132
 6099SOL    HW129933   4.677   2.703   4.912  2.1814  0.2533 -0.1487
 6099SOL    HW229934   4.587   2.716   4.806 -0.0106  1.9984 -0.4453
 6100SOL     OW29935   4.503   4.680   4.609  0.1888 -0.0850 -0.1603
 6100SOL    HW129936   4.575   4.721   4.560  1.8104 -1.2176  1.2902
 6100SOL    HW229937   4.425   4.730   4.584 -0.1855 -0.6548 -0.1235
 6101SOL     OW29938   0.694   0.606   5.010  0.0292  0.0879 -0.1838
 6101SOL    HW129939   0.717   0.698   4.999 -0.2539  0.4287  2.1387
 6101SOL    HW229940   0.771   0.581   5.061  0.5063 -0.7932 -1.3338
 6102SOL     OW29941   2.694   4.226   5.992  0.2178  0.4299 -0.0466
 6102SOL    HW129942   2.782   4.255   5.968  0.0516  0.1366 -0.9938
 6102SOL    HW229943   2.646   4.307   6.011  0.2623  0.3490  0.4036
 6103SOL     OW29944   4.017   2.161   6.608 -0.2175  0.7055  0.1823
 6103SOL    HW129945   3.948   2.101   6.635  0.5769 -0.0633  0.5121
 6103SOL    HW229946   3.991   2.171   6.517  1.8999 -1.3398 -0.6671
 6104SOL     OW29947   4.614   1.446   9.357 -0.4447 -0.2377 -0.3423
 6104SOL    HW129948   4.702   1.475   9.331 -0.7276  0.9047 -0.0185
 6104SOL    HW229949   4.627   1.428   9.450  0.9912 -0.3466 -0.5651
 6105SOL     OW29950   1.688   4.566  15.383 -0.2279  0.3988 -0.0595
 6105SOL    HW129951   1.670   4.475  15.358 -0.4554  0.5239 -0.3474
 6105SOL    HW229952   1.610   4.599  15.427 -0.9448 -1.5201  0.1138
 6106SOL     OW29953   1.215   1.823   6.418  0.4288  1.0563 -0.6463
 6106SOL    HW129954   1.248   1.841   6.506 -1.2387  0.7434  0.0364
 6106SOL    HW229955   1.286   1.850   6.359 -0.0415 -0.4524 -1.9002
 6107SOL     OW29956   1.570   0.008   3.307  0.5594  0.2071  0.0631
 6107SOL    HW129957   1.512   0.072   3.266 -1.3137 -1.8851 -0.5426
 6107SOL    HW229958   1.647   0.062   3.323 -0.0272  1.4861 -1.4543
 6108SOL     OW29959   1.647   0.004  12.755  0.1893  0.5660  0.7121
 6108SOL    HW129960   1.581   0.048  12.808 -0.7320  0.9061 -0.7009
 6108SOL    HW229961   1.674   0.071  12.692  1.0813 -2.7232 -2.4487
 6109SOL     OW29962   0.681   4.497  12.226 -0.5665  0.1820  0.1799
 6109SOL    HW129963   0.714   4.563  12.166 -0.5205 -0.5933 -0.6559
 6109SOL    HW229964   0.625   4.440  12.173 -0.1104  0.4239 -0.5637
 6110SOL     OW29965   1.990   1.074   7.963 -0.5191 -0.0250  0.1826
 6110SOL    HW129966   1.987   0.997   7.906 -0.2479  1.6585 -2.1095
 6110SOL    HW229967   1.899   1.079   7.991 -0.4024  0.7011  0.4140
 6111SOL     OW29968   0.059   0.785   4.820  0.0004  0.1202  0.1813
 6111SOL    HW129969   0.083   0.814   4.908 -0.0024 -1.4338  0.6952
 6111SOL    HW229970   0.034   0.865   4.774 -1.7144 -0.3982  0.2157
 6112SOL     OW29971   4.117   1.626   7.718  0.3664 -0.2248 -0.3367
 6112SOL    HW129972   4.118   1.670   7.803 -0.0423  2.1695 -1.5609
 6112SOL    HW229973   4.066   1.549   7.743 -1.4596  1.6153  1.6053
 6113SOL     OW29974   4.226   1.799   4.954  0.5265  0.1496  0.0955
 6113SOL    HW129975   4.286   1.775   4.884 -0.5801 -0.0076 -0.7870
 6113SOL    HW229976   4.166   1.725   4.967 -2.0092  2.2496  0.2935
 6114SOL     OW29977   3.266   2.673   1.162 -0.2801 -0.2838 -0.0252
 6114SOL    HW129978   3.331   2.603   1.156  0.9416  0.8967 -0.5286
 6114SOL    HW229979   3.287   2.709   1.249  0.0251  0.2944 -0.3398
 6115SOL     OW29980   1.841   2.900   5.304 -0.4068 -0.1378 -0.0477
 6115SOL    HW129981   1.771   2.854   5.350  0.0869 -1.7783 -0.9251
 6115SOL    HW229982   1.817   2.993   5.300 -0.4538 -0.1743 -0.6441
 6116SOL     OW29983   0.958   3.156   4.976  0.2212 -0.0424 -0.1128
 6116SOL    HW129984   0.992   3.244   4.995  0.9289 -0.1593 -0.8175
 6116SOL    HW229985   1.028   3.092   4.961  0.4338  0.3992 -0.9940
 6117SOL     OW29986   0.124   0.002  11.234 -0.0895  0.0066  0.1849
 6117SOL    HW129987   0.031   0.007  11.259 -0.7622  0.8478 -2.5227
 6117SOL    HW229988   0.139   0.065  11.164 -0.1447  0.5654  0.6704
 6118SOL     OW29989   2.350   3.690   4.227 -0.3048 -0.0810 -0.1237
 6118SOL    HW129990   2.342   3.709   4.134  2.4328  2.0570  0.0659
 6118SOL    HW229991   2.295   3.760   4.262  0.8683  0.5114  0.5453
 6119SOL     OW29992   1.464   1.461   7.923  0.3562  0.5489 -0.0296
 6119SOL    HW129993   1.514   1.432   7.999  0.2453  1.4233  0.3760
 6119SOL    HW229994   1.384   1.410   7.937  1.1248 -0.8930 -0.8995
 6120SOL     OW29995   3.830   2.321   9.296  0.0224  0.0851  0.3310
 6120SOL    HW129996   3.909   2.326   9.350 -0.2280 -1.8554  0.8969
 6120SOL    HW229997   3.867   2.325   9.208  0.9463  1.3559  0.7731
 6121SOL     OW29998   3.725   3.404   5.733 -0.8217  0.0824 -0.2575
 6121SOL    HW129999   3.729   3.361   5.818 -1.5268 -2.1205 -1.3255
 6121SOL    HW230000   3.683   3.483   5.767 -0.7332 -0.1093  0.3036
 6122SOL     OW30001   3.989   2.953   5.996 -0.0834 -0.1337 -0.0517
 6122SOL    HW130002   3.922   2.939   5.929 -1.1524  1.3385  0.7052
 6122SOL    HW230003   3.940   2.926   6.074 -2.1827 -0.3300 -1.4355
 6123SOL     OW30004   3.481   4.615   3.332 -0.0964 -0.1850  0.0102
 6123SOL    HW130005   3.473   4.706   3.302  0.8399 -0.5210 -1.2764
 6123SOL    HW230006   3.492   4.573   3.247 -1.1287  1.9612 -1.1985
 6124SOL     OW30007   2.013   4.317   6.328  0.6356 -0.1049  0.1932
 6124SOL    HW130008   2.097   4.284   6.358 -0.2054 -1.9646  0.5381
 6124SOL    HW230009   2.048   4.397   6.289  2.0108 -0.0151  1.6547
 6125SOL     OW30010   2.999   3.075  10.854 -0.0293  0.0517  0.4455
 6125SOL    HW130011   3.001   3.116  10.940 -3.3908 -1.0768  1.0677
 6125SOL    HW230012   3.050   2.995  10.868  0.5953 -0.0300 -2.2562
 6126SOL     OW30013   1.269   3.383   8.228 -0.0140  0.3389 -0.2505
 6126SOL    HW130014   1.292   3.321   8.159 -1.9692  0.6889 -1.1917
 6126SOL    HW230015   1.224   3.456   8.187  1.3042  0.3817 -1.6291
 6127SOL     OW30016   3.674   3.826   7.746 -0.2402  0.0150  0.1417
 6127SOL    HW130017   3.682   3.739   7.784  1.3974  0.5464  1.0017
 6127SOL    HW230018   3.582   3.850   7.739 -0.3049 -0.4566 -0.6792
 6128SOL     OW30019   3.343   0.324   3.539  0.3245 -0.0807 -0.4362
 6128SOL    HW130020   3.262   0.373   3.549 -0.6115 -1.6207 -0.3679
 6128SOL    HW230021   3.381   0.365   3.461 -0.3468 -0.6544 -1.0726
 6129SOL     OW30022   2.985   1.199   7.078 -0.0072  0.0608 -0.2004
 6129SOL    HW130023   3.045   1.143   7.128 -1.0691 -1.8312 -1.0502
 6129SOL    HW230024   2.960   1.139   7.008 -1.5806 -2.5315  2.5870
 6130SOL     OW30025   1.925   1.591   5.759 -0.5408 -0.5153  0.2761
 6130SOL    HW130026   1.923   1.671   5.708  0.2500 -0.1305  0.8504
 6130SOL    HW230027   1.880   1.604   5.842 -1.5298 -0.2028 -0.3165
 6131SOL     OW30028   1.858   3.327   9.866  0.2381  0.1091  0.0303
 6131SOL    HW130029   1.765   3.330   9.841  0.1155 -0.8219  0.3854
 6131SOL    HW230030   1.896   3.402   9.819 -0.2661  0.3218 -0.0456
 6132SOL     OW30031   2.172   1.263   6.498 -0.0223  0.7608 -0.1444
 6132SOL    HW130032   2.211   1.246   6.413 -1.6795 -2.3313 -0.3112
 6132SOL    HW230033   2.167   1.358   6.500 -3.6382  0.6031 -0.9345
 6133SOL     OW30034   2.520   0.034   0.490 -0.8920  0.4418  0.0419
 6133SOL    HW130035   2.507   0.027   0.585 -1.2791 -0.6258 -0.0902
 6133SOL    HW230036   2.441   4.731   0.454  0.8710 -2.0582 -0.9896
 6134SOL     OW30037   4.294   0.400  11.911  0.2889  0.5642  1.0514
 6134SOL    HW130038   4.356   0.402  11.984  0.8465  4.0586  0.4676
 6134SOL    HW230039   4.348   0.447  11.848 -0.2540 -0.8857 -0.4954
 6135SOL     OW30040   3.559   4.010   8.155 -0.2562 -0.3685 -0.1808
 6135SOL    HW130041   3.647   4.037   8.127  0.8228 -0.0212  3.5398
 6135SOL    HW230042   3.520   4.047   8.076 -1.2597  0.0244  0.5054
 6136SOL     OW30043   2.001   0.284   4.830 -0.0957 -0.4082  0.3123
 6136SOL    HW130044   2.050   0.202   4.824 -0.4507 -0.6577  0.9248
 6136SOL    HW230045   2.067   0.335   4.877  0.0110  0.0620 -0.3476
 6137SOL     OW30046   3.833   3.622   1.195 -0.2557 -0.7420 -0.0550
 6137SOL    HW130047   3.916   3.669   1.187 -0.0917 -1.1283 -0.6590
 6137SOL    HW230048   3.769   3.694   1.192 -1.2837 -1.6616 -0.0162
 6138SOL     OW30049   1.054   1.859  10.861  0.0331  0.1925 -0.0474
 6138SOL    HW130050   0.969   1.819  10.882 -0.0809 -0.2430 -1.3268
 6138SOL    HW230051   1.091   1.794  10.921  0.3902  1.3484  0.9650
 6139SOL     OW30052   2.242   1.842  13.674 -0.4298 -0.4151  0.1689
 6139SOL    HW130053   2.192   1.767  13.642 -0.2077 -0.6771  0.4408
 6139SOL    HW230054   2.321   1.801  13.708 -1.4109 -1.8705  0.6599
 6140SOL     OW30055   0.092   0.448   5.201 -0.1609  0.8632  0.0217
 6140SOL    HW130056   0.182   0.418   5.190  0.7033  2.7702  1.8111
 6140SOL    HW230057   0.097   0.473   5.293 -0.2331  0.1387  0.2249
 6141SOL     OW30058   3.688   2.174   8.225 -0.4474  0.5515 -0.0049
 6141SOL    HW130059   3.611   2.162   8.282 -0.7064 -0.6791 -0.6150
 6141SOL    HW230060   3.704   2.084   8.198  2.7173  0.9462  0.6048
 6142SOL     OW30061   1.416   3.214   8.068  0.4959 -0.1719 -0.3435
 6142SOL    HW130062   1.465   3.159   8.007 -0.5987 -2.2082  0.6218
 6142SOL    HW230063   1.469   3.210   8.148  1.0009 -0.9576 -0.7245
 6143SOL     OW30064   1.933   1.231  10.850 -0.6127  0.5264 -0.4262
 6143SOL    HW130065   1.925   1.296  10.920  1.6477 -0.2655  0.5523
 6143SOL    HW230066   2.028   1.228  10.848 -0.6738 -1.4466 -0.3688
 6144SOL     OW30067   2.893   1.246  16.229  0.1051  0.8008  0.1258
 6144SOL    HW130068   2.910   1.333  16.266  2.9720  0.6608 -0.8479
 6144SOL    HW230069   2.966   1.231  16.169 -0.9445  0.6854 -1.1382
 6145SOL     OW30070   4.172   1.950  15.403  0.6398  0.6903 -0.3436
 6145SOL    HW130071   4.185   2.018  15.338  1.0379  1.6716  0.7554
 6145SOL    HW230072   4.224   1.878  15.366 -2.1383 -2.2351  1.3999
 6146SOL     OW30073   2.703   2.295  13.443  0.0689 -0.2169  0.2040
 6146SOL    HW130074   2.615   2.333  13.449 -0.2379 -1.4849  3.6737
 6146SOL    HW230075   2.748   2.365  13.396  0.2198 -0.8804 -0.6553
 6147SOL     OW30076   1.592   4.255   3.802 -0.5504  0.4394 -0.4826
 6147SOL    HW130077   1.575   4.223   3.891  0.2424 -0.3704 -0.6214
 6147SOL    HW230078   1.656   4.195   3.763  0.9412  0.9960  1.0844
 6148SOL     OW30079   3.913   0.755  17.080 -0.1231  0.2306 -0.8498
 6148SOL    HW130080   3.907   0.819  17.151 -0.7878  0.6194 -1.2508
 6148SOL    HW230081   3.944   0.801  17.002  0.0509  0.3969 -0.6828
 6149SOL     OW30082   0.303   3.351   2.144  0.8574 -0.2536 -0.7357
 6149SOL    HW130083   0.277   3.326   2.056 -1.4075 -2.7339  0.6262
 6149SOL    HW230084   0.394   3.325   2.160  0.5552  0.2471  1.8759
 6150SOL     OW30085   0.649   2.287   8.054  0.6437  0.9870  0.1985
 6150SOL    HW130086   0.730   2.241   8.033 -1.0489 -0.4236 -3.0908
 6150SOL    HW230087   0.648   2.345   7.978 -1.5329  0.5244 -0.1221
 6151SOL     OW30088   2.460   3.198   3.724  0.0287 -0.0305 -0.0256
 6151SOL    HW130089   2.492   3.109   3.713  2.2847  0.7137  0.4571
 6151SOL    HW230090   2.467   3.211   3.818  0.9313  0.3706 -0.1424
 6152SOL     OW30091   0.359   0.342  16.798 -0.0780  0.4130 -0.2011
 6152SOL    HW130092   0.275   0.387  16.784 -0.2401  0.4449  0.8599
 6152SOL    HW230093   0.425   0.395  16.754  0.0670  2.7755  2.8739
 6153SOL     OW30094   0.033   1.109   1.017  0.2688  0.2945 -0.1729
 6153SOL    HW130095   0.086   1.188   1.022 -2.2668  2.0258 -0.8832
 6153SOL    HW230096   4.692   1.126   1.068 -0.1917 -1.9129 -0.1190
 6154SOL     OW30097   2.539   3.520   3.024 -0.1185  0.7165  0.2875
 6154SOL    HW130098   2.600   3.486   2.959  0.6065  1.0150  0.8140
 6154SOL    HW230099   2.590   3.585   3.072  0.9668  0.9028 -1.1365
 6155SOL     OW30100   4.299   3.726   7.063  0.7186  0.1917  0.0314
 6155SOL    HW130101   4.356   3.753   7.135 -0.6183 -1.0500  1.5827
 6155SOL    HW230102   4.352   3.663   7.016 -2.4798 -1.1036 -1.8297
 6156SOL     OW30103   1.723   4.066   8.456  0.5401 -0.2536 -0.2693
 6156SOL    HW130104   1.726   4.088   8.363 -1.5896 -0.5944 -0.4187
 6156SOL    HW230105   1.739   4.149   8.501 -0.4191 -0.2417  0.0306
 6157SOL     OW30106   4.147   3.757   8.737 -0.2319  0.3270  0.1421
 6157SOL    HW130107   4.057   3.745   8.768 -0.8347  1.2576 -1.2128
 6157SOL    HW230108   4.199   3.755   8.817 -1.2471  1.1966  0.8189
 6158SOL     OW30109   0.298   1.680   1.970 -0.8613 -0.4514 -0.0265
 6158SOL    HW130110   0.322   1.599   2.015 -2.4033 -1.3678 -0.8454
 6158SOL    HW230111   0.225   1.702   2.028  1.0137 -0.4939  2.3189
 6159SOL     OW30112   0.271   3.507   4.914  0.0734  0.6795  0.0754
 6159SOL    HW130113   0.286   3.435   4.852 -2.2870 -1.1597  1.6396
 6159SOL    HW230114   0.180   3.530   4.895 -0.3636  0.1244  1.4898
 6160SOL     OW30115   4.080   0.404   6.365 -0.0940 -0.0077 -0.3311
 6160SOL    HW130116   4.126   0.444   6.439 -2.1706 -0.3997  1.1823
 6160SOL    HW230117   4.144   0.430   6.299  0.9875  0.4346  0.8823
 6161SOL     OW30118   1.135   2.262  11.517  0.5871  0.3988  0.0696
 6161SOL    HW130119   1.158   2.350  11.489  1.2384 -0.2377 -1.4165
 6161SOL    HW230120   1.084   2.296  11.590  1.3521  0.7770  0.4305
 6162SOL     OW30121   0.022   4.538  10.652 -0.0573 -0.7013 -0.3441
 6162SOL    HW130122   0.086   4.497  10.594  1.9119  1.6649  0.1400
 6162SOL    HW230123   4.683   4.551  10.597  1.4183  1.4671 -1.8887
 6163SOL     OW30124   4.224   1.491   8.941 -0.1666  0.2202 -0.4868
 6163SOL    HW130125   4.285   1.519   8.872 -0.9004  2.0776 -0.3947
 6163SOL    HW230126   4.275   1.440   9.003 -0.8395  2.8140  2.1705
 6164SOL     OW30127   4.265   4.186   8.411  0.0112  0.0266  0.1490
 6164SOL    HW130128   4.303   4.232   8.336  0.6249 -1.0777 -0.2131
 6164SOL    HW230129   4.337   4.126   8.430  1.5082  1.2953 -1.4842
 6165SOL     OW30130   0.970   0.990   9.490 -0.1138 -0.4663  0.0929
 6165SOL    HW130131   0.971   0.901   9.523 -0.6125 -0.6387 -0.3391
 6165SOL    HW230132   1.021   0.983   9.409  0.2144 -0.5460  0.3076
 6166SOL     OW30133   3.650   0.934   4.882  0.2364  0.4668  0.3587
 6166SOL    HW130134   3.584   0.870   4.855 -0.7464  1.9587 -0.7526
 6166SOL    HW230135   3.724   0.896   4.834  1.7303  0.6806  2.4941
 6167SOL     OW30136   0.583   4.140  12.511  0.3833  0.2175  0.4896
 6167SOL    HW130137   0.591   4.235  12.515  0.8889  0.2186 -0.5117
 6167SOL    HW230138   0.625   4.132  12.425 -2.3675 -0.2662 -0.8344
 6168SOL     OW30139   0.856   1.658   1.965  0.0635  0.3918  0.0012
 6168SOL    HW130140   0.779   1.614   1.929 -1.0888  0.6626  2.0939
 6168SOL    HW230141   0.822   1.670   2.054 -1.8805  0.0622 -0.6905
 6169SOL     OW30142   2.124   2.292   2.361 -0.2391 -0.2906  0.1179
 6169SOL    HW130143   2.036   2.290   2.399  0.2135 -0.2566  1.1762
 6169SOL    HW230144   2.125   2.380   2.324 -0.7758 -1.0926 -1.7665
 6170SOL     OW30145   1.425   0.568  12.516  0.1801  0.4492 -0.1215
 6170SOL    HW130146   1.505   0.620  12.509  0.9171 -0.7855 -0.9178
 6170SOL    HW230147   1.371   0.610  12.449 -0.1517 -0.1548 -0.2322
 6171SOL     OW30148   0.622   4.412  12.490 -0.3663  0.0136  0.0451
 6171SOL    HW130149   0.646   4.451  12.405  1.6031 -2.6810 -0.6105
 6171SOL    HW230150   0.549   4.469  12.514 -0.0723 -1.4344  4.2286
 6172SOL     OW30151   3.523   2.349   5.244  0.3931  0.2070 -0.4307
 6172SOL    HW130152   3.433   2.337   5.214 -0.1811  0.0481  1.3380
 6172SOL    HW230153   3.513   2.439   5.274 -1.1971 -0.8554  2.3068
 6173SOL     OW30154   2.523   2.622   9.745 -0.4184  0.2009 -0.1505
 6173SOL    HW130155   2.434   2.654   9.732 -1.0460 -0.1602  3.1805
 6173SOL    HW230156   2.499   2.529   9.738 -0.7212  0.4153 -2.0253
 6174SOL     OW30157   3.093   0.009  15.273  0.2234 -0.1445  0.0043
 6174SOL    HW130158   3.005   4.722  15.244  0.6565 -0.2336 -1.2644
 6174SOL    HW230159   3.072   0.095  15.310  0.7049 -0.2969  0.6208
 6175SOL     OW30160   0.813   3.481  13.114 -0.3054 -0.0748 -0.0013
 6175SOL    HW130161   0.846   3.531  13.039  0.5119 -1.9088 -0.8695
 6175SOL    HW230162   0.859   3.398  13.105 -0.9656 -0.4708  0.3644
 6176SOL     OW30163   1.689   2.807   6.682 -0.1997 -0.1337 -0.1567
 6176SOL    HW130164   1.678   2.777   6.592 -1.8688  0.9387 -0.3176
 6176SOL    HW230165   1.637   2.887   6.676 -0.8248 -0.5517 -0.3471
 6177SOL     OW30166   0.376   3.072   4.124  0.0852  0.6024 -0.2987
 6177SOL    HW130167   0.349   2.981   4.107  0.3790  0.5034 -0.2448
 6177SOL    HW230168   0.374   3.108   4.035  1.2471 -1.9229 -1.3432
 6178SOL     OW30169   0.986   4.310   4.734 -0.1472  0.5054 -0.2357
 6178SOL    HW130170   0.927   4.313   4.809 -1.5840  1.0275 -1.3706
 6178SOL    HW230171   1.061   4.356   4.771  1.0637 -0.9593 -0.8525
 6179SOL     OW30172   2.152   2.950   3.787  1.0328  0.0709  0.4528
 6179SOL    HW130173   2.184   2.925   3.700  3.7364 -1.7495  2.0191
 6179SOL    HW230174   2.162   2.869   3.836  1.6371  0.1096  0.3976
 6180SOL     OW30175   0.535   3.801   2.870  0.4570 -0.3499 -0.1632
 6180SOL    HW130176   0.468   3.865   2.894  1.9057  0.5746  1.4362
 6180SOL    HW230177   0.526   3.794   2.775  2.8074  0.5992 -0.4317
 6181SOL     OW30178   3.190   3.650   9.568 -0.3465  0.0728 -0.4562
 6181SOL    HW130179   3.270   3.646   9.620 -1.4935 -0.0775  1.2622
 6181SOL    HW230180   3.185   3.745   9.579  0.6748 -0.0471  0.9310
 6182SOL     OW30181   1.180   1.748   2.459 -0.2530 -0.0647 -0.0134
 6182SOL    HW130182   1.151   1.835   2.432 -0.8411 -0.3181 -0.1997
 6182SOL    HW230183   1.125   1.729   2.535  2.3710  2.1237  2.4361
 6183SOL     OW30184   1.590   4.190  11.851 -0.0119  0.1840 -0.0371
 6183SOL    HW130185   1.684   4.187  11.839 -0.2172  1.3382 -1.9344
 6183SOL    HW230186   1.565   4.254  11.783 -1.5401  1.4498  1.6870
 6184SOL     OW30187   3.155   0.836   0.119  0.3561 -0.7216 -0.3622
 6184SOL    HW130188   3.165   0.919   0.072 -2.3560 -0.0841  0.2084
 6184SOL    HW230189   3.071   0.803   0.087 -1.3447  1.9448  1.3284
 6185SOL     OW30190   0.565   3.307   2.451  0.6540  0.1634 -0.0634
 6185SOL    HW130191   0.512   3.383   2.427  1.1576  0.2182 -0.9701
 6185SOL    HW230192   0.653   3.335   2.427  0.3903  1.5678  0.5468
 6186SOL     OW30193   1.915   2.541  13.183  0.1349  0.0886 -0.1094
 6186SOL    HW130194   1.846   2.475  13.190 -0.3950  0.8189  1.4234
 6186SOL    HW230195   1.963   2.517  13.262  2.0835 -1.4444 -1.7493
 6187SOL     OW30196   3.094   4.467  11.470  0.2013 -0.0110  0.0444
 6187SOL    HW130197   3.074   4.546  11.421  0.1358  0.8712  1.5065
 6187SOL    HW230198   3.075   4.494  11.560 -1.6986 -0.1120 -0.3283
 6188SOL     OW30199   0.399   1.566   4.714 -0.0308 -0.1525 -0.5672
 6188SOL    HW130200   0.474   1.572   4.655 -0.7195 -0.2805 -1.4581
 6188SOL    HW230201   0.437   1.556   4.801  1.2339  0.2965 -1.0603
 6189SOL     OW30202   0.941   4.292   3.628  0.5152 -0.8344 -0.1323
 6189SOL    HW130203   0.891   4.212   3.642 -0.0245 -0.8577 -2.1480
 6189SOL    HW230204   1.024   4.280   3.674 -0.0559 -3.4459  0.1749
 6190SOL     OW30205   2.971   4.537   4.089  0.1229 -0.4548 -0.3369
 6190SOL    HW130206   3.043   4.595   4.067 -0.0812  1.1407  3.1273
 6190SOL    HW230207   2.913   4.588   4.146  2.5778 -0.3714  2.0469
 6191SOL     OW30208   3.787   2.677   3.668 -0.2336 -0.3864 -0.4533
 6191SOL    HW130209   3.703   2.716   3.646  0.1201  1.0604  0.8240
 6191SOL    HW230210   3.798   2.608   3.602 -0.8244 -1.7775  0.9171
 6192SOL     OW30211   0.062   2.361   6.755 -0.4041 -0.7223 -0.2446
 6192SOL    HW130212   0.004   2.436   6.768  1.1292  0.0197  2.4626
 6192SOL    HW230213   0.013   2.313   6.688  0.9094 -1.4944 -0.6552
 6193SOL     OW30214   2.224   2.058   2.237  0.3206 -0.5222 -0.0839
 6193SOL    HW130215   2.193   2.133   2.287  1.0060 -0.0709 -0.3497
 6193SOL    HW230216   2.136   2.025   2.216  0.5194 -1.2378  0.1940
 6194SOL     OW30217   3.724   4.735   4.003 -0.5984  0.1227 -0.1719
 6194SOL    HW130218   3.807   0.027   4.041 -0.3519  1.3536 -1.6626
 6194SOL    HW230219   3.655   0.036   4.057  0.9158 -0.1063  1.9560
 6195SOL     OW30220   2.042   2.432  17.379 -0.4270  0.0353 -0.1378
 6195SOL    HW130221   1.999   2.517  17.369  0.3803  0.4142 -0.3644
 6195SOL    HW230222   2.071   2.433  17.470 -1.0593 -0.8862  0.0743
 6196SOL     OW30223   2.266   3.674   3.953  0.4663 -0.1604 -0.0529
 6196SOL    HW130224   2.295   3.629   3.874 -0.4951 -2.4179  0.8738
 6196SOL    HW230225   2.257   3.755   3.904 -0.6230  0.8849  1.8656
 6197SOL     OW30226   1.065   3.706   2.719  0.6706 -0.9659  0.1240
 6197SOL    HW130227   1.027   3.687   2.805 -0.8977  0.4840 -0.2404
 6197SOL    HW230228   1.153   3.670   2.723  0.8416 -0.6057 -0.4443
 6198SOL     OW30229   2.818   0.730   2.988 -0.4010 -0.3965  0.0253
 6198SOL    HW130230   2.888   0.783   2.949 -0.8017 -0.7018 -1.1094
 6198SOL    HW230231   2.779   0.686   2.912 -0.0447  2.1264 -1.6483
 6199SOL     OW30232   3.683   1.456   2.281  0.5053  0.3985  0.3495
 6199SOL    HW130233   3.624   1.511   2.333 -1.9156  0.0388 -1.9775
 6199SOL    HW230234   3.747   1.468   2.351  1.6358  0.8105 -0.7428
 6200SOL     OW30235   1.998   2.257   0.155  0.0662  0.3873 -0.1190
 6200SOL    HW130236   2.066   2.204   0.112 -0.5196  0.0401 -0.6147
 6200SOL    HW230237   2.013   2.226   0.244 -0.1533  1.4097  0.2685
 6201SOL     OW30238   3.794   0.528   4.361 -0.2008  0.3391  0.1192
 6201SOL    HW130239   3.805   0.620   4.386  1.0706  0.7300 -1.8852
 6201SOL    HW230240   3.875   0.494   4.400  0.0793 -0.5940 -1.2987
 6202SOL     OW30241   3.735   1.129   2.271 -0.1336 -0.6454  0.0382
 6202SOL    HW130242   3.807   1.189   2.289  0.3994 -1.0516 -0.7560
 6202SOL    HW230243   3.739   1.123   2.175  0.3363 -1.7953  0.1291
 6203SOL     OW30244   2.059   0.448   7.848  0.0633  0.0190 -0.3230
 6203SOL    HW130245   2.149   0.440   7.818 -0.4150 -0.6241 -1.5697
 6203SOL    HW230246   2.020   0.457   7.761 -0.4313  1.6730  0.0756
 6204SOL     OW30247   0.006   2.833   3.760 -0.4338 -0.0854 -0.0552
 6204SOL    HW130248   0.074   2.796   3.703  0.1168  0.5721  0.1641
 6204SOL    HW230249   4.673   2.773   3.738  0.7495 -1.0827 -1.1807
 6205SOL     OW30250   0.897   3.657   9.639  0.1672  0.2806  0.0497
 6205SOL    HW130251   0.868   3.747   9.656  0.8281  0.1706  1.8224
 6205SOL    HW230252   0.884   3.659   9.545  1.5907  1.8364 -0.1049
 6206SOL     OW30253   3.694   0.852   5.137  0.1984 -0.1407  0.1283
 6206SOL    HW130254   3.741   0.772   5.112  0.8337  0.6857 -1.3031
 6206SOL    HW230255   3.676   0.890   5.051  0.2362  2.7888  1.4052
 6207SOL     OW30256   2.463   1.855   5.735  0.1529 -0.1736 -0.1528
 6207SOL    HW130257   2.423   1.804   5.805  0.0824 -0.2171 -0.2258
 6207SOL    HW230258   2.547   1.880   5.774 -0.7780  2.2014  0.3413
 6208SOL     OW30259   3.481   3.807   8.287  0.2671 -0.0404  0.7189
 6208SOL    HW130260   3.392   3.786   8.257 -0.4904  2.2938  1.3803
 6208SOL    HW230261   3.516   3.876   8.230  1.2332 -1.4395 -0.3962
 6209SOL     OW30262   0.460   0.157  10.054  0.1901 -0.0833  0.5705
 6209SOL    HW130263   0.449   0.103  10.132 -1.2186 -2.0148 -0.9528
 6209SOL    HW230264   0.502   0.109   9.982 -2.0489 -0.8535 -0.2142
 6210SOL     OW30265   2.703   4.309   9.180  0.2092 -0.1318  0.5719
 6210SOL    HW130266   2.706   4.291   9.086  0.1809  2.0348  0.1538
 6210SOL    HW230267   2.629   4.258   9.213  0.1272 -0.1493  0.3590
 6211SOL     OW30268   3.618   0.806   6.966 -0.1667 -0.2745  0.9929
 6211SOL    HW130269   3.629   0.883   6.910  1.3667 -0.5821  0.8541
 6211SOL    HW230270   3.566   0.839   7.038  0.2549  1.5300  0.4619
 6212SOL     OW30271   3.561   1.236  13.278 -0.3468 -0.2967  0.3071
 6212SOL    HW130272   3.526   1.289  13.207  1.9109  0.8023  0.0093
 6212SOL    HW230273   3.577   1.153  13.233  1.1911  0.6563 -0.9008
 6213SOL     OW30274   1.907   4.357   7.544  0.0730 -0.6098  0.2034
 6213SOL    HW130275   1.834   4.302   7.517 -0.8150 -0.0846  1.5421
 6213SOL    HW230276   1.948   4.307   7.614 -0.0528 -1.1813 -0.1326
 6214SOL     OW30277   0.709   0.944   5.093 -0.5296 -0.1871 -0.0159
 6214SOL    HW130278   0.691   1.037   5.075  1.0167  0.2578  0.7456
 6214SOL    HW230279   0.736   0.916   5.005 -0.0705  1.6004 -0.4479
 6215SOL     OW30280   0.044   2.760   6.697  0.3519  0.4821  0.0899
 6215SOL    HW130281   0.126   2.772   6.648 -1.0374  0.0153 -2.3294
 6215SOL    HW230282   4.726   2.820   6.647 -0.7208  0.8727  1.7731
 6216SOL     OW30283   0.654   0.934   9.260 -0.0510  0.0732  0.3804
 6216SOL    HW130284   0.719   0.876   9.222  0.0102  1.3022 -1.4093
 6216SOL    HW230285   0.612   0.878   9.325  0.3739  1.2666  1.6761
 6217SOL     OW30286   2.993   2.714   5.218 -0.0062  0.1181  0.5438
 6217SOL    HW130287   3.049   2.694   5.143 -1.1706  2.2260 -0.8950
 6217SOL    HW230288   3.003   2.810   5.216  1.4556 -0.0343  0.2990
 6218SOL     OW30289   3.151   1.645   3.208  0.0166 -0.4714 -0.1989
 6218SOL    HW130290   3.159   1.590   3.287  0.7137  4.0080  2.8630
 6218SOL    HW230291   3.202   1.725   3.220 -1.0514  0.6072 -2.9726
 6219SOL     OW30292   3.688   2.981   7.348  0.0005 -0.6624  0.6134
 6219SOL    HW130293   3.632   3.007   7.275  0.0345  0.1543  0.8713
 6219SOL    HW230294   3.739   3.062   7.360 -1.7978  0.3471  1.3580
 6220SOL     OW30295   1.455   1.611   4.316 -0.2458  0.1963  0.0849
 6220SOL    HW130296   1.364   1.599   4.287 -0.4120  1.0121  0.2654
 6220SOL    HW230297   1.486   1.643   4.231 -0.3261 -0.5540 -0.2337
 6221SOL     OW30298   0.666   2.086  14.029  0.2475 -0.4371 -0.3092
 6221SOL    HW130299   0.667   2.039  13.945 -1.6784 -0.7293 -0.1675
 6221SOL    HW230300   0.582   2.050  14.058 -0.6677 -1.2125 -3.9016
 6222SOL     OW30301   1.432   0.493   7.722 -0.0943 -0.3175  0.3334
 6222SOL    HW130302   1.500   0.435   7.757 -1.9536 -2.8146 -0.1779
 6222SOL    HW230303   1.437   0.565   7.785 -1.2412 -0.1994  0.2871
 6223SOL     OW30304   2.268   2.930  11.479  0.0416  0.0859 -0.4896
 6223SOL    HW130305   2.211   2.998  11.443  0.9077  0.5712 -0.9459
 6223SOL    HW230306   2.348   2.956  11.432  1.0937 -0.8302  0.7873
 6224SOL     OW30307   2.413   0.222   3.746  0.2895  0.3558  0.4091
 6224SOL    HW130308   2.362   0.275   3.807  1.6467  0.8876  1.0888
 6224SOL    HW230309   2.389   0.259   3.661 -0.8778 -1.9254 -0.2535
 6225SOL     OW30310   2.375   0.170  10.876 -0.1017 -0.1452 -0.4863
 6225SOL    HW130311   2.345   0.256  10.904  1.1473 -0.4021  1.6569
 6225SOL    HW230312   2.358   0.115  10.952  2.2399  0.9229  0.8288
 6226SOL     OW30313   2.133   4.396   8.087  0.2228 -0.2169 -0.4401
 6226SOL    HW130314   2.072   4.446   8.032 -1.0147 -1.4399 -0.1776
 6226SOL    HW230315   2.095   4.311   8.110  1.4890 -0.6703 -0.0095
 6227SOL     OW30316   0.679   2.630  14.591  0.2346  0.2042  0.1551
 6227SOL    HW130317   0.626   2.707  14.611 -1.4705 -1.3574  1.6109
 6227SOL    HW230318   0.633   2.575  14.527  0.5221  0.6614 -0.4465
 6228SOL     OW30319   1.580   4.526   7.002  0.2610  0.0721  0.0723
 6228SOL    HW130320   1.642   4.475   6.949 -1.7445 -1.3457 -0.9153
 6228SOL    HW230321   1.599   4.617   6.982  3.3510 -0.1259  2.1565
 6229SOL     OW30322   1.511   3.926   8.538 -0.7416 -0.2914  0.4347
 6229SOL    HW130323   1.480   3.937   8.628 -0.9714 -0.4918  0.3810
 6229SOL    HW230324   1.577   3.994   8.548 -3.2603  2.3507 -0.9982
 6230SOL     OW30325   2.219   3.847   0.358  0.0693 -0.2200 -0.7826
 6230SOL    HW130326   2.214   3.879   0.268 -0.2757 -0.6422 -0.9095
 6230SOL    HW230327   2.126   3.829   0.370 -0.5983  2.3839 -2.1492
 6231SOL     OW30328   2.487   3.398   5.237  0.1186  0.0995 -0.3490
 6231SOL    HW130329   2.544   3.385   5.312  0.3863  1.6495 -0.2777
 6231SOL    HW230330   2.488   3.313   5.193  0.3224  0.3469 -0.8263
 6232SOL     OW30331   3.195   3.575   0.090 -0.1590 -0.4024 -0.0932
 6232SOL    HW130332   3.225   3.661   0.120  0.7634 -0.5828 -0.4884
 6232SOL    HW230333   3.126   3.549   0.151  0.7884  0.7922  1.4992
 6233SOL     OW30334   3.705   0.966   0.983  0.0522  0.0588 -0.0774
 6233SOL    HW130335   3.775   0.901   0.974 -0.8617 -0.5049 -3.2376
 6233SOL    HW230336   3.651   0.934   1.055  0.6888  0.5481  0.6259
 6234SOL     OW30337   0.413   3.056   7.953 -0.7422  0.0537 -0.2058
 6234SOL    HW130338   0.340   3.004   7.917 -2.1347  0.7580  1.6162
 6234SOL    HW230339   0.425   2.997   8.028  1.8079  0.2972 -0.4284
 6235SOL     OW30340   3.162   1.163   5.730 -0.0552 -0.1584  0.2603
 6235SOL    HW130341   3.201   1.079   5.755 -1.8541 -1.3896 -1.0677
 6235SOL    HW230342   3.221   1.178   5.656 -1.6050 -1.0471 -1.1631
 6236SOL     OW30343   1.631   4.051  10.901  0.3325  0.0614  0.4413
 6236SOL    HW130344   1.573   4.126  10.885  2.0865  0.9773 -1.5037
 6236SOL    HW230345   1.673   4.045  10.816 -2.3263 -1.1466 -0.7679
 6237SOL     OW30346   3.933   1.937   3.240  0.1148 -0.0472  0.3811
 6237SOL    HW130347   3.879   1.972   3.168  2.4983  1.5877 -0.6078
 6237SOL    HW230348   3.861   1.929   3.302 -1.2184  2.5833 -0.8060
 6238SOL     OW30349   3.472   4.033   2.867 -0.4747  0.1138  0.1182
 6238SOL    HW130350   3.547   4.092   2.873  1.5159 -2.6959  3.0584
 6238SOL    HW230351   3.523   3.952   2.861  0.2955  0.8617 -3.3033
 6239SOL     OW30352   2.949   4.570   7.853  0.2355  0.3478 -0.3221
 6239SOL    HW130353   2.963   4.501   7.919  0.4523  0.4320 -0.2794
 6239SOL    HW230354   2.859   4.595   7.872  0.0618 -2.2011  2.3110
 6240SOL     OW30355   0.851   2.052  17.729 -0.0077  0.2314  0.2226
 6240SOL    HW130356   0.942   2.074   0.004  0.3062 -1.5152  0.6027
 6240SOL    HW230357   0.855   1.960  17.704  1.7528  0.1919  0.6141
 6241SOL     OW30358   2.904   2.539  10.162 -0.3451 -0.1424  0.4482
 6241SOL    HW130359   2.917   2.589  10.081 -1.8554 -0.9970 -0.3210
 6241SOL    HW230360   2.852   2.601  10.213  0.0720  1.0326 -0.5542
 6242SOL     OW30361   1.037   3.703  10.949  0.5583 -0.3819  0.2083
 6242SOL    HW130362   1.097   3.646  10.901  0.3150 -1.8521  1.6200
 6242SOL    HW230363   1.100   3.747  11.006  0.2352 -0.3980  0.5852
 6243SOL     OW30364   2.956   2.456   8.546  0.2716  0.4149  0.0892
 6243SOL    HW130365   2.940   2.363   8.534 -1.7056  0.8061 -0.2947
 6243SOL    HW230366   3.002   2.470   8.464 -0.0004 -0.7482 -0.2554
 6244SOL     OW30367   3.627   1.497  14.246 -0.0262  0.4183 -0.0923
 6244SOL    HW130368   3.703   1.548  14.217  0.2352  2.0947  3.4877
 6244SOL    HW230369   3.577   1.489  14.166 -1.8387  1.3274  0.9463
 6245SOL     OW30370   0.425   2.052  15.151  0.6419  0.5195  0.6535
 6245SOL    HW130371   0.490   2.118  15.126 -0.3470  0.5407 -1.8681
 6245SOL    HW230372   0.421   1.996  15.074  2.1481  1.7491 -0.3183
 6246SOL     OW30373   4.477   0.530   8.697 -0.3118 -0.1157 -0.0692
 6246SOL    HW130374   4.561   0.576   8.704  0.6878 -2.4612  3.2328
 6246SOL    HW230375   4.451   0.553   8.608 -2.0219 -0.5387  0.3205
 6247SOL     OW30376   2.741   0.980   3.371 -0.0645  0.2857  0.3942
 6247SOL    HW130377   2.725   0.989   3.278 -3.3905  3.1050  1.2656
 6247SOL    HW230378   2.813   1.042   3.382  1.3909 -1.6031  1.5336
 6248SOL     OW30379   1.982   2.923   2.776 -0.3248 -0.2841 -0.4010
 6248SOL    HW130380   2.066   2.885   2.800 -1.5041 -3.2032 -0.8960
 6248SOL    HW230381   1.951   2.939   2.865  2.5515 -0.8803  0.7156
 6249SOL     OW30382   0.635   1.476   4.611 -0.8712 -0.0328  0.0401
 6249SOL    HW130383   0.711   1.485   4.669 -0.6101 -0.5033 -0.2325
 6249SOL    HW230384   0.674   1.446   4.529  0.7544 -0.7282  1.0669
 6250SOL     OW30385   0.948   2.276  13.537  0.2224 -0.0697 -0.1037
 6250SOL    HW130386   0.897   2.254  13.459  0.7664 -0.3418 -0.3899
 6250SOL    HW230387   0.941   2.194  13.587  3.3335  0.3075  0.9193
 6251SOL     OW30388   0.248   2.569   3.935  0.1027  0.1793 -0.1294
 6251SOL    HW130389   0.155   2.547   3.938  0.7644 -2.2192  2.8392
 6251SOL    HW230390   0.275   2.498   3.993  0.8293 -1.3558 -2.3261
 6252SOL     OW30391   4.519   1.606   8.736  0.2472  0.2917  0.2791
 6252SOL    HW130392   4.466   1.639   8.663 -1.7466  0.1220  1.6525
 6252SOL    HW230393   4.578   1.680   8.753  0.0978  0.2068  1.1446
 6253SOL     OW30394   3.363   1.977   5.837  0.3631 -0.0483 -0.3848
 6253SOL    HW130395   3.410   2.006   5.915  1.4740 -0.3388 -0.9472
 6253SOL    HW230396   3.427   1.918   5.797 -1.2514 -0.3830 -2.4845
 6254SOL     OW30397   0.054   0.423   1.907 -0.6210  0.1603 -0.2508
 6254SOL    HW130398   0.121   0.426   1.975 -1.6146  1.1054  0.7004
 6254SOL    HW230399   0.074   0.507   1.864 -1.8528  0.1293 -0.8961
 6255SOL     OW30400   4.151   1.985  11.407 -0.3990 -0.2073 -0.3901
 6255SOL    HW130401   4.207   1.955  11.479 -1.9482 -2.3705 -0.0853
 6255SOL    HW230402   4.138   1.899  11.367  0.3112  0.5526 -2.2193
 6256SOL     OW30403   2.804   4.597  15.306  0.2419  0.7338 -0.1442
 6256SOL    HW130404   2.746   4.584  15.382 -0.6255  1.2790 -0.7165
 6256SOL    HW230405   2.782   4.683  15.272 -0.0334  0.7281  0.0213
 6257SOL     OW30406   2.815   3.191  13.463  0.3081 -0.1124  0.0972
 6257SOL    HW130407   2.780   3.179  13.374 -0.2488  1.3851  0.1251
 6257SOL    HW230408   2.866   3.271  13.454  1.4140 -0.8143  0.0993
 6258SOL     OW30409   4.272   0.811   6.522 -0.1112  0.1075  0.4793
 6258SOL    HW130410   4.322   0.730   6.535 -1.0556 -0.2368  2.0037
 6258SOL    HW230411   4.190   0.801   6.570  0.6468 -1.4938  1.4714
 6259SOL     OW30412   0.309   1.828   3.394  0.0441  0.1517  0.0471
 6259SOL    HW130413   0.262   1.825   3.310  1.4942 -0.8187 -0.7220
 6259SOL    HW230414   0.375   1.895   3.377  2.5835 -2.2856  0.2181
 6260SOL     OW30415   0.336   3.163  11.247 -0.0142  0.2421  0.3654
 6260SOL    HW130416   0.404   3.109  11.206 -0.7465 -0.4790  0.0845
 6260SOL    HW230417   0.384   3.205  11.318 -2.6803  2.0498  1.0791
 6261SOL     OW30418   0.103   1.586   9.289  0.0676 -0.2295 -0.3364
 6261SOL    HW130419   0.082   1.631   9.207 -0.3152 -1.0675 -0.6991
 6261SOL    HW230420   0.198   1.594   9.297 -0.0127  0.2297  0.1728
 6262SOL     OW30421   1.820   3.169   5.593  0.1412  0.3319 -0.2026
 6262SOL    HW130422   1.783   3.168   5.505  0.6359 -1.3868 -0.3818
 6262SOL    HW230423   1.913   3.160   5.572  0.2546 -0.8912  0.8335
 6263SOL     OW30424   2.326   4.521  12.695 -0.2660 -0.3384  0.0731
 6263SOL    HW130425   2.363   4.522  12.607 -0.0043  1.2916  0.1871
 6263SOL    HW230426   2.299   4.613  12.702 -0.9906 -0.6736  1.8342
 6264SOL     OW30427   4.279   2.516   2.108  0.0483  0.0427  0.1652
 6264SOL    HW130428   4.239   2.599   2.136 -0.0596  0.0472 -0.0040
 6264SOL    HW230429   4.323   2.490   2.189 -1.3535 -0.2956  0.8227
 6265SOL     OW30430   0.820   4.536   2.564 -0.4484 -0.2119  0.9380
 6265SOL    HW130431   0.812   4.488   2.482  0.6853 -0.1447  0.7850
 6265SOL    HW230432   0.754   4.489   2.614  0.6983  0.3730  3.0216
 6266SOL     OW30433   2.694   2.090   7.298 -0.1002  0.0454  0.7285
 6266SOL    HW130434   2.683   2.159   7.232 -0.7151 -0.1843  0.5983
 6266SOL    HW230435   2.719   2.022   7.235  1.8435 -0.3838  1.9643
 6267SOL     OW30436   1.225   2.022   1.758  0.2946  0.2513 -0.1199
 6267SOL    HW130437   1.184   2.035   1.673 -1.3041  2.6632  1.0070
 6267SOL    HW230438   1.249   1.930   1.765  0.8251  0.4965  1.2882
 6268SOL     OW30439   4.166   0.545   2.916  0.3694 -0.0936  0.4445
 6268SOL    HW130440   4.257   0.573   2.907  0.8270 -1.7380 -0.0736
 6268SOL    HW230441   4.172   0.450   2.928  1.5397  0.0543  1.0528
 6269SOL     OW30442   3.617   2.418  16.145 -0.0350 -0.0262  0.0442
 6269SOL    HW130443   3.566   2.410  16.064 -1.5776  0.5802  0.9607
 6269SOL    HW230444   3.606   2.330  16.181 -1.1975  0.0478 -0.1219
 6270SOL     OW30445   0.439   1.871  14.938 -0.1166  0.0955 -0.3106
 6270SOL    HW130446   0.393   1.852  14.856  1.3535 -1.1691 -0.8202
 6270SOL    HW230447   0.529   1.858  14.908 -0.1662  1.2737 -0.9832
 6271SOL     OW30448   2.425   1.415   8.817  0.7945 -0.1995  0.2601
 6271SOL    HW130449   2.376   1.382   8.892  0.2415 -0.3652 -0.1682
 6271SOL    HW230450   2.413   1.510   8.811  0.0333 -0.3524 -0.6539
 6272SOL     OW30451   2.023   2.964  10.340  0.1941 -0.3207  1.2637
 6272SOL    HW130452   1.971   3.024  10.393  0.4557  0.9518  0.0888
 6272SOL    HW230453   1.966   2.969  10.263  3.3118 -1.8905 -1.1352
 6273SOL     OW30454   3.153   4.642   5.948  0.1119  0.2016  0.0235
 6273SOL    HW130455   3.195   4.559   5.970  2.3685  0.8551 -1.7653
 6273SOL    HW230456   3.061   4.616   5.952  0.1003  0.2152 -0.1414
 6274SOL     OW30457   2.825   1.113   9.989  0.7436 -0.5277  0.2233
 6274SOL    HW130458   2.854   1.025  10.016  1.7778  0.1616  1.3685
 6274SOL    HW230459   2.814   1.097   9.895 -0.6117 -3.8062  0.9438
 6275SOL     OW30460   4.495   0.348   4.892 -0.1217  0.5128 -0.9908
 6275SOL    HW130461   4.526   0.350   4.801 -0.5889  0.1994 -1.1538
 6275SOL    HW230462   4.542   0.426   4.921 -0.7661  0.8965 -0.9992
 6276SOL     OW30463   3.777   1.904   1.892 -0.3617 -0.8692  0.1378
 6276SOL    HW130464   3.795   1.997   1.903  2.4000 -1.3501 -0.2655
 6276SOL    HW230465   3.826   1.868   1.966 -0.7253 -0.8725  0.3777
 6277SOL     OW30466   0.899   0.513   7.783 -0.1232  0.3186 -0.0619
 6277SOL    HW130467   0.982   0.523   7.736 -0.5919 -2.6209 -1.5149
 6277SOL    HW230468   0.860   0.439   7.736 -0.5917 -1.0144  2.4275
 6278SOL     OW30469   4.457   2.796   9.818  0.2022 -0.0214 -0.2759
 6278SOL    HW130470   4.445   2.867   9.882  0.3000  2.1302 -2.6570
 6278SOL    HW230471   4.536   2.748   9.843 -1.2501 -2.6137 -0.6722
 6279SOL     OW30472   1.711   1.614  11.570  0.4721 -0.2633 -0.7305
 6279SOL    HW130473   1.667   1.581  11.491  3.0518 -0.3792 -2.1060
 6279SOL    HW230474   1.785   1.661  11.534 -0.3189  1.5847  0.0896
 6280SOL     OW30475   1.710   4.232   0.225 -0.2611  0.1095  0.2437
 6280SOL    HW130476   1.763   4.169   0.176 -1.5658 -0.6692 -0.1601
 6280SOL    HW230477   1.754   4.317   0.230 -0.2994  0.0378  1.8385
 6281SOL     OW30478   4.719   3.060   5.120 -0.2261  0.2004  0.0566
 6281SOL    HW130479   0.021   3.134   5.073  0.3892 -0.0960  0.1033
 6281SOL    HW230480   0.019   3.070   5.207 -0.1603  2.6445 -0.2392
 6282SOL     OW30481   0.632   3.914   8.547  0.1041 -0.2465 -0.0597
 6282SOL    HW130482   0.679   3.995   8.527 -0.8136  0.3245  0.1362
 6282SOL    HW230483   0.604   3.930   8.637 -0.2389  1.3114 -0.4380
 6283SOL     OW30484   1.866   3.534  14.857 -0.3620  0.3597  0.5596
 6283SOL    HW130485   1.788   3.490  14.892 -0.3219  0.0078  0.2131
 6283SOL    HW230486   1.827   3.615  14.824  0.8131  0.5146 -0.4467
 6284SOL     OW30487   4.023   0.337  15.251  0.1659 -0.0341 -0.1373
 6284SOL    HW130488   3.935   0.318  15.218 -0.0153 -1.2069  1.0323
 6284SOL    HW230489   4.069   0.356  15.169  0.8141 -1.2601 -0.0618
 6285SOL     OW30490   0.274   2.006   3.852 -0.2628  0.8488  0.3584
 6285SOL    HW130491   0.269   2.042   3.941 -0.2415  0.2421  0.6076
 6285SOL    HW230492   0.237   2.070   3.792  0.2245  0.8732  0.0842
 6286SOL     OW30493   0.533   2.688   8.849  0.0735  0.1150  0.5423
 6286SOL    HW130494   0.578   2.772   8.846 -1.9642  1.2730  2.3954
 6286SOL    HW230495   0.561   2.625   8.782  0.8344 -0.1188  1.0860
 6287SOL     OW30496   0.506   0.256  17.119  0.1919 -0.2173  0.6053
 6287SOL    HW130497   0.517   0.163  17.140 -0.2699 -1.0509 -2.9380
 6287SOL    HW230498   0.537   0.293  17.202 -1.9188 -0.6800  1.6101
 6288SOL     OW30499   2.687   0.031   9.635 -0.6378 -0.4011  0.1585
 6288SOL    HW130500   2.741   0.055   9.710  0.6543  1.0156 -1.2152
 6288SOL    HW230501   2.705   4.674   9.633  2.2469  0.1256  1.3288
 6289SOL     OW30502   1.512   2.082   4.782 -0.5378 -0.0554  0.8756
 6289SOL    HW130503   1.510   1.986   4.782  2.2865 -0.1061 -1.4215
 6289SOL    HW230504   1.419   2.102   4.791 -0.5319 -0.1649  1.1827
 6290SOL     OW30505   1.075   0.990   0.155 -0.2560  0.1646  0.4628
 6290SOL    HW130506   1.004   1.000   0.092  2.7616  0.0291 -2.9657
 6290SOL    HW230507   1.111   1.078   0.147 -1.5646  0.4118 -2.9400
 6291SOL     OW30508   4.644   2.949   2.603  0.0219  0.2224 -0.0125
 6291SOL    HW130509   4.619   2.871   2.553  0.2109 -1.7246  2.9102
 6291SOL    HW230510   4.615   2.925   2.691  0.2498  0.1811  0.0521
 6292SOL     OW30511   3.114   3.565   7.522 -0.2433 -0.2127  0.6065
 6292SOL    HW130512   3.073   3.600   7.601 -0.9270  1.0419 -0.3130
 6292SOL    HW230513   3.054   3.603   7.458  0.6926 -1.3783 -0.9654
 6293SOL     OW30514   2.939   3.068   5.668 -0.0804 -0.6697 -0.7619
 6293SOL    HW130515   3.028   3.082   5.635 -0.0659 -2.3024 -1.3704
 6293SOL    HW230516   2.899   3.058   5.582 -0.1684 -1.4358 -0.6271
 6294SOL     OW30517   2.350   1.179  14.381  0.0845 -0.3179  0.2300
 6294SOL    HW130518   2.427   1.210  14.429  0.4769  0.6223 -1.0230
 6294SOL    HW230519   2.278   1.200  14.442 -1.1199  0.9091 -1.6229
 6295SOL     OW30520   4.736   1.303   8.284  0.0513 -0.3214  0.2713
 6295SOL    HW130521   0.027   1.250   8.358 -1.4878 -1.0585  0.3299
 6295SOL    HW230522   0.029   1.245   8.214  1.0061  0.1901  0.2590
 6296SOL     OW30523   2.705   0.181   8.770 -0.1084 -0.3453 -0.0453
 6296SOL    HW130524   2.776   0.209   8.828 -1.4878 -2.5067  2.6702
 6296SOL    HW230525   2.683   0.267   8.735 -0.6104  0.4370  2.2118
 6297SOL     OW30526   0.820   0.258   6.938 -0.1222  0.2327 -0.1695
 6297SOL    HW130527   0.728   0.233   6.940 -0.3085  0.8992 -0.5192
 6297SOL    HW230528   0.847   0.212   7.017  0.6767 -0.9989 -1.1504
 6298SOL     OW30529   1.299   3.577  16.095 -0.1147 -0.3597  0.0003
 6298SOL    HW130530   1.338   3.505  16.144  1.0891 -1.1216 -2.0894
 6298SOL    HW230531   1.303   3.534  16.010  1.2754  1.1207 -0.6910
 6299SOL     OW30532   2.539   0.506   6.494  0.2860 -0.8516 -0.4106
 6299SOL    HW130533   2.586   0.552   6.425  1.4426 -1.2509  0.1172
 6299SOL    HW230534   2.618   0.479   6.541 -0.9618 -1.2375  1.5047
 6300SOL     OW30535   1.834   1.025   6.636 -0.2068 -0.3306  0.1750
 6300SOL    HW130536   1.886   1.028   6.556  1.0927 -0.4158  1.0289
 6300SOL    HW230537   1.762   0.971   6.603 -0.3222  1.4381 -2.4292
 6301SOL     OW30538   2.380   2.063   0.389  0.2698  0.1054  0.1538
 6301SOL    HW130539   2.390   2.155   0.414 -1.8063 -0.3612  2.6918
 6301SOL    HW230540   2.396   2.026   0.476  0.5735  0.6188  0.3169
 6302SOL     OW30541   3.034   2.727   5.728 -0.3427 -0.6273 -0.3078
 6302SOL    HW130542   2.959   2.669   5.734 -2.3996  2.2481  1.6325
 6302SOL    HW230543   3.017   2.773   5.646  0.5887 -0.3380 -0.3489
 6303SOL     OW30544   2.027   3.186   6.212  0.5117 -0.0417  0.3354
 6303SOL    HW130545   2.078   3.234   6.278  3.0122 -1.7777 -0.3515
 6303SOL    HW230546   1.942   3.183   6.257  0.0203  1.4609 -0.4910
 6304SOL     OW30547   4.328   0.811   3.123 -0.2112  0.1690 -0.4626
 6304SOL    HW130548   4.234   0.829   3.128 -0.5846 -2.1074  0.5450
 6304SOL    HW230549   4.336   0.768   3.038  3.2456 -0.8387  0.3775
 6305SOL     OW30550   1.377   1.745  15.407  0.4327 -0.2903  0.0598
 6305SOL    HW130551   1.389   1.839  15.407 -0.7080 -0.1447 -0.7331
 6305SOL    HW230552   1.283   1.743  15.423  0.6567 -1.0183  1.3387
 6306SOL     OW30553   4.160   1.793   4.156 -0.3478  0.4125 -0.2773
 6306SOL    HW130554   4.070   1.763   4.147 -0.2865 -0.6183  2.5413
 6306SOL    HW230555   4.203   1.722   4.107 -1.1433  0.1501 -0.5904
 6307SOL     OW30556   0.411   0.732   2.547  0.5087  0.7068  0.2259
 6307SOL    HW130557   0.406   0.804   2.485 -2.1806  1.5903  1.4964
 6307SOL    HW230558   0.486   0.760   2.600  1.2978 -1.2595  0.1679
 6308SOL     OW30559   2.985   4.361   2.528  0.9948 -0.5338 -0.0186
 6308SOL    HW130560   3.072   4.379   2.492  1.6258 -1.2335  1.1465
 6308SOL    HW230561   3.001   4.286   2.585  2.9968  0.2190  0.4285
 6309SOL     OW30562   2.600   1.616   1.678 -0.2833  0.0748  0.2258
 6309SOL    HW130563   2.572   1.612   1.769 -0.0913  2.0658  0.3751
 6309SOL    HW230564   2.634   1.704   1.660 -1.3529  0.3221 -0.5877
 6310SOL     OW30565   2.886   4.583   5.708 -0.0553  0.4966  0.5568
 6310SOL    HW130566   2.877   4.489   5.695  2.5944  0.1158  1.4629
 6310SOL    HW230567   2.904   4.588   5.802  1.7660 -2.3003  0.3509
 6311SOL     OW30568   0.615   3.012   4.232  0.5071  0.3449  0.2207
 6311SOL    HW130569   0.673   3.050   4.166 -0.2079  3.1018  1.1808
 6311SOL    HW230570   0.531   3.035   4.190  0.2899 -0.4118  0.2340
 6312SOL     OW30571   2.852   4.588   2.810  0.0225 -0.0274 -0.5150
 6312SOL    HW130572   2.948   4.598   2.813  0.0158 -0.3696  0.5318
 6312SOL    HW230573   2.845   4.547   2.896  0.9882 -0.3875 -0.6009
 6313SOL     OW30574   3.144   3.126   8.856  0.4001 -0.3179  0.3128
 6313SOL    HW130575   3.081   3.197   8.857  0.9587  0.1362  2.2847
 6313SOL    HW230576   3.086   3.050   8.864  1.2849 -0.8988  1.1727
 6314SOL     OW30577   1.468   0.735   9.900  0.3903 -0.2215  1.1093
 6314SOL    HW130578   1.516   0.801   9.949 -3.1651  1.2897  2.5768
 6314SOL    HW230579   1.531   0.721   9.829  0.1098 -1.4205  1.0847
 6315SOL     OW30580   0.065   1.039   9.181  0.0848 -0.2303 -0.8712
 6315SOL    HW130581   4.732   1.082   9.229  1.7802  0.6617  0.8046
 6315SOL    HW230582   0.133   1.036   9.248 -0.9300 -1.0798  0.1403
 6316SOL     OW30583   2.137   0.252   2.167  0.1109  0.1071  0.5073
 6316SOL    HW130584   2.090   0.179   2.207 -0.5146  0.0286 -0.3685
 6316SOL    HW230585   2.210   0.215   2.118 -1.7475 -2.1202 -0.5615
 6317SOL     OW30586   3.183   0.996   2.469  0.3721 -0.2663 -0.0583
 6317SOL    HW130587   3.270   1.017   2.435  0.0306  0.0096 -0.7579
 6317SOL    HW230588   3.204   0.915   2.515  1.9573  0.1525 -0.0510
 6318SOL     OW30589   1.881   0.714  15.732  0.3530  0.4315 -0.8456
 6318SOL    HW130590   1.823   0.714  15.808 -1.4674 -0.5639 -2.2383
 6318SOL    HW230591   1.861   0.632  15.686  3.0941 -1.7846  1.9698
 6319SOL     OW30592   3.087   2.705   6.795  0.2267 -0.1137  0.8094
 6319SOL    HW130593   3.085   2.707   6.699 -1.9152 -1.8200  0.8338
 6319SOL    HW230594   3.142   2.629   6.815  0.2596  0.3656  2.5435
 6320SOL     OW30595   1.825   2.107   8.303  0.2551  0.1544  0.4050
 6320SOL    HW130596   1.758   2.069   8.246  1.9714  1.2401 -2.3427
 6320SOL    HW230597   1.900   2.053   8.277  0.6243  0.6637  0.4221
 6321SOL     OW30598   3.158   3.783   4.278 -0.2274 -0.2657  0.2399
 6321SOL    HW130599   3.103   3.798   4.354 -1.3252 -1.2122 -0.3658
 6321SOL    HW230600   3.236   3.830   4.307  1.0323 -1.3184 -1.4303
 6322SOL     OW30601   2.885   3.742  11.060  0.4766 -0.0063  0.2112
 6322SOL    HW130602   2.914   3.746  10.969 -0.7412  2.4120 -0.0746
 6322SOL    HW230603   2.941   3.672  11.094 -1.7238 -1.8366  0.0058
 6323SOL     OW30604   4.028   1.579   6.745 -0.3615  0.0123 -0.1627
 6323SOL    HW130605   4.105   1.548   6.792 -1.3632 -0.2295  1.3222
 6323SOL    HW230606   3.968   1.504   6.754 -1.6205  1.2514  1.7144
 6324SOL     OW30607   3.577   0.512  11.459 -0.4807 -0.2160 -0.4928
 6324SOL    HW130608   3.634   0.585  11.433 -0.6912 -0.3090 -1.2061
 6324SOL    HW230609   3.512   0.554  11.516  0.5901  1.7138 -0.6869
 6325SOL     OW30610   1.151   2.263   2.490 -0.0998  0.1840 -0.2725
 6325SOL    HW130611   1.061   2.291   2.507  0.3691  2.5119 -1.6325
 6325SOL    HW230612   1.199   2.341   2.463  0.9654  0.1280  1.4543
 6326SOL     OW30613   2.292   2.137   9.577 -0.1264 -0.6092  0.5280
 6326SOL    HW130614   2.366   2.093   9.535 -0.6191  1.6564 -2.7018
 6326SOL    HW230615   2.231   2.063   9.576  0.0193 -0.6733 -2.7555
 6327SOL     OW30616   1.209   3.056   8.201 -0.0837  0.0709 -0.0880
 6327SOL    HW130617   1.264   3.112   8.146 -0.4905  0.0220 -0.5459
 6327SOL    HW230618   1.207   2.975   8.150 -0.3469  0.2735 -0.3957
 6328SOL     OW30619   2.446   4.618   3.637 -0.4158  0.7818 -0.0219
 6328SOL    HW130620   2.439   4.554   3.566 -1.2223  0.8103  0.0357
 6328SOL    HW230621   2.453   4.694   3.579 -0.5746 -1.0770 -2.4926
 6329SOL     OW30622   0.534   2.395  13.327  0.0232 -0.1237 -0.2290
 6329SOL    HW130623   0.507   2.480  13.362  1.5913  0.2356  0.0725
 6329SOL    HW230624   0.629   2.397  13.332 -0.0672 -1.1534  1.6419
 6330SOL     OW30625   4.225   3.984  16.006 -0.0232 -0.4939  0.0331
 6330SOL    HW130626   4.301   3.979  16.065 -1.6981  1.5440  2.3742
 6330SOL    HW230627   4.167   4.042  16.056  0.3515  0.2878 -0.4467
 6331SOL     OW30628   1.064   1.874   3.376 -0.3035  0.3225  0.2832
 6331SOL    HW130629   1.104   1.870   3.463  0.2679 -0.4462 -0.0102
 6331SOL    HW230630   1.075   1.782   3.350  0.3047  0.6605 -0.6435
 6332SOL     OW30631   4.446   1.789  11.291  0.1790 -0.1388  0.0256
 6332SOL    HW130632   4.497   1.795  11.210 -2.7943  1.0265 -1.7482
 6332SOL    HW230633   4.354   1.796  11.264  0.8231  1.8259 -1.6447
 6333SOL     OW30634   2.488   1.051   5.830  0.4918  0.2632  0.8740
 6333SOL    HW130635   2.455   1.141   5.839  0.3154  0.3505 -0.6274
 6333SOL    HW230636   2.580   1.068   5.809  0.0495  1.7762  0.1008
 6334SOL     OW30637   1.342   4.578   3.590  0.5314  0.1819  0.4799
 6334SOL    HW130638   1.410   4.644   3.600  1.2846 -0.2246 -1.9485
 6334SOL    HW230639   1.299   4.608   3.510  0.6522 -3.3238 -0.8928
 6335SOL     OW30640   2.143   0.272  12.200 -0.0249  0.4505 -0.0876
 6335SOL    HW130641   2.051   0.291  12.187 -0.0743 -1.2381 -2.2458
 6335SOL    HW230642   2.184   0.357  12.219  0.9747 -0.0921  0.2451
 6336SOL     OW30643   3.554   2.798   9.093 -0.0554  0.0976 -0.0202
 6336SOL    HW130644   3.484   2.737   9.069 -0.2465 -0.2765  1.4388
 6336SOL    HW230645   3.527   2.870   9.037 -0.3102  0.2009  0.2358
 6337SOL     OW30646   4.171   3.814   1.727  0.5732  0.0047  0.7785
 6337SOL    HW130647   4.240   3.879   1.722 -0.6953  1.3449  0.5060
 6337SOL    HW230648   4.100   3.864   1.767  0.5155  0.7485 -0.2577
 6338SOL     OW30649   2.304   3.370   3.542 -0.0343 -0.2174  0.8621
 6338SOL    HW130650   2.367   3.324   3.596  0.1544  0.2717  1.0634
 6338SOL    HW230651   2.245   3.308   3.501  0.0393 -0.9787  1.9149
 6339SOL     OW30652   2.453   4.003  13.200  0.2813 -0.4538  0.3169
 6339SOL    HW130653   2.506   3.952  13.262 -1.4648 -0.5223  1.7615
 6339SOL    HW230654   2.453   3.944  13.124  0.5291 -0.9692  0.7139
 6340SOL     OW30655   4.523   4.692   6.517 -0.3751  0.2374  0.3062
 6340SOL    HW130656   4.549   4.626   6.454  1.0501  1.9047 -0.8560
 6340SOL    HW230657   4.504   4.645   6.599  0.1168  1.1518  0.9511
 6341SOL     OW30658   2.831   4.565   8.588 -0.0771 -0.5027 -0.3696
 6341SOL    HW130659   2.760   4.627   8.568 -0.6720 -0.7860  0.8430
 6341SOL    HW230660   2.912   4.614   8.574  0.4769 -1.3878 -0.2307
 6342SOL     OW30661   4.218   2.109   5.701 -0.2179  0.1732  0.0246
 6342SOL    HW130662   4.248   2.038   5.645  2.7915  1.0024  0.5961
 6342SOL    HW230663   4.175   2.166   5.637 -0.0680 -0.8708 -1.0036
 6343SOL     OW30664   3.355   3.006   3.782 -0.6668 -0.5103 -0.1200
 6343SOL    HW130665   3.293   3.037   3.716  2.0918  0.0258 -2.4669
 6343SOL    HW230666   3.313   2.925   3.808 -2.6964  1.0448  1.4360
 6344SOL     OW30667   0.504   2.017   4.413  0.1878  0.6155 -0.1507
 6344SOL    HW130668   0.537   1.945   4.468  0.3171 -1.7934 -3.3749
 6344SOL    HW230669   0.412   2.009   4.435 -0.2708  2.4396 -1.4819
 6345SOL     OW30670   2.146   2.261  13.507 -0.1752 -0.3253 -0.0750
 6345SOL    HW130671   2.207   2.289  13.575 -0.9935 -1.7196  1.2341
 6345SOL    HW230672   2.204   2.204  13.456 -0.0945  0.2643 -0.6418
 6346SOL     OW30673   4.503   2.835   2.838  0.4827  0.1811  0.1025
 6346SOL    HW130674   4.456   2.771   2.784 -0.2083  0.6042  0.2071
 6346SOL    HW230675   4.432   2.874   2.888  0.5521  0.8793 -0.3370
 6347SOL     OW30676   4.143   2.919   3.830  0.2874 -0.1051 -0.5387
 6347SOL    HW130677   4.152   3.008   3.794 -1.0425  0.4029  0.4000
 6347SOL    HW230678   4.088   2.875   3.765 -0.7765 -0.8093  0.8449
 6348SOL     OW30679   2.718   4.290  12.105  0.0644 -0.1178  0.0725
 6348SOL    HW130680   2.705   4.258  12.195  0.2729  0.5850  0.3493
 6348SOL    HW230681   2.650   4.236  12.064 -0.1905  0.5890 -0.4233
 6349SOL     OW30682   0.825   3.163   9.182 -0.1182  0.3294  0.8790
 6349SOL    HW130683   0.788   3.080   9.213  0.3405  0.0294  0.6191
 6349SOL    HW230684   0.889   3.186   9.249 -0.2604 -1.2029  1.5394
 6350SOL     OW30685   4.159   4.361   6.229 -0.2618  0.5528  0.2662
 6350SOL    HW130686   4.091   4.364   6.297 -0.3445 -0.1991  0.2180
 6350SOL    HW230687   4.122   4.430   6.174 -0.3157  1.6582  1.6840
 6351SOL     OW30688   3.578   0.126   2.229 -0.4511 -0.1195  0.5887
 6351SOL    HW130689   3.578   0.100   2.137 -0.4361 -2.4122  1.2311
 6351SOL    HW230690   3.651   0.071   2.259  0.1055  0.6914  0.7323
 6352SOL     OW30691   3.100   4.337   8.460  0.0147 -0.3425  0.1068
 6352SOL    HW130692   3.164   4.392   8.415 -1.5119  0.9473 -0.5082
 6352SOL    HW230693   3.141   4.327   8.545 -1.5860 -0.8800  0.8306
 6353SOL     OW30694   0.681   2.364   8.336 -0.6300  0.1993 -0.0712
 6353SOL    HW130695   0.621   2.307   8.384 -0.6142 -0.1672 -0.4740
 6353SOL    HW230696   0.665   2.342   8.244 -0.2687  0.1529 -0.1243
 6354SOL     OW30697   4.712   2.442   3.208 -0.1808  0.4524  0.2547
 6354SOL    HW130698   0.057   2.474   3.170  0.3136 -1.5149 -0.3567
 6354SOL    HW230699   4.675   2.395   3.133  1.9136  0.1204 -0.5939
 6355SOL     OW30700   3.581   3.747   8.851 -0.1165 -0.2855 -0.3321
 6355SOL    HW130701   3.577   3.660   8.812 -0.8416 -0.1617 -0.5426
 6355SOL    HW230702   3.494   3.750   8.892  0.4619  1.1126  0.8116
 6356SOL     OW30703   2.579   3.713   2.713  0.9519 -0.0646 -0.0227
 6356SOL    HW130704   2.550   3.687   2.625 -0.0788  0.9028  0.0296
 6356SOL    HW230705   2.641   3.643   2.732  0.3290 -0.9164 -1.0920
 6357SOL     OW30706   2.338   2.553   1.785  0.5884  0.0597 -0.1779
 6357SOL    HW130707   2.379   2.541   1.870 -2.8144 -1.6113  1.2126
 6357SOL    HW230708   2.308   2.462   1.781  0.7485  0.0993 -2.3818
 6358SOL     OW30709   1.440   2.332  15.495 -0.0627 -0.1846  0.8760
 6358SOL    HW130710   1.429   2.248  15.539  0.0404 -0.1222  1.0236
 6358SOL    HW230711   1.350   2.362  15.484 -0.1888 -0.9348 -0.0677
 6359SOL     OW30712   1.054   2.008  11.557 -0.9231 -0.2279  0.3354
 6359SOL    HW130713   1.079   2.094  11.525 -0.4139 -0.4483  0.1365
 6359SOL    HW230714   1.134   1.992  11.608 -0.6794 -0.4666 -0.1225
 6360SOL     OW30715   2.163   4.312  12.676 -0.0100 -0.1534  0.6777
 6360SOL    HW130716   2.219   4.386  12.700  1.8354 -0.3284 -3.0063
 6360SOL    HW230717   2.212   4.252  12.732  2.8426  1.3944 -0.1322
 6361SOL     OW30718   0.451   3.962   2.088 -0.2843  0.5124 -0.2472
 6361SOL    HW130719   0.500   3.881   2.081  1.0013  1.0973  1.9195
 6361SOL    HW230720   0.503   4.023   2.141  1.1681 -0.9553 -0.0045
 6362SOL     OW30721   1.164   0.109   6.190  0.2126  0.1010 -0.7323
 6362SOL    HW130722   1.109   0.034   6.212  1.3505  0.3400  2.9564
 6362SOL    HW230723   1.146   0.164   6.266  0.0905  1.3786 -1.6853
 6363SOL     OW30724   3.935   1.301   3.694  0.1837  0.0180 -0.0047
 6363SOL    HW130725   3.896   1.300   3.781  1.4706  0.6414  0.5816
 6363SOL    HW230726   3.855   1.275   3.649  0.6284 -2.3359  0.5118
 6364SOL     OW30727   1.548   0.146  12.255 -0.3384 -0.5080  0.6471
 6364SOL    HW130728   1.504   0.197  12.322  1.6023  1.5302  0.3638
 6364SOL    HW230729   1.506   0.063  12.279  2.4016 -1.1223  3.2001
 6365SOL     OW30730   2.982   1.198   0.152  0.1794 -0.0513 -0.4221
 6365SOL    HW130731   2.978   1.142   0.074 -0.0308  1.0028 -1.1782
 6365SOL    HW230732   2.905   1.157   0.191 -0.1327 -0.0258 -1.0070
 6366SOL     OW30733   0.419   2.725   1.953 -0.0868 -0.0630 -0.0672
 6366SOL    HW130734   0.427   2.765   1.866 -0.2494 -0.4893 -0.2782
 6366SOL    HW230735   0.425   2.634   1.923  0.3548  0.6073 -2.0361
 6367SOL     OW30736   4.633   2.488   5.351 -0.1810  0.2504 -0.4475
 6367SOL    HW130737   4.684   2.415   5.383  1.9494  1.2706 -1.4791
 6367SOL    HW230738   4.566   2.435   5.308  0.7108  0.5010 -2.1778
 6368SOL     OW30739   0.088   4.462   6.259  0.2696 -0.5905 -0.4391
 6368SOL    HW130740   0.115   4.482   6.170  0.5333 -0.0811 -0.2435
 6368SOL    HW230741   0.097   4.545   6.306  3.1762 -0.5690 -1.0263
 6369SOL     OW30742   2.911   2.009   8.371  0.1059  0.5497 -0.5532
 6369SOL    HW130743   2.859   1.930   8.356 -0.4697  1.3588 -2.7921
 6369SOL    HW230744   2.885   2.076   8.307  0.9774  0.6647 -0.7968
 6370SOL     OW30745   3.933   4.674   0.966  0.1876 -0.8536  0.4080
 6370SOL    HW130746   3.924   4.632   1.051 -0.9107 -0.9270  0.2557
 6370SOL    HW230747   3.993   0.009   0.984 -0.5807  0.1866 -1.1180
 6371SOL     OW30748   3.756   3.536   9.061  0.5457  0.2190  0.2112
 6371SOL    HW130749   3.795   3.463   9.110 -0.7356 -1.9602 -1.9774
 6371SOL    HW230750   3.752   3.493   8.976  1.1091 -0.7980  0.6996
 6372SOL     OW30751   3.496   0.485   9.244 -0.4239  0.0416 -1.1223
 6372SOL    HW130752   3.583   0.475   9.204  0.0300 -0.0120 -0.1316
 6372SOL    HW230753   3.530   0.512   9.329  0.7000 -2.3784 -0.7741
 6373SOL     OW30754   0.332   0.636   4.230  0.0233 -0.0985  0.1680
 6373SOL    HW130755   0.386   0.581   4.287 -0.7403  0.9199  1.8700
 6373SOL    HW230756   0.392   0.704   4.201 -1.6703  1.7864  1.1347
 6374SOL     OW30757   4.581   2.388  14.361 -0.1117 -0.0286 -0.0027
 6374SOL    HW130758   4.647   2.351  14.303 -0.1247  1.1153 -0.7553
 6374SOL    HW230759   4.508   2.382  14.298 -0.6857  1.0461  0.5615
 6375SOL     OW30760   4.658   3.750   2.964 -0.2513  0.7354 -0.0312
 6375SOL    HW130761   4.724   3.703   2.913 -0.7204  0.0089  0.0317
 6375SOL    HW230762   4.605   3.674   2.986  0.4324  0.9404  2.3485
 6376SOL     OW30763   1.147   3.453   2.468 -0.0475  0.4083  0.3138
 6376SOL    HW130764   1.163   3.382   2.530  0.5061  1.7305  1.6875
 6376SOL    HW230765   1.228   3.466   2.419 -1.0408 -0.4504 -1.5761
 6377SOL     OW30766   3.892   0.717   0.949 -0.0871  0.2335 -0.3950
 6377SOL    HW130767   3.898   0.653   1.020 -1.6426 -1.0078 -1.3997
 6377SOL    HW230768   3.852   0.666   0.879  1.4244 -2.4116  0.6917
 6378SOL     OW30769   4.439   1.778  12.279 -0.4740 -0.1658  0.1860
 6378SOL    HW130770   4.432   1.718  12.354 -1.1197 -1.7675 -1.1517
 6378SOL    HW230771   4.487   1.721  12.219 -1.1766  0.3103 -0.8216
 6379SOL     OW30772   3.705   2.328   2.618  0.1224  0.0025  0.5401
 6379SOL    HW130773   3.704   2.423   2.615 -2.6090  0.0136  1.8718
 6379SOL    HW230774   3.631   2.308   2.675 -0.0101 -0.2261  0.2921
 6380SOL     OW30775   3.157   0.184   4.616 -0.3711  0.2110  1.0041
 6380SOL    HW130776   3.113   0.231   4.545  1.4079 -1.2964 -1.0908
 6380SOL    HW230777   3.088   0.182   4.683  0.5141 -0.7218  1.8926
 6381SOL     OW30778   2.872   3.079   6.656  0.2895  0.2643  0.0950
 6381SOL    HW130779   2.918   3.038   6.583  0.2873 -1.6219  1.1505
 6381SOL    HW230780   2.861   3.170   6.630 -0.6354  0.1566  0.1086
 6382SOL     OW30781   1.494   1.805   4.729  0.2848 -0.5757 -0.5540
 6382SOL    HW130782   1.448   1.753   4.795  2.6024 -0.4946  1.1077
 6382SOL    HW230783   1.520   1.737   4.666  2.7062 -0.7631  0.6874
 6383SOL     OW30784   4.009   2.570   4.628  0.5286 -0.3585  0.2141
 6383SOL    HW130785   4.003   2.663   4.651  0.2577 -0.4791  0.6326
 6383SOL    HW230786   4.062   2.579   4.549 -0.9725 -1.4001 -0.8908
 6384SOL     OW30787   1.346   1.146   2.231  0.2838  0.1452  0.2535
 6384SOL    HW130788   1.256   1.166   2.258 -0.8676 -1.0258 -2.7609
 6384SOL    HW230789   1.334   1.088   2.156  1.2963 -1.3262  1.2206
 6385SOL     OW30790   3.268   0.623  17.049 -0.6841  0.2210 -0.3113
 6385SOL    HW130791   3.298   0.675  17.123 -3.1053 -1.4488  1.8215
 6385SOL    HW230792   3.199   0.676  17.010  0.4615  1.2123 -1.0127
 6386SOL     OW30793   2.143   3.003   4.790 -0.5489  0.4121  0.4041
 6386SOL    HW130794   2.057   3.019   4.827  0.3861 -0.4966  2.9852
 6386SOL    HW230795   2.182   2.947   4.857  2.2916  3.1330  1.0461
 6387SOL     OW30796   0.815   0.781  12.117  0.5455  0.4449 -0.9649
 6387SOL    HW130797   0.880   0.848  12.098  1.8786  0.3990  3.3045
 6387SOL    HW230798   0.861   0.705  12.082 -0.0348  0.0272 -0.8324
 6388SOL     OW30799   3.419   4.670   7.216 -0.4375 -0.0239 -0.2455
 6388SOL    HW130800   3.487   4.691   7.280  0.2383 -3.3983  0.1368
 6388SOL    HW230801   3.466   4.683   7.133 -1.4037 -2.1978 -1.1274
 6389SOL     OW30802   4.230   2.409   9.643 -0.4065  0.2939 -0.1255
 6389SOL    HW130803   4.234   2.473   9.714 -2.9909 -1.5783  1.7013
 6389SOL    HW230804   4.294   2.436   9.577  0.4861 -0.3624  0.4716
 6390SOL     OW30805   2.587   0.217   4.965  0.8151  0.3484 -0.5287
 6390SOL    HW130806   2.517   0.280   4.947 -0.5092 -1.0609 -0.3276
 6390SOL    HW230807   2.595   0.159   4.889  0.2472  0.4685 -0.6777
 6391SOL     OW30808   2.928   1.027   8.082 -0.5853 -0.1630 -0.2701
 6391SOL    HW130809   2.939   1.122   8.074  0.5024 -0.4259 -2.1004
 6391SOL    HW230810   2.943   1.016   8.176 -2.4514 -0.7890 -0.0479
 6392SOL     OW30811   3.533   0.035   1.380 -0.3322 -0.5333 -0.2801
 6392SOL    HW130812   3.446   0.061   1.408  0.0002  1.9560 -1.5442
 6392SOL    HW230813   3.513   0.001   1.292 -0.2272  0.9205 -0.8542
 6393SOL     OW30814   3.039   2.657  14.512 -0.3097  0.2045  0.2032
 6393SOL    HW130815   3.019   2.716  14.585  2.7952 -0.3975  1.5853
 6393SOL    HW230816   3.019   2.578  14.563 -0.2367  0.8505  1.2405
 6394SOL     OW30817   3.827   4.429   3.896 -0.2082  0.6852  0.8105
 6394SOL    HW130818   3.828   4.510   3.845  0.7733 -0.8646 -1.6039
 6394SOL    HW230819   3.889   4.379   3.843  0.1869 -0.4813  2.3791
 6395SOL     OW30820   3.860   2.635   4.205 -1.0404  0.5448 -0.0338
 6395SOL    HW130821   3.847   2.569   4.273 -2.4431 -1.6332 -2.4133
 6395SOL    HW230822   3.868   2.573   4.132 -2.6352  2.6640 -2.0001
 6396SOL     OW30823   2.921   2.405   2.675  0.3241 -0.2106  0.5994
 6396SOL    HW130824   2.889   2.495   2.683 -0.6126 -0.3841 -1.0839
 6396SOL    HW230825   2.837   2.373   2.641  1.0860 -0.9052 -0.6057
 6397SOL     OW30826   3.412   2.308  15.655  0.6187 -0.0757  0.0872
 6397SOL    HW130827   3.466   2.262  15.590 -2.4767 -1.1863 -1.6945
 6397SOL    HW230828   3.335   2.334  15.605  1.1806 -0.3405 -0.9349
 6398SOL     OW30829   4.230   3.008   2.418 -0.6834  0.1876  0.6412
 6398SOL    HW130830   4.271   2.993   2.333  0.5016  0.8436  1.0978
 6398SOL    HW230831   4.224   2.919   2.452  0.4005 -0.1364 -0.0272
 6399SOL     OW30832   4.548   1.909   9.761 -0.0753 -0.4000  0.3004
 6399SOL    HW130833   4.580   1.846   9.697  2.5827  3.1742 -1.8464
 6399SOL    HW230834   4.469   1.937   9.715  2.9275  1.1616 -3.7910
 6400SOL     OW30835   1.382   1.927   7.256 -0.3199  0.4624 -0.2479
 6400SOL    HW130836   1.328   1.996   7.216  1.2495  0.3850 -2.5083
 6400SOL    HW230837   1.375   1.866   7.183  1.1604  0.1448 -0.1249
 6401SOL     OW30838   0.814   2.691   0.125  0.0299 -0.1595 -0.1159
 6401SOL    HW130839   0.837   2.702   0.033 -1.0814  0.5101 -0.3197
 6401SOL    HW230840   0.752   2.763   0.136 -0.3567 -0.0011 -3.4866
 6402SOL     OW30841   3.847   0.530   8.044  0.2077 -0.2511  0.5609
 6402SOL    HW130842   3.915   0.478   8.001 -0.2227  0.9608 -1.5926
 6402SOL    HW230843   3.808   0.568   7.966  0.6473 -0.2469  0.3419
 6403SOL     OW30844   1.668   4.442   5.893 -0.0885  0.0631 -0.3377
 6403SOL    HW130845   1.764   4.448   5.895 -0.0845 -0.1138  0.0370
 6403SOL    HW230846   1.650   4.534   5.913  3.4695  0.0917  2.7987
 6404SOL     OW30847   0.226   4.338   5.748 -0.1223  0.2885  1.0939
 6404SOL    HW130848   0.319   4.318   5.743 -0.3274 -0.6351  0.9639
 6404SOL    HW230849   0.205   4.346   5.655 -1.5723 -0.8995  1.3215
 6405SOL     OW30850   2.419   1.066   3.871 -0.3284  0.3801 -0.1421
 6405SOL    HW130851   2.356   1.091   3.938 -1.8538 -0.3088 -1.3400
 6405SOL    HW230852   2.385   1.095   3.786 -1.6322 -0.3281  0.1468
 6406SOL     OW30853   0.934   4.508   3.851  0.1182  0.7512  0.2239
 6406SOL    HW130854   0.884   4.428   3.864  0.5156  0.4285 -0.2411
 6406SOL    HW230855   1.019   4.471   3.828 -0.5038 -0.0325 -0.8571
 6407SOL     OW30856   2.886   1.172   8.397  0.1774  0.2160  0.2058
 6407SOL    HW130857   2.903   1.241   8.333 -2.4282 -0.6599 -1.3975
 6407SOL    HW230858   2.854   1.102   8.340  0.8212  0.9943 -1.1117
 6408SOL     OW30859   0.474   1.610   6.098 -0.4900 -0.2175  0.1389
 6408SOL    HW130860   0.440   1.656   6.021  0.5431 -0.8751 -0.7039
 6408SOL    HW230861   0.514   1.527   6.072  0.3799  0.2028  0.1697
 6409SOL     OW30862   4.054   4.551   4.208  0.6932 -0.9711  0.5657
 6409SOL    HW130863   4.020   4.480   4.262  0.0355 -1.8225 -0.9569
 6409SOL    HW230864   4.055   4.621   4.272 -1.4391  0.2630 -0.7490
 6410SOL     OW30865   3.581   2.180   4.655  0.6725 -0.1741  0.3837
 6410SOL    HW130866   3.666   2.166   4.612 -0.3669 -0.0290 -1.7133
 6410SOL    HW230867   3.596   2.243   4.725  0.8586 -0.0638  0.2470
 6411SOL     OW30868   4.161   1.058   2.940 -0.4800  0.6371  0.6619
 6411SOL    HW130869   4.237   1.015   2.902 -1.5275 -0.9097  0.2906
 6411SOL    HW230870   4.173   1.142   2.895 -0.1622  0.0692 -0.3209
 6412SOL     OW30871   3.332   4.064   5.744 -0.3918 -0.0526 -0.5466
 6412SOL    HW130872   3.378   3.990   5.704 -0.7530  0.1854 -1.3999
 6412SOL    HW230873   3.405   4.111   5.783 -0.0927 -0.2305 -0.8822
 6413SOL     OW30874   2.377   1.689   3.830  0.5215  0.1042 -0.1589
 6413SOL    HW130875   2.461   1.663   3.792  0.7989 -0.3864  0.8049
 6413SOL    HW230876   2.368   1.610   3.883  1.8312 -0.4980 -0.8329
 6414SOL     OW30877   0.649   3.616   5.875  0.0680  0.5158  0.2456
 6414SOL    HW130878   0.580   3.634   5.811 -1.0552 -1.0202  1.0353
 6414SOL    HW230879   0.602   3.546   5.919  1.7086 -1.2265 -0.7589
 6415SOL     OW30880   1.741   1.809   8.045  0.1792  0.3221  0.2906
 6415SOL    HW130881   1.755   1.797   8.139 -2.0584 -1.2856  0.4035
 6415SOL    HW230882   1.658   1.856   8.047 -0.3814 -0.5854 -1.7171
 6416SOL     OW30883   4.669   4.037   1.895 -0.3900 -0.7576 -0.2047
 6416SOL    HW130884   0.016   4.007   1.861 -0.0195  0.5766 -0.4427
 6416SOL    HW230885   4.700   4.082   1.973  0.0205  0.6922 -1.2202
 6417SOL     OW30886   2.827   3.116   1.274 -0.2315 -0.1271 -0.2874
 6417SOL    HW130887   2.917   3.090   1.295 -0.0127  2.1522  1.6972
 6417SOL    HW230888   2.804   3.054   1.205 -1.5795 -0.7239  0.7075
 6418SOL     OW30889   3.277   3.144  12.374 -0.8875  0.0387 -0.2486
 6418SOL    HW130890   3.283   3.146  12.278 -0.5831 -0.1270 -0.2305
 6418SOL    HW230891   3.257   3.051  12.385 -1.7126  0.1343 -0.8905
 6419SOL     OW30892   3.267   3.527   6.267  0.2906 -0.2543 -0.2718
 6419SOL    HW130893   3.227   3.556   6.186 -1.5481  0.0612  0.7387
 6419SOL    HW230894   3.343   3.584   6.278 -0.6012  0.6157  1.5139
 6420SOL     OW30895   3.429   1.163   1.525  0.3934  0.0859 -0.1821
 6420SOL    HW130896   3.421   1.126   1.437 -0.2976 -0.4748  0.1129
 6420SOL    HW230897   3.341   1.156   1.562  0.7400 -1.9572  0.2836
 6421SOL     OW30898   4.539   1.421   8.038  0.1865 -0.2771  0.2013
 6421SOL    HW130899   4.605   1.456   7.978  0.4662  0.2076  0.7817
 6421SOL    HW230900   4.527   1.330   8.011 -0.1236 -0.1952  0.0687
 6422SOL     OW30901   3.740   3.643   5.035  0.4036  0.2168 -0.5094
 6422SOL    HW130902   3.797   3.675   5.104 -0.8204  3.3433 -0.9412
 6422SOL    HW230903   3.677   3.715   5.027 -1.5972 -1.5843 -1.1057
 6423SOL     OW30904   4.522   3.658   1.322 -0.2033 -0.5848  0.5100
 6423SOL    HW130905   4.577   3.709   1.382 -0.1659 -0.7086  0.5804
 6423SOL    HW230906   4.542   3.565   1.332 -1.2955 -0.7924  0.7101
 6424SOL     OW30907   2.275   2.136   6.101  0.3381 -0.1219 -0.3713
 6424SOL    HW130908   2.371   2.130   6.103  0.3693 -0.4772 -3.8401
 6424SOL    HW230909   2.245   2.156   6.013 -2.4764  0.8421  0.8056
 6425SOL     OW30910   4.726   3.303   3.298 -0.0410 -0.2845 -0.2873
 6425SOL    HW130911   0.045   3.229   3.275  2.4078  2.3056 -2.5246
 6425SOL    HW230912   0.056   3.358   3.338 -0.4819  0.4540 -0.5602
 6426SOL     OW30913   3.690   4.024   4.479 -0.3842 -0.0486 -0.0782
 6426SOL    HW130914   3.681   3.958   4.410 -0.2940 -0.8608  0.6882
 6426SOL    HW230915   3.774   4.066   4.461 -0.9287  0.8933 -0.4272
 6427SOL     OW30916   3.332   3.305   7.986 -0.6454  0.3106  0.1979
 6427SOL    HW130917   3.323   3.388   8.032 -0.5634  1.5766 -2.0915
 6427SOL    HW230918   3.259   3.307   7.924  0.7092  0.8672 -1.3767
 6428SOL     OW30919   2.950   4.258   5.926  0.7052 -0.3189  0.1538
 6428SOL    HW130920   2.990   4.244   5.840 -1.1873  1.1217 -0.9537
 6428SOL    HW230921   3.022   4.307   5.965 -1.1384  0.7751  2.1592
 6429SOL     OW30922   0.022   0.209   9.271 -0.2612  0.0780  0.3557
 6429SOL    HW130923   0.033   0.239   9.361 -1.4834 -0.1175  0.5749
 6429SOL    HW230924   0.101   0.156   9.259  0.1621  0.3589  1.8900
 6430SOL     OW30925   0.338   1.267   5.166 -0.6720  0.0017  0.3238
 6430SOL    HW130926   0.339   1.182   5.210  0.5918 -0.5495 -0.7652
 6430SOL    HW230927   0.357   1.230   5.080 -2.7848 -0.7613  0.1915
 6431SOL     OW30928   0.941   3.218   4.347 -0.0499 -0.6051  0.2100
 6431SOL    HW130929   0.992   3.263   4.279 -2.9625 -0.0591 -1.6027
 6431SOL    HW230930   0.952   3.127   4.317 -1.5931 -0.7170  0.0200
 6432SOL     OW30931   4.277   4.304   4.290 -0.1412  0.2852 -0.2240
 6432SOL    HW130932   4.279   4.312   4.385  0.0447 -1.5379 -0.0759
 6432SOL    HW230933   4.329   4.380   4.265  1.9903 -0.7200  1.1493
 6433SOL     OW30934   1.129   2.168   4.079 -0.1988 -0.0286  0.2934
 6433SOL    HW130935   1.048   2.140   4.121 -0.2640 -0.8557 -0.3840
 6433SOL    HW230936   1.184   2.191   4.154 -3.1795  1.4114  2.0308
 6434SOL     OW30937   1.170   3.591   5.136  0.2162 -0.2880  0.6174
 6434SOL    HW130938   1.082   3.627   5.124  0.5051  0.1982 -0.0341
 6434SOL    HW230939   1.163   3.569   5.229 -0.6324  1.5733  1.0026
 6435SOL     OW30940   1.537   1.366   2.113  0.5903 -0.1395 -0.1795
 6435SOL    HW130941   1.484   1.320   2.179  2.6998 -1.1410  0.8243
 6435SOL    HW230942   1.604   1.303   2.089  2.3152  2.0936 -1.1993
 6436SOL     OW30943   1.444   4.416  14.710 -0.0163 -0.2734 -0.1989
 6436SOL    HW130944   1.517   4.374  14.664  1.2020  1.4841  0.1570
 6436SOL    HW230945   1.386   4.340  14.706 -0.9306  0.5061 -1.6733
 6437SOL     OW30946   1.017   4.186   4.196  0.0962 -0.4861  0.3507
 6437SOL    HW130947   1.057   4.182   4.109  0.0477 -0.9497  0.3501
 6437SOL    HW230948   0.963   4.263   4.178  0.7643  0.3582  1.9184
 6438SOL     OW30949   0.268   1.198  10.000 -0.1758 -0.3562  0.1092
 6438SOL    HW130950   0.264   1.127  10.064  3.2245  0.6781  1.4350
 6438SOL    HW230951   0.347   1.190   9.948 -1.2029 -0.1534 -1.4783
 6439SOL     OW30952   2.264   3.981   5.657 -0.2152  0.2207 -0.2645
 6439SOL    HW130953   2.253   3.903   5.712  2.2445 -0.1572 -0.3121
 6439SOL    HW230954   2.301   3.949   5.575 -0.1197 -0.1742 -0.0659
 6440SOL     OW30955   1.812   4.042   5.839 -0.0790  0.3756 -0.3398
 6440SOL    HW130956   1.813   4.093   5.919 -1.0905 -0.4334  0.1967
 6440SOL    HW230957   1.820   4.116   5.780  1.2117  0.0214 -0.6142
 6441SOL     OW30958   2.921   0.333   2.888 -0.1525  0.5026 -0.2542
 6441SOL    HW130959   2.926   0.276   2.964 -0.8039 -1.0740 -1.4016
 6441SOL    HW230960   2.828   0.325   2.869 -0.1371 -0.3394  0.0148
 6442SOL     OW30961   0.842   2.679   2.204 -0.6952  0.2250  0.0535
 6442SOL    HW130962   0.807   2.618   2.269  2.5288  1.5169  3.0337
 6442SOL    HW230963   0.856   2.616   2.133 -0.0114 -0.2240  0.5855
 6443SOL     OW30964   0.742   2.872   8.919 -0.2717 -0.1126 -0.2151
 6443SOL    HW130965   0.827   2.892   8.880  0.0069 -1.2938 -0.2041
 6443SOL    HW230966   0.751   2.795   8.975  1.3686 -0.1028 -0.4653
 6444SOL     OW30967   1.622   4.181  15.582  0.2124  0.2969 -0.0567
 6444SOL    HW130968   1.707   4.189  15.539  0.6492 -0.2785  0.6968
 6444SOL    HW230969   1.594   4.089  15.577  3.7223 -0.8202  1.3631
 6445SOL     OW30970   3.066   1.331   2.123 -0.6701 -0.3866  0.3973
 6445SOL    HW130971   3.038   1.376   2.043  1.0696  1.8147  1.0228
 6445SOL    HW230972   3.112   1.267   2.070  1.8665  0.1141  2.0205
 6446SOL     OW30973   4.211   4.356   6.952  0.6805  0.4788 -0.2932
 6446SOL    HW130974   4.162   4.278   6.927 -0.8832  0.6788  2.1078
 6446SOL    HW230975   4.272   4.315   7.014  0.2650  0.3628  0.0395
 6447SOL     OW30976   0.944   1.440   3.109  0.2383  0.1459 -0.0399
 6447SOL    HW130977   0.890   1.435   3.188 -0.8642  1.2765 -0.7383
 6447SOL    HW230978   1.033   1.447   3.144  0.0179  0.2178  0.5112
 6448SOL     OW30979   3.680   1.142  11.132 -0.0167  0.5339 -0.2138
 6448SOL    HW130980   3.752   1.114  11.188 -0.4579 -0.9515 -0.3858
 6448SOL    HW230981   3.726   1.157  11.049  0.7277  1.0005  0.2857
 6449SOL     OW30982   0.553   0.764   7.292 -0.4440 -0.5094  0.3494
 6449SOL    HW130983   0.477   0.720   7.328 -1.0193  1.5746  1.7099
 6449SOL    HW230984   0.508   0.832   7.244  0.5328 -1.2704 -1.6273
 6450SOL     OW30985   0.822   0.612  13.871 -0.7549 -0.3703  0.0839
 6450SOL    HW130986   0.790   0.625  13.961  0.3975  0.2475  0.4108
 6450SOL    HW230987   0.843   0.519  13.866  1.0507  0.1681 -2.0440
 6451SOL     OW30988   4.377   1.202  12.504  0.8658  0.4028  0.0562
 6451SOL    HW130989   4.336   1.162  12.428  1.1807 -1.0629  0.6513
 6451SOL    HW230990   4.409   1.284  12.465 -0.4019  0.7032 -0.3445
 6452SOL     OW30991   0.505   4.525   7.241 -0.3927 -0.1392  0.3628
 6452SOL    HW130992   0.515   4.431   7.251 -2.3773 -0.2889  0.7632
 6452SOL    HW230993   0.470   4.550   7.326  1.4198  2.4821  0.3744
 6453SOL     OW30994   0.949   2.689   4.837 -0.4116 -0.2007  0.0939
 6453SOL    HW130995   1.005   2.766   4.824 -0.5308 -0.4171 -1.6329
 6453SOL    HW230996   0.980   2.639   4.762 -2.2401 -0.9047 -0.1831
 6454SOL     OW30997   3.342   3.739  16.515  0.1517 -0.2175  0.0330
 6454SOL    HW130998   3.409   3.795  16.475  1.1877 -1.1035  0.5179
 6454SOL    HW230999   3.372   3.734  16.606 -0.0931  0.7143  0.1595
 6455SOL     OW31000   3.448   0.964   6.376 -0.7505 -0.5491  0.8147
 6455SOL    HW131001   3.460   0.945   6.469  2.4790  1.8755  0.8777
 6455SOL    HW231002   3.512   0.899   6.345 -0.9298 -0.6235  0.5989
 6456SOL     OW31003   3.902   0.044   5.114  0.2548 -0.1780 -0.1866
 6456SOL    HW131004   3.939   0.001   5.191  1.4099 -0.3358 -0.8285
 6456SOL    HW231005   3.893   4.715   5.046 -1.0061  0.1250 -0.3163
 6457SOL     OW31006   0.385   1.602   9.868  0.0015  0.5485 -0.0652
 6457SOL    HW131007   0.448   1.530   9.871  0.4590  0.9156 -0.9354
 6457SOL    HW231008   0.444   1.670   9.836 -0.1365  1.4039  1.5422
 6458SOL     OW31009   0.965   4.630   4.454 -0.6859 -0.2163 -0.4133
 6458SOL    HW131010   0.911   4.565   4.500 -0.2936 -0.5886 -0.4740
 6458SOL    HW231011   0.921   4.645   4.371 -1.5471  1.0121  0.2765
 6459SOL     OW31012   3.680   1.160   4.158 -0.0166  0.1430  0.6023
 6459SOL    HW131013   3.759   1.169   4.211 -1.3568  0.3305  2.5604
 6459SOL    HW231014   3.659   1.068   4.176 -0.9079  0.6383  2.0632
 6460SOL     OW31015   4.711   2.470   3.927 -0.0386 -0.3724  0.6991
 6460SOL    HW131016   4.728   2.377   3.918 -0.7310 -0.2059 -2.4595
 6460SOL    HW231017   4.666   2.476   4.011  1.5062 -2.5626  1.6803
 6461SOL     OW31018   3.201   4.320   9.267 -0.5157  0.1929 -0.2824
 6461SOL    HW131019   3.126   4.371   9.298 -0.0792  0.5338  0.2339
 6461SOL    HW231020   3.224   4.253   9.332 -2.1507 -1.9349 -1.9065
 6462SOL     OW31021   1.651   1.740   2.077  0.3828 -0.3298  0.1420
 6462SOL    HW131022   1.569   1.788   2.063  0.8234 -0.1837 -1.9581
 6462SOL    HW231023   1.695   1.776   2.000 -0.5798  0.6472  0.0561
 6463SOL     OW31024   4.439   1.866   6.496  0.0324 -0.5992  0.4749
 6463SOL    HW131025   4.405   1.927   6.561 -1.5970 -1.2074  0.2050
 6463SOL    HW231026   4.467   1.791   6.550  2.0011  0.8827  1.4862
 6464SOL     OW31027   0.716   2.416   2.699 -0.3895  0.2470  0.0993
 6464SOL    HW131028   0.690   2.355   2.630 -0.6049 -1.5748  1.8082
 6464SOL    HW231029   0.662   2.494   2.684  1.8575  1.7952  0.0946
 6465SOL     OW31030   1.225   0.980   5.205  0.5265  0.0276 -0.0593
 6465SOL    HW131031   1.294   0.931   5.161  0.6223 -0.3564  0.5081
 6465SOL    HW231032   1.264   0.987   5.293  1.8378  1.0450 -0.7308
 6466SOL     OW31033   4.424   3.948   1.983  0.0471 -0.6977 -0.3278
 6466SOL    HW131034   4.379   3.974   1.903  0.7000 -0.7822 -0.7189
 6466SOL    HW231035   4.514   3.966   1.956  0.4798 -2.4789 -0.0592
 6467SOL     OW31036   3.053   1.250  13.335  0.0319  0.0153  0.1132
 6467SOL    HW131037   3.123   1.202  13.290 -0.7722 -0.3754 -0.7283
 6467SOL    HW231038   2.980   1.197  13.302 -1.1865  1.6341  0.2226
 6468SOL     OW31039   4.057   3.577   4.722 -0.2961 -0.0228 -0.1942
 6468SOL    HW131040   3.962   3.566   4.729 -0.5198  1.6557 -0.4950
 6468SOL    HW231041   4.085   3.624   4.800 -0.5460  0.5245 -0.4345
 6469SOL     OW31042   2.507   3.257   7.547  0.5855  0.0066 -0.4875
 6469SOL    HW131043   2.596   3.261   7.512  1.0012 -0.1890  0.5385
 6469SOL    HW231044   2.464   3.248   7.462 -0.3248 -1.6785  0.1498
 6470SOL     OW31045   2.665   1.769  13.575 -0.0891  0.0501 -0.0030
 6470SOL    HW131046   2.678   1.829  13.502 -1.0030 -1.1163 -1.1202
 6470SOL    HW231047   2.658   1.684  13.533 -2.6625  0.5037 -0.4766
 6471SOL     OW31048   2.890   2.935  10.271  0.3889 -0.4974  0.1738
 6471SOL    HW131049   2.830   3.011  10.270 -0.1124 -0.8876  0.6934
 6471SOL    HW231050   2.924   2.934  10.182 -2.4685  1.1159 -0.9586
 6472SOL     OW31051   1.978   4.692  16.713 -0.0103  0.1960  0.1695
 6472SOL    HW131052   1.959   4.628  16.782  1.0389  0.3144  0.5670
 6472SOL    HW231053   2.017   4.642  16.642 -3.5450 -2.1776 -0.0727
 6473SOL     OW31054   3.911   2.063   4.843  1.2371 -0.1710  0.1798
 6473SOL    HW131055   3.988   2.051   4.898  1.1420  2.4737  0.9115
 6473SOL    HW231056   3.860   2.119   4.902 -0.6639 -0.9467 -0.7265
 6474SOL     OW31057   1.058   0.689   1.298 -0.1114 -0.0738  0.1462
 6474SOL    HW131058   1.054   0.594   1.284  0.2233 -0.2937  1.4986
 6474SOL    HW231059   0.996   0.692   1.370  2.6294 -0.2080  2.5178
 6475SOL     OW31060   3.500   0.320   4.931 -0.5264  0.0161  0.4086
 6475SOL    HW131061   3.518   0.345   5.022 -0.9085  0.3838  0.3854
 6475SOL    HW231062   3.409   0.291   4.931 -0.5213  0.0169 -1.4228
 6476SOL     OW31063   2.665   2.571   2.946 -0.1515  0.2555  0.5193
 6476SOL    HW131064   2.657   2.632   3.019 -0.7053 -1.8101  2.1905
 6476SOL    HW231065   2.585   2.519   2.953  0.6650 -1.3758 -2.1739
 6477SOL     OW31066   1.702   2.549   9.489  0.2427 -0.2455  0.3654
 6477SOL    HW131067   1.725   2.482   9.424 -0.8620  0.6273 -0.9238
 6477SOL    HW231068   1.786   2.558   9.535 -0.1208 -0.6761  1.1051
 6478SOL     OW31069   4.122   1.121   0.268 -0.3282  0.6239 -0.1065
 6478SOL    HW131070   4.150   1.076   0.188  0.3573  2.6424 -1.0102
 6478SOL    HW231071   4.205   1.155   0.302  0.0824 -1.5276  1.0362
 6479SOL     OW31072   2.409   2.394   2.000  0.5533  0.0455 -0.1837
 6479SOL    HW131073   2.354   2.316   2.010  0.7229 -0.0855 -0.2642
 6479SOL    HW231074   2.377   2.464   2.056 -0.2012 -2.1619  2.1779
 6480SOL     OW31075   0.885   4.372   1.957 -0.0253 -0.0353 -0.6994
 6480SOL    HW131076   0.969   4.340   1.989 -1.8163 -3.1505  0.8292
 6480SOL    HW231077   0.905   4.464   1.941  1.0026  0.1619  1.7658
 6481SOL     OW31078   3.895   1.991   1.582 -0.2637  0.1838 -0.1065
 6481SOL    HW131079   3.816   1.962   1.536 -1.6704  2.2543  1.0031
 6481SOL    HW231080   3.867   2.030   1.664 -1.0410 -1.1648  0.2668
 6482SOL     OW31081   1.185   3.110   7.720 -0.4571  0.4806 -0.2222
 6482SOL    HW131082   1.119   3.047   7.692 -2.2450  1.4500  1.8385
 6482SOL    HW231083   1.223   3.053   7.788  1.6014  2.2466  0.1196
 6483SOL     OW31084   4.096   1.790   7.032  0.1432 -0.1403  0.0718
 6483SOL    HW131085   4.000   1.783   7.025  0.2202  0.5298 -1.7846
 6483SOL    HW231086   4.124   1.701   7.009 -2.4385 -0.8211 -0.4669
 6484SOL     OW31087   3.018   4.306   7.910 -0.0123 -0.0299  0.1749
 6484SOL    HW131088   2.952   4.283   7.976  0.3162 -1.2126  0.0891
 6484SOL    HW231089   3.083   4.337   7.973  1.8597 -0.0565 -1.7532
 6485SOL     OW31090   0.761   1.228   3.895  0.2029  0.1870 -0.3280
 6485SOL    HW131091   0.689   1.214   3.833 -0.3995  2.2008 -0.0577
 6485SOL    HW231092   0.834   1.234   3.834  0.8150  2.0933  0.5841
 6486SOL     OW31093   1.748   3.744   3.565  0.3216 -0.0390 -0.1881
 6486SOL    HW131094   1.704   3.724   3.482 -1.1494 -1.5837  0.9726
 6486SOL    HW231095   1.784   3.832   3.551 -1.9253  0.9883  0.4293
 6487SOL     OW31096   0.470   2.577   7.427  0.0750  0.4605  0.1216
 6487SOL    HW131097   0.467   2.667   7.395 -0.9133  0.3390 -0.1460
 6487SOL    HW231098   0.404   2.581   7.496  1.5667 -3.0922  1.7443
 6488SOL     OW31099   0.292   1.887   2.494  0.0666 -0.0632  0.1884
 6488SOL    HW131100   0.266   1.802   2.527  0.8677 -0.9153 -1.3493
 6488SOL    HW231101   0.242   1.878   2.412  1.7808 -1.2375 -0.7245
 6489SOL     OW31102   1.437   0.220   3.197 -0.6511  0.2454 -0.0793
 6489SOL    HW131103   1.442   0.307   3.158  0.3298  0.5744  0.7558
 6489SOL    HW231104   1.428   0.247   3.288 -1.8027 -0.8767  0.1437
 6490SOL     OW31105   1.998   3.937   3.065 -0.1816 -0.0100 -0.0381
 6490SOL    HW131106   2.070   3.874   3.068  0.8845  1.1158 -1.4615
 6490SOL    HW231107   1.958   3.920   2.979  0.7130 -1.9925 -0.0639
 6491SOL     OW31108   0.734   2.792   3.689  0.1270  0.3746 -0.2082
 6491SOL    HW131109   0.661   2.809   3.630  0.1115 -1.2696 -0.6647
 6491SOL    HW231110   0.691   2.742   3.758 -0.8605 -0.8111 -1.6764
 6492SOL     OW31111   0.672   0.593   2.981 -0.3111 -0.2042  0.4506
 6492SOL    HW131112   0.609   0.590   3.053 -1.8341  0.1649 -0.8642
 6492SOL    HW231113   0.687   0.499   2.966  0.2982  0.0935 -0.8088
 6493SOL     OW31114   3.640   3.102   5.735  0.1502 -0.4684 -0.2184
 6493SOL    HW131115   3.648   3.167   5.806 -2.1401 -1.6604  1.1183
 6493SOL    HW231116   3.701   3.031   5.755  0.2298 -0.0075  1.2355
 6494SOL     OW31117   2.993   3.281   3.857  0.5090  0.0580  0.4080
 6494SOL    HW131118   2.977   3.187   3.853 -0.8503  0.4300 -2.9837
 6494SOL    HW231119   2.907   3.310   3.886  1.2305 -0.3859  3.0383
 6495SOL     OW31120   4.123   3.077  10.704 -0.5085 -0.4122 -0.5175
 6495SOL    HW131121   4.089   3.137  10.770 -0.6359 -1.3117  0.2434
 6495SOL    HW231122   4.052   3.013  10.701 -0.5044 -0.2945 -2.5985
 6496SOL     OW31123   2.282   1.245  11.032  0.2281  0.3109  0.4171
 6496SOL    HW131124   2.310   1.324  11.077  1.1395 -0.7587  1.7242
 6496SOL    HW231125   2.231   1.196  11.097 -1.6957  0.8046 -0.7085
 6497SOL     OW31126   0.864   0.372   2.614  0.2590 -0.1627 -0.0392
 6497SOL    HW131127   0.883   0.363   2.520  0.9673 -1.2518  0.2109
 6497SOL    HW231128   0.775   0.406   2.605 -0.8800 -3.2734 -0.5066
 6498SOL     OW31129   1.052   1.164   5.131 -0.6839 -0.0120 -0.4255
 6498SOL    HW131130   1.100   1.086   5.161  0.5079  1.0309  0.3876
 6498SOL    HW231131   1.123   1.225   5.110  0.1523 -0.8534 -0.0424
 6499SOL     OW31132   4.543   4.497   7.318 -0.1832 -0.0715 -0.2782
 6499SOL    HW131133   4.570   4.588   7.327  0.8818 -0.4584  0.5364
 6499SOL    HW231134   4.602   4.460   7.252  0.8236 -1.2115  1.2459
 6500SOL     OW31135   0.091   3.882   3.163  0.1316 -0.4446  0.4032
 6500SOL    HW131136   0.178   3.854   3.135 -0.1945 -0.1800 -0.8665
 6500SOL    HW231137   0.045   3.845   3.087  0.9803 -1.6018  0.4489
 6501SOL     OW31138   4.372   4.664   6.244 -0.4097 -0.1164 -0.2094
 6501SOL    HW131139   4.405   4.676   6.155 -1.3308  1.1659 -0.3755
 6501SOL    HW231140   4.457   4.660   6.288 -0.7658 -2.8308  0.2490
 6502SOL     OW31141   1.701   4.138   7.840  0.0697 -0.1547 -0.7615
 6502SOL    HW131142   1.626   4.131   7.781  0.6325 -3.5533 -1.0866
 6502SOL    HW231143   1.774   4.104   7.789  2.2374  1.9085  0.9782
 6503SOL     OW31144   4.220   3.468   3.993 -0.0863  0.2747  0.1691
 6503SOL    HW131145   4.268   3.394   3.957  0.0802  0.3604  0.2175
 6503SOL    HW231146   4.225   3.465   4.089 -2.4892  2.1943  0.3768
 6504SOL     OW31147   2.579   2.240   9.214 -0.1034 -0.1231  0.4374
 6504SOL    HW131148   2.532   2.190   9.281  0.6730 -0.2584  0.8828
 6504SOL    HW231149   2.602   2.318   9.265  0.5824 -1.3908  2.0748
 6505SOL     OW31150   1.555   3.336   7.488  0.0041  0.4345  0.5766
 6505SOL    HW131151   1.543   3.412   7.431 -2.6840  1.1067  2.0305
 6505SOL    HW231152   1.534   3.266   7.427  1.6127  0.4003  0.0480
 6506SOL     OW31153   2.416   3.022  16.017  0.6059  0.1093  0.0522
 6506SOL    HW131154   2.372   2.995  15.936  1.0186  1.9355 -0.7996
 6506SOL    HW231155   2.464   2.941  16.031 -2.0181 -1.2059  1.4289
 6507SOL     OW31156   3.532   2.209   2.051 -0.5545  0.0531 -0.4948
 6507SOL    HW131157   3.586   2.234   1.975 -1.0321 -0.7241 -1.0912
 6507SOL    HW231158   3.534   2.114   2.054 -0.6287  0.0267 -1.2352
 6508SOL     OW31159   1.061   0.937   8.799  0.1073 -0.3224  0.7075
 6508SOL    HW131160   1.100   0.888   8.871 -0.2244  1.1975  1.9174
 6508SOL    HW231161   1.141   0.974   8.761 -0.0513  1.3949  2.0563
 6509SOL     OW31162   3.082   3.785  14.351 -0.7058 -0.1305  0.2137
 6509SOL    HW131163   3.048   3.789  14.261 -0.2723 -1.9518 -0.0284
 6509SOL    HW231164   3.126   3.866  14.374  0.2978 -0.7224  0.3686
 6510SOL     OW31165   1.084   0.537   3.032  0.1915 -0.1158 -0.6052
 6510SOL    HW131166   1.024   0.597   3.077  0.7696  0.7885 -1.0678
 6510SOL    HW231167   1.064   0.550   2.939 -2.1298 -0.0263 -0.0999
 6511SOL     OW31168   4.689   0.708   7.270  0.0206  0.3017  0.4890
 6511SOL    HW131169   4.601   0.744   7.273  0.8176  2.3219 -0.6970
 6511SOL    HW231170   0.008   0.785   7.266  2.0648 -1.1917  0.8567
 6512SOL     OW31171   0.260   0.490  10.905  0.8820  0.0282  0.9889
 6512SOL    HW131172   0.256   0.444  10.822 -1.3081  0.2470  0.9876
 6512SOL    HW231173   0.265   0.582  10.879  0.8390 -0.8620 -2.1576
 6513SOL     OW31174   1.050   3.275   7.418  0.0570  0.2711 -0.6172
 6513SOL    HW131175   1.013   3.221   7.488  0.1192 -0.0528 -0.8312
 6513SOL    HW231176   1.133   3.296   7.460 -0.1366 -0.2554  0.0405
 6514SOL     OW31177   4.270   2.721   3.340 -0.7286 -0.4259 -0.3866
 6514SOL    HW131178   4.229   2.718   3.254  0.5299 -1.6402 -0.9383
 6514SOL    HW231179   4.361   2.709   3.313 -0.2060  1.2958  0.5965
 6515SOL     OW31180   2.451   4.019  16.434 -0.3742 -0.2091  0.1437
 6515SOL    HW131181   2.478   4.108  16.409  2.2227 -1.4667 -1.4939
 6515SOL    HW231182   2.435   4.025  16.528 -0.4519  0.3256  0.0997
 6516SOL     OW31183   3.765   3.041   8.922 -0.1757 -0.4189 -0.1718
 6516SOL    HW131184   3.773   2.955   8.881 -0.4016 -1.0565  1.1022
 6516SOL    HW231185   3.692   3.079   8.873  0.7865 -0.4317 -1.6093
 6517SOL     OW31186   3.988   0.139   2.282 -1.3131  0.4460 -0.0976
 6517SOL    HW131187   3.940   0.221   2.270 -0.8031  0.5635 -1.2980
 6517SOL    HW231188   4.005   0.130   2.376  0.7089 -1.7284 -0.6674
 6518SOL     OW31189   3.646   4.536  12.760 -0.2729  0.5237  0.3785
 6518SOL    HW131190   3.586   4.546  12.833 -2.0759 -0.2101 -1.0097
 6518SOL    HW231191   3.584   4.512  12.692  0.1722 -0.2092  0.2302
 6519SOL     OW31192   0.399   0.759  10.158 -0.1687 -0.5788 -0.4668
 6519SOL    HW131193   0.474   0.790  10.209 -0.0644  0.2896 -1.1374
 6519SOL    HW231194   0.325   0.789  10.210  0.2519  1.7378 -1.2249
 6520SOL     OW31195   0.038   2.354   7.806 -0.1000  0.2803 -0.0038
 6520SOL    HW131196   0.052   2.379   7.714 -2.1735 -1.0476 -0.6824
 6520SOL    HW231197   0.076   2.432   7.846 -1.4571  0.3930  1.0759
 6521SOL     OW31198   3.194   0.938   8.244 -0.2941  0.5686 -0.1877
 6521SOL    HW131199   3.257   0.884   8.196 -0.9646  1.1399 -1.7148
 6521SOL    HW231200   3.134   0.870   8.275  1.8587 -1.5880 -0.6825
 6522SOL     OW31201   2.650   3.780   3.374  0.4640  0.1873 -0.5265
 6522SOL    HW131202   2.602   3.827   3.306 -1.3491  2.0927  2.0988
 6522SOL    HW231203   2.743   3.802   3.368  0.1998  1.9167  1.7868
 6523SOL     OW31204   2.390   1.214   5.466  0.4025  0.5316  0.1747
 6523SOL    HW131205   2.469   1.162   5.449  1.1061  1.1520  1.5836
 6523SOL    HW231206   2.328   1.156   5.422  1.2481  0.8114 -1.4068
 6524SOL     OW31207   0.515   0.810  12.529  0.2496  0.3404  0.0603
 6524SOL    HW131208   0.545   0.821  12.438 -1.1836  2.0951 -0.2005
 6524SOL    HW231209   0.421   0.807  12.512  0.3019  1.2940 -0.3989
 6525SOL     OW31210   1.692   2.694   4.534 -0.5408 -0.3345  0.0077
 6525SOL    HW131211   1.689   2.685   4.438 -0.1175 -0.6989  0.0256
 6525SOL    HW231212   1.781   2.730   4.533 -1.0653  0.9562  0.2577
 6526SOL     OW31213   3.254   2.785   8.455  0.6856  0.2742 -0.0296
 6526SOL    HW131214   3.294   2.794   8.368 -1.2187 -1.2839 -1.0889
 6526SOL    HW231215   3.165   2.816   8.438 -0.1568 -1.3751  1.3381
 6527SOL     OW31216   0.818   2.918   9.662  0.5479 -0.0634  0.4734
 6527SOL    HW131217   0.736   2.877   9.692 -0.0508 -0.7736 -2.1789
 6527SOL    HW231218   0.787   2.897   9.574  0.1119  0.9749  0.3744
 6528SOL     OW31219   0.730   4.675   8.514 -0.6163  0.1282 -0.5320
 6528SOL    HW131220   0.645   4.668   8.556  0.5232  0.7801  1.8912
 6528SOL    HW231221   0.700   4.683   8.423  2.6538 -0.1562 -1.6615
 6529SOL     OW31222   4.007   0.552   3.864 -0.3636 -0.0666 -0.1700
 6529SOL    HW131223   3.933   0.517   3.815 -1.9161  1.8939  0.7858
 6529SOL    HW231224   4.053   0.469   3.881 -0.7463  0.0342  1.3976
 6530SOL     OW31225   3.922   2.197   8.710  0.8539 -0.3404  0.2801
 6530SOL    HW131226   3.853   2.198   8.644 -1.8412  1.0095  3.1208
 6530SOL    HW231227   3.884   2.157   8.789  0.8414 -3.3501 -1.2509
 6531SOL     OW31228   4.561   2.844   8.726 -0.9804 -0.5884  0.2760
 6531SOL    HW131229   4.528   2.931   8.705 -0.9366 -0.3419  1.2485
 6531SOL    HW231230   4.548   2.834   8.820  0.9443  1.6730  0.7783
 6532SOL     OW31231   1.223   2.871  14.914  0.1945  0.0102 -0.0573
 6532SOL    HW131232   1.164   2.802  14.883 -0.8771  1.1462 -0.5601
 6532SOL    HW231233   1.302   2.849  14.864  1.1048 -1.0135  1.8551
 6533SOL     OW31234   4.091   4.222  16.673  0.1686 -0.2164 -0.6850
 6533SOL    HW131235   4.003   4.252  16.696  1.0081  1.9983 -0.3204
 6533SOL    HW231236   4.079   4.130  16.698 -4.5294  0.6357  0.2363
 6534SOL     OW31237   1.714   1.629   1.221  0.7522  0.1324  0.5048
 6534SOL    HW131238   1.778   1.700   1.222  0.2353  0.6158 -2.0073
 6534SOL    HW231239   1.635   1.675   1.192 -0.2801  0.0644  3.2110
 6535SOL     OW31240   0.792   1.250   8.045 -0.6547  0.5211 -0.4395
 6535SOL    HW131241   0.808   1.246   7.951  0.6794 -1.8814 -0.0972
 6535SOL    HW231242   0.868   1.201   8.075 -0.7889  1.2511  1.1128
 6536SOL     OW31243   3.640   3.503   2.437 -0.3536  0.0251 -0.1869
 6536SOL    HW131244   3.696   3.575   2.408  1.2097 -0.9694  0.4169
 6536SOL    HW231245   3.699   3.429   2.442 -0.1782  0.3842  2.8059
 6537SOL     OW31246   1.670   1.507  15.365 -1.0005 -0.3819 -0.5875
 6537SOL    HW131247   1.658   1.541  15.454  1.7080  0.3257 -0.4829
 6537SOL    HW231248   1.717   1.430  15.396 -2.2462 -1.3385 -1.0709
 6538SOL     OW31249   1.884   3.754   7.128  0.0336  0.0720 -0.3061
 6538SOL    HW131250   1.928   3.689   7.072  0.2519  1.8701 -2.2151
 6538SOL    HW231251   1.794   3.762   7.097 -0.3948 -1.5397  0.5254
 6539SOL     OW31252   1.834   0.446  15.722  0.0698  0.2494 -0.1344
 6539SOL    HW131253   1.863   0.361  15.755  0.3317  0.9936  1.5460
 6539SOL    HW231254   1.759   0.451  15.782  0.3811  1.3084  0.1628
 6540SOL     OW31255   1.159   3.258  10.027 -0.1159 -0.3364  0.4335
 6540SOL    HW131256   1.115   3.299  10.101  1.4595  0.1301  1.0988
 6540SOL    HW231257   1.190   3.333   9.977  1.0395 -0.9936  0.1588
 6541SOL     OW31258   1.314   0.455   5.727 -0.0554  0.0341  0.7660
 6541SOL    HW131259   1.354   0.540   5.746 -0.8558  0.6714 -0.4033
 6541SOL    HW231260   1.246   0.485   5.667  0.5748 -1.2321 -0.6127
 6542SOL     OW31261   1.901   0.399  12.108  0.9130  0.5636 -0.2666
 6542SOL    HW131262   1.859   0.366  12.029  0.1802  1.5727 -0.2995
 6542SOL    HW231263   1.962   0.462  12.070  2.5134 -1.6731 -1.3742
 6543SOL     OW31264   1.373   3.349   2.317  0.0111  0.2128  0.0245
 6543SOL    HW131265   1.395   3.356   2.224  1.4949  1.0729  0.4554
 6543SOL    HW231266   1.452   3.385   2.357  0.5212 -0.1019 -0.6922
 6544SOL     OW31267   1.102   1.501   9.546 -0.2362 -0.3430 -0.1861
 6544SOL    HW131268   1.074   1.410   9.557  0.3776 -0.3587  1.3471
 6544SOL    HW231269   1.079   1.541   9.630  1.0423 -1.2149  0.5863
 6545SOL     OW31270   2.391   2.567   9.450  0.8367 -0.4707 -0.5856
 6545SOL    HW131271   2.359   2.567   9.540 -0.8499 -0.6117 -1.1854
 6545SOL    HW231272   2.396   2.660   9.429 -0.6569 -0.5552 -1.3398
 6546SOL     OW31273   3.486   1.737   5.101 -0.1120  0.1777  0.2806
 6546SOL    HW131274   3.522   1.821   5.130  0.3917  0.1869 -0.3661
 6546SOL    HW231275   3.503   1.744   5.007 -0.9703 -2.0199 -0.0446
 6547SOL     OW31276   0.755   2.174  16.898 -0.1154  0.3921  0.0730
 6547SOL    HW131277   0.723   2.091  16.933 -0.6504  1.1576  1.3713
 6547SOL    HW231278   0.797   2.134  16.821 -0.3109  0.8308 -0.2620
 6548SOL     OW31279   4.644   4.348   2.586  0.7353  0.0537  0.1991
 6548SOL    HW131280   4.635   4.338   2.491  1.4481 -0.3646  0.1764
 6548SOL    HW231281   4.610   4.435   2.607  0.3858  0.5571 -2.4111
 6549SOL     OW31282   1.764   2.749   9.147 -0.0837 -0.0054  0.4732
 6549SOL    HW131283   1.812   2.722   9.226  0.5566 -0.9639 -0.2435
 6549SOL    HW231284   1.776   2.670   9.095  3.4094  1.7128 -1.3287
 6550SOL     OW31285   4.124   1.795  10.689 -0.1828 -0.1983  0.3135
 6550SOL    HW131286   4.106   1.811  10.597 -0.5589  0.6609  0.5352
 6550SOL    HW231287   4.212   1.760  10.679 -0.5087 -0.8942 -0.1602
 6551SOL     OW31288   0.442   0.000  17.206 -0.2771  0.3763  0.0620
 6551SOL    HW131289   0.422   4.677  17.277  0.4102 -0.6498 -0.6210
 6551SOL    HW231290   0.373   4.702  17.149  0.6085 -1.2746  0.0467
 6552SOL     OW31291   2.326   0.322   3.476  0.5638  0.1502  0.6598
 6552SOL    HW131292   2.233   0.340   3.462  0.3699 -0.2580  1.4159
 6552SOL    HW231293   2.349   0.414   3.466 -0.5055  0.7018  3.4722
 6553SOL     OW31294   3.974   1.149  16.891 -0.0363  0.4692  0.1791
 6553SOL    HW131295   3.966   1.201  16.811  0.2425  0.5650  0.2136
 6553SOL    HW231296   3.886   1.121  16.914 -0.0341  2.4971  2.5504
 6554SOL     OW31297   0.683   0.347   9.382  0.4096  0.2271  0.5517
 6554SOL    HW131298   0.727   0.423   9.420 -0.3336  2.2996 -2.6654
 6554SOL    HW231299   0.598   0.343   9.425  1.2423 -2.0429  1.9338
 6555SOL     OW31300   3.883   1.895   2.491 -0.2010  0.3169  0.8966
 6555SOL    HW131301   3.815   1.851   2.440  0.5761 -1.1488  1.1051
 6555SOL    HW231302   3.859   1.985   2.469 -1.7814 -0.3916 -0.2924
 6556SOL     OW31303   1.587   0.076   7.024 -0.1924  0.5782 -0.6507
 6556SOL    HW131304   1.561   0.162   6.992 -0.1882  0.5628 -0.6963
 6556SOL    HW231305   1.545   0.076   7.110 -0.1637 -1.0122 -0.6427
 6557SOL     OW31306   3.597   1.211   4.916  0.1973 -0.0215  0.0144
 6557SOL    HW131307   3.550   1.218   4.999 -0.6290 -0.8074 -0.3981
 6557SOL    HW231308   3.621   1.119   4.918  0.3837  0.0086 -0.6713
 6558SOL     OW31309   2.060   0.404   3.419 -0.2852 -0.1192  0.5131
 6558SOL    HW131310   2.075   0.494   3.446 -1.9826  0.2370  0.2523
 6558SOL    HW231311   1.975   0.429   3.383  0.7011 -0.0224 -1.7259
 6559SOL     OW31312   3.618   4.541   1.786  0.0541  0.4043 -0.1694
 6559SOL    HW131313   3.593   4.449   1.792  2.1840 -0.2003 -0.4070
 6559SOL    HW231314   3.695   4.532   1.842 -0.8007 -1.1471  0.7449
 6560SOL     OW31315   4.085   3.045   1.502  0.6095 -0.3473  0.1757
 6560SOL    HW131316   4.018   2.984   1.533 -0.5718 -0.2674 -2.2103
 6560SOL    HW231317   4.132   3.071   1.581  0.1963 -1.5665  0.8264
 6561SOL     OW31318   4.696   3.934   9.966 -0.4315 -0.0110 -0.2901
 6561SOL    HW131319   0.025   3.921   9.898 -0.2775 -0.8509  0.0301
 6561SOL    HW231320   4.688   3.851  10.013 -0.8851  0.9330  1.2938
 6562SOL     OW31321   2.423   3.044   3.389 -0.4313 -0.0996  0.1768
 6562SOL    HW131322   2.415   3.070   3.297 -0.8222 -1.8605 -0.2903
 6562SOL    HW231323   2.388   3.124   3.428 -2.8835 -1.0000 -0.1629
 6563SOL     OW31324   0.246   4.258   5.458 -0.0903 -0.0060 -0.3366
 6563SOL    HW131325   0.270   4.222   5.373  2.4734 -2.2451  1.3273
 6563SOL    HW231326   0.169   4.206   5.484  0.4609 -0.4673  0.3796
 6564SOL     OW31327   0.816   1.428   6.144  0.2468  0.2138  0.3681
 6564SOL    HW131328   0.799   1.440   6.237  2.5106 -0.0311  0.8186
 6564SOL    HW231329   0.728   1.411   6.108 -0.1062 -0.8571  1.7398
 6565SOL     OW31330   0.049   4.170   5.865 -0.3352  0.0548 -0.0711
 6565SOL    HW131331   0.103   4.096   5.893 -0.1985  0.7064  1.3851
 6565SOL    HW231332   0.108   4.228   5.818 -1.6705  1.7604  0.3426
 6566SOL     OW31333   3.013   0.575   2.743 -0.9457  0.1773  0.3165
 6566SOL    HW131334   3.003   0.499   2.801  1.7349 -0.4219  0.0356
 6566SOL    HW231335   2.925   0.592   2.712  0.0732  0.3724 -2.4745
 6567SOL     OW31336   3.209   3.288  15.005  0.1444 -0.0988 -0.7221
 6567SOL    HW131337   3.273   3.232  14.962  1.8589  1.1062  0.2747
 6567SOL    HW231338   3.173   3.228  15.071  0.8811  0.4975  0.2235
 6568SOL     OW31339   0.478   3.971   7.234  0.0378 -0.1207  0.3261
 6568SOL    HW131340   0.422   3.898   7.205  0.1186  0.3378 -0.9723
 6568SOL    HW231341   0.554   3.913   7.236 -1.4414 -2.0289  1.6691
 6569SOL     OW31342   1.343   0.619   0.064  0.1134 -0.3429  0.2390
 6569SOL    HW131343   1.323   0.687  17.747 -0.7659 -0.4458  0.4004
 6569SOL    HW231344   1.411   0.657   0.119  1.6990  0.0779 -1.9867
 6570SOL     OW31345   3.680   1.829   7.380  0.9595  0.2967  0.1719
 6570SOL    HW131346   3.647   1.772   7.311  1.1161  2.1975 -1.4752
 6570SOL    HW231347   3.603   1.825   7.436 -0.6794  1.5283 -1.9868
 6571SOL     OW31348   4.323   4.146  16.962  0.1334 -0.5184 -0.3784
 6571SOL    HW131349   4.265   4.221  16.954  0.3076 -0.0946  2.1375
 6571SOL    HW231350   4.282   4.097  17.034  2.0464 -0.7116  0.6161
 6572SOL     OW31351   3.341   2.477  17.560  0.2581 -0.5551 -0.6041
 6572SOL    HW131352   3.276   2.407  17.553 -1.1711  0.7044  0.1239
 6572SOL    HW231353   3.418   2.422  17.552  1.3897  0.6988  1.5540
 6573SOL     OW31354   2.542   1.499  13.946  0.1189 -0.4664 -0.3918
 6573SOL    HW131355   2.494   1.441  13.888  1.7602 -2.1434 -0.0583
 6573SOL    HW231356   2.540   1.459  14.033 -0.2461  0.1632 -0.1064
 6574SOL     OW31357   3.506   2.707   5.580  0.6682 -0.3487 -0.2313
 6574SOL    HW131358   3.579   2.715   5.641 -0.5302  0.0139  1.1384
 6574SOL    HW231359   3.430   2.684   5.634 -0.3629  1.4027 -0.9424
 6575SOL     OW31360   1.862   2.425   8.275 -0.0616  0.4666  0.0661
 6575SOL    HW131361   1.773   2.449   8.303  0.5444  3.4441 -0.5424
 6575SOL    HW231362   1.881   2.360   8.342 -0.9925  1.5422  1.3700
 6576SOL     OW31363   0.624   1.611  17.067 -0.0471  0.0972  0.3226
 6576SOL    HW131364   0.654   1.520  17.069 -0.3918 -0.0111  0.6318
 6576SOL    HW231365   0.696   1.664  17.101  2.0656 -0.9723 -2.4715
 6577SOL     OW31366   0.087   1.685   3.122  0.3095 -0.1575 -0.5140
 6577SOL    HW131367   0.088   1.619   3.192 -1.2330 -2.8298 -2.9914
 6577SOL    HW231368   0.051   1.759   3.170 -0.5400  0.0076 -1.4076
 6578SOL     OW31369   0.667   2.592   3.402  0.0517 -0.1770  0.6484
 6578SOL    HW131370   0.725   2.638   3.343  0.2542 -0.8606  0.3163
 6578SOL    HW231371   0.606   2.664   3.418 -0.9087 -1.0222  0.8031
 6579SOL     OW31372   3.428   0.681  11.845 -0.1429  0.4823  0.1949
 6579SOL    HW131373   3.403   0.651  11.758  0.5409 -0.9262  0.4775
 6579SOL    HW231374   3.421   0.596  11.890 -0.0393  0.8938  0.9951
 6580SOL     OW31375   1.860   3.981   3.488 -0.0682 -0.2504  0.1071
 6580SOL    HW131376   1.841   4.052   3.425  1.4886  0.2460  0.2004
 6580SOL    HW231377   1.915   3.928   3.431 -0.9884 -0.0492 -0.9758
 6581SOL     OW31378   2.777   1.611   4.253 -0.1723  0.8382  0.2010
 6581SOL    HW131379   2.819   1.696   4.267  2.6805 -0.6249  0.4177
 6581SOL    HW231380   2.852   1.555   4.273  0.8878  2.4322  0.7420
 6582SOL     OW31381   1.072   0.138   3.697 -0.0371  0.0269 -0.0875
 6582SOL    HW131382   1.166   0.143   3.711 -0.0374 -2.1596  0.6811
 6582SOL    HW231383   1.059   0.046   3.675  1.3490  0.3034 -2.0769
 6583SOL     OW31384   3.445   4.262   5.384  0.1141  0.2011 -0.0247
 6583SOL    HW131385   3.470   4.219   5.302  0.0917  2.0388 -0.9774
 6583SOL    HW231386   3.432   4.191   5.447 -1.5104  1.1794  0.7381
 6584SOL     OW31387   4.278   3.192   1.293  0.2011 -0.1224 -0.5137
 6584SOL    HW131388   4.210   3.125   1.298 -0.2996  0.2667 -2.0254
 6584SOL    HW231389   4.353   3.136   1.313  0.1047  0.3246  1.1316
 6585SOL     OW31390   3.337   0.533  16.122 -0.2841 -0.0476  0.4000
 6585SOL    HW131391   3.244   0.544  16.102  0.2624  1.5529 -1.2607
 6585SOL    HW231392   3.362   0.531  16.030  0.1962 -0.0658  0.5272
 6586SOL     OW31393   1.134   3.402   7.039 -0.5890  0.0869 -0.7042
 6586SOL    HW131394   1.151   3.341   7.111 -0.0254 -1.2380 -1.9492
 6586SOL    HW231395   1.113   3.343   6.967  0.0209 -0.0787 -0.7521
 6587SOL     OW31396   3.308   2.676   2.869  0.2767  0.0922 -0.1999
 6587SOL    HW131397   3.360   2.705   2.944  0.9849 -0.0975 -0.6271
 6587SOL    HW231398   3.246   2.617   2.913  0.2819  0.8689  0.8550
 6588SOL     OW31399   3.416   1.621   6.803 -0.2421  0.1166  0.0325
 6588SOL    HW131400   3.430   1.562   6.877 -0.7331  1.1281  0.9457
 6588SOL    HW231401   3.328   1.657   6.814  0.4226  1.2276  1.7959
 6589SOL     OW31402   2.600   3.947   4.783 -0.2415 -0.4147 -0.5413
 6589SOL    HW131403   2.536   3.882   4.753 -1.1917 -0.4748  1.5986
 6589SOL    HW231404   2.678   3.901   4.813 -0.0088  0.1438 -0.2918
 6590SOL     OW31405   3.461   4.108   5.137 -0.9967 -0.4221 -0.5779
 6590SOL    HW131406   3.476   4.019   5.106  0.5917 -0.9655  1.7343
 6590SOL    HW231407   3.412   4.153   5.068 -0.6084  0.0283 -0.5603
 6591SOL     OW31408   4.620   2.978  10.650 -0.1480 -0.3742 -0.1097
 6591SOL    HW131409   4.544   2.952  10.703 -1.3468  0.0026 -1.6415
 6591SOL    HW231410   4.608   3.073  10.641 -2.1986 -0.3474  2.6615
 6592SOL     OW31411   2.568   4.268  16.434  0.1686 -0.0504  0.0767
 6592SOL    HW131412   2.572   4.323  16.513  1.4375  0.3897 -0.2964
 6592SOL    HW231413   2.646   4.305  16.392  0.0710 -0.1710 -0.2061
 6593SOL     OW31414   3.424   1.795   8.717  0.6967 -0.2697  0.2831
 6593SOL    HW131415   3.349   1.773   8.772  0.2637  0.6632  0.0627
 6593SOL    HW231416   3.418   1.890   8.709 -0.1610 -0.3521  0.0574
 6594SOL     OW31417   2.830   0.357  14.998 -0.3070  0.3838  0.3207
 6594SOL    HW131418   2.759   0.396  14.946  2.2666  3.7266 -0.7332
 6594SOL    HW231419   2.788   0.386  15.078 -1.4443 -1.1222  0.2580
 6595SOL     OW31420   0.966   2.985   4.204 -0.1781 -0.3022  0.1786
 6595SOL    HW131421   1.020   2.982   4.125  1.6679 -1.4373  1.4766
 6595SOL    HW231422   0.892   3.031   4.164 -1.3212 -2.0001  0.3431
 6596SOL     OW31423   3.368   2.501   8.306  0.3541  0.7472  0.0660
 6596SOL    HW131424   3.339   2.477   8.218 -2.2903  1.0320  0.8646
 6596SOL    HW231425   3.461   2.514   8.286  1.1912 -0.9073  2.8103
 6597SOL     OW31426   4.570   1.264   1.437 -0.1134  0.0782 -0.5476
 6597SOL    HW131427   4.641   1.201   1.449  1.6749  1.9165 -1.5944
 6597SOL    HW231428   4.544   1.240   1.349 -1.1305 -1.4254  0.1654
 6598SOL     OW31429   3.890   0.195   9.268 -0.4315  0.3478  0.7560
 6598SOL    HW131430   3.847   0.130   9.324 -0.2605 -0.2685  0.1668
 6598SOL    HW231431   3.809   0.239   9.240 -1.1727  0.5500  3.1749
 6599SOL     OW31432   2.727   0.730   8.093 -0.3331  0.2042  0.0541
 6599SOL    HW131433   2.733   0.646   8.049 -0.1160  1.0787 -1.5766
 6599SOL    HW231434   2.681   0.792   8.037 -0.8499 -1.1997 -1.0422
 6600SOL     OW31435   1.237   1.395   5.759 -0.4763 -0.5748 -0.4709
 6600SOL    HW131436   1.208   1.341   5.686 -2.2513  1.6910 -1.4535
 6600SOL    HW231437   1.161   1.400   5.817  0.3239  0.2945  0.5093
 6601SOL     OW31438   3.633   1.920  10.921  0.2752 -0.1047  0.3657
 6601SOL    HW131439   3.679   1.988  10.972  0.9042  0.0416 -0.3923
 6601SOL    HW231440   3.545   1.916  10.958  0.0920  1.5435  0.1146
 6602SOL     OW31441   3.816   1.499  15.574 -0.6551 -0.2772 -0.7346
 6602SOL    HW131442   3.905   1.532  15.562 -0.1381  0.2355  4.4432
 6602SOL    HW231443   3.822   1.418  15.623  0.7496 -0.8190 -1.8180
 6603SOL     OW31444   0.039   0.783  10.008 -0.9438  0.4298  0.5104
 6603SOL    HW131445   0.081   0.809  10.090  0.6478  0.1348 -0.2237
 6603SOL    HW231446   4.724   0.710  10.042 -1.3480  0.5908  0.2377
 6604SOL     OW31447   3.209   4.182   9.845 -0.1792 -0.4544  0.4760
 6604SOL    HW131448   3.173   4.250   9.788  0.6215  0.7305  1.3738
 6604SOL    HW231449   3.299   4.185   9.813 -0.3847 -0.3952 -0.1007
 6605SOL     OW31450   1.437   3.437   6.944 -0.2814 -0.0341  0.1476
 6605SOL    HW131451   1.423   3.344   6.923  0.6386 -0.1788  0.1578
 6605SOL    HW231452   1.354   3.463   6.982 -0.7759 -0.4159 -0.6498
 6606SOL     OW31453   3.610   4.122  12.067 -0.2366 -0.4117 -0.2901
 6606SOL    HW131454   3.534   4.067  12.087 -0.2426  0.2357  1.5017
 6606SOL    HW231455   3.573   4.210  12.075 -2.6319 -1.3909 -0.5356
 6607SOL     OW31456   3.307   1.065   4.854 -0.4699 -0.0157 -0.0344
 6607SOL    HW131457   3.327   1.150   4.894  1.0079  0.2053 -1.2325
 6607SOL    HW231458   3.356   1.008   4.913 -2.1749 -0.1175  1.2756
 6608SOL     OW31459   2.724   0.703   3.364 -0.4804  0.5845  0.6943
 6608SOL    HW131460   2.678   0.691   3.447 -0.5534  1.3807  0.7654
 6608SOL    HW231461   2.703   0.793   3.337  0.2713  0.8841  1.1307
 6609SOL     OW31462   2.279   0.331  16.721  0.4679  0.1431  0.7176
 6609SOL    HW131463   2.232   0.312  16.640 -0.7209  1.5409  1.0830
 6609SOL    HW231464   2.370   0.321  16.695  1.0791 -0.4031  3.0684
 6610SOL     OW31465   4.735   4.291  10.821  0.8227  0.3217  0.2215
 6610SOL    HW131466   4.718   4.384  10.803  0.2180  0.5768  2.0132
 6610SOL    HW231467   0.068   4.273  10.759  0.3154 -0.0769 -0.2371
 6611SOL     OW31468   2.748   2.489  10.459 -0.2647 -0.2496  0.2148
 6611SOL    HW131469   2.732   2.569  10.409 -1.6269 -0.1004  0.9017
 6611SOL    HW231470   2.696   2.426  10.408 -2.1917  1.4858  0.0508
 6612SOL     OW31471   3.632   1.038  13.074 -0.6497  0.4587  0.3408
 6612SOL    HW131472   3.667   0.953  13.100 -0.1205  0.3164 -0.8200
 6612SOL    HW231473   3.677   1.042  12.990  1.1577 -2.5178  1.1891
 6613SOL     OW31474   3.156   3.639   4.588  0.0608  0.0716  0.7058
 6613SOL    HW131475   3.199   3.657   4.504 -1.8369 -1.6749 -0.6548
 6613SOL    HW231476   3.213   3.567   4.613 -0.8029 -0.4054  1.3001
 6614SOL     OW31477   3.328   2.737  12.100 -0.1547 -0.3417  0.4003
 6614SOL    HW131478   3.416   2.729  12.137  0.0983  0.0900 -0.1164
 6614SOL    HW231479   3.343   2.749  12.006  0.5126 -0.4123  0.5022
 6615SOL     OW31480   1.892   0.325   4.563  0.5512  0.0240 -0.1202
 6615SOL    HW131481   1.828   0.254   4.560  1.3112 -0.7618  3.0368
 6615SOL    HW231482   1.942   0.300   4.640  1.5654 -0.7932 -1.0394
 6616SOL     OW31483   3.375   2.631   5.928  0.1220 -0.7580 -0.6037
 6616SOL    HW131484   3.464   2.596   5.926  0.5547  0.3260 -0.2646
 6616SOL    HW231485   3.394   2.724   5.927  1.9805 -1.1271 -0.2140
 6617SOL     OW31486   0.987   3.330   3.562 -0.1484  0.3615  0.6758
 6617SOL    HW131487   1.034   3.254   3.526  1.8138  1.8051  0.1857
 6617SOL    HW231488   0.982   3.308   3.656  0.7284 -1.0586  0.3997
 6618SOL     OW31489   4.331   2.700  10.624  0.2162  0.3075 -0.1819
 6618SOL    HW131490   4.242   2.666  10.611  0.3980  0.4544 -1.8509
 6618SOL    HW231491   4.311   2.773  10.683  0.8202 -0.3351  0.8124
 6619SOL     OW31492   3.840   2.644  12.336  0.2725  0.4973  0.0612
 6619SOL    HW131493   3.917   2.699  12.321  0.7190  0.1532  1.0621
 6619SOL    HW231494   3.866   2.593  12.413  0.0986  1.3349  0.6793
 6620SOL     OW31495   0.804   2.449   5.978 -0.0755  0.2511 -0.2181
 6620SOL    HW131496   0.738   2.415   6.039  1.4062 -1.9353  0.1423
 6620SOL    HW231497   0.758   2.520   5.932  1.3787  1.0961 -0.3638
 6621SOL     OW31498   3.117   0.494   3.272 -0.3162 -0.5723 -0.0017
 6621SOL    HW131499   3.136   0.489   3.178  0.9446  0.7908  0.1653
 6621SOL    HW231500   3.023   0.501   3.257 -0.3768 -2.6418 -0.5688
 6622SOL     OW31501   1.063   0.724   1.875  0.1755 -0.0225 -0.0441
 6622SOL    HW131502   0.980   0.767   1.897  0.3279 -0.0498  0.5792
 6622SOL    HW231503   1.116   0.780   1.931  0.9785  0.6098 -1.4287
 6623SOL     OW31504   2.881   1.564  12.861 -0.2171 -0.1718  0.0441
 6623SOL    HW131505   2.789   1.591  12.854 -0.2302 -0.2736 -0.1775
 6623SOL    HW231506   2.891   1.567  12.956 -1.2117 -2.6150  0.2454
 6624SOL     OW31507   0.399   3.286  11.485  0.1752  0.2755  0.3464
 6624SOL    HW131508   0.317   3.336  11.487  0.6724  1.0162  2.8017
 6624SOL    HW231509   0.468   3.352  11.472  0.4031 -0.2875 -1.3843
 6625SOL     OW31510   0.890   0.581   7.438 -0.0269  0.6817 -0.0876
 6625SOL    HW131511   0.968   0.567   7.384  0.1184 -1.7280  0.7625
 6625SOL    HW231512   0.826   0.513   7.418  0.8520  0.4628 -2.1434
 6626SOL     OW31513   0.365   3.903  17.109  0.1383 -0.5505  0.6104
 6626SOL    HW131514   0.431   3.957  17.067  0.6226 -1.3265  0.3661
 6626SOL    HW231515   0.350   3.834  17.044 -2.0999  2.2027 -1.7859
 6627SOL     OW31516   1.504   3.813   7.838  0.0617  0.3124  0.2129
 6627SOL    HW131517   1.443   3.782   7.905  2.1715 -0.8454  1.5955
 6627SOL    HW231518   1.548   3.737   7.798  1.5460  1.4552 -0.3452
 6628SOL     OW31519   3.225   3.487   2.208  0.3390 -0.2182 -0.1952
 6628SOL    HW131520   3.297   3.429   2.234  0.0734 -0.0937  0.8321
 6628SOL    HW231521   3.278   3.560   2.178 -0.7695  0.7523  0.2139
 6629SOL     OW31522   0.362   2.812  13.605 -0.3939  0.1235 -0.4044
 6629SOL    HW131523   0.434   2.824  13.666  0.2167 -0.3394 -1.0406
 6629SOL    HW231524   0.303   2.883  13.631 -0.0425  0.8908 -1.7210
 6630SOL     OW31525   1.254   2.537   4.234  0.0658  0.3416 -0.1443
 6630SOL    HW131526   1.161   2.525   4.216 -0.0084 -0.7656  1.0275
 6630SOL    HW231527   1.254   2.620   4.281 -1.4307  1.3715 -1.9842
 6631SOL     OW31528   1.982   3.461   5.000 -0.1945  0.1592 -0.8545
 6631SOL    HW131529   1.905   3.460   5.058  1.4468  2.7628  1.3692
 6631SOL    HW231530   2.031   3.524   5.054 -0.5503  0.9413 -1.4446
 6632SOL     OW31531   2.296   1.361   7.515 -0.0290 -0.1494 -0.3572
 6632SOL    HW131532   2.238   1.300   7.469 -0.8967  0.9167 -0.6985
 6632SOL    HW231533   2.374   1.326   7.472 -0.7209  0.6151 -2.2314
 6633SOL     OW31534   1.436   0.055   2.967 -0.1336 -0.1469 -0.0030
 6633SOL    HW131535   1.429   0.083   3.058  0.3904 -0.5177  0.1478
 6633SOL    HW231536   1.346   0.022   2.957 -1.1547  2.3864  0.7942
 6634SOL     OW31537   3.210   0.412  10.702  0.3652 -0.2727 -0.3648
 6634SOL    HW131538   3.304   0.429  10.709  0.2135 -0.1195  1.4495
 6634SOL    HW231539   3.179   0.497  10.673 -1.1150 -0.9201 -0.6859
 6635SOL     OW31540   4.366   0.006  11.332  0.0353  0.2937 -0.0599
 6635SOL    HW131541   4.309   4.693  11.389  2.7718 -1.3392  1.2320
 6635SOL    HW231542   4.398   0.078  11.386 -1.7738  1.3426 -0.3835
 6636SOL     OW31543   0.511   3.252   2.748 -0.0676  0.0371 -0.4803
 6636SOL    HW131544   0.416   3.250   2.765  0.5313  0.5082  3.0390
 6636SOL    HW231545   0.520   3.255   2.653  2.8351 -2.3281 -0.2677
 6637SOL     OW31546   4.656   2.878  16.590 -0.0883 -0.2953  0.3116
 6637SOL    HW131547   4.580   2.937  16.587  1.2370  1.3593 -0.6504
 6637SOL    HW231548   4.719   2.921  16.647  0.9472 -0.8252 -0.4406
 6638SOL     OW31549   3.160   1.966   0.286  0.4246 -0.9091  0.0018
 6638SOL    HW131550   3.181   2.057   0.266  0.3699 -0.9687 -0.3228
 6638SOL    HW231551   3.212   1.912   0.225 -0.8553 -1.6488 -0.4369
 6639SOL     OW31552   0.820   4.075  17.205  0.7511 -0.1751  0.1681
 6639SOL    HW131553   0.810   4.099  17.113  0.1588  2.4956  0.9291
 6639SOL    HW231554   0.835   4.161  17.245 -2.2756  0.8215 -0.7823
 6640SOL     OW31555   1.214   2.611   2.171 -0.3087  0.6171 -0.0726
 6640SOL    HW131556   1.120   2.628   2.180 -0.6226 -0.4007 -1.5432
 6640SOL    HW231557   1.214   2.546   2.102 -2.2485  0.1815  0.3449
 6641SOL     OW31558   1.350   1.531   4.566  0.2939  0.5069  0.7577
 6641SOL    HW131559   1.256   1.537   4.552  0.5871 -0.3790 -1.6873
 6641SOL    HW231560   1.380   1.584   4.492 -0.8317  1.6508  1.1317
 6642SOL     OW31561   0.586   1.367   2.985 -0.1244 -0.4214  0.0712
 6642SOL    HW131562   0.675   1.337   2.967  0.2470  0.8839 -0.2705
 6642SOL    HW231563   0.602   1.462   2.989 -2.1546  0.0261 -2.1193
 6643SOL     OW31564   1.229   3.444  11.478 -0.1828 -0.1390 -0.0419
 6643SOL    HW131565   1.298   3.505  11.453 -2.0810  2.0335  0.1040
 6643SOL    HW231566   1.208   3.475  11.566  1.1994 -0.2298  0.3236
 6644SOL     OW31567   2.006   3.551   6.985 -0.1622  0.4496  0.3329
 6644SOL    HW131568   2.032   3.494   6.913 -0.8865 -0.7889  1.0499
 6644SOL    HW231569   1.916   3.520   7.000 -0.8772  0.7810 -3.3608
 6645SOL     OW31570   2.559   3.921   9.891 -0.4856  0.6342  0.4849
 6645SOL    HW131571   2.580   3.840   9.937 -1.7710 -0.0245 -0.1104
 6645SOL    HW231572   2.480   3.952   9.935 -1.2932 -0.8454  0.0645
 6646SOL     OW31573   0.245   1.372  15.156  0.9623  0.1642  0.3047
 6646SOL    HW131574   0.284   1.414  15.079  0.4686 -2.8123 -1.5613
 6646SOL    HW231575   0.171   1.431  15.170 -0.2855 -1.4201  0.4750
 6647SOL     OW31576   2.981   2.969   6.901  0.9709 -0.0786  0.2187
 6647SOL    HW131577   3.023   2.893   6.862  0.8134 -0.3069  0.4933
 6647SOL    HW231578   2.942   3.010   6.824 -1.7913  0.9279  2.1442
 6648SOL     OW31579   2.757   2.343  10.031  0.3343 -0.4936 -0.2618
 6648SOL    HW131580   2.784   2.387   9.950  0.5880  0.1964  0.1988
 6648SOL    HW231581   2.805   2.393  10.097 -2.3389  3.6015 -1.4661
 6649SOL     OW31582   4.101   3.345   8.991  0.0911 -0.3186 -0.0926
 6649SOL    HW131583   4.034   3.331   9.058  0.7318  0.4421  0.7111
 6649SOL    HW231584   4.149   3.423   9.020  0.8686 -1.1294  0.8070
 6650SOL     OW31585   4.314   1.754  11.919  0.7063  0.3373  0.1638
 6650SOL    HW131586   4.316   1.818  11.991 -2.2825 -0.9215  1.3735
 6650SOL    HW231587   4.383   1.694  11.949  1.1048  1.6969  1.9662
 6651SOL     OW31588   3.338   0.131   8.460  0.4823  0.2005 -0.3425
 6651SOL    HW131589   3.356   0.190   8.387 -2.5114  1.3696 -0.1275
 6651SOL    HW231590   3.273   0.181   8.509 -0.3288 -2.0626  0.8998
 6652SOL     OW31591   4.108   3.061   7.350  0.2279  0.2356  0.6460
 6652SOL    HW131592   4.017   3.037   7.366  0.0976  1.0194  1.0985
 6652SOL    HW231593   4.131   3.016   7.269 -3.0732  1.5885 -1.0313
 6653SOL     OW31594   0.217   0.772   0.141  0.3775 -0.4718  0.0255
 6653SOL    HW131595   0.182   0.764   0.052  1.0012 -0.3652 -0.2262
 6653SOL    HW231596   0.248   0.683   0.155 -0.0031 -0.3426  1.7239
 6654SOL     OW31597   2.613   3.493   9.860 -0.5312 -0.1834  0.0970
 6654SOL    HW131598   2.698   3.525   9.828 -1.0183  1.6084  0.6269
 6654SOL    HW231599   2.588   3.564   9.918  1.1381  1.2187 -0.8748
 6655SOL     OW31600   3.142   0.882   8.919  0.6058 -0.1484  0.2783
 6655SOL    HW131601   3.153   0.809   8.980  0.3854 -1.3311 -1.0839
 6655SOL    HW231602   3.129   0.954   8.981 -0.3463  0.6883 -0.8970
 6656SOL     OW31603   3.554   4.281   5.773  0.6733 -0.2220 -0.3845
 6656SOL    HW131604   3.518   4.342   5.708 -1.2109  1.2532  2.0696
 6656SOL    HW231605   3.625   4.236   5.727 -0.1936  0.8904 -2.7855
 6657SOL     OW31606   2.040   2.397   8.080 -0.3119  0.0844 -0.1870
 6657SOL    HW131607   1.963   2.430   8.126  0.1270  0.7937  0.0389
 6657SOL    HW231608   2.110   2.461   8.070 -3.2324  3.2801 -0.1365
 6658SOL     OW31609   2.104   2.782   2.169 -0.2628 -0.3407 -0.0899
 6658SOL    HW131610   2.064   2.860   2.207  0.4169  0.5270 -1.1775
 6658SOL    HW231611   2.058   2.791   2.086 -1.2850  2.2131  0.7606
 6659SOL     OW31612   1.392   3.214   6.240 -0.0995 -0.5584  0.0456
 6659SOL    HW131613   1.381   3.223   6.146  0.4555 -2.6284 -0.2244
 6659SOL    HW231614   1.323   3.260   6.288 -0.0909  0.6249 -1.0839
 6660SOL     OW31615   2.808   3.902   6.305  0.3215 -0.1495  0.7239
 6660SOL    HW131616   2.887   3.869   6.262 -0.4371 -1.7819  0.6235
 6660SOL    HW231617   2.753   3.824   6.305 -1.8921  1.4081  1.6955
 6661SOL     OW31618   2.553   3.851   3.084 -0.0844 -0.2048  0.6786
 6661SOL    HW131619   2.515   3.882   3.002 -0.0645  1.1191  1.1528
 6661SOL    HW231620   2.632   3.904   3.093 -1.3324  1.8169 -0.3004
 6662SOL     OW31621   4.435   4.722  14.328  0.5058  0.2509 -0.1169
 6662SOL    HW131622   4.365   0.027  14.278  1.4458 -0.8099 -2.2991
 6662SOL    HW231623   4.479   4.683  14.253  1.8609 -1.2931  1.4692
 6663SOL     OW31624   4.393   0.071   4.833 -0.1308  0.2536 -0.5201
 6663SOL    HW131625   4.423   0.156   4.866  0.0650  0.2956 -0.8030
 6663SOL    HW231626   4.477   0.034   4.804  1.0872  0.6703  2.4916
 6664SOL     OW31627   1.338   2.054  17.218  0.1589  0.3034  0.2927
 6664SOL    HW131628   1.338   2.141  17.179 -2.2872  0.6627  1.1321
 6664SOL    HW231629   1.360   2.063  17.310  0.4008 -0.7134  0.3380
 6665SOL     OW31630   3.061   2.906  10.049  0.1342  0.3551 -0.1162
 6665SOL    HW131631   3.112   2.936   9.973  1.3249 -1.3597  0.0066
 6665SOL    HW231632   3.128   2.900  10.117 -0.8172  2.2220  0.9677
 6666SOL     OW31633   4.351   3.216   4.591 -0.0535  0.0383  0.4079
 6666SOL    HW131634   4.418   3.154   4.619  2.1656  1.0304 -2.8133
 6666SOL    HW231635   4.384   3.250   4.508  1.6889 -0.8806  0.7360
 6667SOL     OW31636   3.903   0.847  16.815 -0.0117  0.2005 -0.0485
 6667SOL    HW131637   3.911   0.883  16.727 -1.0916  1.7555  0.5007
 6667SOL    HW231638   3.835   0.902  16.854 -0.1683  0.2562 -0.3943
 6668SOL     OW31639   3.515   2.753   4.047 -0.0428  0.3153  0.2415
 6668SOL    HW131640   3.537   2.821   3.983 -0.6803 -0.7590 -1.1017
 6668SOL    HW231641   3.566   2.779   4.124 -1.4872  1.7902  0.6893
 6669SOL     OW31642   3.133   0.731   5.312 -0.0662  0.4543 -0.3775
 6669SOL    HW131643   3.185   0.727   5.393  1.4503 -1.7852 -1.4585
 6669SOL    HW231644   3.054   0.689   5.344  0.6760 -0.0990  0.7418
 6670SOL     OW31645   4.675   1.834   8.819 -0.3091 -0.2405 -0.0307
 6670SOL    HW131646   4.718   1.885   8.887  2.5808 -0.7178 -1.4894
 6670SOL    HW231647   4.607   1.895   8.790  0.6595  0.7002 -0.3170
 6671SOL     OW31648   3.923   0.321   9.751  0.0380 -0.5182  0.0451
 6671SOL    HW131649   3.992   0.257   9.736 -0.6128 -1.2389  0.1282
 6671SOL    HW231650   3.917   0.363   9.666 -2.1169  0.3913  0.6316
 6672SOL     OW31651   2.674   2.689   4.269  0.1004  0.0324 -0.1400
 6672SOL    HW131652   2.610   2.648   4.328 -0.9612  1.0208 -0.6005
 6672SOL    HW231653   2.755   2.652   4.305 -0.9601 -1.8370  0.3363
 6673SOL     OW31654   2.491   3.888   6.340  0.2030  0.2338  0.0175
 6673SOL    HW131655   2.546   3.812   6.359  0.8831  0.6317 -0.3585
 6673SOL    HW231656   2.427   3.847   6.282  0.2004 -1.5853  1.2849
 6674SOL     OW31657   4.303   0.166   6.668  0.0881  0.1408 -0.4119
 6674SOL    HW131658   4.397   0.158   6.656  0.4626  0.9098  2.0249
 6674SOL    HW231659   4.300   0.261   6.681  0.0620  0.4063 -2.3037
 6675SOL     OW31660   2.173   3.507   0.945  0.1495  0.3834 -0.4266
 6675SOL    HW131661   2.110   3.443   0.980  0.6125  1.6151  2.7047
 6675SOL    HW231662   2.133   3.533   0.862  0.8646 -0.8943 -1.1558
 6676SOL     OW31663   0.474   3.291   8.274 -0.0754 -0.1183  0.8156
 6676SOL    HW131664   0.421   3.217   8.303  0.5711  0.6391  3.9579
 6676SOL    HW231665   0.406   3.357   8.269 -0.1063 -0.3430 -1.7013
 6677SOL     OW31666   0.778   2.903   5.971  0.6676 -0.0460 -0.0072
 6677SOL    HW131667   0.800   2.846   6.044  0.5035 -2.4007 -1.8098
 6677SOL    HW231668   0.722   2.838   5.929  0.1856  0.3374  0.0374
 6678SOL     OW31669   3.122   1.108  17.021  0.2682  0.8135  0.1568
 6678SOL    HW131670   3.072   1.149  16.950 -0.7697  0.9492  0.9595
 6678SOL    HW231671   3.161   1.183  17.065 -0.2294  2.3767 -2.0816
 6679SOL     OW31672   2.437   1.387   4.727 -0.0668  0.1673  0.1084
 6679SOL    HW131673   2.388   1.305   4.724  3.1617 -1.7583  0.5551
 6679SOL    HW231674   2.527   1.360   4.747 -0.1725  0.4599  0.9867
 6680SOL     OW31675   2.659   2.530  17.070  0.1957 -0.1007 -0.3490
 6680SOL    HW131676   2.564   2.542  17.066  0.0580 -0.8256  0.7629
 6680SOL    HW231677   2.691   2.612  17.032  0.0175  0.0789 -0.1129
 6681SOL     OW31678   0.543   1.969   2.645 -0.1262  0.6212  0.1624
 6681SOL    HW131679   0.552   2.060   2.619  0.9635  0.7083  0.8366
 6681SOL    HW231680   0.458   1.951   2.604  0.2837  1.9223 -1.2339
 6682SOL     OW31681   1.484   1.297  11.100 -0.5067 -0.0876 -0.0845
 6682SOL    HW131682   1.539   1.219  11.099 -1.5154 -0.7890 -0.1823
 6682SOL    HW231683   1.508   1.340  11.018 -0.1183 -0.2356 -0.0530
 6683SOL     OW31684   3.916   3.977   4.848  0.0098 -0.0647  0.2264
 6683SOL    HW131685   3.827   3.964   4.815 -0.8277  1.6712  1.8455
 6683SOL    HW231686   3.928   4.067   4.815  0.0327  0.7023  2.3632
 6684SOL     OW31687   3.958   4.640  12.129  0.5039  0.2396 -0.1896
 6684SOL    HW131688   3.957   4.629  12.225 -2.3057 -3.1583 -0.6012
 6684SOL    HW231689   3.981   4.733  12.128 -2.7644  1.0170 -1.7267
 6685SOL     OW31690   2.016   2.980  12.972  0.0456  0.6917 -0.2207
 6685SOL    HW131691   2.034   3.030  12.893  2.6465  2.4667  1.4931
 6685SOL    HW231692   1.988   3.038  13.043 -1.0086 -0.5506  0.3936
 6686SOL     OW31693   0.030   1.058   5.092  0.3477 -0.3456  0.0386
 6686SOL    HW131694   0.092   0.989   5.069  1.6524  0.7216  0.3329
 6686SOL    HW231695   4.687   1.029   5.050 -0.6038 -0.0176  1.6218
 6687SOL     OW31696   0.046   2.866   1.717 -0.5364 -0.2189 -0.3938
 6687SOL    HW131697   0.047   2.851   1.812  1.1536  1.6627 -0.1017
 6687SOL    HW231698   0.141   2.873   1.709 -0.5860 -0.0455 -0.8098
 6688SOL     OW31699   3.835   1.582   3.529 -0.6879 -0.6866 -0.4764
 6688SOL    HW131700   3.837   1.641   3.454  1.6979 -0.9244 -0.5884
 6688SOL    HW231701   3.781   1.512   3.492 -1.2413 -0.0544 -0.8656
 6689SOL     OW31702   2.058   1.719   4.589 -0.4901 -0.4407 -0.1588
 6689SOL    HW131703   2.063   1.767   4.506  2.2300 -0.3156  0.0922
 6689SOL    HW231704   1.965   1.734   4.605 -0.8059 -0.7220 -1.7257
 6690SOL     OW31705   1.762   1.895  10.265 -0.0993 -0.4688 -0.1988
 6690SOL    HW131706   1.831   1.951  10.302 -1.4215  0.3031  1.0818
 6690SOL    HW231707   1.742   1.847  10.345  2.5264 -0.7022  0.3260
 6691SOL     OW31708   2.146   2.068   5.169 -0.9419 -0.0767 -0.2967
 6691SOL    HW131709   2.146   2.056   5.074 -1.0114  0.7084 -0.3944
 6691SOL    HW231710   2.200   1.992   5.190 -0.5588  0.4452  0.6759
 6692SOL     OW31711   1.784   0.896  13.534 -0.8115  0.6329  0.1883
 6692SOL    HW131712   1.854   0.915  13.596  0.0287 -0.6911 -0.3512
 6692SOL    HW231713   1.767   0.802  13.530 -0.1790  0.4663  1.4855
 6693SOL     OW31714   0.921   1.134   9.814  0.0352 -0.8690  0.3731
 6693SOL    HW131715   0.949   1.090   9.894  2.4049  0.0260  0.0264
 6693SOL    HW231716   0.881   1.213   9.850  1.9433 -0.4085  1.5155
 6694SOL     OW31717   3.819   4.016   7.836 -0.3116 -0.5917 -0.0603
 6694SOL    HW131718   3.772   3.943   7.797 -2.5664 -0.4255  2.3428
 6694SOL    HW231719   3.794   4.091   7.782 -1.6331  0.1707  1.6022
 6695SOL     OW31720   2.233   1.634   8.398 -0.0568  0.0104  0.1352
 6695SOL    HW131721   2.325   1.652   8.379  0.0554 -2.2579 -1.5822
 6695SOL    HW231722   2.223   1.562   8.335  2.1796  0.8199 -1.1190
 6696SOL     OW31723   1.746   1.857   5.590  0.3449 -0.3089  0.5986
 6696SOL    HW131724   1.774   1.853   5.682 -0.6598  0.0303  0.9176
 6696SOL    HW231725   1.725   1.949   5.576  1.5481 -0.2014 -0.4912
 6697SOL     OW31726   2.666   0.856   2.344  0.1980 -0.4661 -0.2361
 6697SOL    HW131727   2.749   0.836   2.386  0.7347  0.6327 -0.7763
 6697SOL    HW231728   2.604   0.827   2.411 -1.4648  0.9654 -1.1338
 6698SOL     OW31729   0.762   2.297   7.568  0.1288  0.3323 -0.0074
 6698SOL    HW131730   0.676   2.271   7.599  0.7624  0.4744  1.8625
 6698SOL    HW231731   0.749   2.371   7.509  1.8395  2.0241  1.7169
 6699SOL     OW31732   2.597   2.106   2.940 -0.0573 -0.2043  0.5510
 6699SOL    HW131733   2.581   2.036   2.877 -0.2702 -0.3762  0.7949
 6699SOL    HW231734   2.676   2.086   2.989 -0.5240 -1.6345  0.7147
 6700SOL     OW31735   1.425   1.658   6.146 -0.0079  0.9572  0.2904
 6700SOL    HW131736   1.500   1.687   6.093 -0.6387  1.1380 -0.4981
 6700SOL    HW231737   1.402   1.748   6.167  0.8063  1.0201  0.9541
 6701SOL     OW31738   0.095   3.619   2.789 -0.5137  0.5464 -0.0750
 6701SOL    HW131739   0.060   3.533   2.767  1.7813 -0.4822  0.2315
 6701SOL    HW231740   0.188   3.624   2.764 -0.5351  0.4020 -0.1795
 6702SOL     OW31741   3.601   3.119   0.541  0.1318 -0.0047  0.1984
 6702SOL    HW131742   3.558   3.038   0.567  1.0968 -1.2462 -2.0113
 6702SOL    HW231743   3.691   3.091   0.522 -0.7040 -0.6300 -2.8300
 6703SOL     OW31744   0.203   2.637   9.821  0.2416 -0.0997 -0.0560
 6703SOL    HW131745   0.234   2.687   9.746 -0.5810  1.1230  0.4232
 6703SOL    HW231746   0.278   2.604   9.870 -0.3065 -1.6588 -0.2453
 6704SOL     OW31747   2.640   3.411   8.009  0.8579 -0.3190 -0.1409
 6704SOL    HW131748   2.671   3.499   8.031  1.3726 -0.4230 -0.4353
 6704SOL    HW231749   2.627   3.435   7.918 -1.8206  1.7830  0.8295
 6705SOL     OW31750   2.261   0.890   7.968 -0.2598  0.4209  0.4341
 6705SOL    HW131751   2.180   0.896   7.917 -0.3518  1.2876  0.6780
 6705SOL    HW231752   2.252   0.960   8.033  1.5701  0.3958  0.7278
 6706SOL     OW31753   4.409   4.080   4.456 -0.4840 -0.4802  0.3546
 6706SOL    HW131754   4.368   4.014   4.399 -0.0797 -0.1857 -0.2745
 6706SOL    HW231755   4.398   4.164   4.411  0.1909 -0.9353 -0.6675
 6707SOL     OW31756   3.050   1.060   3.025  0.0886  0.2288 -0.1919
 6707SOL    HW131757   3.040   0.975   3.067 -1.0664  1.1630  1.4446
 6707SOL    HW231758   3.103   1.036   2.950 -1.6226  1.1587 -1.6988
 6708SOL     OW31759   3.872   2.719  12.640 -0.0584 -0.0944 -0.1425
 6708SOL    HW131760   3.842   2.629  12.654  0.4209 -0.6724 -2.7335
 6708SOL    HW231761   3.792   2.770  12.655  0.1368 -0.1493  1.0941
 6709SOL     OW31762   0.372   4.284   3.286  0.4032 -0.0290  0.0858
 6709SOL    HW131763   0.459   4.246   3.268  0.7379  1.7237 -1.9768
 6709SOL    HW231764   0.389   4.363   3.337  0.7977 -1.1151  1.6371
 6710SOL     OW31765   4.288   0.499   6.201  0.1881 -0.0630 -0.0876
 6710SOL    HW131766   4.302   0.587   6.235  1.8535 -0.6478  0.7579
 6710SOL    HW231767   4.219   0.516   6.138  0.2854 -0.7109 -0.3710
 6711SOL     OW31768   1.196   1.531  12.663  0.2766 -0.6120  0.3900
 6711SOL    HW131769   1.178   1.619  12.628  1.9731  0.1230  1.3373
 6711SOL    HW231770   1.263   1.496  12.604 -0.0277 -0.4958 -0.0227
 6712SOL     OW31771   4.055   4.646   3.615 -0.8466  0.1173 -0.0938
 6712SOL    HW131772   4.079   4.555   3.599  0.4911  0.5105 -0.2727
 6712SOL    HW231773   3.975   4.632   3.667 -0.2152  1.1513  1.1637
 6713SOL     OW31774   0.412   1.042   6.915 -0.0246 -0.7934  0.2936
 6713SOL    HW131775   0.338   1.100   6.897 -1.1064 -2.7194 -1.4351
 6713SOL    HW231776   0.464   1.039   6.835  1.0345  1.7655  0.8868
 6714SOL     OW31777   1.481   3.191   6.871 -0.0178 -0.0482 -0.5125
 6714SOL    HW131778   1.424   3.118   6.896  0.8722 -0.3857  0.5106
 6714SOL    HW231779   1.539   3.183   6.947  1.3137 -1.4223 -1.6673
 6715SOL     OW31780   2.893   2.724  14.285 -0.3691  0.2773 -0.6645
 6715SOL    HW131781   2.802   2.707  14.311  0.2188  0.7007  1.6836
 6715SOL    HW231782   2.945   2.712  14.364 -1.2884  1.0110  0.0582
 6716SOL     OW31783   2.120   2.824   7.809 -0.3793  0.1174 -0.1243
 6716SOL    HW131784   2.152   2.849   7.723 -1.1001  0.2432 -0.3561
 6716SOL    HW231785   2.141   2.901   7.863 -0.4954 -0.3007  0.5253
 6717SOL     OW31786   1.928   0.220  14.814 -0.7556 -0.7022 -0.3078
 6717SOL    HW131787   1.877   0.146  14.846  0.5778 -1.5734 -0.2003
 6717SOL    HW231788   1.861   0.259  14.758  0.4979 -0.3538 -1.5873
 6718SOL     OW31789   1.269   0.666  17.560 -0.5011  0.2570 -0.3420
 6718SOL    HW131790   1.282   0.620  17.477 -0.7906 -1.2467  0.4445
 6718SOL    HW231791   1.177   0.656  17.584  0.5018 -1.4034  2.9016
 6719SOL     OW31792   1.304   1.598   6.615  0.6094  0.1224 -0.4190
 6719SOL    HW131793   1.385   1.560   6.580 -0.1878 -0.5578 -1.5036
 6719SOL    HW231794   1.247   1.523   6.604  0.2052  0.6667 -2.1055
 6720SOL     OW31795   0.884   3.468   3.331  0.1957 -0.3767  0.4882
 6720SOL    HW131796   0.847   3.390   3.290  0.2391 -0.6385  0.9374
 6720SOL    HW231797   0.940   3.427   3.397 -1.9794 -1.0749  1.9115
 6721SOL     OW31798   0.958   2.895   5.744 -0.2190 -0.4586  0.4354
 6721SOL    HW131799   0.893   2.876   5.812 -1.4961  1.9801 -0.0944
 6721SOL    HW231800   0.909   2.954   5.686  0.6986  0.1236  0.2591
 6722SOL     OW31801   0.904   0.873   8.601  0.6749  0.4909  0.3627
 6722SOL    HW131802   0.957   0.892   8.678  2.0417  1.8075 -0.9196
 6722SOL    HW231803   0.968   0.826   8.548  0.5188  0.7805 -0.0885
 6723SOL     OW31804   3.723   3.880   7.061  0.1927  0.5480  0.4034
 6723SOL    HW131805   3.678   3.867   6.978 -0.3257  2.8861  0.3304
 6723SOL    HW231806   3.754   3.793   7.088  0.9789 -0.2164 -2.9803
 6724SOL     OW31807   3.101   2.369   2.292  0.5868  0.2798  0.3115
 6724SOL    HW131808   3.166   2.359   2.222 -1.7662  1.4755 -2.0233
 6724SOL    HW231809   3.047   2.425   2.237 -1.8350 -1.2115  1.1465
 6725SOL     OW31810   0.670   0.579  10.013 -0.1433 -0.2975  0.2400
 6725SOL    HW131811   0.600   0.549   9.955 -0.0557  0.3942 -0.2206
 6725SOL    HW231812   0.667   0.525  10.092  0.1515 -1.1604 -0.3352
 6726SOL     OW31813   2.287   2.574   6.619  0.2963  0.3030 -0.6882
 6726SOL    HW131814   2.343   2.593   6.544  1.4626  0.9919  0.3589
 6726SOL    HW231815   2.306   2.480   6.624  1.9831  0.7069  0.7323
 6727SOL     OW31816   4.729   3.340   3.802  0.0217 -0.3142  0.1403
 6727SOL    HW131817   0.040   3.311   3.879  3.3742 -3.9183 -3.2958
 6727SOL    HW231818   4.664   3.405   3.828  0.8215  1.1493 -1.4848
 6728SOL     OW31819   2.893   1.184   6.371 -0.0421 -0.2895 -0.7094
 6728SOL    HW131820   2.891   1.207   6.464  0.9330 -1.1462 -0.4728
 6728SOL    HW231821   2.957   1.115   6.385  0.4840 -0.0056 -1.6875
 6729SOL     OW31822   1.165   2.762   7.044 -0.2146  0.0102 -0.1919
 6729SOL    HW131823   1.134   2.726   7.127  0.7497  2.7414  1.3756
 6729SOL    HW231824   1.178   2.686   6.987  1.7757  0.4502 -0.3225
 6730SOL     OW31825   3.967   3.191   1.875 -0.2285 -0.2009 -0.3704
 6730SOL    HW131826   3.882   3.152   1.898 -1.5707  1.7446 -1.9974
 6730SOL    HW231827   3.929   3.242   1.803 -0.7068  0.6508  0.4914
 6731SOL     OW31828   0.636   0.644   1.840 -0.8124 -0.1945 -0.6015
 6731SOL    HW131829   0.561   0.695   1.871  0.4290  2.0627 -1.3287
 6731SOL    HW231830   0.627   0.565   1.894  2.4313  0.0855  0.3550
 6732SOL     OW31831   2.715   2.788   8.381  0.2877 -0.6181 -0.1118
 6732SOL    HW131832   2.771   2.713   8.364  1.4096  0.5036 -1.3628
 6732SOL    HW231833   2.767   2.869   8.385 -0.7999 -0.1137  4.1571
 6733SOL     OW31834   3.987   1.331   9.109 -1.0078  1.1952 -0.6247
 6733SOL    HW131835   3.960   1.419   9.080 -1.8545  0.8834 -0.7767
 6733SOL    HW231836   3.951   1.336   9.197  2.3613  1.8142  0.7325
 6734SOL     OW31837   4.578   1.752  13.955 -0.5694 -0.0165 -0.3307
 6734SOL    HW131838   4.624   1.668  13.954 -1.3788 -0.4620  0.1572
 6734SOL    HW231839   4.529   1.746  14.037  0.5754 -0.0056  0.3642
 6735SOL     OW31840   3.402   3.365   0.100  0.0780  0.3105  0.2660
 6735SOL    HW131841   3.452   3.392   0.177  3.5034 -0.3703 -1.7176
 6735SOL    HW231842   3.338   3.434   0.088  2.5186  2.9458  2.3595
 6736SOL     OW31843   0.235   1.436   3.561 -0.1995  0.0317  0.2306
 6736SOL    HW131844   0.169   1.404   3.622  0.9797  0.3200  1.6506
 6736SOL    HW231845   0.224   1.370   3.492 -0.8663  0.5453 -0.1497
 6737SOL     OW31846   2.326   4.723   6.162  0.2123  0.4218 -0.3021
 6737SOL    HW131847   2.413   4.688   6.181 -0.5982 -1.5944 -0.4070
 6737SOL    HW231848   2.351   0.037   6.085 -1.4210  1.1612 -0.3274
 6738SOL     OW31849   3.472   4.371   7.540 -0.3411  0.2990 -0.3009
 6738SOL    HW131850   3.425   4.287   7.539 -0.9635  0.6502 -0.9555
 6738SOL    HW231851   3.536   4.374   7.469  0.4041 -1.7450  0.3006
 6739SOL     OW31852   1.210   0.092   1.917  0.2938  0.1304  0.1945
 6739SOL    HW131853   1.118   0.072   1.937  0.5063  1.6316  2.7314
 6739SOL    HW231854   1.214   0.187   1.910 -1.1056  0.1187 -0.6889
 6740SOL     OW31855   2.069   1.972   9.493 -0.2170  1.0122 -0.1597
 6740SOL    HW131856   1.975   1.984   9.482 -0.5494 -0.1933  1.2776
 6740SOL    HW231857   2.099   1.902   9.434 -1.5942 -0.2170  0.6028
 6741SOL     OW31858   2.353   1.922   9.233 -0.0353  0.2950  0.0741
 6741SOL    HW131859   2.436   1.877   9.214 -1.6947 -2.1473 -1.3881
 6741SOL    HW231860   2.343   1.968   9.150 -3.5436  1.2766  1.0497
 6742SOL     OW31861   3.018   2.120   1.377  0.0970 -0.0090 -0.4239
 6742SOL    HW131862   2.988   2.129   1.467  1.9344 -1.8580  0.3646
 6742SOL    HW231863   3.061   2.035   1.380  1.4494  0.6763 -0.4609
 6743SOL     OW31864   0.821   4.539   6.445  0.2961  0.0997  0.0848
 6743SOL    HW131865   0.831   4.491   6.528 -0.0135  0.4919  0.3455
 6743SOL    HW231866   0.773   4.465   6.406  0.5689  1.2344 -2.3725
 6744SOL     OW31867   4.086   2.966   9.452 -0.0550  0.4874  0.2008
 6744SOL    HW131868   4.175   2.937   9.468 -1.1208 -0.9679  3.5279
 6744SOL    HW231869   4.046   2.901   9.511  1.0688  0.4569  0.9187
 6745SOL     OW31870   4.654   2.458  15.892 -1.1922 -0.4194 -0.2583
 6745SOL    HW131871   4.681   2.377  15.936  0.9627  0.4032 -0.0369
 6745SOL    HW231872   4.685   2.530  15.947  2.0508 -1.5892 -0.5320
 6746SOL     OW31873   2.911   4.234   7.221 -0.2685  0.1051 -0.4340
 6746SOL    HW131874   2.837   4.174   7.232 -0.1186  0.1190  0.6789
 6746SOL    HW231875   2.866   4.318   7.209  2.1155  1.2916 -1.0783
 6747SOL     OW31876   1.707   2.328  13.490 -0.3195 -0.0396 -0.2968
 6747SOL    HW131877   1.757   2.265  13.542  0.3242  1.6460  1.1297
 6747SOL    HW231878   1.689   2.395  13.556 -0.0557 -1.0992  0.8514
 6748SOL     OW31879   2.948   1.617   3.009 -0.0575 -0.0794 -0.1636
 6748SOL    HW131880   2.976   1.650   3.094  2.4807 -1.6019 -0.3999
 6748SOL    HW231881   3.001   1.538   2.997  1.2701  0.7071  0.4642
 6749SOL     OW31882   1.579   2.512  16.335 -0.5083  0.0125 -0.1979
 6749SOL    HW131883   1.653   2.451  16.337 -0.3402  0.2409  0.4311
 6749SOL    HW231884   1.613   2.598  16.360 -1.8819  0.7470 -0.8422
 6750SOL     OW31885   4.586   0.196   1.206  0.0283 -0.6516  0.1413
 6750SOL    HW131886   4.504   0.242   1.191  1.0546  1.5773  1.3127
 6750SOL    HW231887   4.591   0.202   1.301  1.4928  1.0370 -0.0404
 6751SOL     OW31888   4.697   2.295   8.935  0.0293 -0.1364 -0.1339
 6751SOL    HW131889   4.654   2.308   8.851 -0.6427 -0.9305  0.0861
 6751SOL    HW231890   4.692   2.377   8.984  1.5935 -0.1812  0.0950
 6752SOL     OW31891   4.396   3.381   5.725  0.2475 -0.4118  0.5211
 6752SOL    HW131892   4.417   3.472   5.746  0.9329 -0.5783  0.5620
 6752SOL    HW231893   4.437   3.339   5.801 -0.0653 -3.0285 -0.7738
 6753SOL     OW31894   0.142   2.557  13.746  0.3337 -0.4791  0.5140
 6753SOL    HW131895   0.062   2.607  13.729  0.0358 -1.9066 -2.1706
 6753SOL    HW231896   0.197   2.576  13.670 -0.9323 -0.2957 -0.3560
 6754SOL     OW31897   3.014   1.433  14.224  0.1146  0.4228 -0.1866
 6754SOL    HW131898   3.035   1.474  14.308  1.5547 -3.1774  1.1923
 6754SOL    HW231899   2.960   1.500  14.182  0.0185 -0.2380 -1.1165
 6755SOL     OW31900   0.974   4.039  16.738 -0.3624  0.1460  0.1226
 6755SOL    HW131901   0.993   3.953  16.702 -2.2207 -0.7761  1.3155
 6755SOL    HW231902   0.919   4.072  16.667  0.7736 -1.4441 -1.4693
 6756SOL     OW31903   2.027   2.863   8.389 -0.5308  0.3473 -0.3225
 6756SOL    HW131904   2.013   2.795   8.323  1.0369 -1.2334  0.9809
 6756SOL    HW231905   1.971   2.833   8.460  2.7434 -0.6129  1.8632
 6757SOL     OW31906   0.208   3.871   6.910  0.1597 -0.8734  0.0131
 6757SOL    HW131907   0.227   3.785   6.949  0.8519 -0.1789  1.1864
 6757SOL    HW231908   0.146   3.903   6.976 -1.1475 -1.5588 -0.8793
 6758SOL     OW31909   1.216   2.505  12.041 -0.9320  0.1876  0.6123
 6758SOL    HW131910   1.147   2.464  12.093 -0.9337  1.7149  1.8138
 6758SOL    HW231911   1.211   2.453  11.961  2.3370  1.9186 -0.7142
 6759SOL     OW31912   1.985   4.733  15.927 -0.4324 -0.3265 -0.1326
 6759SOL    HW131913   1.913   4.694  15.877  1.4245  0.0226 -3.0851
 6759SOL    HW231914   2.063   4.720  15.872 -0.7301  3.0368 -1.3350
 6760SOL     OW31915   3.356   0.951  15.836  0.2914  0.4225  0.1105
 6760SOL    HW131916   3.280   0.893  15.844  1.3766 -0.6229  2.7470
 6760SOL    HW231917   3.402   0.921  15.915  2.8645  0.0568 -1.5150
 6761SOL     OW31918   0.130   0.402   0.329 -0.0544  0.2358  0.0972
 6761SOL    HW131919   0.125   0.313   0.365 -0.9652  0.4547  0.5271
 6761SOL    HW231920   0.057   0.449   0.370  0.1504  1.6507 -1.1631
 6762SOL     OW31921   0.229   0.390   6.257  0.3569  0.1312 -0.2190
 6762SOL    HW131922   0.146   0.425   6.225  0.2437 -0.4313 -0.5203
 6762SOL    HW231923   0.238   0.304   6.218 -0.7071  0.3609 -0.9735
 6763SOL     OW31924   2.872   1.178   7.335  0.3418  0.0234 -0.1591
 6763SOL    HW131925   2.907   1.206   7.251  1.7647 -0.7906  0.1627
 6763SOL    HW231926   2.819   1.099   7.324  0.6208 -0.1092 -0.5389
 6764SOL     OW31927   1.861   4.206   5.631 -0.3612  0.5556 -0.8542
 6764SOL    HW131928   1.801   4.177   5.563 -0.3168  0.5672 -0.8979
 6764SOL    HW231929   1.844   4.299   5.620  0.2544  0.9251  1.2000
 6765SOL     OW31930   4.701   0.549   0.485  0.0930 -1.0802  0.2290
 6765SOL    HW131931   0.030   0.615   0.505 -1.1732  0.7886 -1.8208
 6765SOL    HW231932   4.683   0.525   0.576 -0.2996  0.4489  0.5406
 6766SOL     OW31933   4.452   1.925  12.808 -0.4625 -0.2437 -0.3556
 6766SOL    HW131934   4.525   1.987  12.801 -0.7845  0.4615  2.3946
 6766SOL    HW231935   4.445   1.898  12.899 -0.3724  0.5928 -0.1011
 6767SOL     OW31936   0.935   0.018   6.300  0.2379 -0.4149 -0.0781
 6767SOL    HW131937   0.874   4.718   6.363  0.4566  1.7692  1.4583
 6767SOL    HW231938   0.928   4.702   6.221  0.2889  2.2627 -1.8888
 6768SOL     OW31939   1.059   1.170  11.598 -0.5045 -0.3339  0.0260
 6768SOL    HW131940   0.994   1.115  11.642 -2.5045 -0.5140 -3.1504
 6768SOL    HW231941   1.007   1.229  11.543 -2.0230 -0.9421  0.8067
 6769SOL     OW31942   1.598   3.976   9.754 -1.1379  0.1862 -0.1585
 6769SOL    HW131943   1.564   3.894   9.718 -2.9044  1.4455 -1.3330
 6769SOL    HW231944   1.648   3.945   9.830 -1.7641 -3.1172 -1.0835
 6770SOL     OW31945   3.854   2.944  12.260  0.2647 -0.0704  0.2586
 6770SOL    HW131946   3.806   2.933  12.178  1.4779  2.0690 -0.7091
 6770SOL    HW231947   3.788   2.909  12.321  0.1330  1.1197  0.7972
 6771SOL     OW31948   3.752   2.467   7.421 -0.1694 -0.2800  0.0632
 6771SOL    HW131949   3.764   2.561   7.432  0.5554 -0.3610 -0.0210
 6771SOL    HW231950   3.772   2.442   7.511  1.0095 -0.8466 -0.3488
 6772SOL     OW31951   0.116   4.361   0.043 -0.0637 -0.6184  0.7801
 6772SOL    HW131952   0.116   4.344   0.138  2.4365 -2.5927  0.4396
 6772SOL    HW231953   0.027   4.330   0.028 -0.7029  1.4846  0.3659
 6773SOL     OW31954   4.530   1.771   7.710 -0.1695  0.4757 -0.5663
 6773SOL    HW131955   4.538   1.847   7.768 -0.2962 -0.5570  0.7906
 6773SOL    HW231956   4.441   1.785   7.676  0.5054  0.3715 -2.3545
 6774SOL     OW31957   2.204   4.069  16.767 -0.4493 -0.0510  0.0140
 6774SOL    HW131958   2.170   3.996  16.715  2.2262 -0.4091 -1.2335
 6774SOL    HW231959   2.201   4.140  16.702  1.5044  0.0261 -0.0102
 6775SOL     OW31960   0.251   2.010  13.742 -0.0670  0.3574 -0.0342
 6775SOL    HW131961   0.220   1.920  13.732  0.4562  0.1871 -0.1489
 6775SOL    HW231962   0.263   2.039  13.651 -0.7478  0.8446  0.0396
 6776SOL     OW31963   1.886   3.825   4.329 -0.3835 -0.0407  0.4100
 6776SOL    HW131964   1.840   3.892   4.278  1.1416 -0.9534 -2.1723
 6776SOL    HW231965   1.920   3.774   4.255 -0.6775 -0.9688  0.9212
 6777SOL     OW31966   2.479   2.211   3.705 -0.3566  0.0213  0.7315
 6777SOL    HW131967   2.573   2.198   3.722 -0.4341 -1.4483 -0.0438
 6777SOL    HW231968   2.468   2.117   3.690 -0.7563  0.0131  1.0749
 6778SOL     OW31969   1.930   0.273   5.376 -0.8621  0.2833  0.8612
 6778SOL    HW131970   1.842   0.275   5.340 -0.4570  0.0776 -0.1510
 6778SOL    HW231971   1.955   0.181   5.388 -0.4203  0.2271 -0.4483
 6779SOL     OW31972   1.749   2.329  14.858 -0.5332 -0.1065 -0.0062
 6779SOL    HW131973   1.763   2.389  14.931  0.5310 -0.8351  0.3847
 6779SOL    HW231974   1.806   2.255  14.879 -0.1786 -0.3389 -1.8183
 6780SOL     OW31975   3.095   2.239   7.969 -0.2507 -0.1528 -0.0165
 6780SOL    HW131976   3.038   2.217   8.043 -0.0903  1.7641  0.6691
 6780SOL    HW231977   3.136   2.154   7.954  0.4323  0.2358 -0.3445
 6781SOL     OW31978   0.811   1.650   1.627 -0.2423 -0.0724  0.2415
 6781SOL    HW131979   0.875   1.678   1.561  0.7449 -1.0260  0.7865
 6781SOL    HW231980   0.797   1.735   1.668 -1.1925  0.3612 -1.0081
 6782SOL     OW31981   3.387   2.375   1.805  0.1067 -0.7924 -0.6731
 6782SOL    HW131982   3.464   2.325   1.831  1.1539 -0.1138 -2.4914
 6782SOL    HW231983   3.380   2.339   1.716 -0.5061  1.1733 -1.4241
 6783SOL     OW31984   0.434   2.789   9.305  0.1295 -0.0173  0.5113
 6783SOL    HW131985   0.455   2.751   9.220 -0.7506  2.8602 -0.9636
 6783SOL    HW231986   0.407   2.718   9.364 -1.2058  0.1011  0.0361
 6784SOL     OW31987   3.743   1.226   8.089 -0.1383 -0.2254  0.0522
 6784SOL    HW131988   3.713   1.143   8.126  1.0603 -1.1782 -1.1015
 6784SOL    HW231989   3.778   1.262   8.170 -1.3664 -1.1517  1.0076
 6785SOL     OW31990   3.258   2.603   5.375 -0.3145 -0.6625 -0.4609
 6785SOL    HW131991   3.257   2.697   5.360 -1.6811 -0.6144 -0.0715
 6785SOL    HW231992   3.265   2.605   5.470 -2.3995  0.8633 -0.3587
 6786SOL     OW31993   1.165   2.625   3.532 -0.3172  0.1515 -0.1937
 6786SOL    HW131994   1.190   2.645   3.623  0.7093 -2.3373  0.0551
 6786SOL    HW231995   1.142   2.714   3.503  0.6205 -0.0521 -1.5279
 6787SOL     OW31996   2.305   4.119   6.305  1.0846 -0.0212 -0.4855
 6787SOL    HW131997   2.278   4.124   6.214 -1.1046  2.3704  0.2820
 6787SOL    HW231998   2.377   4.056   6.303  1.9227  0.8298  2.1029
 6788SOL     OW31999   1.645   2.844  10.359  0.3091 -0.0918  0.2946
 6788SOL    HW132000   1.625   2.864  10.450 -0.4142 -0.8560  0.3012
 6788SOL    HW232001   1.685   2.928  10.334  1.0510 -0.5041  0.0778
 6789SOL     OW32002   0.715   1.340   5.407 -0.2713  0.1663  0.1239
 6789SOL    HW132003   0.646   1.403   5.384 -1.4385 -1.6143 -1.2601
 6789SOL    HW232004   0.727   1.353   5.500 -0.3313 -0.9856  0.2961
 6790SOL     OW32005   1.391   1.434   2.443  0.0906 -0.1640  0.7753
 6790SOL    HW132006   1.351   1.445   2.356 -0.0345  0.8558  0.9687
 6790SOL    HW232007   1.444   1.513   2.439 -0.0280 -0.3113 -3.6833
 6791SOL     OW32008   3.981   1.961  11.981  0.0503  0.0160 -0.3115
 6791SOL    HW132009   4.066   1.965  12.024  1.0119  0.5545 -2.2524
 6791SOL    HW232010   4.010   1.962  11.890 -1.8222  1.7173 -0.8872
 6792SOL     OW32011   3.533   3.388   9.524 -0.1214 -0.5387  0.4937
 6792SOL    HW132012   3.587   3.389   9.603 -0.6052 -0.1124  0.8221
 6792SOL    HW232013   3.499   3.299   9.513 -0.1628 -0.2698 -1.5100
 6793SOL     OW32014   2.748   1.934   6.248  0.5798  0.0885  0.3526
 6793SOL    HW132015   2.710   1.871   6.187 -2.2318  1.2997  0.8468
 6793SOL    HW232016   2.835   1.899   6.268 -0.9247 -2.1151  3.0989
 6794SOL     OW32017   0.916   2.035   4.762  0.2881  0.5468  0.3300
 6794SOL    HW132018   0.901   2.033   4.857  4.6736  1.2176  1.0454
 6794SOL    HW232019   0.860   1.962   4.735  1.2049  0.7354 -2.0745
 6795SOL     OW32020   0.078   2.738   5.864  0.4116  0.0868 -0.6793
 6795SOL    HW132021   0.047   2.666   5.809  1.6208 -1.7904  1.0884
 6795SOL    HW232022   0.083   2.815   5.807 -2.9263  0.5740 -0.3610
 6796SOL     OW32023   0.151   0.187   2.019 -1.1165 -0.0245  0.2952
 6796SOL    HW132024   0.081   0.206   2.081 -0.1141 -0.7032  1.6154
 6796SOL    HW232025   0.216   0.165   2.085 -1.3348 -0.2932  0.4180
 6797SOL     OW32026   4.124   2.130  10.441  0.8139 -0.2489  0.5866
 6797SOL    HW132027   4.208   2.174  10.431 -0.7203  1.7894 -3.2869
 6797SOL    HW232028   4.145   2.037  10.440  3.4813  0.3481 -0.2458
 6798SOL     OW32029   3.108   0.398   4.391  0.0736 -0.1357 -0.1347
 6798SOL    HW132030   3.048   0.471   4.405 -0.5637 -0.3631 -1.6703
 6798SOL    HW232031   3.184   0.456   4.384  0.9795 -1.1604  1.2577
 6799SOL     OW32032   3.623   4.210   3.321 -0.9788  0.0742 -0.4171
 6799SOL    HW132033   3.568   4.167   3.387 -0.2140 -0.7066 -0.2906
 6799SOL    HW232034   3.629   4.299   3.355  1.6073 -0.2873  0.0574
 6800SOL     OW32035   1.610   2.419   8.376 -0.7063 -0.1885  0.3608
 6800SOL    HW132036   1.578   2.424   8.466 -0.5118 -0.1327  0.4274
 6800SOL    HW232037   1.540   2.369   8.334 -0.3923 -0.4395  0.1311
 6801SOL     OW32038   0.754   2.186   9.007 -0.1471  0.3352  0.5315
 6801SOL    HW132039   0.741   2.093   9.026 -1.2947  0.1464 -1.1707
 6801SOL    HW232040   0.756   2.190   8.911 -0.9835  0.1114  0.4991
 6802SOL     OW32041   3.340   0.897   7.091  0.1326  0.8689  0.2471
 6802SOL    HW132042   3.417   0.921   7.143 -0.5677  0.4593  1.4775
 6802SOL    HW232043   3.299   0.822   7.135 -2.1646  2.2317  0.3834
 6803SOL     OW32044   2.573   3.488   7.242 -0.4238  0.4862 -0.7313
 6803SOL    HW132045   2.537   3.561   7.191  0.9603 -0.8370 -3.6031
 6803SOL    HW232046   2.605   3.430   7.173  0.7222 -0.6084  0.7377
 6804SOL     OW32047   3.425   2.309   3.581 -0.2066 -0.1469 -0.1485
 6804SOL    HW132048   3.520   2.308   3.573 -0.3191  0.1066 -1.4373
 6804SOL    HW232049   3.416   2.287   3.674 -1.3074 -0.0192 -0.2309
 6805SOL     OW32050   4.618   2.892   6.100 -0.1882 -0.0634 -0.5988
 6805SOL    HW132051   4.710   2.909   6.081  0.5356  0.3477  3.1386
 6805SOL    HW232052   4.613   2.798   6.087  0.5903 -0.1234 -0.4503
 6806SOL     OW32053   2.506   2.422  10.657  0.9010 -0.4552 -0.3327
 6806SOL    HW132054   2.507   2.503  10.707 -0.7838 -0.0540 -0.9463
 6806SOL    HW232055   2.437   2.423  10.591  0.4254  0.4457  0.1782
 6807SOL     OW32056   3.459   4.231   9.773 -0.0742 -0.8649  0.5020
 6807SOL    HW132057   3.490   4.238   9.683 -0.8125 -0.4827  0.2774
 6807SOL    HW232058   3.547   4.217   9.808  0.2345  0.7590  0.3596
 6808SOL     OW32059   2.707   0.742   8.522  0.9888 -0.0783 -0.1326
 6808SOL    HW132060   2.650   0.799   8.574  0.2890 -3.4704  2.8173
 6808SOL    HW232061   2.766   0.714   8.591  1.1805  0.3421 -0.1233
 6809SOL     OW32062   1.881   4.633   3.664  0.2330  0.4222 -0.1754
 6809SOL    HW132063   1.810   4.572   3.645  1.7148 -0.9029 -1.4355
 6809SOL    HW232064   1.937   4.616   3.588 -1.1110 -1.7478 -0.6730
 6810SOL     OW32065   1.712   0.972  17.479  0.3207 -0.3080  0.0239
 6810SOL    HW132066   1.721   1.024  17.399  1.2775  0.1577  0.4309
 6810SOL    HW232067   1.804   0.948  17.492  0.4419 -0.5369 -1.3273
 6811SOL     OW32068   4.130   1.190   1.695 -0.1179 -0.1956  0.1733
 6811SOL    HW132069   4.105   1.098   1.692 -0.8399 -0.1000  3.3889
 6811SOL    HW232070   4.076   1.217   1.620  0.1031 -2.6626 -0.8722
 6812SOL     OW32071   1.809   0.327  16.002  0.4416  0.1711  0.2786
 6812SOL    HW132072   1.866   0.292  15.933  0.1637  1.6024 -0.6768
 6812SOL    HW232073   1.791   0.244  16.047 -0.8367  1.1874  1.6243
 6813SOL     OW32074   0.377   3.542   2.680 -0.1180  0.1553 -0.2555
 6813SOL    HW132075   0.449   3.584   2.727  0.1714  0.4852 -1.0027
 6813SOL    HW232076   0.397   3.547   2.587 -0.0340  0.2915 -0.2306
 6814SOL     OW32077   1.028   4.114   5.026 -0.0203  0.5336 -0.6520
 6814SOL    HW132078   1.117   4.149   5.025 -0.1041  0.7384 -1.8734
 6814SOL    HW232079   1.029   4.068   5.109 -0.5620 -1.6658 -1.8545
 6815SOL     OW32080   4.255   2.174  15.234 -0.0560  0.6930 -0.0479
 6815SOL    HW132081   4.278   2.262  15.204 -2.2790  0.5789 -2.0636
 6815SOL    HW232082   4.348   2.148  15.240 -0.0315  0.4206 -1.5006
 6816SOL     OW32083   4.021   4.016   9.074 -0.5427 -0.2913 -0.0763
 6816SOL    HW132084   4.106   4.013   9.032 -0.9226 -0.6361 -0.8248
 6816SOL    HW232085   3.991   3.925   9.067  0.3680 -0.7584  2.2385
 6817SOL     OW32086   3.408   3.397   5.647  0.0671  0.1629 -0.3647
 6817SOL    HW132087   3.417   3.478   5.598  0.7625  1.4777  1.8920
 6817SOL    HW232088   3.469   3.406   5.721 -0.6144  3.2242 -0.1642
 6818SOL     OW32089   1.834   1.661   3.286  0.4821  0.0282 -0.1154
 6818SOL    HW132090   1.852   1.691   3.197  2.8027 -3.7668 -0.9393
 6818SOL    HW232091   1.913   1.699   3.325  0.9290  1.7176 -2.6429
 6819SOL     OW32092   2.133   3.095   3.178 -0.1930  0.0134  0.3780
 6819SOL    HW132093   2.157   3.168   3.121  2.4325 -0.2202  1.1412
 6819SOL    HW232094   2.048   3.070   3.144 -0.0011  0.2452 -0.2733
 6820SOL     OW32095   2.975   1.468   4.375  0.2332  0.4811  0.0952
 6820SOL    HW132096   2.961   1.375   4.392  1.7794  0.2012 -0.1549
 6820SOL    HW232097   3.071   1.467   4.377  0.2318 -0.4257 -0.5690
 6821SOL     OW32098   0.128   1.395   4.123  0.7404 -0.2506 -0.0124
 6821SOL    HW132099   0.205   1.447   4.143  0.6342  0.2772 -0.9896
 6821SOL    HW232100   0.145   1.315   4.173 -1.7960 -0.9355 -0.1927
 6822SOL     OW32101   3.448   4.115   3.523  0.3012  0.4591  0.2529
 6822SOL    HW132102   3.369   4.166   3.505 -0.6305 -1.7282 -1.8994
 6822SOL    HW232103   3.415   4.025   3.524  2.4997 -0.3545 -1.1873
 6823SOL     OW32104   2.678   0.966   5.031 -0.0299 -0.4550  0.2262
 6823SOL    HW132105   2.595   0.939   4.992 -0.5188  2.7768 -0.9849
 6823SOL    HW232106   2.660   1.060   5.023  0.4192 -0.5723 -1.9975
 6824SOL     OW32107   4.250   0.314   5.639  0.5132  0.0895 -0.4259
 6824SOL    HW132108   4.274   0.403   5.614  0.3935  0.4669  0.7793
 6824SOL    HW232109   4.177   0.293   5.581 -0.7616 -1.5645  1.7743
 6825SOL     OW32110   0.318   4.295  17.627 -0.5859  0.4235 -0.1282
 6825SOL    HW132111   0.245   4.320  17.685 -1.4177 -2.6748  0.1278
 6825SOL    HW232112   0.358   4.230  17.685  0.0202 -0.4481 -1.5310
 6826SOL     OW32113   3.028   0.261   4.898 -0.0466  0.1115 -0.4954
 6826SOL    HW132114   2.960   0.253   4.831  0.4045 -0.4679 -0.8836
 6826SOL    HW232115   3.024   0.179   4.948 -0.8897 -0.5385 -1.6248
 6827SOL     OW32116   3.992   3.188   4.039 -0.4521 -0.0456 -0.4906
 6827SOL    HW132117   3.959   3.100   4.053  1.2943 -0.6398 -0.1098
 6827SOL    HW232118   3.920   3.236   3.997  0.2007  1.2365 -0.1558
 6828SOL     OW32119   0.344   3.458   5.520 -0.3316 -0.4773  0.2176
 6828SOL    HW132120   0.340   3.362   5.514  0.6040 -0.4670 -0.5193
 6828SOL    HW232121   0.252   3.484   5.513  0.1558  1.0885 -0.2781
 6829SOL     OW32122   0.845   1.271   2.916  0.1103  0.6653  0.2719
 6829SOL    HW132123   0.916   1.259   2.853 -1.4343  3.1036 -1.9040
 6829SOL    HW232124   0.892   1.311   2.990  1.0859  0.9964 -0.5225
 6830SOL     OW32125   4.700   0.517   2.937  0.0778  0.4196 -0.0164
 6830SOL    HW132126   0.048   0.480   2.918  0.2648  0.0898  1.4546
 6830SOL    HW232127   4.634   0.449   2.921  0.2665  0.2188  0.0582
 6831SOL     OW32128   4.033   0.275   7.442 -0.3088 -0.1407 -0.0679
 6831SOL    HW132129   4.031   0.322   7.359 -1.1233 -2.6904 -1.4718
 6831SOL    HW232130   3.961   0.213   7.432 -0.2845 -0.2640  0.5172
 6832SOL     OW32131   0.638   2.470  10.107 -0.4436  0.1987 -0.4164
 6832SOL    HW132132   0.661   2.542  10.049 -1.0883  1.6987  1.2053
 6832SOL    HW232133   0.722   2.425  10.115 -1.6014 -2.1525 -1.4281
 6833SOL     OW32134   4.157   1.287   1.956  0.1442  0.6537  0.2990
 6833SOL    HW132135   4.230   1.239   1.995 -2.5535 -1.9006  2.2434
 6833SOL    HW232136   4.153   1.253   1.866  3.1220  1.8096 -0.2843
 6834SOL     OW32137   0.749   2.309   1.907 -0.6620 -0.1896 -0.6974
 6834SOL    HW132138   0.790   2.234   1.865  0.2662  0.9315 -1.7690
 6834SOL    HW232139   0.674   2.270   1.952 -1.0577  0.6235 -0.6600
 6835SOL     OW32140   3.939   4.136   2.755 -0.4543 -0.4816 -0.0946
 6835SOL    HW132141   3.947   4.229   2.774 -0.6146 -0.5693  0.4086
 6835SOL    HW232142   4.018   4.102   2.797  1.1633 -0.1298 -2.8566
 6836SOL     OW32143   1.775   0.754   3.130 -0.1375  0.4656  0.1188
 6836SOL    HW132144   1.778   0.678   3.071  4.0664  0.3977  0.3851
 6836SOL    HW232145   1.865   0.754   3.162  0.9167 -0.2043 -2.8813
 6837SOL     OW32146   4.600   3.010  17.082 -0.2466 -0.3507  0.0508
 6837SOL    HW132147   4.625   3.085  17.136  2.0360  0.6358 -2.3241
 6837SOL    HW232148   4.505   3.009  17.093 -0.4332  0.5242 -1.5254
 6838SOL     OW32149   1.088   1.995   2.411 -0.1188  0.0857  0.0112
 6838SOL    HW132150   1.035   2.018   2.488  2.6481  1.0766  1.6423
 6838SOL    HW232151   1.131   2.080   2.400 -1.0853  0.7986  1.6950
 6839SOL     OW32152   1.659   4.701   8.053 -0.0686 -0.0783 -0.4756
 6839SOL    HW132153   1.635   0.031   7.989 -0.3874 -1.0307 -1.3526
 6839SOL    HW232154   1.660   0.018   8.132 -1.9212  0.6306 -0.9315
 6840SOL     OW32155   0.030   4.168   6.684  0.0970  0.2630  0.2596
 6840SOL    HW132156   4.729   4.100   6.740  1.4734 -2.8749 -2.5939
 6840SOL    HW232157   0.044   4.121   6.602  1.0145  0.1471  0.4799
 6841SOL     OW32158   2.831   2.577   5.780 -0.1367  0.4739 -0.2399
 6841SOL    HW132159   2.797   2.535   5.700  1.3759 -1.1455 -0.0507
 6841SOL    HW232160   2.821   2.509   5.846  2.1969  0.9052  0.5743
 6842SOL     OW32161   1.454   2.408   8.597 -0.2202 -0.1072  0.0774
 6842SOL    HW132162   1.424   2.459   8.672  1.7549  0.3925  0.5245
 6842SOL    HW232163   1.369   2.391   8.556  0.9526 -1.2306 -1.8765
 6843SOL     OW32164   2.451   1.922   8.867 -1.3654 -0.4470 -0.1194
 6843SOL    HW132165   2.409   1.998   8.826  0.8490  0.6103 -0.4169
 6843SOL    HW232166   2.515   1.961   8.925 -3.3426 -0.7725  2.2782
 6844SOL     OW32167   3.674   0.470   8.276  0.1663 -0.2081  0.1221
 6844SOL    HW132168   3.738   0.477   8.205 -0.5347  2.3145 -0.2601
 6844SOL    HW232169   3.595   0.515   8.247  1.1398  0.7468 -1.0840
 6845SOL     OW32170   0.876   1.026   5.278  0.1123  0.0361  0.1011
 6845SOL    HW132171   0.920   1.097   5.231  0.5964 -1.1384 -1.2208
 6845SOL    HW232172   0.818   0.991   5.210 -2.1078  0.3464  1.8174
 6846SOL     OW32173   2.604   2.461   1.490  0.0956 -0.0864  0.2656
 6846SOL    HW132174   2.669   2.404   1.449  1.1388 -0.0738  1.8549
 6846SOL    HW232175   2.522   2.433   1.451 -0.2658  1.4206 -0.0612
 6847SOL     OW32176   1.180   4.626   3.066  0.7325  0.1546 -0.3055
 6847SOL    HW132177   1.107   4.658   3.119  1.5637 -1.6919  1.9771
 6847SOL    HW232178   1.227   4.575   3.133  1.3993  1.5787  0.3248
 6848SOL     OW32179   3.639   0.483   4.696 -0.2359 -0.2265  0.1089
 6848SOL    HW132180   3.584   0.441   4.762 -2.1016  0.4822 -0.9949
 6848SOL    HW232181   3.703   0.516   4.758 -1.0397  0.6841  0.4471
 6849SOL     OW32182   0.978   1.699  10.220  0.3454 -0.1493 -0.0638
 6849SOL    HW132183   0.918   1.771  10.204  0.5864  0.2761  0.9397
 6849SOL    HW232184   1.015   1.724  10.305  0.0086  1.3608 -0.3576
 6850SOL     OW32185   2.255   0.209   8.281  0.2719 -0.7141 -0.2128
 6850SOL    HW132186   2.180   0.219   8.340 -0.5008 -1.2503 -1.0959
 6850SOL    HW232187   2.245   0.289   8.230  1.2238 -2.4086 -3.0841
 6851SOL     OW32188   1.760   2.410   2.771 -0.3123 -0.6232  0.1816
 6851SOL    HW132189   1.812   2.335   2.743 -0.2120 -0.3878 -0.2711
 6851SOL    HW232190   1.682   2.397   2.716 -1.0548  0.6182  0.9280
 6852SOL     OW32191   0.214   1.758   3.934  0.1992 -0.4048 -0.2055
 6852SOL    HW132192   0.228   1.695   3.863 -1.2518 -1.7079  0.6644
 6852SOL    HW232193   0.246   1.839   3.896  0.7803 -0.6624 -0.2558
 6853SOL     OW32194   3.993   4.426   5.609  0.4113 -0.1203 -0.6022
 6853SOL    HW132195   4.010   4.375   5.688  1.2700 -0.8094 -1.2374
 6853SOL    HW232196   3.973   4.509   5.654 -0.4768 -0.6399 -0.0277
 6854SOL     OW32197   1.400   3.553   9.613  0.1874  0.5965  0.2129
 6854SOL    HW132198   1.484   3.596   9.628  0.8652 -0.7215  0.2369
 6854SOL    HW232199   1.431   3.477   9.563  1.7800  1.1393  0.3990
 6855SOL     OW32200   1.341   4.386  16.627  0.5385  0.7765  0.1801
 6855SOL    HW132201   1.370   4.447  16.560 -0.5143 -0.3667 -1.3303
 6855SOL    HW232202   1.386   4.304  16.605  0.2060  0.3920  0.9526
 6856SOL     OW32203   0.353   1.808   0.558 -0.2182 -0.1563 -0.3719
 6856SOL    HW132204   0.274   1.763   0.527 -0.0522 -1.2001  0.7178
 6856SOL    HW232205   0.331   1.900   0.569  2.0017  0.4201 -0.6304
 6857SOL     OW32206   2.561   2.159   4.390 -0.0901 -0.0565  0.4132
 6857SOL    HW132207   2.555   2.064   4.397 -2.3850 -0.1510 -2.9389
 6857SOL    HW232208   2.497   2.177   4.459  1.9429  2.3423  1.6711
 6858SOL     OW32209   0.697   3.848   8.828  0.6706 -0.1039  0.2897
 6858SOL    HW132210   0.724   3.939   8.839  1.2451 -0.1345 -0.9339
 6858SOL    HW232211   0.641   3.837   8.905  1.1183 -0.5159  0.5557
 6859SOL     OW32212   1.488   0.800   4.233 -0.3963  0.3730 -0.0910
 6859SOL    HW132213   1.521   0.765   4.315 -0.8220  1.0333  0.3576
 6859SOL    HW232214   1.556   0.866   4.221  0.2628 -0.7093 -2.4231
 6860SOL     OW32215   4.574   1.946   0.047  0.3117  0.6660 -0.3292
 6860SOL    HW132216   4.642   2.009   0.024  0.9922  0.5571  1.3840
 6860SOL    HW232217   4.592   1.916   0.136 -0.9568 -1.5739 -0.8152
 6861SOL     OW32218   0.111   0.766  17.646  0.4543 -0.3950  0.3812
 6861SOL    HW132219   0.031   0.717  17.630  0.1982 -0.2363  1.1469
 6861SOL    HW232220   0.113   0.827  17.572  0.7937 -0.5977  0.2228
 6862SOL     OW32221   0.985   3.485   7.824 -0.2422 -0.4728 -0.2806
 6862SOL    HW132222   0.938   3.479   7.741  0.7909 -1.1378 -0.8106
 6862SOL    HW232223   0.932   3.442   7.890 -2.2741 -0.8125 -2.1386
 6863SOL     OW32224   2.618   0.480   2.474 -0.0704  0.4913 -0.2590
 6863SOL    HW132225   2.568   0.498   2.395 -1.0583  0.6862  0.4068
 6863SOL    HW232226   2.604   0.387   2.489 -0.5980  0.8461  1.5017
 6864SOL     OW32227   2.110   0.858   3.020 -0.6820  0.1635 -0.4472
 6864SOL    HW132228   2.115   0.818   2.933 -1.5642  1.8586 -1.2709
 6864SOL    HW232229   2.039   0.918   3.000 -1.1357 -0.3353 -0.3434
 6865SOL     OW32230   2.312   3.364  11.103  0.1819  0.3421  0.1834
 6865SOL    HW132231   2.316   3.337  11.194 -3.0532 -0.5230  0.0791
 6865SOL    HW232232   2.253   3.440  11.104 -1.4612 -0.9058 -1.6928
 6866SOL     OW32233   1.707   0.121  16.218  0.8329 -0.6800  0.0195
 6866SOL    HW132234   1.733   0.189  16.281 -0.5455  2.5001 -2.8293
 6866SOL    HW232235   1.789   0.072  16.219  0.0970 -1.8248  5.5612
 6867SOL     OW32236   3.780   0.607  12.951  0.0561  0.4638  0.3820
 6867SOL    HW132237   3.812   0.522  12.920 -0.5727  0.1952  0.4778
 6867SOL    HW232238   3.741   0.639  12.870  0.6837 -0.2135 -0.1863
 6868SOL     OW32239   4.155   2.590   9.221  0.0806 -0.6975  0.1774
 6868SOL    HW132240   4.114   2.547   9.146 -0.9713 -0.2904  0.5101
 6868SOL    HW232241   4.166   2.679   9.190 -1.4354 -0.8261 -0.7300
 6869SOL     OW32242   4.370   0.729   4.193 -0.1917  0.4447 -0.1465
 6869SOL    HW132243   4.441   0.792   4.198  0.5689 -0.5318  1.2339
 6869SOL    HW232244   4.336   0.725   4.282 -0.5285 -0.1960 -0.3005
 6870SOL     OW32245   3.517   1.875  10.688  0.8170  0.3804 -0.6075
 6870SOL    HW132246   3.590   1.916  10.641  0.7392  1.5693  0.3226
 6870SOL    HW232247   3.546   1.872  10.779 -1.5937 -0.6431  0.1298
 6871SOL     OW32248   3.934   3.412  15.247 -0.0714  0.0129 -0.1372
 6871SOL    HW132249   3.967   3.414  15.157  1.3754  0.5583  0.4051
 6871SOL    HW232250   4.008   3.449  15.294  0.3727  0.3348 -1.0852
 6872SOL     OW32251   2.378   2.535   8.478  0.0906  0.4875 -0.2268
 6872SOL    HW132252   2.472   2.530   8.490 -0.0518  0.6764  0.9364
 6872SOL    HW232253   2.378   2.507   8.386  1.9291 -0.0837 -0.0333
 6873SOL     OW32254   1.191   0.833   2.828  0.4791  0.0446  0.5998
 6873SOL    HW132255   1.179   0.864   2.738  0.1926  0.7541  0.8913
 6873SOL    HW232256   1.158   0.746   2.805  0.2235 -0.4151  2.7763
 6874SOL     OW32257   2.886   0.221   4.338 -0.2655 -0.3858 -0.5930
 6874SOL    HW132258   2.967   0.271   4.346 -0.6895  0.7309 -3.4386
 6874SOL    HW232259   2.838   0.270   4.271 -0.1809 -0.3643 -0.6369
 6875SOL     OW32260   2.599   1.770   6.450 -0.1077  0.7151  0.0341
 6875SOL    HW132261   2.660   1.817   6.508  0.5218  1.2818 -1.0981
 6875SOL    HW232262   2.556   1.845   6.410  0.7619  1.5087  0.5680
 6876SOL     OW32263   2.791   3.247   7.537  0.0926 -0.0410  0.2450
 6876SOL    HW132264   2.829   3.334   7.526 -1.6494  0.7037  0.2561
 6876SOL    HW232265   2.874   3.202   7.522 -1.0828 -1.8812 -0.7068
 6877SOL     OW32266   4.299   1.969   6.921 -0.5872 -0.3375 -0.4781
 6877SOL    HW132267   4.230   2.034   6.911 -0.2128  0.1954  0.4129
 6877SOL    HW232268   4.242   1.895   6.944  0.8039 -1.1652  0.3454
 6878SOL     OW32269   2.809   0.892   8.302  0.0875 -0.0789 -0.3676
 6878SOL    HW132270   2.767   0.842   8.371  2.0082  0.1712  0.9967
 6878SOL    HW232271   2.784   0.852   8.219 -0.3582  0.5948 -0.5582
 6879SOL     OW32272   2.333   1.165  11.743 -0.2262 -0.0650 -0.3123
 6879SOL    HW132273   2.426   1.178  11.725 -0.3732  0.3162 -0.8123
 6879SOL    HW232274   2.323   1.217  11.823 -1.7332  0.6199 -0.9447
 6880SOL     OW32275   0.496   1.323  11.540 -0.2236 -0.6431 -0.1843
 6880SOL    HW132276   0.411   1.310  11.499 -1.8330  0.5888  2.7625
 6880SOL    HW232277   0.509   1.418  11.534  1.7989 -0.7766  2.0084
 6881SOL     OW32278   2.592   2.841   6.888 -0.3239 -0.4302  0.2796
 6881SOL    HW132279   2.671   2.812   6.843 -1.8855 -0.9130 -2.2065
 6881SOL    HW232280   2.573   2.916   6.833  1.1787  0.2278  0.6745
 6882SOL     OW32281   4.328   2.785   6.351  0.1646  0.4963  0.1076
 6882SOL    HW132282   4.334   2.855   6.417  0.4883 -0.0962  0.6982
 6882SOL    HW232283   4.353   2.832   6.272 -0.3603  0.7639  0.0988
 6883SOL     OW32284   3.782   1.602   5.759  0.2909 -0.2591 -0.1781
 6883SOL    HW132285   3.833   1.681   5.776 -0.8809  0.8224 -1.7114
 6883SOL    HW232286   3.729   1.625   5.683 -1.2277 -0.7342  0.7235
 6884SOL     OW32287   3.829   2.226  12.978  0.1624  0.1343 -0.0909
 6884SOL    HW132288   3.868   2.204  12.893 -2.9130  1.9104 -1.9644
 6884SOL    HW232289   3.817   2.320  12.968  1.0326  0.0677 -1.8782
 6885SOL     OW32290   4.285   0.486   1.885  0.2797 -0.4769  0.1583
 6885SOL    HW132291   4.304   0.579   1.875  1.1638 -0.7015 -0.2916
 6885SOL    HW232292   4.356   0.460   1.945  2.0697 -0.1010 -1.7847
 6886SOL     OW32293   1.285   1.033   9.723 -0.3436  0.3645 -0.0822
 6886SOL    HW132294   1.304   1.089   9.648  0.7275 -0.3566 -0.3579
 6886SOL    HW232295   1.281   0.947   9.682  2.2588 -0.8764  2.2350
 6887SOL     OW32296   2.154   4.611   9.928 -0.7232  0.0083  0.3676
 6887SOL    HW132297   2.093   4.671   9.885 -2.0838 -0.5759  1.4571
 6887SOL    HW232298   2.140   4.638  10.019  1.8093  0.1451  0.7171
 6888SOL     OW32299   3.886   0.627   6.321  0.7484  0.2002 -0.3461
 6888SOL    HW132300   3.799   0.598   6.346  0.2287  1.3211 -0.8911
 6888SOL    HW232301   3.932   0.543   6.307  0.9107  0.4090 -1.0572
 6889SOL     OW32302   2.227   2.958   5.713  0.0896  0.0750 -0.2846
 6889SOL    HW132303   2.223   2.979   5.806 -1.3688 -1.0364 -0.0824
 6889SOL    HW232304   2.318   2.931   5.711  0.5901  1.8877 -1.9407
 6890SOL     OW32305   0.527   4.137   4.965  0.5012 -0.1046  0.3642
 6890SOL    HW132306   0.535   4.232   4.959 -3.1818  0.0685 -1.8428
 6890SOL    HW232307   0.479   4.105   4.888  0.7235  0.0699  0.1545
 6891SOL     OW32308   0.878   1.446   7.727  0.3372 -0.0756 -0.2972
 6891SOL    HW132309   0.951   1.494   7.766  0.2057  1.4243 -1.8767
 6891SOL    HW232310   0.807   1.510   7.716 -1.2647 -1.8453 -0.1470
 6892SOL     OW32311   0.596   3.556  16.442  0.1184  0.0724 -0.3941
 6892SOL    HW132312   0.565   3.642  16.472 -2.3079 -1.0674  0.3945
 6892SOL    HW232313   0.650   3.532  16.518  0.8411  0.3179 -0.8386
 6893SOL     OW32314   3.147   4.472   7.074 -0.0575  0.1499 -0.3487
 6893SOL    HW132315   3.057   4.437   7.074  0.4204 -1.0940 -2.5968
 6893SOL    HW232316   3.129   4.554   7.120  2.4552  0.3346  0.2918
 6894SOL     OW32317   3.705   2.434  15.040  0.0739  0.3559  0.4194
 6894SOL    HW132318   3.764   2.393  15.103 -2.6313 -0.8440  2.1301
 6894SOL    HW232319   3.673   2.358  14.992  0.5213  1.1396 -1.1205
 6895SOL     OW32320   3.713   0.698   7.457 -0.3399 -0.1684  0.0743
 6895SOL    HW132321   3.769   0.629   7.493 -3.1711 -2.9204 -0.7381
 6895SOL    HW232322   3.629   0.654   7.470  0.7922 -2.1217  0.8769
 6896SOL     OW32323   3.043   3.015   6.455 -0.2407 -0.0526  0.6498
 6896SOL    HW132324   3.133   2.988   6.436  0.6658  2.0981  1.9201
 6896SOL    HW232325   3.044   3.102   6.416 -1.5213 -0.9341 -1.3679
 6897SOL     OW32326   3.836   2.002   8.882 -0.2200 -0.0556  0.2191
 6897SOL    HW132327   3.766   1.951   8.924  0.9062 -0.6633  1.3676
 6897SOL    HW232328   3.907   1.974   8.941  0.7301  2.6598  0.3574
 6898SOL     OW32329   1.571   4.443   6.645  0.7904  0.1997  0.1295
 6898SOL    HW132330   1.628   4.410   6.575  0.9434 -0.5632  0.6189
 6898SOL    HW232331   1.629   4.458   6.719 -0.6396  0.6439  1.1685
 6899SOL     OW32332   2.818   2.799   9.012 -0.4517 -0.1320 -0.2975
 6899SOL    HW132333   2.750   2.764   8.954 -0.0725 -1.4223  0.0232
 6899SOL    HW232334   2.873   2.837   8.944  0.6211 -4.2779 -1.7318
 6900SOL     OW32335   1.299   0.080  14.253 -0.3992  0.0672  0.2634
 6900SOL    HW132336   1.388   0.059  14.280 -0.9750 -1.6342  0.8159
 6900SOL    HW232337   1.319   0.166  14.215  0.9681  1.0041  3.0719
 6901SOL     OW32338   4.197   4.669   9.236 -0.0630 -0.1766  0.5961
 6901SOL    HW132339   4.267   4.690   9.174  1.7620 -0.5584  2.5602
 6901SOL    HW232340   4.128   4.659   9.170  1.0873  0.5196 -0.7164
 6902SOL     OW32341   3.454   0.609   3.810 -0.2690 -0.1947  0.3381
 6902SOL    HW132342   3.460   0.647   3.898  0.2369  0.5304 -0.0171
 6902SOL    HW232343   3.487   0.682   3.758  1.0786 -1.8433 -1.1244
 6903SOL     OW32344   1.820   3.805   8.540  0.9022 -0.4107 -0.3362
 6903SOL    HW132345   1.761   3.874   8.511  0.5640 -0.3734  0.4423
 6903SOL    HW232346   1.809   3.817   8.634 -0.2440 -1.3253 -0.3431
 6904SOL     OW32347   3.697   1.364   5.889 -0.2226 -0.1388  0.2285
 6904SOL    HW132348   3.662   1.414   5.963 -0.5689 -2.3551  1.5347
 6904SOL    HW232349   3.742   1.435   5.843 -1.0431 -0.1380 -0.5732
 6905SOL     OW32350   0.526   4.722   4.247  0.2069 -0.1198  0.5768
 6905SOL    HW132351   0.564   4.634   4.247  1.4252  0.4025 -0.7638
 6905SOL    HW232352   0.441   4.706   4.289 -0.1959 -0.6381 -0.4349
 6906SOL     OW32353   3.577   0.245   2.794  0.5281  0.0594 -0.1497
 6906SOL    HW132354   3.484   0.227   2.797  0.8776 -2.1441 -3.1078
 6906SOL    HW232355   3.618   0.169   2.836  2.1009  1.5729  1.0931
 6907SOL     OW32356   4.403   4.223   8.174  0.3001 -0.2621  0.3226
 6907SOL    HW132357   4.485   4.265   8.147 -0.3375 -0.2213 -1.5541
 6907SOL    HW232358   4.435   4.132   8.176 -0.8323 -0.6271  2.0071
 6908SOL     OW32359   0.011   2.199  16.019  0.0413 -0.6214 -0.6262
 6908SOL    HW132360   0.089   2.153  16.048 -1.1763 -0.8141  2.3621
 6908SOL    HW232361   4.706   2.232  16.098  1.5652  2.0543 -0.9255
 6909SOL     OW32362   2.719   1.983   8.732  0.0885  0.0575  0.5322
 6909SOL    HW132363   2.678   2.007   8.815  1.8846  1.1238  1.1146
 6909SOL    HW232364   2.646   1.977   8.671  0.3626  1.6432  0.0544
 6910SOL     OW32365   1.696   1.280  17.372 -0.2929  0.1192  0.9701
 6910SOL    HW132366   1.700   1.368  17.335  1.8693  0.8546  2.9041
 6910SOL    HW232367   1.755   1.291  17.447  0.3405 -1.2896  0.6805
 6911SOL     OW32368   1.035   0.433   1.237  0.3712  0.2102 -0.2645
 6911SOL    HW132369   1.031   0.428   1.142  2.1852 -0.9563 -0.2575
 6911SOL    HW232370   1.026   0.343   1.268 -0.0824  0.2496 -0.2819
 6912SOL     OW32371   1.877   2.322   0.770 -0.0605 -0.0671  0.0005
 6912SOL    HW132372   1.799   2.304   0.822 -0.1906 -0.8305 -0.4609
 6912SOL    HW232373   1.839   2.338   0.684  1.2037  0.8625 -0.3830
 6913SOL     OW32374   4.209   0.040  12.470  0.2933  0.2974 -0.3029
 6913SOL    HW132375   4.304   0.034  12.480  0.3009 -1.5213 -1.4898
 6913SOL    HW232376   4.187   0.102  12.539 -4.6259  0.2958 -1.8599
 6914SOL     OW32377   2.857   3.245   4.834  0.1710 -0.2935  0.3714
 6914SOL    HW132378   2.849   3.340   4.829 -2.7500 -0.4693  1.7844
 6914SOL    HW232379   2.851   3.220   4.742  0.2996 -3.2965  1.1671
 6915SOL     OW32380   1.647   3.523   2.688 -0.3243 -0.8031 -0.0334
 6915SOL    HW132381   1.718   3.583   2.666 -1.1076 -0.7026 -2.2875
 6915SOL    HW232382   1.698   3.481   2.758 -2.6361 -1.3691  1.3237
 6916SOL     OW32383   0.606   3.378   1.743 -0.2052 -0.4771 -0.4568
 6916SOL    HW132384   0.654   3.393   1.662 -0.0091 -0.7653 -0.3938
 6916SOL    HW232385   0.539   3.445   1.729 -0.1582 -0.4110 -0.3681
 6917SOL     OW32386   3.161   3.543   0.548  0.7350 -0.3260 -0.0205
 6917SOL    HW132387   3.079   3.560   0.501  1.0218  0.8503 -0.0945
 6917SOL    HW232388   3.205   3.496   0.477  2.3581  0.0861  0.7208
 6918SOL     OW32389   0.941   0.714  10.006 -0.2720 -0.1004 -0.2887
 6918SOL    HW132390   0.921   0.773   9.934  1.0044  0.4545 -0.1817
 6918SOL    HW232391   0.856   0.673  10.023 -0.6710  1.4376  1.5345
 6919SOL     OW32392   0.464   0.619   6.667 -0.3963 -0.0091 -0.1736
 6919SOL    HW132393   0.442   0.547   6.608  1.2256 -0.8227  0.2150
 6919SOL    HW232394   0.544   0.595   6.713 -0.6515 -2.3342 -0.9130
 6920SOL     OW32395   3.736   1.464   0.772  0.6085 -0.2511  0.3615
 6920SOL    HW132396   3.792   1.464   0.850 -1.7369 -0.0323  2.0241
 6920SOL    HW232397   3.781   1.532   0.722  0.4389  0.4502  1.1590
 6921SOL     OW32398   0.683   1.708   4.379  0.1157  0.1550  0.4603
 6921SOL    HW132399   0.654   1.655   4.304  1.6531  0.0344 -0.0417
 6921SOL    HW232400   0.706   1.787   4.330 -1.1445  0.1594 -0.1175
 6922SOL     OW32401   2.782   4.436   2.375 -0.8213 -0.1896  0.0728
 6922SOL    HW132402   2.717   4.436   2.445 -0.5864  0.8990  0.2766
 6922SOL    HW232403   2.861   4.417   2.425 -2.9945 -1.7165  2.8818
 6923SOL     OW32404   4.046   1.509   9.702 -0.5046 -0.7597 -0.4576
 6923SOL    HW132405   4.119   1.560   9.737 -1.3840 -0.1596  0.4829
 6923SOL    HW232406   4.094   1.451   9.641 -0.6967 -0.4416 -0.9086
 6924SOL     OW32407   2.593   0.370  16.234  0.1310 -0.3014 -0.3410
 6924SOL    HW132408   2.538   0.448  16.242 -0.3654 -0.5865 -0.9619
 6924SOL    HW232409   2.541   0.309  16.182  3.0832 -2.0754 -1.1796
 6925SOL     OW32410   0.967   2.860   6.573  0.5103  0.0435 -0.6731
 6925SOL    HW132411   0.886   2.863   6.522  0.6269 -1.8394 -0.9566
 6925SOL    HW232412   0.942   2.802   6.645 -1.8462 -0.4940 -1.9296
 6926SOL     OW32413   0.826   0.302   9.002  0.3421  0.1766  0.0233
 6926SOL    HW132414   0.835   0.392   9.034  0.7289  0.4623 -0.8963
 6926SOL    HW232415   0.806   0.313   8.909  0.3963  0.3800  0.0354
 6927SOL     OW32416   1.326   3.080  12.575  0.2309  0.4352  0.5807
 6927SOL    HW132417   1.271   3.015  12.531  0.2710  1.2435 -0.6617
 6927SOL    HW232418   1.389   3.022  12.617 -1.9657 -1.4728  1.2373
 6928SOL     OW32419   2.381   1.669   8.983 -0.0126  0.3325 -0.1155
 6928SOL    HW132420   2.407   1.746   8.933  0.4794  0.5181  0.4221
 6928SOL    HW232421   2.428   1.681   9.066 -1.4514  0.5270  0.6677
 6929SOL     OW32422   1.199   2.673   7.519  0.3601  0.7172  0.4340
 6929SOL    HW132423   1.263   2.731   7.560 -0.7521  1.3991  1.2148
 6929SOL    HW232424   1.221   2.664   7.427  0.0783  2.2524  0.2156
 6930SOL     OW32425   3.004   3.227   9.123 -0.0265  0.4645 -0.0779
 6930SOL    HW132426   3.021   3.226   9.217  1.0469  1.2908 -0.2555
 6930SOL    HW232427   3.076   3.285   9.097  1.5171 -1.9312 -1.1347
 6931SOL     OW32428   0.443   0.219   3.410  0.1536 -0.3746  0.0512
 6931SOL    HW132429   0.501   0.213   3.334 -1.8747  0.7765 -1.5617
 6931SOL    HW232430   0.475   0.288   3.468 -0.0048 -1.8601  1.9268
 6932SOL     OW32431   2.481   0.341   1.616  0.2200  0.3627  0.1115
 6932SOL    HW132432   2.504   0.290   1.694  0.9090 -0.5823 -0.7077
 6932SOL    HW232433   2.458   0.424   1.657  0.5996  1.5706 -2.0929
 6933SOL     OW32434   2.541   2.838   3.508  0.2120  0.3264 -0.7474
 6933SOL    HW132435   2.525   2.903   3.439  0.8538  0.2127 -1.0010
 6933SOL    HW232436   2.589   2.777   3.453 -0.1595 -0.3752 -0.2890
 6934SOL     OW32437   1.749   1.448   5.282  0.0579  0.1440  0.0594
 6934SOL    HW132438   1.745   1.490   5.368  0.6337  0.9384 -0.2987
 6934SOL    HW232439   1.831   1.401   5.298  0.9059  1.0205 -1.6607
 6935SOL     OW32440   4.574   1.285  14.090  0.2100 -0.2219 -0.1028
 6935SOL    HW132441   4.488   1.267  14.053 -0.2482 -0.5120  1.1214
 6935SOL    HW232442   4.612   1.203  14.056  0.2491 -0.7457  1.1946
 6936SOL     OW32443   1.043   2.144   3.267  0.4989  0.0470  0.3375
 6936SOL    HW132444   1.067   2.234   3.291  1.5609 -0.7268  2.1556
 6936SOL    HW232445   1.086   2.097   3.338  0.3744  0.4542  0.6797
 6937SOL     OW32446   3.810   2.702   7.536  0.4671 -0.1265 -0.6065
 6937SOL    HW132447   3.764   2.765   7.481 -1.1981 -0.1477  0.7790
 6937SOL    HW232448   3.887   2.749   7.567 -0.2059  0.2881  0.4334
 6938SOL     OW32449   1.086   1.893   8.588 -0.2226 -0.2404 -0.2804
 6938SOL    HW132450   1.038   1.881   8.507  0.9557 -0.4161 -0.9407
 6938SOL    HW232451   1.032   1.849   8.653 -2.5387  0.6476 -1.5932
 6939SOL     OW32452   1.339   0.214   4.970  0.0642  0.0227  0.1567
 6939SOL    HW132453   1.341   0.270   4.893 -1.5465  1.7565  1.3797
 6939SOL    HW232454   1.400   0.152   4.931 -1.1101 -0.8846 -0.2263
 6940SOL     OW32455   3.327   2.145   4.983  0.4491 -0.0424  0.0236
 6940SOL    HW132456   3.358   2.110   5.067  3.2646 -0.4613 -1.1673
 6940SOL    HW232457   3.355   2.080   4.919 -0.9127 -0.9518  0.3612
 6941SOL     OW32458   0.598   0.859  10.274 -0.1378 -0.0494 -0.2679
 6941SOL    HW132459   0.584   0.936  10.328 -1.3994 -1.0862  0.8777
 6941SOL    HW232460   0.692   0.840  10.282  0.3438  2.2657 -0.3474
 6942SOL     OW32461   1.430   2.255   7.243  0.5709  0.9134 -0.1025
 6942SOL    HW132462   1.491   2.287   7.310  0.7876 -0.0192  0.1566
 6942SOL    HW232463   1.410   2.171   7.285 -1.2404  1.5257  0.2372
 6943SOL     OW32464   3.616   1.572   6.074  0.1988 -0.6521  0.7260
 6943SOL    HW132465   3.578   1.595   6.159  0.7925 -2.0243  1.3588
 6943SOL    HW232466   3.666   1.652   6.059  0.1334 -0.9570 -1.1382
 6944SOL     OW32467   0.139   1.749   6.392 -0.4334  0.0711 -0.4034
 6944SOL    HW132468   0.061   1.694   6.379 -0.3613 -0.3424  0.8633
 6944SOL    HW232469   0.149   1.752   6.487  0.2253 -1.3588 -0.4178
 6945SOL     OW32470   2.702   4.501   1.086 -0.4121  0.2338  0.3727
 6945SOL    HW132471   2.686   4.557   1.010 -3.3215  0.1802  0.9622
 6945SOL    HW232472   2.713   4.565   1.157 -1.1550 -0.6041  1.2400
 6946SOL     OW32473   2.467   2.930   8.360  0.1842  0.1132  0.1497
 6946SOL    HW132474   2.535   2.864   8.350  1.0188  0.7049  1.9837
 6946SOL    HW232475   2.517   3.006   8.330  0.3637  0.2773  0.8723
 6947SOL     OW32476   3.704   1.920   6.312 -0.0936 -0.2297 -0.4125
 6947SOL    HW132477   3.779   1.862   6.325  0.6750  1.0261  0.6845
 6947SOL    HW232478   3.737   2.000   6.352  1.8607 -0.7093 -1.0180
 6948SOL     OW32479   0.124   3.997   8.832  0.0801 -0.1330  0.1352
 6948SOL    HW132480   0.077   4.080   8.837 -0.3881 -0.2845 -1.7010
 6948SOL    HW232481   0.048   3.940   8.846  0.3925 -0.2025  1.5939
 6949SOL     OW32482   0.569   3.101   1.742 -0.6638  0.1199  0.0195
 6949SOL    HW132483   0.633   3.058   1.798 -1.7790 -0.2759  1.0019
 6949SOL    HW232484   0.570   3.195   1.759 -2.3718  0.2285 -0.3882
 6950SOL     OW32485   3.031   4.528  16.261  0.0736 -0.7154  0.0020
 6950SOL    HW132486   3.127   4.529  16.261  0.0839  0.0800 -1.8948
 6950SOL    HW232487   3.013   4.550  16.169  0.8419 -2.9009 -0.6715
 6951SOL     OW32488   3.975   3.102   2.319  0.8069 -0.0601 -0.2523
 6951SOL    HW132489   4.059   3.083   2.361  0.9199  1.0579  0.0188
 6951SOL    HW232490   3.997   3.092   2.226  0.3982  1.4851 -0.5143
 6952SOL     OW32491   4.445   2.399   2.271  0.1894  0.1996 -0.2944
 6952SOL    HW132492   4.497   2.432   2.344 -0.8509 -1.4345  1.1772
 6952SOL    HW232493   4.461   2.308   2.297  1.0865  0.8905  1.5338
 6953SOL     OW32494   2.180   4.133  14.340 -0.0035 -0.8686 -0.7285
 6953SOL    HW132495   2.095   4.138  14.296  0.3799 -0.5475 -1.4334
 6953SOL    HW232496   2.201   4.226  14.348 -2.5053 -0.4840  1.5622
 6954SOL     OW32497   0.880   4.436   6.951 -0.0603 -0.1058  0.5268
 6954SOL    HW132498   0.908   4.402   7.036  2.3093 -2.4078 -1.1485
 6954SOL    HW232499   0.797   4.477   6.975 -0.1442  0.2168 -0.2995
 6955SOL     OW32500   0.491   3.822   2.569 -0.1785  0.4502  0.2568
 6955SOL    HW132501   0.526   3.841   2.482  1.0573  0.6084  0.7865
 6955SOL    HW232502   0.425   3.891   2.582  1.0552  1.8053 -0.6948
 6956SOL     OW32503   4.109   3.000  17.459 -0.5882 -0.2135 -0.1176
 6956SOL    HW132504   4.031   2.977  17.408  0.2471 -0.4781 -1.2741
 6956SOL    HW232505   4.101   2.944  17.537  0.0259 -0.1302  0.0072
 6957SOL     OW32506   1.149   2.064  14.916 -0.3616  0.0851  0.1017
 6957SOL    HW132507   1.175   1.981  14.875 -0.0871  0.7830 -1.1335
 6957SOL    HW232508   1.142   2.115  14.835 -2.1312 -1.4834 -0.7428
 6958SOL     OW32509   2.549   1.234   5.049  0.0575  0.2361  0.3667
 6958SOL    HW132510   2.456   1.214   5.058 -0.0964  0.6383 -0.3466
 6958SOL    HW232511   2.553   1.314   5.101  0.5486  1.4838 -1.5790
 6959SOL     OW32512   2.370   3.929   3.824 -0.3187  0.1105 -0.2491
 6959SOL    HW132513   2.385   3.888   3.739 -0.0871  1.1635 -0.7073
 6959SOL    HW232514   2.459   3.924   3.861 -0.6253  0.8089  0.5802
 6960SOL     OW32515   1.908   3.406  11.290  0.2348 -0.3609  0.2325
 6960SOL    HW132516   1.991   3.445  11.320 -0.2837  0.0610  1.0996
 6960SOL    HW232517   1.901   3.335  11.354 -0.1022 -1.3962 -0.9670
 6961SOL     OW32518   3.485   4.266  15.250  0.1747  0.2359  0.0003
 6961SOL    HW132519   3.428   4.195  15.220  0.7270 -0.2701  0.1434
 6961SOL    HW232520   3.526   4.219  15.323 -0.1602 -0.9117 -0.5414
 6962SOL     OW32521   2.990   3.592  11.764 -0.5959 -0.1928 -0.0762
 6962SOL    HW132522   2.938   3.513  11.747 -1.2969  0.9334 -3.2079
 6962SOL    HW232523   2.996   3.645  11.684 -1.1523  0.5176  0.3512
 6963SOL     OW32524   4.286   0.811   7.518 -0.1091 -0.8912 -0.3501
 6963SOL    HW132525   4.223   0.844   7.583  1.4792 -1.7043  1.5918
 6963SOL    HW232526   4.268   0.718   7.509  2.3487 -1.6023  2.1775
 6964SOL     OW32527   2.033   4.428   8.690  0.0629 -0.6048  0.1251
 6964SOL    HW132528   2.092   4.476   8.748  0.5115  0.4724 -1.2168
 6964SOL    HW232529   2.089   4.352   8.672 -0.9335 -1.2740 -0.1478
 6965SOL     OW32530   2.848   2.146   6.366 -0.7174 -0.4422  0.9885
 6965SOL    HW132531   2.856   2.177   6.276 -0.6483 -3.3289  0.0151
 6965SOL    HW232532   2.798   2.067   6.346 -2.4687  0.5451  1.3854
 6966SOL     OW32533   1.446   2.487   4.010  0.2957  0.1386 -0.0881
 6966SOL    HW132534   1.487   2.415   4.057  0.4208 -0.0866 -0.5474
 6966SOL    HW232535   1.363   2.510   4.052  1.4701  3.0779  0.6715
 6967SOL     OW32536   1.988   0.212  14.131 -0.6321  0.4520  0.8111
 6967SOL    HW132537   1.938   0.131  14.136 -3.2837  1.8486 -2.8658
 6967SOL    HW232538   1.933   0.258  14.067 -0.1366  0.8405  0.6611
 6968SOL     OW32539   1.827   1.909   4.546 -0.2524 -0.5244 -0.1769
 6968SOL    HW132540   1.743   1.954   4.535  1.2211  2.5515  1.2040
 6968SOL    HW232541   1.869   1.962   4.614  0.1084 -0.4798 -0.4359
 6969SOL     OW32542   3.299   0.596   9.052  0.4502 -0.3882  0.4527
 6969SOL    HW132543   3.348   0.672   9.020 -0.8871  1.0215  1.7554
 6969SOL    HW232544   3.364   0.549   9.103 -1.3466 -3.4124 -0.0702
 6970SOL     OW32545   2.747   0.937   4.422  0.5259 -0.0006 -0.1528
 6970SOL    HW132546   2.803   0.894   4.487  1.1609  2.7102  1.1115
 6970SOL    HW232547   2.704   1.010   4.467 -0.0741 -0.7769  0.5452
 6971SOL     OW32548   3.814   2.670   9.104 -0.0113  0.2250  0.4221
 6971SOL    HW132549   3.729   2.713   9.107  0.6810  1.7464 -1.6506
 6971SOL    HW232550   3.830   2.662   9.198  1.1297  1.2710  0.3175
 6972SOL     OW32551   1.165   0.326   7.904 -0.2970  0.1879  0.1598
 6972SOL    HW132552   1.193   0.384   7.975 -0.2953 -0.2357  0.5044
 6972SOL    HW232553   1.146   0.388   7.834 -0.3058 -1.0457 -0.9184
 6973SOL     OW32554   2.389   3.751   4.713 -0.9061 -0.0762 -0.2783
 6973SOL    HW132555   2.294   3.750   4.706 -0.9275 -0.0742  0.0272
 6973SOL    HW232556   2.410   3.722   4.624  0.4709  1.9159 -0.5946
 6974SOL     OW32557   1.399   1.546  15.589  0.2471  0.4366 -0.0467
 6974SOL    HW132558   1.389   1.616  15.525  1.8404  0.9242  0.2426
 6974SOL    HW232559   1.489   1.560  15.619 -0.0046  0.4940  0.7006
 6975SOL     OW32560   3.928   0.165  10.805 -0.0485  0.5308  0.7397
 6975SOL    HW132561   4.020   0.144  10.792 -0.0629  0.9795 -0.0795
 6975SOL    HW232562   3.885   0.085  10.835  0.9058  0.7446  2.6859
 6976SOL     OW32563   3.008   4.131   7.682 -0.1504  0.1148 -0.0679
 6976SOL    HW132564   3.002   4.165   7.772  0.4986  0.2258 -0.0664
 6976SOL    HW232565   2.935   4.178   7.641 -0.4655 -0.7838 -0.5338
 6977SOL     OW32566   1.808   0.461   2.440 -0.5478 -1.1992  0.2417
 6977SOL    HW132567   1.848   0.380   2.471  0.1436 -1.3122 -0.9400
 6977SOL    HW232568   1.853   0.480   2.357  1.2411 -3.0657  0.7823
 6978SOL     OW32569   3.535   1.695   4.820  0.6165 -0.0166 -0.0441
 6978SOL    HW132570   3.561   1.658   4.736 -0.5605 -0.9795  0.0102
 6978SOL    HW232571   3.495   1.772   4.781  2.0386  1.3716  1.2397
 6979SOL     OW32572   1.857   1.572   8.862  0.1463 -0.3236  0.3004
 6979SOL    HW132573   1.801   1.568   8.940  0.7153 -1.0877  0.6680
 6979SOL    HW232574   1.799   1.610   8.796  4.7992  0.4306 -3.2898
 6980SOL     OW32575   4.397   2.233   8.822 -0.5141  0.5525  0.5557
 6980SOL    HW132576   4.349   2.294   8.877  0.7945 -0.6749  3.0644
 6980SOL    HW232577   4.444   2.290   8.761 -1.0797 -1.0364 -1.3830
 6981SOL     OW32578   4.002   0.231   6.816  0.1412  0.7549 -0.8779
 6981SOL    HW132579   3.941   0.258   6.748 -2.3650 -1.0212  0.6957
 6981SOL    HW232580   4.062   0.186   6.756 -3.4158 -1.0890 -3.0041
 6982SOL     OW32581   0.397   2.334  16.374 -0.2709  0.0624  0.0634
 6982SOL    HW132582   0.382   2.428  16.370 -1.3252 -0.0070  2.5110
 6982SOL    HW232583   0.441   2.307  16.293 -0.9199  1.3581 -0.7243
 6983SOL     OW32584   2.156   1.181   7.732 -0.2364 -0.0257 -0.2530
 6983SOL    HW132585   2.119   1.110   7.784  2.6260 -1.9742 -0.8512
 6983SOL    HW232586   2.249   1.160   7.719  0.4223  2.5467  0.2892
 6984SOL     OW32587   3.475   0.381  10.666  0.1671 -0.6234 -0.0203
 6984SOL    HW132588   3.452   0.313  10.602 -0.5876  0.9406 -1.3999
 6984SOL    HW232589   3.545   0.331  10.707 -0.6172 -0.6499  1.2786
 6985SOL     OW32590   4.067   4.570   7.219 -0.8043  0.9145  0.4958
 6985SOL    HW132591   4.144   4.626   7.224  0.8459 -1.2964  0.0305
 6985SOL    HW232592   4.094   4.510   7.149 -0.8419  2.9342 -1.2388
 6986SOL     OW32593   2.511   2.856   2.188 -0.7104  0.3956 -0.5213
 6986SOL    HW132594   2.547   2.786   2.242  0.3477  0.8099 -0.6924
 6986SOL    HW232595   2.443   2.888   2.247 -0.3148  0.6178 -0.1831
 6987SOL     OW32596   4.096   2.607  10.577  0.5828 -0.1401  0.0716
 6987SOL    HW132597   4.012   2.638  10.610  0.3842 -0.2322 -0.3474
 6987SOL    HW232598   4.070   2.515  10.564  3.7238 -0.7949 -1.8205
 6988SOL     OW32599   3.239   1.731   8.926 -0.3364  0.1533 -0.2751
 6988SOL    HW132600   3.156   1.701   8.889 -0.5079  1.0478 -0.6177
 6988SOL    HW232601   3.264   1.652   8.975 -0.9095  1.0585  1.4649
 6989SOL     OW32602   3.237   4.008   8.080  0.0066 -0.1121  0.7545
 6989SOL    HW132603   3.150   4.039   8.055 -0.5625 -2.4836 -0.2784
 6989SOL    HW232604   3.274   3.980   7.996 -2.1144  0.0718 -0.2572
 6990SOL     OW32605   0.578   3.521   7.094  0.1759  0.2413 -0.3702
 6990SOL    HW132606   0.668   3.500   7.071  0.3545  0.1463  0.4151
 6990SOL    HW232607   0.581   3.514   7.190  0.1225  0.1225 -0.3771
 6991SOL     OW32608   2.751   3.648   8.326  0.3521  0.6796  0.2166
 6991SOL    HW132609   2.756   3.690   8.240 -1.1194 -0.5027 -0.4432
 6991SOL    HW232610   2.657   3.635   8.338  0.1139  1.3459 -0.9142
 6992SOL     OW32611   2.357   2.470   6.197  0.6657  0.3073 -0.4316
 6992SOL    HW132612   2.270   2.443   6.225  1.2992 -1.3637 -0.1054
 6992SOL    HW232613   2.356   2.475   6.101 -0.9312 -0.3713 -0.4445
 6993SOL     OW32614   1.322   3.571   1.705 -0.4065 -0.3274 -0.1546
 6993SOL    HW132615   1.267   3.541   1.632 -1.1137  3.9152 -1.3828
 6993SOL    HW232616   1.405   3.591   1.661 -0.5648  0.2513 -0.1948
 6994SOL     OW32617   3.737   1.896   5.432 -0.3198 -0.3896  0.1366
 6994SOL    HW132618   3.732   1.876   5.339 -2.6245 -0.6433  0.3199
 6994SOL    HW232619   3.828   1.874   5.451 -0.4273 -1.5570 -0.7626
 6995SOL     OW32620   1.806   1.966   4.106  0.3696 -0.0381  0.1021
 6995SOL    HW132621   1.853   2.002   4.031  0.1051  0.5874  0.2384
 6995SOL    HW232622   1.852   2.014   4.176 -0.5152  0.2600  0.4738
 6996SOL     OW32623   2.418   4.636   3.230  0.0712 -0.5850  0.2524
 6996SOL    HW132624   2.447   4.693   3.302 -1.5019  0.7676 -0.2025
 6996SOL    HW232625   2.397   4.565   3.291 -0.7591 -0.8203 -0.3138
 6997SOL     OW32626   3.102   0.041   8.838 -0.4642 -0.3284  0.2779
 6997SOL    HW132627   3.127   0.009   8.925  1.9291 -1.3551 -0.8052
 6997SOL    HW232628   3.053   0.123   8.850 -1.4524 -0.6211 -1.8230
 6998SOL     OW32629   3.622   3.188   5.218  0.0420 -0.2111  0.3371
 6998SOL    HW132630   3.707   3.221   5.188 -0.0667  1.8705  2.3110
 6998SOL    HW232631   3.620   3.221   5.308 -1.6400  0.2983  0.1136
 6999SOL     OW32632   3.363   0.684   8.509 -0.7266 -0.1438  0.6588
 6999SOL    HW132633   3.400   0.610   8.557 -0.3209  0.5328  1.3835
 6999SOL    HW232634   3.315   0.736   8.572 -1.9488 -1.1258  0.5460
 7000SOL     OW32635   4.647   0.587   4.942  0.0001  0.0216 -0.7127
 7000SOL    HW132636   4.708   0.647   4.900  0.1274  0.3128 -0.1186
 7000SOL    HW232637   4.599   0.644   5.002 -1.7067 -1.6333 -0.5033
 7001SOL     OW32638   1.805   4.600   7.650 -0.3247  0.5034  0.4753
 7001SOL    HW132639   1.884   4.652   7.664  0.0005  0.0081  0.4342
 7001SOL    HW232640   1.827   4.517   7.608  4.1643  1.7737  0.3618
 7002SOL     OW32641   1.650   3.546   0.985 -0.4937  0.3009 -0.0338
 7002SOL    HW132642   1.734   3.569   1.025  0.2446 -2.1405 -0.1865
 7002SOL    HW232643   1.593   3.607   1.031 -0.6198  1.1434 -1.2999
 7003SOL     OW32644   2.944   1.487   1.926 -0.0991 -0.1464 -0.3327
 7003SOL    HW132645   2.855   1.454   1.910 -0.3865  0.4465  0.0509
 7003SOL    HW232646   2.912   1.566   1.970  0.5614 -1.4279  2.4448
 7004SOL     OW32647   0.201   2.624   1.814  0.2023 -0.6490  0.3186
 7004SOL    HW132648   0.221   2.623   1.720  0.2027  0.3783  0.3119
 7004SOL    HW232649   0.189   2.530   1.829  0.7832 -0.6211  0.9693
 7005SOL     OW32650   1.768   2.615   7.402  0.2923 -0.3393  0.4756
 7005SOL    HW132651   1.759   2.520   7.391  1.7773 -0.6277  1.8501
 7005SOL    HW232652   1.685   2.652   7.372  0.4185  0.2149  0.8161
 7006SOL     OW32653   1.691   2.529   6.766 -0.0403  0.1897  0.2805
 7006SOL    HW132654   1.711   2.620   6.743 -1.1699  0.2874 -0.3308
 7006SOL    HW232655   1.707   2.535   6.860  0.7307  0.8316  0.1068
 7007SOL     OW32656   3.995   4.276   3.715 -0.6398  0.5950 -0.0154
 7007SOL    HW132657   3.977   4.329   3.637 -2.4076 -2.7211 -1.8321
 7007SOL    HW232658   3.996   4.185   3.688 -0.0830  0.5847  0.0395
 7008SOL     OW32659   2.658   1.166   7.560  0.0033  0.4002  0.3210
 7008SOL    HW132660   2.742   1.211   7.575  0.0846 -0.2032  1.6151
 7008SOL    HW232661   2.684   1.087   7.513  1.3860  1.5234 -0.8257
 7009SOL     OW32662   0.464   1.913   5.555 -0.3290 -0.1121  0.0679
 7009SOL    HW132663   0.550   1.954   5.541 -0.4147  0.1375  0.2491
 7009SOL    HW232664   0.489   1.821   5.560  0.1944 -0.0063 -0.5653
 7010SOL     OW32665   4.496   2.845   9.369  0.0286 -0.0711 -0.3762
 7010SOL    HW132666   4.562   2.852   9.299 -0.9285 -0.1451 -1.2785
 7010SOL    HW232667   4.460   2.756   9.367  0.4823 -0.2620 -0.2892
 7011SOL     OW32668   0.254   4.432   3.964  0.2168  0.4194  0.0124
 7011SOL    HW132669   0.290   4.435   4.053 -0.4427 -0.4660  0.3100
 7011SOL    HW232670   0.160   4.426   3.980  0.0038  0.7877 -1.1498
 7012SOL     OW32671   3.477   0.901   2.696  0.0427  0.3820 -0.2152
 7012SOL    HW132672   3.563   0.891   2.655 -1.4634 -1.0611 -3.0133
 7012SOL    HW232673   3.421   0.848   2.639  1.2155 -0.0584 -0.9546
 7013SOL     OW32674   2.238   3.020   7.634  0.3265  0.3932 -0.1128
 7013SOL    HW132675   2.265   3.098   7.684  1.2040 -0.2712  0.4468
 7013SOL    HW232676   2.206   3.062   7.554 -0.9153  0.0436  0.2154
 7014SOL     OW32677   0.389   1.429  10.615  0.0548  0.4152 -1.0115
 7014SOL    HW132678   0.393   1.483  10.693 -1.5514 -0.8871 -0.0314
 7014SOL    HW232679   0.305   1.454  10.576 -0.2328  0.7259 -0.1957
 7015SOL     OW32680   4.015   0.327   8.532 -0.4918  0.2122 -0.7322
 7015SOL    HW132681   3.990   0.418   8.518 -0.9032  0.6318  2.8693
 7015SOL    HW232682   3.995   0.294   8.444 -2.3147  1.8568 -0.9476
 7016SOL     OW32683   0.121   0.687   4.475  0.1782 -0.4747 -0.0784
 7016SOL    HW132684   0.119   0.691   4.380  0.0880  1.0884 -0.0056
 7016SOL    HW232685   0.159   0.599   4.476  1.1976 -0.0272  0.5428
 7017SOL     OW32686   4.383   1.027   0.388  0.1524  0.0083  0.2235
 7017SOL    HW132687   4.479   1.026   0.389  0.1813  0.7655 -1.5073
 7017SOL    HW232688   4.369   0.964   0.317  0.6947 -1.5522  1.5067
 7018SOL     OW32689   0.461   1.213   4.608 -0.1024 -0.1602  0.6063
 7018SOL    HW132690   0.397   1.237   4.540  2.1724  2.3824 -0.6204
 7018SOL    HW232691   0.478   1.300   4.644 -0.2443 -0.6155  1.7736
 7019SOL     OW32692   2.965   0.170  12.840 -0.0440  0.3379 -0.2435
 7019SOL    HW132693   2.922   0.235  12.896  0.9993  0.4981  0.3646
 7019SOL    HW232694   2.911   0.092  12.826  0.8120 -0.9805  3.8332
 7020SOL     OW32695   4.382   0.190   3.532  1.0762  0.0828  0.3455
 7020SOL    HW132696   4.314   0.136   3.491 -0.0713  1.9439 -0.2336
 7020SOL    HW232697   4.466   0.156   3.501  1.6401 -0.8455  2.8205
 7021SOL     OW32698   0.663   4.359   2.726 -0.1796 -0.4676  0.6415
 7021SOL    HW132699   0.645   4.267   2.748  2.4880 -1.6463 -2.2213
 7021SOL    HW232700   0.609   4.393   2.798  0.1861 -0.1251  0.7515
 7022SOL     OW32701   2.710   2.056   3.240 -0.5587  0.2269 -0.5515
 7022SOL    HW132702   2.732   2.149   3.240  0.1385  0.0622 -0.1389
 7022SOL    HW232703   2.797   2.024   3.218 -0.3398  1.2276 -1.1433
 7023SOL     OW32704   0.118   0.053   4.156 -0.4904  0.0949 -0.1370
 7023SOL    HW132705   0.119   0.147   4.178  0.6624 -0.2795  1.4218
 7023SOL    HW232706   0.043   0.048   4.097  0.0614  0.5511 -0.8758
 7024SOL     OW32707   2.700   4.119   9.531  0.0542 -0.5787  0.5740
 7024SOL    HW132708   2.791   4.144   9.520  0.3620 -0.9237  2.2533
 7024SOL    HW232709   2.705   4.101   9.625  0.6896  1.0540  0.8533
 7025SOL     OW32710   1.742   1.945  15.781  0.0438  0.1129 -0.3241
 7025SOL    HW132711   1.781   2.019  15.828  0.3567 -0.6355  0.5938
 7025SOL    HW232712   1.779   1.872  15.830  1.0414  1.4121  0.8402
 7026SOL     OW32713   2.226   2.144   3.922  0.0345  0.1939 -0.0163
 7026SOL    HW132714   2.144   2.096   3.909 -0.2561  0.8210 -0.5042
 7026SOL    HW232715   2.252   2.180   3.838 -1.2182 -0.7705 -0.8025
 7027SOL     OW32716   4.052   3.381  14.961  0.5533  0.4618 -0.4424
 7027SOL    HW132717   4.079   3.321  14.892 -0.3010  2.4618 -2.5142
 7027SOL    HW232718   3.971   3.421  14.930 -1.3350 -2.0180  1.2507
 7028SOL     OW32719   0.313   1.325   9.214 -0.2828 -0.5274 -0.2214
 7028SOL    HW132720   0.278   1.350   9.299  2.0205 -1.3882  1.0016
 7028SOL    HW232721   0.360   1.247   9.243  0.9077  2.0832  4.8972
 7029SOL     OW32722   2.414   3.653   5.217 -0.2084  0.7839  0.3692
 7029SOL    HW132723   2.434   3.673   5.309 -0.3682  1.4218  0.2645
 7029SOL    HW232724   2.435   3.560   5.211  0.9721  1.1177 -0.5520
 7030SOL     OW32725   1.938   4.186   4.035 -0.0654 -0.2033  0.3908
 7030SOL    HW132726   1.990   4.107   4.023 -1.9245 -1.2628 -0.6043
 7030SOL    HW232727   1.930   4.204   3.942  0.5555  3.1653  0.9692
 7031SOL     OW32728   3.594   4.677   2.957  0.2625  0.0724 -0.7544
 7031SOL    HW132729   3.562   4.606   3.012 -0.0760 -0.0131 -1.0681
 7031SOL    HW232730   3.674   4.698   3.006  0.5820 -0.1799 -1.1685
 7032SOL     OW32731   3.245   0.118   4.247  0.1803 -0.3887 -0.0017
 7032SOL    HW132732   3.246   0.046   4.184  0.2199  0.7832 -1.3280
 7032SOL    HW232733   3.172   0.176   4.224 -0.3478 -1.4031 -0.8387
 7033SOL     OW32734   3.985   3.721  10.496  0.1470  0.1262 -0.3324
 7033SOL    HW132735   3.927   3.738  10.570  0.2814 -1.2535  0.0877
 7033SOL    HW232736   3.979   3.804  10.450 -2.3855  0.7392  1.1427
 7034SOL     OW32737   3.460   4.632  17.071  0.0691  0.3768 -0.2781
 7034SOL    HW132738   3.502   4.691  17.008  0.5668 -0.7641 -1.0229
 7034SOL    HW232739   3.392   4.690  17.105  0.9821  1.5857 -0.4772
 7035SOL     OW32740   1.896   1.744   7.409 -0.3095  0.3494 -0.1903
 7035SOL    HW132741   1.804   1.766   7.396 -0.4246  0.2436  0.4298
 7035SOL    HW232742   1.929   1.699   7.331  1.2702 -0.7530  1.1166
 7036SOL     OW32743   4.423   2.958   1.314 -0.2923 -0.4215 -0.3608
 7036SOL    HW132744   4.396   2.886   1.370  1.8926  0.8953  2.3581
 7036SOL    HW232745   4.468   2.916   1.241  1.6253  0.8505  0.1118
 7037SOL     OW32746   3.016   1.832   6.646  0.0496  0.0060  1.1123
 7037SOL    HW132747   3.076   1.869   6.581  1.2516  2.1721  3.4408
 7037SOL    HW232748   3.079   1.788   6.703  0.1809  0.3162  1.2082
 7038SOL     OW32749   3.579   3.283   5.472 -0.1616 -0.0368  0.6043
 7038SOL    HW132750   3.495   3.302   5.513 -0.5178 -0.5824  0.1293
 7038SOL    HW232751   3.616   3.239   5.548 -0.6511 -1.2002  0.1666
 7039SOL     OW32752   4.579   0.937   4.929 -0.7355  0.1821 -0.0506
 7039SOL    HW132753   4.537   0.928   4.843  0.7920  0.7172 -0.8602
 7039SOL    HW232754   4.527   0.871   4.975  0.3035 -0.9466 -0.4918
 7040SOL     OW32755   2.038   4.306  12.446  0.7735 -0.3656 -0.3158
 7040SOL    HW132756   2.105   4.310  12.515 -0.4427  0.1218  0.8293
 7040SOL    HW232757   2.050   4.398  12.423 -1.6551 -0.2128 -0.9242
 7041SOL     OW32758   1.746   0.159  16.920 -0.0903 -0.6373  0.0973
 7041SOL    HW132759   1.681   0.141  16.989  0.2016 -0.3178  0.4591
 7041SOL    HW232760   1.822   0.112  16.954  0.0338 -0.9554 -0.6418
 7042SOL     OW32761   1.525   0.574   8.999  0.2778  0.0196  0.1950
 7042SOL    HW132762   1.493   0.488   9.025 -2.0679 -0.2087 -3.5142
 7042SOL    HW232763   1.620   0.560   9.003 -0.0288 -2.0741 -0.0741
 7043SOL     OW32764   0.656   3.575   5.345  0.6336  0.3018  0.4244
 7043SOL    HW132765   0.576   3.627   5.348 -0.5967 -1.7125  2.1443
 7043SOL    HW232766   0.721   3.641   5.370 -0.1233  1.6549 -1.1419
 7044SOL     OW32767   1.357   3.328   8.451  0.1127 -0.0158  0.2085
 7044SOL    HW132768   1.316   3.358   8.370 -0.7107 -0.8988  0.3095
 7044SOL    HW232769   1.423   3.269   8.414  0.2095 -0.8987  1.8030
 7045SOL     OW32770   2.276   4.579   8.204  0.4380 -0.5568 -0.5627
 7045SOL    HW132771   2.221   4.519   8.155 -1.1850 -0.8882  1.6373
 7045SOL    HW232772   2.221   4.642   8.252 -0.8764 -1.6799 -0.6111
 7046SOL     OW32773   0.090   2.422   7.561 -0.2239 -0.3094  0.3452
 7046SOL    HW132774   0.124   2.508   7.538 -0.4086  0.1672  1.8231
 7046SOL    HW232775   0.019   2.417   7.497 -0.4663  2.5987  0.3933
 7047SOL     OW32776   1.381   1.579   5.336  0.0369 -0.1653  0.3109
 7047SOL    HW132777   1.379   1.485   5.354 -2.2026 -0.0233  0.7665
 7047SOL    HW232778   1.366   1.620   5.421 -0.2757 -2.8969  1.5868
 7048SOL     OW32779   2.093   2.461   5.715 -0.0525  0.2141  0.6120
 7048SOL    HW132780   2.076   2.412   5.635 -0.9965  1.8243 -0.1711
 7048SOL    HW232781   2.074   2.554   5.698 -4.0066 -0.7282 -0.2649
 7049SOL     OW32782   4.172   1.015   5.723 -0.1983  0.1054  0.0939
 7049SOL    HW132783   4.125   1.058   5.794  0.7904  3.4128 -1.2058
 7049SOL    HW232784   4.266   1.013   5.739 -0.3595 -1.6441  0.7806
 7050SOL     OW32785   3.694   2.935   8.562 -0.1565  0.7816 -0.0333
 7050SOL    HW132786   3.781   2.966   8.536  0.0879  1.3499  1.4532
 7050SOL    HW232787   3.705   2.842   8.582  0.1985  0.9348  0.4818
 7051SOL     OW32788   2.047   1.860   6.731 -0.0090 -0.6177 -0.4630
 7051SOL    HW132789   2.093   1.781   6.702  1.4987  0.1512 -0.1683
 7051SOL    HW232790   2.045   1.856   6.827  0.8644  0.6593 -0.3893
 7052SOL     OW32791   3.121   2.308   8.311  0.8176  0.1299  0.4147
 7052SOL    HW132792   3.180   2.372   8.351 -0.6915  0.8926  1.4241
 7052SOL    HW232793   3.125   2.231   8.368  1.4536  0.5010  0.8723
 7053SOL     OW32794   0.031   2.896  10.042 -0.1137 -0.6650  0.5457
 7053SOL    HW132795   0.054   2.902   9.949 -0.6472 -0.7405  0.4045
 7053SOL    HW232796   4.699   2.962  10.042  0.6959  0.1977 -0.2372
 7054SOL     OW32797   1.258   3.907   3.360 -0.6476  0.2278  0.2431
 7054SOL    HW132798   1.293   3.995   3.347 -1.3707  0.4049 -0.4601
 7054SOL    HW232799   1.289   3.879   3.447 -2.4106  1.5960  1.3138
 7055SOL     OW32800   1.211   4.245  17.690 -0.0967  0.2900  0.2705
 7055SOL    HW132801   1.222   4.189  17.614  1.6220  1.5895 -0.4309
 7055SOL    HW232802   1.157   4.183  17.740  3.1535 -1.1301  2.0454
 7056SOL     OW32803   1.482   1.964   0.226  0.3812  0.3226 -0.0665
 7056SOL    HW132804   1.509   1.895   0.166 -1.5646  0.5878 -1.2310
 7056SOL    HW232805   1.391   1.936   0.237  0.6432 -0.9425 -1.2014
 7057SOL     OW32806   0.137   4.133  12.529 -0.2609 -0.3231 -0.6382
 7057SOL    HW132807   0.043   4.124  12.546 -0.3102 -0.9236 -1.2118
 7057SOL    HW232808   0.145   4.061  12.466 -2.4839  2.2779 -3.8394
 7058SOL     OW32809   4.673   0.477  14.921  0.1165  0.3310  0.0838
 7058SOL    HW132810   4.735   0.531  14.969  0.8772 -1.0409  0.6577
 7058SOL    HW232811   4.625   0.443  14.997 -2.9355  1.0497 -1.5489
 7059SOL     OW32812   1.653   0.984   3.409  0.5222  0.1336 -0.6353
 7059SOL    HW132813   1.747   0.991   3.392  0.5013 -0.3109 -0.9237
 7059SOL    HW232814   1.633   1.057   3.468  2.2787  0.5642 -0.5925
 7060SOL     OW32815   1.498   1.071   7.056 -0.5620 -0.4757 -0.2786
 7060SOL    HW132816   1.582   1.057   7.100 -0.6674 -0.0883  0.0418
 7060SOL    HW232817   1.526   1.109   6.973  0.5997  1.3491  0.9354
 7061SOL     OW32818   4.151   0.012  10.799 -0.6189  0.7613 -0.3889
 7061SOL    HW132819   4.131   4.656  10.801  0.9315  0.4262 -0.0722
 7061SOL    HW232820   4.171   0.025  10.707  1.3718  0.9819  0.0762
 7062SOL     OW32821   1.250   0.807   9.538 -0.2841 -0.4778  0.2090
 7062SOL    HW132822   1.229   0.733   9.594  1.9866 -0.1148  1.5437
 7062SOL    HW232823   1.240   0.769   9.451  1.0233  0.9087 -0.5549
 7063SOL     OW32824   0.404   4.397   4.705 -0.1426  0.5278  0.0374
 7063SOL    HW132825   0.357   4.431   4.781 -0.2478 -0.9519  0.6377
 7063SOL    HW232826   0.491   4.430   4.726  0.8029 -2.0198  0.1472
 7064SOL     OW32827   4.204   0.760   6.248 -0.0039 -0.0732 -0.9794
 7064SOL    HW132828   4.140   0.831   6.246  0.2506  0.1711 -0.4961
 7064SOL    HW232829   4.230   0.766   6.340  0.8277  2.0400 -1.3459
 7065SOL     OW32830   2.304   0.572  16.479 -0.3783 -0.4159  0.2555
 7065SOL    HW132831   2.236   0.505  16.493  0.9478 -1.3507  2.2042
 7065SOL    HW232832   2.300   0.625  16.559  0.3833  0.7949 -0.5113
 7066SOL     OW32833   1.498   0.105  15.149 -0.0171 -0.2616  0.4620
 7066SOL    HW132834   1.455   0.167  15.090  1.7947 -0.3759 -0.9660
 7066SOL    HW232835   1.584   0.094  15.109 -0.0188 -0.4611  0.5126
 7067SOL     OW32836   0.460   4.303   3.783  0.1259  0.1662 -0.3951
 7067SOL    HW132837   0.377   4.327   3.823  1.0856  1.6178  0.7551
 7067SOL    HW232838   0.444   4.216   3.746 -2.4845  1.0603 -1.2924
 7068SOL     OW32839   0.337   0.758   6.219  0.0262 -0.3417  0.7106
 7068SOL    HW132840   0.323   0.853   6.220  0.9284 -0.1659 -1.5499
 7068SOL    HW232841   0.422   0.752   6.262  1.4120 -1.4862 -2.1417
 7069SOL     OW32842   1.998   3.736   0.480 -0.0396  0.3114 -0.3494
 7069SOL    HW132843   1.958   3.681   0.547  1.6084  0.0149  0.3927
 7069SOL    HW232844   1.922   3.742   0.422 -1.1470 -0.5639  1.0016
 7070SOL     OW32845   0.891   1.147  16.575 -0.0401  0.2814 -0.7013
 7070SOL    HW132846   0.968   1.102  16.608 -1.8566 -1.7443  0.8233
 7070SOL    HW232847   0.886   1.209  16.648  0.8898 -0.8382  0.3145
 7071SOL     OW32848   3.217   4.113   6.599 -0.4128  0.3559  0.2153
 7071SOL    HW132849   3.236   4.201   6.567 -2.2271  1.2168  1.5709
 7071SOL    HW232850   3.142   4.113   6.658 -0.1569  2.2200  0.5519
 7072SOL     OW32851   3.112   1.533   6.136  0.1916 -0.9717 -0.2212
 7072SOL    HW132852   3.204   1.508   6.139  0.0908 -1.3753 -0.4554
 7072SOL    HW232853   3.105   1.565   6.046 -1.1607  0.4033  0.3759
 7073SOL     OW32854   0.179   2.366   4.184 -0.0858  0.2197 -0.0810
 7073SOL    HW132855   0.221   2.449   4.208  0.9368  0.1933 -1.7900
 7073SOL    HW232856   0.088   2.392   4.195 -0.6900 -2.0628  0.1906
 7074SOL     OW32857   0.368   2.457   7.151 -0.3756 -0.6031  0.4026
 7074SOL    HW132858   0.388   2.471   7.243  1.4912 -2.1371  0.2399
 7074SOL    HW232859   0.368   2.363   7.168  1.7420 -1.1356 -2.4889
 7075SOL     OW32860   3.371   2.837   8.198 -0.2716  0.1089  0.0260
 7075SOL    HW132861   3.425   2.774   8.150  0.9926  0.2684  1.2293
 7075SOL    HW232862   3.375   2.907   8.132 -1.5838  0.7301  0.6197
 7076SOL     OW32863   0.102   1.812  13.783 -0.5446  0.2431 -0.3511
 7076SOL    HW132864   0.041   1.847  13.848 -0.6602 -3.1057  1.3172
 7076SOL    HW232865   0.096   1.725  13.821  3.5112  0.1178 -0.0470
 7077SOL     OW32866   1.845   4.734   1.948  0.5302  0.1080 -0.5475
 7077SOL    HW132867   1.848   0.090   1.931 -0.8363  0.0351 -1.1163
 7077SOL    HW232868   1.820   4.728   2.041  1.0711 -0.1429 -0.4148
 7078SOL     OW32869   3.668   4.719   1.034  0.1252  0.3047 -0.1727
 7078SOL    HW132870   3.741   4.664   1.005  0.0870 -0.1362  0.5609
 7078SOL    HW232871   3.657   4.671   1.116  0.7020  1.3695  0.5181
 7079SOL     OW32872   1.563   4.477   6.253  0.2496  0.0455  0.0941
 7079SOL    HW132873   1.632   4.531   6.293 -0.4876 -0.1328  1.6253
 7079SOL    HW232874   1.497   4.546   6.243 -1.3620 -1.2765  1.7457
 7080SOL     OW32875   1.431   1.270   0.387 -0.7380 -0.5852 -0.2881
 7080SOL    HW132876   1.399   1.237   0.471  3.8743  1.5098  2.3004
 7080SOL    HW232877   1.407   1.362   0.396 -0.5671 -0.6175  0.5215
 7081SOL     OW32878   2.363   2.768  11.224  0.0051  0.3862 -0.1235
 7081SOL    HW132879   2.345   2.741  11.134  2.3332  0.4139 -0.6155
 7081SOL    HW232880   2.277   2.752  11.263  0.4158  0.5596  0.8711
 7082SOL     OW32881   0.392   4.645   4.502 -0.0191 -0.0495 -0.0147
 7082SOL    HW132882   0.306   4.607   4.483  0.4735 -1.5436  0.6836
 7082SOL    HW232883   0.440   4.562   4.496 -0.7384 -0.5937  1.7610
 7083SOL     OW32884   3.887   1.816   9.359 -0.3924  1.0417  0.2799
 7083SOL    HW132885   3.969   1.768   9.348 -0.1724  1.6998 -0.9134
 7083SOL    HW232886   3.897   1.843   9.450 -1.1180  0.1164  0.6318
 7084SOL     OW32887   4.246   0.457   1.319  0.5733 -0.8492 -0.1673
 7084SOL    HW132888   4.256   0.424   1.409  0.0791 -0.4562  0.0331
 7084SOL    HW232889   4.303   0.406   1.262  0.2425  0.7935 -1.9346
 7085SOL     OW32890   0.488   4.220   5.765 -0.2923  0.0653  0.5792
 7085SOL    HW132891   0.495   4.191   5.856 -1.1008  0.6202  0.8212
 7085SOL    HW232892   0.579   4.248   5.755 -0.6817  0.6866 -1.2786
 7086SOL     OW32893   2.465   2.492   7.391 -0.4857  0.6350 -0.3291
 7086SOL    HW132894   2.385   2.452   7.424  0.1291 -1.0130 -0.8670
 7086SOL    HW232895   2.456   2.584   7.416  1.6824  0.6634  0.3244
 7087SOL     OW32896   3.347   4.060   2.615  0.1697 -0.2740  0.2142
 7087SOL    HW132897   3.409   4.055   2.543 -0.8646  3.1188 -0.9190
 7087SOL    HW232898   3.408   4.073   2.687 -1.3466  1.4317  1.2121
 7088SOL     OW32899   4.318   1.441   2.636 -0.7304  0.0668  0.5344
 7088SOL    HW132900   4.288   1.353   2.660  0.3380 -0.9339 -1.7589
 7088SOL    HW232901   4.234   1.484   2.649 -1.0486 -0.5727  0.5887
 7089SOL     OW32902   1.958   4.196  14.168  0.1191 -0.4546 -0.3678
 7089SOL    HW132903   1.900   4.267  14.193  0.0638 -0.4118 -0.6190
 7089SOL    HW232904   1.905   4.157  14.099 -0.8423 -0.1778  0.2137
 7090SOL     OW32905   0.429   4.240   1.812 -0.4947  0.1526 -0.3675
 7090SOL    HW132906   0.421   4.160   1.760 -1.4091 -0.1852  0.2891
 7090SOL    HW232907   0.522   4.223   1.830 -0.4665  0.9693  0.2289
 7091SOL     OW32908   2.542   2.139   9.819 -0.1410 -0.4455  0.0300
 7091SOL    HW132909   2.621   2.119   9.869 -1.2321  0.7981  2.2842
 7091SOL    HW232910   2.507   2.216   9.864  2.6938  1.4674 -1.0258
 7092SOL     OW32911   1.964   2.551   9.578  0.2022 -0.4099 -0.4426
 7092SOL    HW132912   1.927   2.525   9.663  0.5653  1.8702  0.3980
 7092SOL    HW232913   2.016   2.470   9.573  0.9963 -0.2135  3.8679
 7093SOL     OW32914   3.516   4.678  12.973 -0.3974 -0.0093 -0.4855
 7093SOL    HW132915   3.547   0.031  12.978 -2.2033  0.6328 -1.0202
 7093SOL    HW232916   3.559   4.639  13.049 -0.4349 -0.0930 -0.5071
 7094SOL     OW32917   1.025   2.395   7.386  0.5319 -0.2002  0.5560
 7094SOL    HW132918   0.937   2.432   7.398  1.6719  2.3872  1.1413
 7094SOL    HW232919   1.000   2.306   7.411  0.4787 -1.0199 -2.4357
 7095SOL     OW32920   0.740   2.584   2.992 -0.7256 -1.1085  0.2296
 7095SOL    HW132921   0.805   2.513   2.988 -0.9038 -1.2901  0.6571
 7095SOL    HW232922   0.693   2.541   3.063  0.1302  0.3333  1.6760
 7096SOL     OW32923   0.781   0.357  10.770  0.0674  0.2742 -0.1135
 7096SOL    HW132924   0.737   0.328  10.850  2.2483  0.9026  1.3332
 7096SOL    HW232925   0.798   0.277  10.720 -2.6294 -0.1562 -0.3234
 7097SOL     OW32926   0.924   1.779   7.127  0.5832  0.2452  0.5142
 7097SOL    HW132927   0.844   1.830   7.136  0.1857  0.1277 -2.2947
 7097SOL    HW232928   0.902   1.689   7.151 -1.4993  0.9917  1.3790
 7098SOL     OW32929   2.636   3.285   8.261 -0.1272  0.0481  0.0396
 7098SOL    HW132930   2.644   3.192   8.238  0.9995  0.2298 -0.2946
 7098SOL    HW232931   2.579   3.317   8.191  0.5810  0.4064 -0.3749
 7099SOL     OW32932   0.099   0.091   8.863 -0.2071  0.2599  0.5548
 7099SOL    HW132933   0.006   0.083   8.841  0.1267  0.3700 -0.8698
 7099SOL    HW232934   0.099   0.169   8.919 -1.9409  0.3636  0.4188
 7100SOL     OW32935   2.624   1.180  12.950  0.3799 -0.0401  0.2293
 7100SOL    HW132936   2.555   1.129  12.993 -0.6010  1.0520 -0.0569
 7100SOL    HW232937   2.637   1.127  12.871  0.2221 -0.4426  0.4714
 7101SOL     OW32938   2.092   0.423   6.382 -0.1730 -0.4623  0.4021
 7101SOL    HW132939   2.044   0.444   6.303  0.6543 -0.5432 -0.1210
 7101SOL    HW232940   2.130   0.510   6.393  0.9235 -0.7980 -0.7817
 7102SOL     OW32941   2.932   3.711   8.699 -0.1360  0.4629 -0.5643
 7102SOL    HW132942   2.886   3.766   8.636 -0.9587  0.4843  0.0462
 7102SOL    HW232943   2.887   3.744   8.777  0.8130  1.4483 -0.4376
 7103SOL     OW32944   0.624   4.737  17.572  0.6514 -0.2635  0.1781
 7103SOL    HW132945   0.632   0.069  17.637 -2.2016  0.1872  0.0322
 7103SOL    HW232946   0.531   4.723  17.557  0.5824  3.0902 -2.5297
 7104SOL     OW32947   2.133   3.468   7.490  0.3226  0.3415 -0.4295
 7104SOL    HW132948   2.118   3.492   7.399 -2.7714 -0.8358 -0.2293
 7104SOL    HW232949   2.085   3.539   7.534  0.2423 -0.8944  1.4904
 7105SOL     OW32950   3.850   3.544   8.465 -0.5096 -0.0257  0.4255
 7105SOL    HW132951   3.940   3.558   8.497 -0.4355 -0.9355  0.6230
 7105SOL    HW232952   3.835   3.630   8.426  0.3112 -0.3894 -0.7066
 7106SOL     OW32953   1.224   1.457  15.777  0.1316  0.1610  0.5244
 7106SOL    HW132954   1.162   1.530  15.769  0.2146  0.3312  1.4217
 7106SOL    HW232955   1.299   1.484  15.724 -0.5072 -0.0777 -0.4883
 7107SOL     OW32956   2.242   2.669   7.516 -0.2225  0.8823  0.4065
 7107SOL    HW132957   2.238   2.576   7.538  0.9474  0.6541 -0.3283
 7107SOL    HW232958   2.169   2.691   7.459  0.7635  1.3063 -0.6946
 7108SOL     OW32959   2.404   4.433   3.422  0.4716 -0.4312  0.2199
 7108SOL    HW132960   2.445   4.371   3.362  1.1557  0.3438 -0.1194
 7108SOL    HW232961   2.323   4.390   3.448  1.1927 -1.1105  1.3157
 7109SOL     OW32962   4.178   0.160   8.876 -0.2293  0.2171 -0.1837
 7109SOL    HW132963   4.137   0.117   8.801  1.3220 -0.8101 -0.4608
 7109SOL    HW232964   4.129   0.122   8.948  1.9670  0.2912  1.3559
 7110SOL     OW32965   1.829   0.169  16.666  0.1440 -0.1825  0.2608
 7110SOL    HW132966   1.793   0.163  16.755 -1.2741 -1.7738 -0.4288
 7110SOL    HW232967   1.902   0.107  16.675  0.3671  0.0574  0.1112
 7111SOL     OW32968   0.919   3.489   9.226  0.8372 -0.6392 -0.4380
 7111SOL    HW132969   0.895   3.572   9.184 -1.2569  0.0321  2.1327
 7111SOL    HW232970   1.009   3.470   9.199  1.1781 -0.7420  0.7856
 7112SOL     OW32971   0.896   3.693   3.202 -0.0106  0.2948 -0.6899
 7112SOL    HW132972   0.887   3.611   3.251  0.9880  0.1980 -0.6493
 7112SOL    HW232973   0.910   3.762   3.267  0.0647 -1.8141  1.5434
 7113SOL     OW32974   1.939   3.507   8.221 -0.5126  0.2595 -0.6069
 7113SOL    HW132975   1.862   3.477   8.269  0.7120  0.1447  1.2629
 7113SOL    HW232976   2.012   3.484   8.279 -0.8921 -1.4692 -0.7989
 7114SOL     OW32977   3.912   4.114   4.350  0.6404  0.7231  0.5175
 7114SOL    HW132978   3.909   4.208   4.331  0.1888  0.6612  0.2711
 7114SOL    HW232979   3.899   4.070   4.266 -1.1099 -0.6197  1.4922
 7115SOL     OW32980   4.649   2.523   4.203 -0.6828  0.1356 -0.5873
 7115SOL    HW132981   4.680   2.613   4.212  3.3355 -1.3188  0.2771
 7115SOL    HW232982   4.558   2.538   4.227 -0.6406  0.7943 -0.8531
 7116SOL     OW32983   1.332   4.076   7.910 -0.4335 -0.0788 -0.3565
 7116SOL    HW132984   1.397   4.141   7.938  0.5572 -0.9202 -0.7249
 7116SOL    HW232985   1.313   4.026   7.990 -0.6454  1.0480  0.3079
 7117SOL     OW32986   0.001   2.982   7.778 -0.7902  0.1620  0.1119
 7117SOL    HW132987   0.048   2.904   7.810 -0.6141 -0.7294 -2.3689
 7117SOL    HW232988   4.654   2.939   7.767  0.9683 -2.7337 -1.9560
 7118SOL     OW32989   2.018   0.642   0.546 -0.7639 -0.0290 -0.0050
 7118SOL    HW132990   1.981   0.620   0.461 -0.3672 -2.0810  0.3582
 7118SOL    HW232991   2.112   0.638   0.529 -1.0376 -3.5118 -0.7053
 7119SOL     OW32992   0.995   4.559  12.401  0.0291 -0.4449  0.0671
 7119SOL    HW132993   0.992   4.466  12.423 -0.6437 -0.8139 -1.5807
 7119SOL    HW232994   1.004   4.545  12.306 -0.7891  0.9085 -0.2246
 7120SOL     OW32995   3.545   2.280   2.318  0.2597  1.0577 -1.3703
 7120SOL    HW132996   3.466   2.247   2.360  1.1337 -0.4965 -0.9305
 7120SOL    HW232997   3.543   2.248   2.228 -1.4804  0.5938 -1.1598
 7121SOL     OW32998   1.770   2.798   9.959  0.2729 -0.1181 -0.4815
 7121SOL    HW132999   1.681   2.835   9.954 -0.0385 -0.5290  1.8860
 7121SOL    HW233000   1.786   2.812   9.866 -0.1627 -1.8934 -0.8185
 7122SOL     OW33001   4.493   4.156  13.208  0.1302 -0.1339 -0.4711
 7122SOL    HW133002   4.400   4.133  13.200  0.2032  0.1445 -2.1249
 7122SOL    HW233003   4.493   4.212  13.130  0.5371  1.6621  0.8222
 7123SOL     OW33004   1.294   2.430   2.367  0.7938  0.3024  0.1788
 7123SOL    HW133005   1.331   2.479   2.441 -1.0966  0.0044  1.3003
 7123SOL    HW233006   1.265   2.502   2.312 -1.4609 -0.7825 -0.0203
 7124SOL     OW33007   4.280   2.434   5.959 -0.1006 -0.2368 -0.6414
 7124SOL    HW133008   4.327   2.501   5.907 -0.6406  0.0067 -0.8173
 7124SOL    HW233009   4.288   2.479   6.043 -0.3078 -1.2718 -0.0712
 7125SOL     OW33010   4.478   4.638  10.238  0.3910 -0.6370  0.1296
 7125SOL    HW133011   4.463   4.556  10.191  1.3667 -1.4831  1.2658
 7125SOL    HW233012   4.453   4.605  10.325  0.2683 -1.4542 -0.2196
 7126SOL     OW33013   1.158   4.398   1.018  0.6000  0.6674  0.5706
 7126SOL    HW133014   1.131   4.336   0.949  0.4614 -1.3601  2.4638
 7126SOL    HW233015   1.252   4.386   1.005 -0.1683 -1.3679 -3.1654
 7127SOL     OW33016   0.489   2.770   4.304 -0.4318  0.0010 -0.4152
 7127SOL    HW133017   0.460   2.806   4.387 -2.0315  0.3451 -1.1136
 7127SOL    HW233018   0.539   2.850   4.290  0.7447 -0.5242  0.7245
 7128SOL     OW33019   1.215   0.751  10.129  0.2337 -0.0779  0.2245
 7128SOL    HW133020   1.238   0.659  10.142 -1.9165 -0.5144  0.8129
 7128SOL    HW233021   1.125   0.740  10.101  0.4624  2.2734 -1.4264
 7129SOL     OW33022   1.752   2.489   5.291  0.0251  0.5014 -0.1317
 7129SOL    HW133023   1.669   2.449   5.263 -0.4140  1.3268 -0.0120
 7129SOL    HW233024   1.805   2.410   5.280  0.1734  0.6496 -0.4714
 7130SOL     OW33025   4.533   1.051   2.623  0.4990 -0.3798 -0.7764
 7130SOL    HW133026   4.571   0.964   2.608 -0.3135 -0.8596 -0.0544
 7130SOL    HW233027   4.440   1.028   2.621  0.5604 -0.4579 -2.3097
 7131SOL     OW33028   1.909   3.609   4.517  0.1639  0.1302  0.1067
 7131SOL    HW133029   1.996   3.581   4.490 -0.3187 -0.4076 -0.8587
 7131SOL    HW233030   1.893   3.686   4.462  2.3213  1.0747  0.7815
 7132SOL     OW33031   1.721   1.573   2.714  0.7766  0.4793  0.0316
 7132SOL    HW133032   1.807   1.533   2.726  0.6839  0.1514 -0.3799
 7132SOL    HW233033   1.672   1.502   2.673  2.0184 -1.0108  1.1262
 7133SOL     OW33034   0.161   0.668   6.441  0.0609 -0.2752 -0.6269
 7133SOL    HW133035   0.073   0.665   6.405  0.2250  1.5985 -1.1608
 7133SOL    HW233036   0.213   0.701   6.368 -0.2977 -1.2013 -1.2945
 7134SOL     OW33037   0.385   0.185  13.171  0.5705 -0.0295  0.5430
 7134SOL    HW133038   0.414   0.121  13.106 -2.9682  1.3498 -2.3969
 7134SOL    HW233039   0.467   0.231  13.187  0.4224  0.0260  1.1485
 7135SOL     OW33040   2.677   3.408   5.774 -0.3607 -0.1123  0.0173
 7135SOL    HW133041   2.724   3.469   5.718 -0.7453  0.8068  0.6960
 7135SOL    HW233042   2.722   3.421   5.857 -0.1506  1.9265 -0.4238
 7136SOL     OW33043   1.536   3.285   1.567  0.6680 -1.0879 -0.0589
 7136SOL    HW133044   1.511   3.231   1.492  0.0995  0.6547 -1.1570
 7136SOL    HW233045   1.597   3.348   1.527  0.5434 -0.9946 -0.1046
 7137SOL     OW33046   2.939   4.111   3.886 -0.8796 -0.2399 -0.1456
 7137SOL    HW133047   2.888   4.189   3.863  0.8285  0.2050 -2.4105
 7137SOL    HW233048   2.999   4.141   3.955 -1.5201 -0.7173  0.6114
 7138SOL     OW33049   1.450   2.881   4.065 -0.1414 -0.3450  0.3966
 7138SOL    HW133050   1.447   2.970   4.031  1.2841 -0.1302  0.8229
 7138SOL    HW233051   1.537   2.860   4.031  0.1603 -0.5340  1.2996
 7139SOL     OW33052   4.151   0.613  13.614 -0.0478  0.3351 -0.2876
 7139SOL    HW133053   4.143   0.682  13.679 -1.5032 -0.0518 -0.0756
 7139SOL    HW233054   4.146   0.529  13.660  1.6482 -1.2118 -2.8718
 7140SOL     OW33055   3.098   1.641   9.632  0.0622  0.3935 -0.1508
 7140SOL    HW133056   3.009   1.659   9.664  0.6244  3.2482 -0.1657
 7140SOL    HW233057   3.096   1.675   9.542 -1.8671 -1.1390 -0.6868
 7141SOL     OW33058   0.790   4.135  16.928 -0.3932 -0.8951 -0.0460
 7141SOL    HW133059   0.871   4.111  16.884 -0.8187  1.8537 -2.3223
 7141SOL    HW233060   0.791   4.230  16.914 -1.1449 -0.9017 -0.1471
 7142SOL     OW33061   2.692   3.013   8.174  0.8509  0.2168  0.5817
 7142SOL    HW133062   2.649   2.964   8.104 -0.6779 -0.1802  1.8106
 7142SOL    HW233063   2.780   2.985   8.147  0.9964  1.2419 -0.0270
 7143SOL     OW33064   1.698   0.613  12.458 -0.0806 -0.2901  0.4070
 7143SOL    HW133065   1.698   0.538  12.398  1.6619 -2.4618  3.1416
 7143SOL    HW233066   1.728   0.569  12.537  0.4768 -1.8526 -0.6702
 7144SOL     OW33067   1.347   3.395  10.318 -0.2864 -0.1155  0.1600
 7144SOL    HW133068   1.379   3.402  10.228 -1.6133 -0.7759 -0.3605
 7144SOL    HW233069   1.282   3.465  10.329 -0.3640 -0.2545  0.5938
 7145SOL     OW33070   1.551   2.907   3.111  0.3073 -0.1216 -0.0660
 7145SOL    HW133071   1.620   2.971   3.130  0.1157  0.0523  0.0470
 7145SOL    HW233072   1.558   2.831   3.168  1.8765 -0.4900 -0.7454
 7146SOL     OW33073   3.974   1.320   6.814  0.7564  0.3540 -0.1205
 7146SOL    HW133074   4.058   1.287   6.782  0.1823 -0.8070 -0.4467
 7146SOL    HW233075   3.987   1.316   6.909  1.3365 -1.3465 -0.2753
 7147SOL     OW33076   1.040   0.225   5.023  0.7024 -0.0576 -0.1654
 7147SOL    HW133077   1.131   0.208   5.001  0.9009  2.6697 -1.4076
 7147SOL    HW233078   1.014   0.151   5.079 -0.7677  1.4810  1.1893
 7148SOL     OW33079   0.411   0.054   6.485  0.2052  0.5960 -0.0656
 7148SOL    HW133080   0.437   0.015   6.402  1.0237 -1.7741  1.3016
 7148SOL    HW233081   0.362   4.721   6.527  1.6959  1.0066  2.3814
 7149SOL     OW33082   0.604   1.454   7.973 -0.5988  0.2186 -0.2138
 7149SOL    HW133083   0.680   1.411   8.012  0.0358  1.6271  0.1225
 7149SOL    HW233084   0.614   1.427   7.881 -0.9692  1.6873 -0.6846
 7150SOL     OW33085   3.592   0.370   9.542 -0.2910 -0.1488 -0.5507
 7150SOL    HW133086   3.663   0.348   9.483 -0.1507 -1.9721  0.2895
 7150SOL    HW233087   3.583   0.465   9.539  2.8024  0.2597  2.6322
 7151SOL     OW33088   1.066   0.863  15.423 -0.7330 -0.2878 -0.2231
 7151SOL    HW133089   0.982   0.829  15.454 -0.0900  0.6009  2.5019
 7151SOL    HW233090   1.061   0.848  15.329  0.2744 -1.1258 -0.1460
 7152SOL     OW33091   2.176   4.284   3.492  0.3855  0.6997  0.1862
 7152SOL    HW133092   2.152   4.253   3.579 -0.5755  0.0680 -0.3043
 7152SOL    HW233093   2.174   4.204   3.439 -2.9793  1.1550 -0.3594
 7153SOL     OW33094   1.184   2.429   7.706  0.3250  0.2979 -0.2548
 7153SOL    HW133095   1.187   2.497   7.638 -1.2020 -0.3186 -0.9437
 7153SOL    HW233096   1.273   2.395   7.706  0.8236  1.5928 -0.6875
 7154SOL     OW33097   2.596   0.675   4.549  0.0268  0.3590 -0.4970
 7154SOL    HW133098   2.516   0.656   4.500  0.6143 -0.1202 -1.2754
 7154SOL    HW233099   2.585   0.768   4.566 -0.6841  0.1042  0.4781
 7155SOL     OW33100   0.586   3.922  13.929  0.2675 -0.3233 -0.2041
 7155SOL    HW133101   0.511   3.864  13.916 -1.3244  2.1416 -2.1212
 7155SOL    HW233102   0.601   3.897  14.020 -2.5181 -1.6891 -0.0999
 7156SOL     OW33103   3.847   3.269   9.089  0.1298  0.2226 -0.0458
 7156SOL    HW133104   3.824   3.214   9.014  0.7363 -0.9826  0.6512
 7156SOL    HW233105   3.832   3.210   9.163 -0.1854 -0.6162 -0.7850
 7157SOL     OW33106   3.734   2.546  12.942 -0.3471 -0.0418  0.5560
 7157SOL    HW133107   3.763   2.632  12.973  0.8329 -0.2917  0.1345
 7157SOL    HW233108   3.657   2.545  12.999 -1.6008 -0.0624 -1.1444
 7158SOL     OW33109   4.701   1.151  15.762  0.1202  0.1667 -0.0408
 7158SOL    HW133110   4.702   1.224  15.700  2.3342 -0.7824 -1.1346
 7158SOL    HW233111   0.041   1.098  15.744 -0.9328 -0.7962 -1.7196
 7159SOL     OW33112   4.581   2.861  10.397 -0.2703 -0.0205  0.6042
 7159SOL    HW133113   4.488   2.883  10.404  0.2308  1.4453  2.4951
 7159SOL    HW233114   4.617   2.949  10.397  2.5924 -1.1980 -1.8690
 7160SOL     OW33115   4.018   3.809   5.862  0.1443 -0.1802  0.6060
 7160SOL    HW133116   3.996   3.886   5.811 -3.5063 -0.6200  1.5453
 7160SOL    HW233117   3.996   3.839   5.951 -2.0898 -0.0838  0.0118
 7161SOL     OW33118   3.282   3.005   9.225  0.5833  0.4252 -0.4010
 7161SOL    HW133119   3.311   2.992   9.135  0.4166 -0.8559 -0.2732
 7161SOL    HW233120   3.252   3.095   9.219 -1.5636 -0.1820  1.3309
 7162SOL     OW33121   1.809   4.409  11.802 -0.1818  0.2049 -0.5474
 7162SOL    HW133122   1.889   4.357  11.805 -0.7973 -0.6487  0.9000
 7162SOL    HW233123   1.795   4.450  11.888  3.0701  1.5290 -0.6492
 7163SOL     OW33124   0.556   0.538  12.336 -0.0837 -0.1819  0.3321
 7163SOL    HW133125   0.463   0.548  12.316  0.4275  1.7603 -1.0694
 7163SOL    HW233126   0.582   0.628  12.316  0.9674 -0.3656  0.8685
 7164SOL     OW33127   0.010   1.334   4.610 -0.0355  0.6712 -0.1375
 7164SOL    HW133128   4.718   1.407   4.665 -0.7345 -0.6602  1.2520
 7164SOL    HW233129   4.669   1.314   4.560 -0.7226 -0.1227  1.2565
 7165SOL     OW33130   1.559   0.448  10.987 -0.4484  0.0313 -0.2673
 7165SOL    HW133131   1.576   0.497  11.068 -2.4819  0.1356  0.0865
 7165SOL    HW233132   1.632   0.386  10.980  0.2574  0.7592  0.6625
 7166SOL     OW33133   2.058   4.223  10.861 -0.3640  0.1222  0.0182
 7166SOL    HW133134   1.967   4.252  10.853  0.7477  3.9218  1.0237
 7166SOL    HW233135   2.041   4.130  10.876  0.7120 -0.1588 -0.5856
 7167SOL     OW33136   3.437   2.029   6.425  0.0717 -0.0748  0.2570
 7167SOL    HW133137   3.497   2.104   6.426 -1.1820  0.9306 -0.7762
 7167SOL    HW233138   3.492   1.952   6.412 -0.6886 -0.4302 -0.8153
 7168SOL     OW33139   1.039   0.059   7.593 -0.0189 -0.3528  0.0307
 7168SOL    HW133140   1.084   0.012   7.522 -0.3108 -0.4489 -0.0907
 7168SOL    HW233141   0.950   0.024   7.589 -0.0063 -0.3337 -0.3718
 7169SOL     OW33142   1.681   3.296   4.741  0.2982  0.2403 -0.1363
 7169SOL    HW133143   1.653   3.279   4.651  0.1749 -1.3550  0.1885
 7169SOL    HW233144   1.716   3.383   4.722  0.6684  0.2456  0.5808
 7170SOL     OW33145   2.915   1.028   6.870 -0.6017 -0.6731 -0.2758
 7170SOL    HW133146   2.902   0.933   6.870  2.9896 -1.1757  0.5898
 7170SOL    HW233147   2.900   1.052   6.778  2.0664  2.2502  0.0473
 7171SOL     OW33148   1.042   3.784   3.649  0.4078 -0.1171 -0.1127
 7171SOL    HW133149   1.130   3.752   3.630  0.1904  0.8841 -2.8221
 7171SOL    HW233150   1.002   3.704   3.683 -0.8702  0.4113 -0.3620
 7172SOL     OW33151   3.347   3.887   5.482 -0.2441 -0.3836  0.1435
 7172SOL    HW133152   3.339   3.913   5.391 -0.1278 -1.4282 -0.1723
 7172SOL    HW233153   3.260   3.909   5.515  0.1569  1.4285 -0.0300
 7173SOL     OW33154   0.227   1.278   3.344 -0.0391  0.5529 -0.2424
 7173SOL    HW133155   0.184   1.214   3.287 -0.3701  0.9844 -0.4743
 7173SOL    HW233156   0.306   1.290   3.290  1.4191 -0.3390  1.6922
 7174SOL     OW33157   3.266   1.640   6.404 -0.1411  0.1809 -0.0732
 7174SOL    HW133158   3.208   1.564   6.398  1.2168 -1.0114  1.6644
 7174SOL    HW233159   3.341   1.603   6.451  0.6922  2.3512  0.2888
 7175SOL     OW33160   3.414   3.644   3.850 -0.4181  0.1663  0.1074
 7175SOL    HW133161   3.429   3.728   3.806 -0.7526  0.6428  0.8983
 7175SOL    HW233162   3.347   3.668   3.914 -0.5921 -1.7692  0.6414
 7176SOL     OW33163   0.106   1.008   3.616  0.3056 -0.5800 -0.3335
 7176SOL    HW133164   0.192   1.038   3.644  1.0962 -3.0070 -0.2113
 7176SOL    HW233165   0.134   0.978   3.529 -0.5859  0.7822 -1.1065
 7177SOL     OW33166   0.505   4.087   8.831 -0.2920  0.4936  0.3394
 7177SOL    HW133167   0.593   4.107   8.802  1.0205 -4.1385  1.1626
 7177SOL    HW233168   0.512   4.114   8.922 -1.1890 -0.0612  0.5778
 7178SOL     OW33169   3.692   1.288  13.516 -0.5597  0.4220  0.5409
 7178SOL    HW133170   3.746   1.210  13.514 -0.1909  0.7325 -1.2062
 7178SOL    HW233171   3.649   1.273  13.432  1.4540 -1.6858 -0.0941
 7179SOL     OW33172   3.326   2.379   7.093  0.3412  0.0073 -0.3755
 7179SOL    HW133173   3.261   2.418   7.151 -0.8573  0.3042 -1.9467
 7179SOL    HW233174   3.398   2.369   7.156 -1.5415 -1.4588  1.5539
 7180SOL     OW33175   3.768   2.892   2.149  0.4613 -0.2629  0.0631
 7180SOL    HW133176   3.758   2.954   2.077 -0.5757  0.4501  0.8102
 7180SOL    HW233177   3.673   2.884   2.160  0.3954  1.4892  0.7373
 7181SOL     OW33178   3.769   3.262   3.898 -0.0218  0.1288 -0.0349
 7181SOL    HW133179   3.740   3.252   3.807  0.7063 -1.0234 -0.1452
 7181SOL    HW233180   3.737   3.352   3.903  0.1018  0.2134 -0.8128
 7182SOL     OW33181   2.650   3.977   2.424  0.2671  0.3535 -0.3543
 7182SOL    HW133182   2.730   4.002   2.472  0.1240  1.5872 -0.7581
 7182SOL    HW233183   2.654   3.883   2.442 -0.9162  0.4231  0.2507
 7183SOL     OW33184   0.786   0.728  11.592  0.2261 -0.4844  0.0949
 7183SOL    HW133185   0.812   0.813  11.557 -0.1497  0.1073  1.2672
 7183SOL    HW233186   0.827   0.724  11.678 -1.4981 -1.0487  0.8923
 7184SOL     OW33187   2.498   3.966   4.242 -0.2921 -0.1136  0.3917
 7184SOL    HW133188   2.459   4.031   4.182 -1.2236 -2.4949 -1.5725
 7184SOL    HW233189   2.587   4.000   4.247 -0.6997  0.7482  1.7668
 7185SOL     OW33190   3.416   3.837   9.374 -0.3727 -0.1557 -0.3687
 7185SOL    HW133191   3.459   3.752   9.368 -0.9979 -0.4850 -0.1840
 7185SOL    HW233192   3.487   3.888   9.413  0.5919 -2.4082  0.8313
 7186SOL     OW33193   1.711   3.864   5.304  0.5886  0.2229 -0.9776
 7186SOL    HW133194   1.641   3.814   5.262 -0.8447 -0.5522  2.2973
 7186SOL    HW233195   1.697   3.834   5.394  0.2104 -0.6265 -1.3216
 7187SOL     OW33196   3.193   4.416   3.334 -0.0101 -0.4945 -0.4719
 7187SOL    HW133197   3.177   4.480   3.265 -0.4058  2.3658  2.2913
 7187SOL    HW233198   3.285   4.437   3.353 -0.4464 -0.4151  1.4761
 7188SOL     OW33199   4.290   3.120   5.933  0.5375  0.2861  1.0274
 7188SOL    HW133200   4.375   3.147   5.900  0.4106 -2.7774 -1.8829
 7188SOL    HW233201   4.274   3.043   5.878 -0.1324  0.6694  0.6754
 7189SOL     OW33202   3.466   3.617   2.110 -0.1671  0.1162  0.1234
 7189SOL    HW133203   3.554   3.589   2.137  0.2802  1.0051 -0.4258
 7189SOL    HW233204   3.473   3.607   2.015  0.0963 -0.1410  0.1667
 7190SOL     OW33205   3.123   2.951   2.812  0.2536 -0.0943  0.0837
 7190SOL    HW133206   3.053   3.004   2.851 -0.7198 -1.6819  0.5117
 7190SOL    HW233207   3.077   2.886   2.759 -2.2433  1.1118  0.7805
 7191SOL     OW33208   1.003   1.089   2.431 -0.7326  0.0527  0.2883
 7191SOL    HW133209   0.912   1.064   2.415 -0.7918  0.4602 -0.0130
 7191SOL    HW233210   1.010   1.159   2.366 -1.1849  0.7884  1.0227
 7192SOL     OW33211   1.837   3.722   8.811  0.4135  0.3997 -0.4092
 7192SOL    HW133212   1.858   3.733   8.904  2.1082 -1.7423 -0.5414
 7192SOL    HW233213   1.924   3.701   8.778  0.4065 -2.5191  1.4125
 7193SOL     OW33214   1.550   0.395   5.110 -0.0743 -0.1064 -0.7951
 7193SOL    HW133215   1.492   0.392   5.034 -1.7455 -2.4970  0.5881
 7193SOL    HW233216   1.567   0.489   5.110  2.1165 -0.5045  1.4932
 7194SOL     OW33217   3.772   0.277   3.456  0.4618 -0.2385  0.1380
 7194SOL    HW133218   3.762   0.293   3.362  2.1093  0.7365  0.1326
 7194SOL    HW233219   3.713   0.339   3.499 -1.4654 -2.1522  0.2268
 7195SOL     OW33220   4.604   4.424   6.658  0.1344  0.4628  0.2218
 7195SOL    HW133221   4.594   4.420   6.563  0.1917  3.3651  0.0647
 7195SOL    HW233222   4.641   4.340   6.684 -1.8230 -0.0527  1.4033
 7196SOL     OW33223   0.289   4.541  17.330  0.4554  0.3094  0.0870
 7196SOL    HW133224   0.196   4.561  17.321 -0.4291 -3.1884  1.4060
 7196SOL    HW233225   0.290   4.446  17.339 -1.7872  0.4349  1.8164
 7197SOL     OW33226   4.720   1.315   0.782  0.6137  0.2997 -0.0840
 7197SOL    HW133227   4.684   1.229   0.808 -0.2712  1.0286  1.1063
 7197SOL    HW233228   4.737   1.306   0.688 -1.8917 -2.3726 -0.2949
 7198SOL     OW33229   2.025   4.582  12.530  0.4083 -1.0710 -0.6463
 7198SOL    HW133230   2.078   4.643  12.581 -2.1215  1.5956 -1.1760
 7198SOL    HW233231   1.967   4.638  12.479 -0.7679  0.1581  2.0438
 7199SOL     OW33232   4.537   1.011   6.407  0.0829 -0.2177  0.8841
 7199SOL    HW133233   4.442   1.023   6.405  0.1556  0.0844 -0.6236
 7199SOL    HW233234   4.559   1.005   6.500  2.1133  0.0287  0.4105
 7200SOL     OW33235   1.476   3.554   3.729 -0.4599  0.6215  0.0531
 7200SOL    HW133236   1.416   3.522   3.796 -0.5708  0.1587 -0.2702
 7200SOL    HW233237   1.564   3.567   3.763 -0.3588  0.2569 -0.0718
 7201SOL     OW33238   0.806   3.343   8.021  0.0760  0.4955 -0.2243
 7201SOL    HW133239   0.815   3.262   7.970 -1.1751  0.9699 -1.2027
 7201SOL    HW233240   0.711   3.334   8.025  0.1002  1.8471  2.8710
 7202SOL     OW33241   2.175   0.655   3.858  0.4314 -0.3178 -0.1337
 7202SOL    HW133242   2.153   0.735   3.907  3.0935 -0.6487  1.5651
 7202SOL    HW233243   2.099   0.654   3.800 -0.6314 -3.9330  1.3221
 7203SOL     OW33244   0.112   2.914   7.507 -0.1094 -0.1890  0.6308
 7203SOL    HW133245   0.202   2.942   7.520 -0.1545  0.3188 -0.1594
 7203SOL    HW233246   0.079   2.958   7.585 -0.3592  0.2082  0.2998
 7204SOL     OW33247   1.070   2.286   0.613  0.0913 -0.0255  0.3318
 7204SOL    HW133248   1.061   2.205   0.562  0.7154 -1.7215  2.9018
 7204SOL    HW233249   0.995   2.329   0.573  0.6045 -0.3489 -0.9617
 7205SOL     OW33250   3.432   2.617   2.011 -1.0321 -0.1266  0.2887
 7205SOL    HW133251   3.458   2.667   2.088  2.2764  0.8551 -1.4631
 7205SOL    HW233252   3.437   2.687   1.946 -0.1557 -0.4753 -0.0260
 7206SOL     OW33253   2.804   1.020   2.591  0.2630  0.4628  0.4419
 7206SOL    HW133254   2.878   1.058   2.544  0.4605 -0.5664 -0.0789
 7206SOL    HW233255   2.735   1.076   2.555  1.7282  0.4431 -2.3649
 7207SOL     OW33256   0.185   3.926   6.204 -0.1922  0.2734  0.4863
 7207SOL    HW133257   0.182   4.013   6.243  0.4209 -0.6092  2.5136
 7207SOL    HW233258   0.280   3.916   6.197 -0.7932 -3.9839 -1.7923
 7208SOL     OW33259   2.229   2.056   7.068 -0.0227 -0.4005 -0.6642
 7208SOL    HW133260   2.250   2.125   7.132 -1.6701 -1.4751  1.0506
 7208SOL    HW233261   2.217   2.105   6.987 -0.6065  2.0761  0.8967
 7209SOL     OW33262   0.881   3.377  10.028  0.2510  0.3460  0.7755
 7209SOL    HW133263   0.866   3.294   9.982 -1.9811  0.7419  0.7694
 7209SOL    HW233264   0.915   3.436   9.960 -2.0476  0.7911  0.0142
 7210SOL     OW33265   2.897   2.151   1.091  0.2242 -0.0420  0.0852
 7210SOL    HW133266   2.937   2.087   1.150  0.1143  0.3577  0.5878
 7210SOL    HW233267   2.807   2.123   1.111  0.2794  1.4367  2.3768
 7211SOL     OW33268   0.486   1.461   5.301  0.3254 -0.1600  0.1353
 7211SOL    HW133269   0.441   1.409   5.235 -0.3639  2.4059 -1.4030
 7211SOL    HW233270   0.447   1.548   5.294  2.0678  0.9488  4.0911
 7212SOL     OW33271   2.713   3.080   7.804  0.7479  0.3198  0.3194
 7212SOL    HW133272   2.708   3.117   7.716  4.3965  1.7334  0.6867
 7212SOL    HW233273   2.634   3.104   7.852  0.8709  0.3500  0.5074
 7213SOL     OW33274   2.552   4.300   5.523 -0.2110 -0.4191 -0.0672
 7213SOL    HW133275   2.538   4.255   5.606  1.6149  1.8965  1.4997
 7213SOL    HW233276   2.468   4.277   5.483 -0.5263  1.7233 -0.6506
 7214SOL     OW33277   2.851   0.306  13.386  0.2051  0.4180 -0.8804
 7214SOL    HW133278   2.893   0.326  13.470 -0.6000  0.9449 -0.6115
 7214SOL    HW233279   2.906   0.236  13.351 -1.4380 -2.3831  2.1038
 7215SOL     OW33280   2.159   1.297  10.576  0.9848  0.3078 -0.4583
 7215SOL    HW133281   2.110   1.367  10.619  0.6370  0.6554 -1.4207
 7215SOL    HW233282   2.177   1.243  10.653 -1.6775 -0.3333 -0.2815
 7216SOL     OW33283   0.831   0.978  11.507  0.2295 -0.1084  0.3607
 7216SOL    HW133284   0.779   0.975  11.427 -1.0366 -0.4189  1.2058
 7216SOL    HW233285   0.770   1.030  11.559 -0.1612  1.6309 -1.8487
 7217SOL     OW33286   4.167   4.251  16.414  0.0402  0.4826  0.6203
 7217SOL    HW133287   4.165   4.237  16.508 -1.1290  1.2633  0.7125
 7217SOL    HW233288   4.200   4.340  16.401  0.7419  0.5133  2.6325
 7218SOL     OW33289   0.375   3.444   6.188  0.0125  0.3499  0.1457
 7218SOL    HW133290   0.386   3.532   6.222  1.8140  0.1620  0.0497
 7218SOL    HW233291   0.467   3.431   6.164 -0.1531 -2.2653  0.8622
 7219SOL     OW33292   3.486   4.610   7.744 -0.7500  0.6646  0.3755
 7219SOL    HW133293   3.506   4.552   7.670  0.1914  1.1394  0.2580
 7219SOL    HW233294   3.391   4.620   7.737 -0.7360  0.7313  0.2766
 7220SOL     OW33295   2.319   1.163  12.799  0.6291  0.4042 -0.1854
 7220SOL    HW133296   2.368   1.093  12.843 -1.9919  0.9822  3.6337
 7220SOL    HW233297   2.312   1.217  12.877 -0.3444 -1.2679  0.8769
 7221SOL     OW33298   3.227   3.314   3.708  1.0274 -0.2390 -0.0828
 7221SOL    HW133299   3.235   3.407   3.685  0.7302 -0.2398 -0.1839
 7221SOL    HW233300   3.159   3.323   3.775  1.1184 -2.2650  0.2853
 7222SOL     OW33301   0.150   4.687   5.340 -0.6993  0.1810  0.0382
 7222SOL    HW133302   0.101   4.644   5.410 -0.3943 -1.3319 -0.6758
 7222SOL    HW233303   0.077   4.710   5.282 -1.1212  0.2543  0.5999
 7223SOL     OW33304   0.619   2.430   3.166  0.2874  0.1664  0.2120
 7223SOL    HW133305   0.645   2.340   3.180 -0.6378 -0.3561 -1.4035
 7223SOL    HW233306   0.652   2.475   3.244 -0.3138  0.0883  0.5152
 7224SOL     OW33307   0.733   2.406   6.979  0.8583 -0.1230  0.1119
 7224SOL    HW133308   0.668   2.461   7.024  0.9710  1.0936 -1.1930
 7224SOL    HW233309   0.712   2.428   6.888 -2.1606  1.1643  1.0971
 7225SOL     OW33310   3.807   2.375   3.033 -0.1474 -0.3941  0.5015
 7225SOL    HW133311   3.822   2.464   2.999 -1.1592  0.8237  3.2603
 7225SOL    HW233312   3.882   2.374   3.093  1.8751  0.4696 -1.9819
 7226SOL     OW33313   2.359   1.762   0.300  0.0218 -0.0215  0.2967
 7226SOL    HW133314   2.418   1.834   0.322 -0.3908  0.4061  0.0112
 7226SOL    HW233315   2.394   1.740   0.214 -0.3030  0.1283  0.1262
 7227SOL     OW33316   1.744   0.060  11.996 -0.1817 -0.8073 -0.4718
 7227SOL    HW133317   1.776   0.114  11.924 -2.9788  1.0478 -0.3346
 7227SOL    HW233318   1.672   0.106  12.039 -0.0422  1.1442 -2.2987
 7228SOL     OW33319   2.743   2.859   7.536 -0.4708  0.4183 -0.1078
 7228SOL    HW133320   2.647   2.852   7.530 -0.4328 -0.4197  0.2599
 7228SOL    HW233321   2.769   2.829   7.449 -0.5107  0.4663 -0.1362
 7229SOL     OW33322   4.319   3.159  10.227 -0.1367  0.2333  0.2458
 7229SOL    HW133323   4.356   3.244  10.252 -1.0445  0.8565 -0.5303
 7229SOL    HW233324   4.269   3.180  10.149 -0.6400  2.2907  1.1266
 7230SOL     OW33325   1.739   2.900   6.348 -0.4040  0.1162  0.1954
 7230SOL    HW133326   1.787   2.983   6.349 -1.2955  0.6384  0.3093
 7230SOL    HW233327   1.678   2.923   6.278 -1.1012  0.1585  0.8077
 7231SOL     OW33328   0.899   2.491   0.263  0.1681 -0.2127 -0.1328
 7231SOL    HW133329   0.858   2.565   0.219 -0.5045 -0.5995 -0.1610
 7231SOL    HW233330   0.958   2.461   0.194 -2.4602 -0.8772 -2.1160
 7232SOL     OW33331   1.697   1.966  12.525  0.2019 -0.4444 -0.7040
 7232SOL    HW133332   1.753   1.922  12.460 -1.2772 -0.2825 -2.0731
 7232SOL    HW233333   1.718   2.059  12.517 -1.7634  0.1202  0.7554
 7233SOL     OW33334   1.388   4.078   5.608  0.2266 -0.4436 -0.2160
 7233SOL    HW133335   1.461   4.135   5.586 -0.4319  1.3173  2.2410
 7233SOL    HW233336   1.419   4.038   5.689  0.3625 -0.1683 -0.1343
 7234SOL     OW33337   0.564   0.391  16.644  0.3438  0.2105  0.5904
 7234SOL    HW133338   0.637   0.329  16.653 -0.6641 -1.2969 -1.6385
 7234SOL    HW233339   0.627   0.463  16.634 -0.7101  1.3535  2.2844
 7235SOL     OW33340   3.200   1.356   2.686 -0.1376 -0.7270  0.4215
 7235SOL    HW133341   3.174   1.380   2.597  0.4192  1.0654  0.7476
 7235SOL    HW233342   3.111   1.358   2.724 -0.6432 -0.5457 -0.7834
 7236SOL     OW33343   2.501   2.522  15.333  0.5391  0.2351  0.1304
 7236SOL    HW133344   2.432   2.458  15.345 -0.3925  1.2926  0.4026
 7236SOL    HW233345   2.460   2.554  15.253 -2.3537 -0.3265  1.3750
 7237SOL     OW33346   1.865   2.695  16.669  0.7629  0.2834  0.0892
 7237SOL    HW133347   1.935   2.751  16.704 -1.2347  2.9381 -0.1988
 7237SOL    HW233348   1.914   2.650  16.600 -2.3753 -3.2380  0.1526
 7238SOL     OW33349   2.912   0.437   6.084 -0.3896  0.0362 -0.2054
 7238SOL    HW133350   2.853   0.471   6.017 -1.6083  0.7316  1.2131
 7238SOL    HW233351   2.846   0.376   6.114 -0.3225  0.1848  0.2445
 7239SOL     OW33352   4.454   2.298   1.976  0.4555 -0.0950 -0.0864
 7239SOL    HW133353   4.451   2.314   2.070  0.4330 -2.2118  0.2656
 7239SOL    HW233354   4.471   2.387   1.946 -2.1075  0.6393  0.5858
 7240SOL     OW33355   1.018   3.380   6.577  0.4251  0.1219  0.0221
 7240SOL    HW133356   0.953   3.442   6.609  0.1091  0.2109 -0.8044
 7240SOL    HW233357   1.096   3.433   6.592  0.2519 -0.2737  2.2924
 7241SOL     OW33358   2.392   1.803  15.931  0.0677 -0.2192  0.0879
 7241SOL    HW133359   2.357   1.744  15.998 -0.5156 -0.0580 -0.0740
 7241SOL    HW233360   2.314   1.820  15.878 -0.9452 -0.1489  1.6322
 7242SOL     OW33361   3.587   0.500   3.452 -0.1624  0.0560 -0.4029
 7242SOL    HW133362   3.520   0.540   3.506  0.9364  0.1589  0.8779
 7242SOL    HW233363   3.552   0.504   3.363 -1.6518 -2.1186  0.0825
 7243SOL     OW33364   4.565   2.110   5.614  0.3472 -0.6003  0.5407
 7243SOL    HW133365   4.570   2.067   5.699 -1.3398 -1.8363  0.0161
 7243SOL    HW233366   4.471   2.103   5.598  0.1105  0.0176  1.6785
 7244SOL     OW33367   1.676   3.540   7.060  0.2738  0.0468 -0.2088
 7244SOL    HW133368   1.674   3.628   7.022  1.9973  1.1103  2.1767
 7244SOL    HW233369   1.597   3.499   7.023 -0.4674  0.9486  0.3820
 7245SOL     OW33370   3.065   0.796  16.969  0.3298 -0.5215 -0.4365
 7245SOL    HW133371   3.064   0.850  17.048 -1.6883  0.9566 -1.4846
 7245SOL    HW233372   2.974   0.794  16.941  0.1250  2.8792  0.0608
 7246SOL     OW33373   0.083   4.154  12.135  0.6975  0.3028  0.1287
 7246SOL    HW133374   0.055   4.194  12.053 -1.0020  0.7177  0.9100
 7246SOL    HW233375   0.078   4.058  12.125  2.2924  0.2361 -0.0500
 7247SOL     OW33376   4.701   2.189   3.928  0.7800  0.0515  0.6875
 7247SOL    HW133377   4.615   2.224   3.950  1.4811  2.5557 -0.6419
 7247SOL    HW233378   4.718   2.135   4.006  3.4731 -2.6498 -1.7389
 7248SOL     OW33379   3.725   2.612  11.673  0.0244  0.2485 -0.0903
 7248SOL    HW133380   3.640   2.637  11.709 -0.2223 -2.1386  1.0024
 7248SOL    HW233381   3.775   2.693  11.682 -1.9240  1.1441  2.7461
 7249SOL     OW33382   2.034   4.507   4.788 -0.4389  0.3862  0.1517
 7249SOL    HW133383   1.991   4.458   4.858 -1.1227 -1.2242 -1.3927
 7249SOL    HW233384   2.116   4.457   4.792  0.7792  2.3703 -0.6127
 7250SOL     OW33385   4.166   2.230   4.439  0.0055 -0.2726 -0.0582
 7250SOL    HW133386   4.107   2.175   4.490 -0.8110  0.8040  0.1389
 7250SOL    HW233387   4.249   2.206   4.481 -1.5626 -0.7558  2.7470
 7251SOL     OW33388   1.255   2.293   0.307 -0.4370  0.3847  0.3549
 7251SOL    HW133389   1.221   2.223   0.252 -0.6310  0.0415  0.9071
 7251SOL    HW233390   1.205   2.370   0.282  2.0977  1.3050 -1.8146
 7252SOL     OW33391   0.564   2.951   3.894  0.3236  0.2051 -0.3597
 7252SOL    HW133392   0.520   2.884   3.945  0.7346 -0.6053 -1.0727
 7252SOL    HW233393   0.554   2.914   3.806 -0.6288  0.4657 -0.3645
 7253SOL     OW33394   2.803   1.903   5.121 -0.2794 -0.2405 -0.1982
 7253SOL    HW133395   2.819   1.843   5.048 -0.1143  0.0539 -0.4053
 7253SOL    HW233396   2.823   1.850   5.198  0.9214  1.3672  0.6117
 7254SOL     OW33397   3.213   2.190  16.188 -0.1345 -0.2551  0.0632
 7254SOL    HW133398   3.245   2.150  16.268 -1.2514  2.3902  1.8446
 7254SOL    HW233399   3.146   2.125  16.168  1.2231 -2.0817  1.4662
 7255SOL     OW33400   3.387   0.825   2.975 -0.3605 -0.2070 -0.6584
 7255SOL    HW133401   3.472   0.854   3.007 -0.4401 -0.0107 -0.6182
 7255SOL    HW233402   3.431   0.756   2.926  1.0777 -2.2066  3.5259
 7256SOL     OW33403   0.323   3.972   2.905  0.0045  0.0730  0.0250
 7256SOL    HW133404   0.297   4.052   2.951  1.2724  0.0481  0.7790
 7256SOL    HW233405   0.252   3.964   2.842 -0.7745 -2.9159  1.2779
 7257SOL     OW33406   1.747   3.635  10.292  0.1590  0.1601  0.1683
 7257SOL    HW133407   1.772   3.555  10.339  1.3859  0.3698 -0.1329
 7257SOL    HW233408   1.779   3.608  10.206 -0.1027  0.3293  0.0181
 7258SOL     OW33409   1.857   2.668  15.473 -0.2089  0.0899  0.1859
 7258SOL    HW133410   1.875   2.716  15.392  0.3316  0.4160  0.4966
 7258SOL    HW233411   1.768   2.640  15.450 -0.9392  1.6202  1.0766
 7259SOL     OW33412   2.080   3.792  11.417 -0.1322  0.5538  0.2678
 7259SOL    HW133413   2.064   3.835  11.333  1.0035 -0.7907 -0.6199
 7259SOL    HW233414   2.171   3.820  11.420 -0.6288  2.0497  1.5504
 7260SOL     OW33415   0.164   2.510  13.078 -0.0910 -0.7526  0.5444
 7260SOL    HW133416   0.200   2.473  12.997  1.3071  0.9919  0.3748
 7260SOL    HW233417   0.091   2.561  13.044  1.9008  1.3789 -0.5094
 7261SOL     OW33418   1.847   4.411   4.563 -0.4775  0.9931 -0.3548
 7261SOL    HW133419   1.858   4.498   4.523  0.7764 -0.3842 -3.0260
 7261SOL    HW233420   1.846   4.436   4.655 -0.7387  0.6487 -0.2632
 7262SOL     OW33421   2.419   0.784  12.076  0.3671  0.4783  0.5826
 7262SOL    HW133422   2.385   0.873  12.064 -0.2619  0.3749  1.6031
 7262SOL    HW233423   2.498   0.776  12.022  0.8363 -0.2544  1.3759
 7263SOL     OW33424   3.960   4.450   5.969 -0.4113 -0.4909  0.0767
 7263SOL    HW133425   3.878   4.474   6.011  0.0779 -0.7107  1.1482
 7263SOL    HW233426   4.014   4.519   6.005 -0.3182  1.0019 -2.9208
 7264SOL     OW33427   1.962   3.663   4.132  0.5850 -0.3107  0.2314
 7264SOL    HW133428   2.025   3.681   4.062 -0.0319 -2.1737 -0.7967
 7264SOL    HW233429   1.975   3.570   4.147  0.0376 -0.3247  0.6222
 7265SOL     OW33430   4.278   2.201   1.402  0.5150  0.2042 -0.1659
 7265SOL    HW133431   4.359   2.240   1.434 -0.1296  2.3306 -1.0900
 7265SOL    HW233432   4.257   2.156   1.483  1.1107 -0.8518 -0.6005
 7266SOL     OW33433   1.573   4.461   5.076  0.2059  0.2110 -0.1217
 7266SOL    HW133434   1.537   4.545   5.105  2.5577  1.2134 -0.0676
 7266SOL    HW233435   1.646   4.472   5.137 -0.6947  1.6037  0.7221
 7267SOL     OW33436   4.350   1.477  10.327 -0.1872  0.4113 -0.0884
 7267SOL    HW133437   4.446   1.474  10.326 -0.1917  0.8704 -1.2902
 7267SOL    HW233438   4.329   1.419  10.254 -1.0875  0.0416  0.4627
 7268SOL     OW33439   0.647   2.621   5.573 -0.3945 -0.3941  0.1190
 7268SOL    HW133440   0.679   2.578   5.493  0.1069 -0.5681  0.4109
 7268SOL    HW233441   0.637   2.714   5.552 -1.2784 -0.5656 -0.2250
 7269SOL     OW33442   1.018   0.736   5.114 -1.1258 -0.1303  0.2302
 7269SOL    HW133443   0.990   0.648   5.140 -0.8938 -0.1564  0.3921
 7269SOL    HW233444   0.972   0.794   5.174 -1.6232  2.5559 -2.7540
 7270SOL     OW33445   1.775   2.174  17.747 -0.2887  0.1344  0.2888
 7270SOL    HW133446   1.819   2.193  17.665  0.9439  0.7926  1.0948
 7270SOL    HW233447   1.845   2.200   0.059 -1.8917 -0.3937  2.4104
 7271SOL     OW33448   1.866   1.143   8.707 -0.2124  0.4516  0.3264
 7271SOL    HW133449   1.957   1.123   8.685 -0.2643  1.9921 -1.3147
 7271SOL    HW233450   1.854   1.099   8.791  2.1259 -0.8150 -0.0153
 7272SOL     OW33451   2.937   1.936   3.988  0.2985 -0.0042  0.1212
 7272SOL    HW133452   2.940   1.840   3.997 -1.4286 -0.0598  0.2240
 7272SOL    HW233453   3.024   1.954   3.954  1.1078 -0.9395  1.7015
 7273SOL     OW33454   1.794   4.018  13.972  0.6055  0.1047 -0.2951
 7273SOL    HW133455   1.735   4.076  13.923  0.2524 -1.2126 -1.4326
 7273SOL    HW233456   1.732   3.950  13.997  0.5693 -0.4052 -1.7748
 7274SOL     OW33457   4.691   1.610   6.957 -0.0069  0.3517  0.5492
 7274SOL    HW133458   4.633   1.678   6.991 -0.4153  0.7154 -0.9099
 7274SOL    HW233459   4.685   1.550   7.032  2.0229  0.2026  0.5889
 7275SOL     OW33460   2.360   3.032   4.565 -0.1782 -0.2112  0.4992
 7275SOL    HW133461   2.311   3.093   4.620 -0.8795 -0.4784  0.1605
 7275SOL    HW233462   2.397   2.970   4.627 -1.3525  0.2056  1.6035
 7276SOL     OW33463   3.991   2.360  10.536 -0.0884  0.3449  0.6447
 7276SOL    HW133464   4.031   2.282  10.499  1.0385  0.4796  1.5753
 7276SOL    HW233465   3.912   2.330  10.580 -1.3113  1.3359 -0.8866
 7277SOL     OW33466   2.297   2.945   8.574  0.2888  0.2713 -0.7961
 7277SOL    HW133467   2.330   2.942   8.484  0.6575  2.2629 -0.7294
 7277SOL    HW233468   2.358   3.009   8.610  1.9165 -1.4133 -0.5501
 7278SOL     OW33469   0.240   2.451  15.789 -0.2019 -0.2936 -0.3532
 7278SOL    HW133470   0.237   2.423  15.881  0.9504 -0.7432 -0.4593
 7278SOL    HW233471   0.284   2.535  15.803 -0.7149 -0.3605  1.6992
 7279SOL     OW33472   1.085   4.127   6.689  0.1959 -0.3652 -0.0129
 7279SOL    HW133473   1.045   4.207   6.723  2.1155  0.6694 -0.1987
 7279SOL    HW233474   1.034   4.114   6.609 -2.4041  1.0922  1.3917
 7280SOL     OW33475   2.612   1.359   3.319  0.2050 -1.1375 -0.0572
 7280SOL    HW133476   2.612   1.294   3.249  2.2718  0.8920 -1.9284
 7280SOL    HW233477   2.668   1.427   3.281 -1.4278  1.7277  2.5676
 7281SOL     OW33478   3.752   1.072  15.211 -0.6008 -0.1599  0.3526
 7281SOL    HW133479   3.702   1.054  15.290 -1.3458  1.9437  0.3586
 7281SOL    HW233480   3.804   1.151  15.228 -0.6405  0.1384 -0.8673
 7282SOL     OW33481   3.451   2.635   6.665  0.4419  0.4135  0.4738
 7282SOL    HW133482   3.529   2.588   6.635  0.0823 -0.6181  1.1421
 7282SOL    HW233483   3.423   2.577   6.736 -0.4457 -0.9104 -0.9689
 7283SOL     OW33484   1.959   0.062   0.176  0.4691  0.1420  0.3776
 7283SOL    HW133485   1.973   4.721   0.229  0.1176 -0.4217 -0.3744
 7283SOL    HW233486   1.991   0.134   0.230 -1.1307  0.3024  1.0952
 7284SOL     OW33487   1.704   0.600   5.702 -0.0676 -0.0294 -0.1786
 7284SOL    HW133488   1.723   0.608   5.609  0.3551 -0.6219 -0.1456
 7284SOL    HW233489   1.718   0.506   5.712 -1.8874 -0.5064 -2.0230
 7285SOL     OW33490   0.909   1.923   3.728  0.4813  0.1297 -0.1336
 7285SOL    HW133491   0.818   1.901   3.748  0.0565  1.0666 -1.0587
 7285SOL    HW233492   0.912   2.018   3.719 -0.9013  0.1451 -0.3606
 7286SOL     OW33493   1.729   3.195   3.085  0.2057  0.3416  0.0970
 7286SOL    HW133494   1.736   3.239   3.169 -0.2116 -0.8011  0.7331
 7286SOL    HW233495   1.634   3.200   3.074 -0.0188 -0.3857  1.7329
 7287SOL     OW33496   0.207   3.350  16.240 -0.3178 -0.2869  0.3761
 7287SOL    HW133497   0.196   3.352  16.145 -0.5250  1.8025  0.4551
 7287SOL    HW233498   0.117   3.338  16.268 -0.6790  0.6946 -0.3860
 7288SOL     OW33499   1.641   3.615   6.407 -0.4790  0.0240 -0.0751
 7288SOL    HW133500   1.577   3.619   6.478 -0.0145 -2.0168  0.4688
 7288SOL    HW233501   1.723   3.649   6.444 -0.0593 -0.9570 -0.0930
 7289SOL     OW33502   4.532   2.929   1.683 -0.2724 -0.8100  0.0577
 7289SOL    HW133503   4.496   2.855   1.634  1.5151 -1.3295 -0.4803
 7289SOL    HW233504   4.627   2.921   1.680 -0.2261  0.0312 -0.8297
 7290SOL     OW33505   3.743   3.129   4.383 -0.0056  0.0764 -0.4292
 7290SOL    HW133506   3.667   3.072   4.375  0.3774 -0.0799 -2.9718
 7290SOL    HW233507   3.738   3.164   4.294  0.0969  1.3986  0.0851
 7291SOL     OW33508   1.450   3.349  14.072  0.6613 -0.6894  0.2574
 7291SOL    HW133509   1.354   3.349  14.076  0.6202 -1.2172 -1.1036
 7291SOL    HW233510   1.463   3.350  14.167 -0.5599  3.0575  0.4155
 7292SOL     OW33511   0.991   1.385   5.947  0.1733  0.2590 -0.2580
 7292SOL    HW133512   0.925   1.402   6.014  0.3540 -3.2865  0.8068
 7292SOL    HW233513   1.041   1.465   5.965 -0.5260  0.6161  0.0807
 7293SOL     OW33514   3.067   2.217  13.563 -0.1739  0.2048 -0.4456
 7293SOL    HW133515   3.147   2.165  13.558 -2.1275 -3.0290  1.8724
 7293SOL    HW233516   3.014   2.166  13.625 -1.5877 -0.7429 -2.4393
 7294SOL     OW33517   4.365   3.839   5.884  0.2991 -0.6619  0.2730
 7294SOL    HW133518   4.273   3.830   5.859 -0.3546  0.4514  2.2320
 7294SOL    HW233519   4.370   3.934   5.900 -3.4715 -0.1480 -1.5087
 7295SOL     OW33520   0.984   1.442   1.683  0.4320  0.5598 -0.1512
 7295SOL    HW133521   0.916   1.508   1.672 -0.5204 -0.4302 -0.1442
 7295SOL    HW233522   1.016   1.421   1.596  2.4576  2.4113  0.1318
 7296SOL     OW33523   0.558   2.817   3.299  0.4697 -0.1540  0.5005
 7296SOL    HW133524   0.463   2.818   3.285  0.5277  1.5383  0.2620
 7296SOL    HW233525   0.597   2.825   3.212 -0.2124 -0.6288  0.1485
 7297SOL     OW33526   1.706   4.521   0.313 -0.0659  0.1529 -0.0159
 7297SOL    HW133527   1.631   4.493   0.262  1.0008 -2.3639 -0.1731
 7297SOL    HW233528   1.669   4.594   0.364  0.2878  0.2375  0.1237
 7298SOL     OW33529   0.405   2.533   9.965  0.0900 -0.5492 -0.0534
 7298SOL    HW133530   0.338   2.465   9.960  0.0967 -0.7943  3.0289
 7298SOL    HW233531   0.466   2.490  10.025  0.7012  0.6915  0.2108
 7299SOL     OW33532   1.399   2.840   7.708  0.4574  0.0909  0.0792
 7299SOL    HW133533   1.349   2.916   7.679  0.1699  0.2273  0.9321
 7299SOL    HW233534   1.411   2.862   7.800 -3.1029  0.8970  0.3494
 7300SOL     OW33535   2.002   2.641   6.650 -0.0334  0.5026  0.0506
 7300SOL    HW133536   2.090   2.619   6.621 -0.5644 -1.7900  0.1404
 7300SOL    HW233537   1.977   2.573   6.713 -1.7457  0.1049 -1.0818
 7301SOL     OW33538   2.078   3.522   5.322 -0.1330 -0.4583  0.8203
 7301SOL    HW133539   2.050   3.598   5.373  1.6939 -0.6004  2.0708
 7301SOL    HW233540   2.118   3.475   5.395  0.2851 -0.3963  0.6325
 7302SOL     OW33541   1.299   2.962  12.318  0.1826  0.6991 -0.3844
 7302SOL    HW133542   1.300   2.871  12.288 -1.1138  0.4649  0.2676
 7302SOL    HW233543   1.321   3.009  12.238  1.2013  0.0922 -0.4585
 7303SOL     OW33544   2.518   1.268   7.856  0.2973 -0.7921 -0.3876
 7303SOL    HW133545   2.593   1.327   7.861 -0.3191  0.0900 -1.3931
 7303SOL    HW233546   2.453   1.333   7.826  0.6474 -0.8296 -1.2165
 7304SOL     OW33547   4.277   3.199   6.821  0.6111 -0.1099 -0.1367
 7304SOL    HW133548   4.241   3.287   6.809 -1.1959 -1.4491 -4.4647
 7304SOL    HW233549   4.360   3.208   6.775  0.7519  0.5707  0.2462
 7305SOL     OW33550   2.540   2.440  12.617 -0.2967  0.4863  0.3301
 7305SOL    HW133551   2.604   2.423  12.686 -3.3466 -0.0618  2.9902
 7305SOL    HW233552   2.466   2.383  12.636  0.5421 -0.7425 -0.0492
 7306SOL     OW33553   1.457   3.247   2.081  0.3201 -0.2354 -0.2422
 7306SOL    HW133554   1.392   3.177   2.083 -0.5463  0.6434  3.6719
 7306SOL    HW233555   1.435   3.290   1.998 -0.9304  2.0791  1.2574
 7307SOL     OW33556   1.972   2.366   2.036 -0.1534 -0.7465  0.5640
 7307SOL    HW133557   1.992   2.378   2.129 -1.6021 -1.8986  1.0415
 7307SOL    HW233558   1.881   2.396   2.034 -0.3463 -1.3526 -0.0429
 7308SOL     OW33559   0.687   4.250  11.491 -0.8645  0.0062  0.0971
 7308SOL    HW133560   0.764   4.194  11.484 -0.2244  0.8725  0.1372
 7308SOL    HW233561   0.673   4.287  11.403  0.0081  0.3594  0.1074
 7309SOL     OW33562   1.584   2.296   2.577 -0.2814  0.3160  0.0565
 7309SOL    HW133563   1.528   2.221   2.594 -2.3387  1.9094  0.2265
 7309SOL    HW233564   1.527   2.346   2.519  0.7231 -0.3517 -1.4967
 7310SOL     OW33565   3.319   2.181   8.166 -0.1456  0.3950  0.4200
 7310SOL    HW133566   3.269   2.101   8.149 -0.4946  0.5423  0.7406
 7310SOL    HW233567   3.260   2.254   8.153  0.0874  0.4176 -0.4959
 7311SOL     OW33568   4.194   4.129   4.716 -0.2706  0.2459 -0.0511
 7311SOL    HW133569   4.173   4.161   4.628  0.5489 -0.4831 -0.5158
 7311SOL    HW233570   4.283   4.163   4.719 -0.1019 -0.1757 -0.1667
 7312SOL     OW33571   3.301   3.161   0.711 -0.4075 -0.0924 -0.3530
 7312SOL    HW133572   3.243   3.119   0.774 -0.5163  0.8826  0.1881
 7312SOL    HW233573   3.347   3.082   0.682  1.3650  0.4176  1.0144
 7313SOL     OW33574   3.915   2.447   6.165 -0.4882  0.3213 -0.3210
 7313SOL    HW133575   3.930   2.464   6.072  0.3360  0.4333 -0.1664
 7313SOL    HW233576   3.981   2.503   6.205  0.3530  0.4234 -1.8524
 7314SOL     OW33577   2.593   0.311  12.891 -0.7162 -0.1862  0.2132
 7314SOL    HW133578   2.678   0.344  12.861 -1.0323  0.2832 -0.1683
 7314SOL    HW233579   2.613   0.316  12.984 -0.1767  1.9091 -0.0098
 7315SOL     OW33580   1.549   4.444   7.565  0.1861  0.3371 -0.4874
 7315SOL    HW133581   1.604   4.480   7.635  1.0694 -1.0972 -0.4457
 7315SOL    HW233582   1.573   4.505   7.494 -1.4045 -1.1209 -2.2900
 7316SOL     OW33583   3.429   0.838   8.984 -0.8636  0.4322 -0.2236
 7316SOL    HW133584   3.479   0.894   9.043 -1.6353 -0.0542  0.8837
 7316SOL    HW233585   3.467   0.874   8.904 -1.4932 -0.7154 -1.0443
 7317SOL     OW33586   1.858   4.636  16.430  0.0754  0.1874  0.0480
 7317SOL    HW133587   1.879   4.720  16.471  2.2079 -0.6953  0.8057
 7317SOL    HW233588   1.905   4.647  16.347  2.0546  3.8518  1.6387
 7318SOL     OW33589   2.044   0.861   7.792  0.3490 -0.2870 -0.1658
 7318SOL    HW133590   2.092   0.779   7.781  0.4840 -0.3643  0.9544
 7318SOL    HW233591   1.987   0.856   7.716 -0.0776 -2.2324  0.2649
 7319SOL     OW33592   3.879   4.147   8.455 -0.3632  0.2559  0.0165
 7319SOL    HW133593   3.903   4.110   8.540  0.9174  1.7420  0.3053
 7319SOL    HW233594   3.930   4.228   8.465 -0.2107  0.2774 -0.9306
 7320SOL     OW33595   3.277   3.329   9.347  0.6525 -0.0105 -0.1294
 7320SOL    HW133596   3.341   3.388   9.389  0.5577 -0.7008  0.9881
 7320SOL    HW233597   3.299   3.349   9.256  0.3215  1.9107  0.1951
 7321SOL     OW33598   2.209   1.559  13.906  0.3297 -0.4230 -0.0022
 7321SOL    HW133599   2.230   1.472  13.940  1.4217 -0.6817 -1.3280
 7321SOL    HW233600   2.223   1.541  13.813  1.2356 -1.3493  0.3317
 7322SOL     OW33601   2.994   2.108   2.606 -0.2911 -0.5661 -1.0009
 7322SOL    HW133602   2.982   2.202   2.616 -2.0527 -1.1976  2.5767
 7322SOL    HW233603   3.054   2.081   2.675  1.2891  1.0461 -1.7332
 7323SOL     OW33604   3.174   3.501   9.048  0.0891 -0.2808  0.0805
 7323SOL    HW133605   3.257   3.530   9.087 -0.3424  0.5619  0.3680
 7323SOL    HW233606   3.176   3.521   8.955  2.3954 -0.3182  0.1213
 7324SOL     OW33607   0.963   2.020   6.331 -0.1485 -0.1230 -0.1297
 7324SOL    HW133608   0.927   2.055   6.250  0.6036 -0.9573 -0.8301
 7324SOL    HW233609   1.054   2.047   6.327  0.4858 -2.4950 -1.5743
 7325SOL     OW33610   2.736   4.471   3.055 -0.1339 -0.4452  0.0249
 7325SOL    HW133611   2.796   4.484   3.128 -0.7034 -0.7013  0.5404
 7325SOL    HW233612   2.759   4.381   3.033  1.3026  0.1213 -0.7898
 7326SOL     OW33613   2.177   1.461   8.194 -0.0130 -0.2017 -0.4778
 7326SOL    HW133614   2.193   1.395   8.126 -1.7041 -0.7466 -0.3263
 7326SOL    HW233615   2.088   1.482   8.169 -0.2973 -1.7125 -0.7290
 7327SOL     OW33616   2.447   3.121   7.890 -0.9892  0.4026  0.6352
 7327SOL    HW133617   2.397   3.193   7.851  3.2360  2.8921 -0.1819
 7327SOL    HW233618   2.419   3.151   7.977 -1.6829 -1.2832  0.9790
 7328SOL     OW33619   2.296   4.224   5.392 -0.4999 -0.1205 -0.1365
 7328SOL    HW133620   2.262   4.296   5.340 -0.7715  1.0513  1.6579
 7328SOL    HW233621   2.212   4.191   5.426  0.6998 -2.3589  0.6639
 7329SOL     OW33622   4.434   1.667   8.066  0.4021 -0.0041  0.1965
 7329SOL    HW133623   4.481   1.584   8.070 -0.3885 -0.4291  0.4646
 7329SOL    HW233624   4.505   1.726   8.093 -0.6009  0.0764  2.6901
 7330SOL     OW33625   2.159   2.507   9.278 -0.5647 -0.3708  0.1358
 7330SOL    HW133626   2.224   2.505   9.207 -0.3507 -2.3586  0.4055
 7330SOL    HW233627   2.228   2.500   9.344  0.2459 -1.3545 -0.8132
 7331SOL     OW33628   2.048   2.231   7.714 -0.1223  0.5010 -0.3377
 7331SOL    HW133629   2.138   2.212   7.742  0.3911  0.3320 -2.1219
 7331SOL    HW233630   2.011   2.143   7.707  0.6217  0.0198  1.5606
 7332SOL     OW33631   0.540   2.866   8.478 -0.7306  0.5306 -0.6757
 7332SOL    HW133632   0.630   2.840   8.498 -1.1289 -1.9667 -2.1786
 7332SOL    HW233633   0.516   2.907   8.562  1.5090 -1.6803  1.0609
 7333SOL     OW33634   2.977   0.424   7.246 -0.0408  0.2915 -0.0318
 7333SOL    HW133635   2.900   0.407   7.193  0.6973  1.5716 -1.5113
 7333SOL    HW233636   2.994   0.340   7.290  2.0997  0.1760 -1.0331
 7334SOL     OW33637   1.438   1.801   8.870  0.4367  0.2258  0.0926
 7334SOL    HW133638   1.411   1.891   8.849  0.8625  1.0365  3.0208
 7334SOL    HW233639   1.417   1.799   8.963 -0.3986 -1.9330 -0.1534
 7335SOL     OW33640   1.299   3.715   8.264 -0.4163 -0.2005  0.3473
 7335SOL    HW133641   1.387   3.748   8.284  0.1476 -1.9576  0.7598
 7335SOL    HW233642   1.268   3.676   8.346  0.8310  1.8873  1.8015
 7336SOL     OW33643   3.377   4.671   8.648 -0.1513  0.1090  0.1012
 7336SOL    HW133644   3.355   4.714   8.566  1.3788 -2.0106 -1.4187
 7336SOL    HW233645   3.436   4.601   8.620 -0.3385 -0.4601  1.1380
 7337SOL     OW33646   2.084   3.809  14.578 -0.2177  0.0478 -0.7821
 7337SOL    HW133647   2.091   3.854  14.494  1.9004 -0.9429 -1.1486
 7337SOL    HW233648   1.995   3.818  14.613 -0.0176 -0.6338 -0.1005
 7338SOL     OW33649   2.269   0.501  12.658  0.1105 -0.0856 -1.1218
 7338SOL    HW133650   2.350   0.536  12.694 -1.3883  1.3684  0.8216
 7338SOL    HW233651   2.254   0.555  12.580 -2.4284  0.5409 -0.1703
 7339SOL     OW33652   4.297   3.418   9.302 -0.5842  0.1102  1.1568
 7339SOL    HW133653   4.367   3.353   9.304  0.1142  0.8759  1.5739
 7339SOL    HW233654   4.228   3.358   9.330 -2.4973  2.0702  0.6492
 7340SOL     OW33655   2.982   1.673   5.918  0.1861  0.0008  0.4134
 7340SOL    HW133656   2.931   1.667   5.837  0.1998  0.6116  0.3625
 7340SOL    HW233657   3.036   1.746   5.889  0.4745 -0.9798 -1.5297
 7341SOL     OW33658   0.663   3.639   3.830  0.0808 -0.8089  0.0944
 7341SOL    HW133659   0.685   3.574   3.764 -1.1392 -0.1724 -0.9411
 7341SOL    HW233660   0.746   3.668   3.867 -0.9216  0.2901  1.5079
 7342SOL     OW33661   1.651   2.643   6.094 -1.0306 -0.3420 -0.4012
 7342SOL    HW133662   1.699   2.711   6.047 -0.1228  0.9362  2.3384
 7342SOL    HW233663   1.562   2.679   6.091 -1.7575 -2.1909 -0.8705
 7343SOL     OW33664   0.568   3.191  15.049  0.3508  0.8853 -0.8449
 7343SOL    HW133665   0.538   3.259  15.109  0.2082  0.1660 -0.1075
 7343SOL    HW233666   0.503   3.197  14.978  0.8769  0.6951 -1.3458
 7344SOL     OW33667   0.279   3.315  11.786 -0.1662  0.5157 -0.0061
 7344SOL    HW133668   0.369   3.343  11.774 -0.6528  0.8605 -2.9811
 7344SOL    HW233669   0.291   3.229  11.827 -0.7913  0.3034 -0.2557
 7345SOL     OW33670   3.518   1.644   7.166 -0.5435 -0.6820 -0.1465
 7345SOL    HW133671   3.455   1.605   7.226  0.1202 -1.8433 -0.2043
 7345SOL    HW233672   3.548   1.568   7.115  0.2023 -0.3121 -0.2475
 7346SOL     OW33673   3.366   3.966   6.897  0.5885  0.2516  0.1072
 7346SOL    HW133674   3.445   3.915   6.880 -1.3555 -2.8558  0.5565
 7346SOL    HW233675   3.384   4.032   6.830 -1.9808  0.6506 -0.1940
 7347SOL     OW33676   2.615   3.391   5.468  0.2729 -0.1502 -0.0808
 7347SOL    HW133677   2.680   3.405   5.537  0.2406  0.2588 -0.1336
 7347SOL    HW233678   2.552   3.461   5.487 -0.7859 -0.9035 -0.7869
 7348SOL     OW33679   0.228   0.241  12.825  0.6244  0.5256 -0.2945
 7348SOL    HW133680   0.220   0.334  12.846 -0.5194  0.0863  1.2771
 7348SOL    HW233681   0.321   0.221  12.836  1.1947  2.9499 -0.7185
 7349SOL     OW33682   2.876   1.260   6.631  0.0723 -0.1452 -0.2133
 7349SOL    HW133683   2.781   1.266   6.624  0.2428  2.7925 -0.0707
 7349SOL    HW233684   2.893   1.353   6.615 -0.5563  0.1500  0.8185
 7350SOL     OW33685   3.690   0.657  16.928 -0.3920 -0.5418  0.3643
 7350SOL    HW133686   3.751   0.697  16.989 -1.9536 -1.1203  2.2883
 7350SOL    HW233687   3.619   0.720  16.929  0.8941  0.9237 -1.4569
 7351SOL     OW33688   0.372   2.908  12.527 -0.1462  0.0175 -0.3032
 7351SOL    HW133689   0.299   2.934  12.583 -0.0076  1.0755 -0.6188
 7351SOL    HW233690   0.367   2.971  12.455  1.0304 -1.0717 -1.3332
 7352SOL     OW33691   1.139   1.238   0.097 -0.0317 -0.0001  0.5178
 7352SOL    HW133692   1.205   1.306   0.089  0.1981 -0.2880 -0.0661
 7352SOL    HW233693   1.073   1.273   0.037  0.1237 -0.6459 -0.0290
 7353SOL     OW33694   1.587   3.571  16.038 -0.3840  0.2841 -1.0050
 7353SOL    HW133695   1.502   3.604  16.067 -0.7681 -2.9576  1.5838
 7353SOL    HW233696   1.581   3.484  16.078 -2.4797  1.7074  1.8260
 7354SOL     OW33697   2.035   1.829   0.235  0.3484  0.3300 -0.8682
 7354SOL    HW133698   2.098   1.896   0.209  0.1120  0.8937  0.0525
 7354SOL    HW233699   2.031   1.852   0.327  0.9978  0.2528 -0.8227
 7355SOL     OW33700   3.170   2.042  15.708  0.4103  0.0051  0.1646
 7355SOL    HW133701   3.162   1.947  15.713 -0.8151  0.1771  1.3525
 7355SOL    HW233702   3.240   2.061  15.770 -0.4569  1.8167  0.5840
 7356SOL     OW33703   4.105   0.869   7.723 -0.1221 -0.2261 -0.1029
 7356SOL    HW133704   4.009   0.866   7.714 -0.2728  0.7489  1.1872
 7356SOL    HW233705   4.126   0.823   7.804  0.9310  0.2107 -0.1377
 7357SOL     OW33706   3.592   4.657   5.462  0.4330  0.6169  0.0632
 7357SOL    HW133707   3.571   4.678   5.371  0.2241  1.4327  0.3004
 7357SOL    HW233708   3.504   4.668   5.498  0.8292 -5.0792  2.8108
 7358SOL     OW33709   2.636   2.307   0.526  0.0266  0.2689 -0.0056
 7358SOL    HW133710   2.720   2.323   0.483  0.5525 -0.6998  0.6649
 7358SOL    HW233711   2.630   2.212   0.513  1.4276  0.2649 -0.5764
 7359SOL     OW33712   2.721   0.322   1.220  0.0898 -0.5703 -0.5562
 7359SOL    HW133713   2.709   0.227   1.226  2.6796 -1.0739 -3.2020
 7359SOL    HW233714   2.717   0.355   1.309 -1.6804 -0.7145 -0.5838
 7360SOL     OW33715   3.500   2.510   1.197  0.5251  0.3702 -0.9148
 7360SOL    HW133716   3.582   2.558   1.195  2.6503 -3.3133 -0.6778
 7360SOL    HW233717   3.530   2.419   1.193  0.2214  0.2719 -0.9938
 7361SOL     OW33718   0.066   4.158  16.817 -0.0788 -0.0213 -0.0835
 7361SOL    HW133719   0.088   4.141  16.909  0.6719 -0.3675 -0.3285
 7361SOL    HW233720   4.712   4.183  16.824  0.4598  2.3048 -1.2531
 7362SOL     OW33721   0.056   2.726  12.898 -0.2737  0.1801 -0.0848
 7362SOL    HW133722   0.001   2.793  12.858 -2.0397 -2.7107 -2.5397
 7362SOL    HW233723   0.012   2.744  12.981 -0.8609  0.0848 -0.3774
 7363SOL     OW33724   4.654   3.124   1.306  0.1249 -0.3256 -0.2084
 7363SOL    HW133725   4.599   3.117   1.228 -0.2742 -0.1195  0.0522
 7363SOL    HW233726   4.608   3.073   1.373 -1.5794 -0.1868 -1.2670
 7364SOL     OW33727   3.646   4.514   1.479 -0.2242 -0.5088  0.1722
 7364SOL    HW133728   3.650   4.516   1.575  0.1071 -2.5195  0.1930
 7364SOL    HW233729   3.555   4.537   1.461  0.1539  1.1027  0.2594
 7365SOL     OW33730   3.131   4.336   4.424 -0.5596  0.1395 -0.2357
 7365SOL    HW133731   3.156   4.257   4.472  1.5562  0.8723 -0.1349
 7365SOL    HW233732   3.209   4.388   4.408  0.5360 -0.7297  2.3194
 7366SOL     OW33733   4.025   2.493  17.578  0.3598  0.2562  0.1700
 7366SOL    HW133734   4.014   2.489  17.673 -0.7740 -0.1388  0.0254
 7366SOL    HW233735   4.115   2.522  17.564  1.3191 -1.9244  1.7667
 7367SOL     OW33736   1.548   0.859   8.249 -0.2228 -0.1516 -0.2194
 7367SOL    HW133737   1.638   0.847   8.220  0.0457 -0.8920  0.9182
 7367SOL    HW233738   1.561   0.905   8.333 -0.1220  0.1396 -0.3955
 7368SOL     OW33739   4.481   4.023   9.029 -0.1624 -0.0926 -0.7615
 7368SOL    HW133740   4.522   3.982   8.953  0.1110  0.0038 -0.6651
 7368SOL    HW233741   4.517   3.962   9.093  0.7228 -1.0952 -2.2047
 7369SOL     OW33742   2.396   1.068   3.578  0.2319  0.0585 -0.4891
 7369SOL    HW133743   2.306   1.087   3.606 -0.2738 -2.2806 -0.5509
 7369SOL    HW233744   2.378   1.049   3.486 -0.0640 -3.3203  0.2491
 7370SOL     OW33745   0.113   1.289   0.512  0.0402 -0.5089 -0.0838
 7370SOL    HW133746   0.135   1.297   0.419 -2.1126 -0.9220 -0.6338
 7370SOL    HW233747   0.173   1.218   0.529  0.7822 -0.2757 -1.6864
 7371SOL     OW33748   2.641   2.405   9.522  0.6182 -0.0253 -0.0622
 7371SOL    HW133749   2.622   2.494   9.491  0.6925 -0.5093 -1.5159
 7371SOL    HW233750   2.612   2.405   9.613  0.3413  2.8170 -0.1477
 7372SOL     OW33751   2.328   2.401   4.465 -0.1280 -0.0295  0.2865
 7372SOL    HW133752   2.294   2.433   4.382 -0.1119  0.4551  0.4694
 7372SOL    HW233753   2.374   2.479   4.495 -0.7616  0.3241  0.3417
 7373SOL     OW33754   1.900   1.644   9.388 -0.1398  0.6107  0.2563
 7373SOL    HW133755   1.975   1.692   9.352 -0.9381  0.3314 -1.7877
 7373SOL    HW233756   1.863   1.725   9.424 -0.6266  1.0350 -1.2005
 7374SOL     OW33757   3.516   3.318   0.711  0.0130 -0.4703  0.3103
 7374SOL    HW133758   3.553   3.250   0.654 -1.1978 -0.1578 -0.8684
 7374SOL    HW233759   3.441   3.263   0.734 -1.7179  2.2397  1.2017
 7375SOL     OW33760   4.444   3.437   2.213  0.4267 -0.3276  0.1175
 7375SOL    HW133761   4.402   3.504   2.158  0.5504 -0.7939 -0.5438
 7375SOL    HW233762   4.504   3.499   2.255  1.2632 -0.4742 -0.8508
 7376SOL     OW33763   0.105   0.791   0.411  0.1445 -0.4461 -0.0622
 7376SOL    HW133764   0.185   0.763   0.456  0.6474  0.9440 -0.0885
 7376SOL    HW233765   0.134   0.784   0.320 -0.2402 -0.5943 -0.1728
 7377SOL     OW33766   0.236   2.835   4.049  0.6682  0.3554 -0.3788
 7377SOL    HW133767   0.191   2.752   4.065 -0.6200  1.1961  0.3688
 7377SOL    HW233768   0.157   2.888   4.051  1.2721  1.2776 -0.9153
 7378SOL     OW33769   0.947   3.825  14.630  0.0507  0.1768 -0.1903
 7378SOL    HW133770   0.860   3.785  14.618 -0.7018  1.4342  1.0145
 7378SOL    HW233771   0.962   3.791  14.718 -1.2877  3.4355  1.3120
 7379SOL     OW33772   2.277   2.140   9.014  0.4904  0.0385  0.2035
 7379SOL    HW133773   2.290   2.139   8.919  1.0438 -1.8698  0.2989
 7379SOL    HW233774   2.317   2.225   9.032  1.3913 -0.1095 -1.0718
 7380SOL     OW33775   0.111   3.117   6.398  0.6764  0.3952  0.3476
 7380SOL    HW133776   0.206   3.117   6.389  0.6777 -1.5649  0.3642
 7380SOL    HW233777   0.081   3.137   6.310 -1.1596 -0.2805  0.8105
 7381SOL     OW33778   2.806   2.094   7.776  0.2868 -0.0926 -0.4865
 7381SOL    HW133779   2.778   2.004   7.792 -1.9860  0.4345 -1.5881
 7381SOL    HW233780   2.783   2.104   7.684 -1.5852 -1.7226 -0.1831
 7382SOL     OW33781   1.342   3.000   5.515 -0.6506 -0.8776  0.0721
 7382SOL    HW133782   1.412   2.940   5.538  0.3941 -0.5715 -2.2673
 7382SOL    HW233783   1.287   2.994   5.593  1.6627  2.5797  1.9703
 7383SOL     OW33784   0.364   4.136  12.658 -0.3577  0.1949 -0.0342
 7383SOL    HW133785   0.427   4.138  12.586  1.9333  0.7039  1.9802
 7383SOL    HW233786   0.280   4.134  12.612  0.1207  3.2555 -0.9889
 7384SOL     OW33787   3.126   3.384   0.784  0.9792  0.0364  0.1151
 7384SOL    HW133788   3.136   3.466   0.735  1.2246  1.5930  2.8092
 7384SOL    HW233789   3.186   3.326   0.735  0.7778  0.5188 -0.7099
 7385SOL     OW33790   1.472   2.358  16.540 -0.2161  0.1045  0.2712
 7385SOL    HW133791   1.546   2.368  16.600  1.4989 -1.2047 -1.6385
 7385SOL    HW233792   1.495   2.418  16.470 -3.1861  1.2712  0.3004
 7386SOL     OW33793   2.522   4.531   7.278  0.6889 -0.0218  0.9265
 7386SOL    HW133794   2.506   4.438   7.288 -1.1134  0.1556 -0.3492
 7386SOL    HW233795   2.459   4.571   7.338 -0.9673 -2.8553  1.0534
 7387SOL     OW33796   0.016   2.160   3.268  0.4152 -0.3253  0.6728
 7387SOL    HW133797   4.690   2.165   3.339 -3.2220  0.7896 -2.6713
 7387SOL    HW233798   0.002   2.244   3.225  0.5161 -0.1076  1.0628
 7388SOL     OW33799   3.504   0.350   7.703 -0.2659  0.1527  0.3901
 7388SOL    HW133800   3.484   0.273   7.650 -0.7662 -0.4164  1.4207
 7388SOL    HW233801   3.562   0.316   7.772  1.2342 -0.8167 -1.3374
 7389SOL     OW33802   2.852   0.149   3.614 -0.0302 -0.2437 -0.9684
 7389SOL    HW133803   2.912   0.175   3.684 -2.5901  2.9609  0.0496
 7389SOL    HW233804   2.783   0.102   3.660  1.6968 -1.6612  0.1456
 7390SOL     OW33805   4.168   4.577  12.840  0.2223 -0.1227 -0.0679
 7390SOL    HW133806   4.086   4.612  12.875 -0.4629 -1.3566 -0.4559
 7390SOL    HW233807   4.141   4.522  12.767  0.9427 -0.0855 -0.3603
 7391SOL     OW33808   1.077   1.127   7.783 -0.2202  0.4568  0.6743
 7391SOL    HW133809   1.170   1.123   7.761 -0.3973 -0.6937  0.1183
 7391SOL    HW233810   1.064   1.044   7.828 -2.5290 -0.0304 -0.8847
 7392SOL     OW33811   1.400   1.122   6.296  0.5761  0.0926  0.0521
 7392SOL    HW133812   1.331   1.181   6.264  0.5271 -0.6292 -1.1496
 7392SOL    HW233813   1.348   1.041   6.291 -0.3677  0.6067  1.3912
 7393SOL     OW33814   1.888   3.415   6.550  0.2033  0.2775 -0.0220
 7393SOL    HW133815   1.826   3.369   6.607  2.2358  0.1120  2.1249
 7393SOL    HW233816   1.853   3.504   6.555  1.1055  0.7002 -1.2639
 7394SOL     OW33817   0.848   2.527   6.482  0.4435  0.1661 -0.4722
 7394SOL    HW133818   0.849   2.441   6.441  2.9497  0.1576 -0.3803
 7394SOL    HW233819   0.941   2.540   6.463 -0.1527  1.7312 -2.2898
 7395SOL     OW33820   2.544   3.892  13.461  0.3597  0.6282 -0.0676
 7395SOL    HW133821   2.632   3.927  13.455  0.5120  0.0950 -1.0899
 7395SOL    HW233822   2.529   3.915  13.552 -0.3063  1.1998 -0.3195
 7396SOL     OW33823   2.836   2.723   6.062 -0.2283  0.3126 -0.0829
 7396SOL    HW133824   2.781   2.753   5.990  0.2402 -2.2461 -1.5061
 7396SOL    HW233825   2.880   2.642   6.036  0.1021  0.4997 -0.1216
 7397SOL     OW33826   3.741   0.477   9.939 -0.3919  0.1866  0.4549
 7397SOL    HW133827   3.782   0.465   9.853 -0.9015  0.8192  0.1215
 7397SOL    HW233828   3.703   0.564   9.928 -0.4914  0.2144  1.0228
 7398SOL     OW33829   3.903   1.955   3.761 -0.3957 -0.0682  0.7004
 7398SOL    HW133830   3.941   1.925   3.678 -2.6172  0.2432 -0.4245
 7398SOL    HW233831   3.988   1.953   3.806  0.4413  0.5448 -0.8540
 7399SOL     OW33832   2.951   0.692  11.514 -0.3453  0.9477 -0.2604
 7399SOL    HW133833   3.013   0.666  11.583  1.2087  0.8246 -1.7145
 7399SOL    HW233834   2.960   0.622  11.450 -2.2679 -0.4269  0.9561
 7400SOL     OW33835   1.837   3.752   7.449  0.0687  0.1415 -0.0658
 7400SOL    HW133836   1.871   3.765   7.360 -0.0597  0.3295 -0.0861
 7400SOL    HW233837   1.758   3.805   7.440 -1.7320 -2.2242  1.6925
 7401SOL     OW33838   1.336   1.121   4.236 -0.3860  0.5263 -0.3973
 7401SOL    HW133839   1.372   1.150   4.320 -0.7792  1.3341 -0.5104
 7401SOL    HW233840   1.343   1.025   4.236 -0.6372  0.4971 -4.0643
 7402SOL     OW33841   3.052   0.912   0.398 -0.5755 -0.3214 -0.0850
 7402SOL    HW133842   3.083   0.914   0.307  0.2326 -1.7769  0.1575
 7402SOL    HW233843   2.961   0.937   0.385  0.0508  2.6019  1.0743
 7403SOL     OW33844   2.287   1.251  14.050 -0.9206 -0.0934  0.7894
 7403SOL    HW133845   2.329   1.205  13.977 -3.6591 -0.7580 -0.3900
 7403SOL    HW233846   2.203   1.205  14.043  0.5669 -2.8647  1.4743
 7404SOL     OW33847   2.178   4.104   4.250  0.3547  0.1427  0.5082
 7404SOL    HW133848   2.247   4.124   4.187  0.1004  1.2930  0.6002
 7404SOL    HW233849   2.118   4.177   4.232 -1.0283 -1.3978 -1.1063
 7405SOL     OW33850   2.707   3.339   3.907  0.1062  0.1338  0.1315
 7405SOL    HW133851   2.678   3.390   3.832  0.9090 -0.4642 -0.5781
 7405SOL    HW233852   2.630   3.282   3.914  1.1470 -1.0280  2.1706
 7406SOL     OW33853   1.191   0.719   3.223  0.1649 -0.1837  0.7816
 7406SOL    HW133854   1.264   0.657   3.227 -1.0284 -1.5634  1.5549
 7406SOL    HW233855   1.233   0.802   3.205 -0.9532  0.0890 -0.6375
 7407SOL     OW33856   0.967   3.057   1.524  0.0782 -0.2265  0.3698
 7407SOL    HW133857   1.011   2.977   1.554 -1.2584 -1.3014 -0.5451
 7407SOL    HW233858   1.001   3.127   1.580  1.2905 -0.0376 -0.6012
 7408SOL     OW33859   0.250   2.080   0.553  0.3547 -0.2231 -0.2179
 7408SOL    HW133860   0.164   2.094   0.514  0.9134  1.6116 -0.7814
 7408SOL    HW233861   0.284   2.169   0.554  1.8942 -0.8210  0.0721
 7409SOL     OW33862   4.011   0.033   4.374  0.9808 -0.2940  0.9664
 7409SOL    HW133863   3.959   0.063   4.300  0.8167  0.5518  1.4298
 7409SOL    HW233864   4.091   0.084   4.360 -0.0893  0.8849 -0.9198
 7410SOL     OW33865   1.260   0.488  12.298 -0.2591 -0.9178  0.3090
 7410SOL    HW133866   1.314   0.431  12.353 -0.8544 -1.7975 -0.0276
 7410SOL    HW233867   1.169   0.460  12.306 -0.6129  0.2171  0.2589
 7411SOL     OW33868   3.751   3.469  14.502  0.5368 -0.0540 -0.1722
 7411SOL    HW133869   3.800   3.431  14.429  1.2825  0.3337  0.1243
 7411SOL    HW233870   3.679   3.511  14.455 -2.0737 -0.7112  3.2682
 7412SOL     OW33871   2.027   3.733  10.728  0.0950  0.2672 -0.4952
 7412SOL    HW133872   2.060   3.709  10.642 -0.0720  0.0803 -0.5070
 7412SOL    HW233873   2.090   3.699  10.792  1.2190 -0.3363 -1.9348
 7413SOL     OW33874   4.151   4.494   2.416 -0.4902  0.2307  0.3552
 7413SOL    HW133875   4.114   4.408   2.433 -2.7390  0.9582 -0.8733
 7413SOL    HW233876   4.182   4.467   2.329  3.0427 -0.1706  1.7239
 7414SOL     OW33877   1.729   3.572   4.732  0.4111 -0.4927 -0.3049
 7414SOL    HW133878   1.701   3.659   4.761  0.1808 -0.9293  0.7895
 7414SOL    HW233879   1.811   3.597   4.688  1.4322 -1.2590  1.1724
 7415SOL     OW33880   1.620   2.115   9.074 -0.0101  0.3805 -0.2080
 7415SOL    HW133881   1.702   2.102   9.026 -1.3316 -1.8809 -1.8777
 7415SOL    HW233882   1.598   2.207   9.067 -0.3843  0.1280 -2.2134
 7416SOL     OW33883   1.239   1.036   9.337 -0.3682 -0.4264 -0.0176
 7416SOL    HW133884   1.273   0.956   9.376  0.9092 -0.3012 -0.8718
 7416SOL    HW233885   1.237   1.093   9.414  0.4916  1.0912 -1.1196
 7417SOL     OW33886   0.685   2.773   2.534 -0.0420 -0.5170  0.5166
 7417SOL    HW133887   0.641   2.799   2.453 -0.7330 -0.8767  0.7717
 7417SOL    HW233888   0.748   2.843   2.546  2.5569 -2.8949  0.6479
 7418SOL     OW33889   0.097   3.958   2.723 -0.1942 -0.2094 -0.0326
 7418SOL    HW133890   0.057   3.911   2.797 -0.5750 -0.0738 -0.1524
 7418SOL    HW233891   0.030   3.936   2.658  0.9362 -2.7110 -0.3428
 7419SOL     OW33892   2.078   2.799   7.080  0.4316  0.5521 -0.7573
 7419SOL    HW133893   2.078   2.881   7.128 -0.3829  0.2096 -0.1651
 7419SOL    HW233894   2.166   2.765   7.096 -0.6859 -1.8425  0.2669
 7420SOL     OW33895   3.550   0.114   4.171  0.3065  0.7577 -0.1181
 7420SOL    HW133896   3.472   0.102   4.225  0.3906 -1.2856 -0.4492
 7420SOL    HW233897   3.524   0.195   4.127  0.1292  1.7853  1.8569
 7421SOL     OW33898   4.393   2.299   9.900  0.1829 -0.2228 -0.0204
 7421SOL    HW133899   4.409   2.278   9.808 -2.0599  0.5263 -0.5826
 7421SOL    HW233900   4.344   2.380   9.887  0.5615 -0.0507 -0.3635
 7422SOL     OW33901   4.171   3.632   7.750 -0.1782 -0.6586  0.4518
 7422SOL    HW133902   4.265   3.613   7.755  0.1386  0.1504 -1.9954
 7422SOL    HW233903   4.133   3.591   7.827  0.0082 -0.0983  0.8455
 7423SOL     OW33904   0.255   0.931   4.371 -0.3966 -0.2288 -0.3996
 7423SOL    HW133905   0.256   0.855   4.430  3.7972  0.0887 -0.0975
 7423SOL    HW233906   0.329   0.917   4.313 -0.3322 -0.9017 -0.1571
 7424SOL     OW33907   1.012   2.350   4.879 -0.3880 -0.3284 -0.5631
 7424SOL    HW133908   1.014   2.405   4.801  2.8979  1.6145  0.9365
 7424SOL    HW233909   1.011   2.262   4.841  0.0602 -0.3205 -0.5855
 7425SOL     OW33910   3.357   4.279   3.038 -0.1883 -0.4995 -0.2809
 7425SOL    HW133911   3.325   4.220   3.106 -0.0779 -1.7728 -1.3227
 7425SOL    HW233912   3.270   4.303   3.006 -1.3927 -1.5600  2.2123
 7426SOL     OW33913   1.933   3.399  15.651  0.2036 -0.7145  0.1386
 7426SOL    HW133914   2.012   3.432  15.607 -0.9155  0.1461 -1.2260
 7426SOL    HW233915   1.963   3.325  15.704  2.3506  0.5365  0.6836
 7427SOL     OW33916   0.526   2.795  17.019 -0.8392  0.7155 -0.1849
 7427SOL    HW133917   0.512   2.727  16.953 -3.2558  1.7020 -0.6531
 7427SOL    HW233918   0.556   2.863  16.960 -1.5610  0.3606 -0.9585
 7428SOL     OW33919   4.714   2.647  10.234  0.3469 -0.1448 -0.1060
 7428SOL    HW133920   4.672   2.695  10.305 -0.6010  1.0523 -1.4616
 7428SOL    HW233921   4.737   2.725  10.183  1.3449 -0.1590  0.3327
 7429SOL     OW33922   4.414   2.817  15.901 -0.7024  0.1262 -0.3776
 7429SOL    HW133923   4.474   2.859  15.963 -0.8220 -0.4061  0.0990
 7429SOL    HW233924   4.333   2.844  15.944  2.2289  1.3601  4.4822
 7430SOL     OW33925   4.454   0.577   5.575  0.1614  0.1639 -0.2874
 7430SOL    HW133926   4.527   0.520   5.601  1.0212  0.5907 -1.8101
 7430SOL    HW233927   4.449   0.639   5.648 -1.0824  0.7789 -0.8959
 7431SOL     OW33928   1.055   3.648  16.125  0.0987  0.3800  0.1652
 7431SOL    HW133929   1.018   3.618  16.042 -2.3943  1.0256  1.0400
 7431SOL    HW233930   1.148   3.635  16.111  0.1472  1.2141 -0.2547
 7432SOL     OW33931   4.538   4.317   3.102 -0.3917 -0.8952  0.0754
 7432SOL    HW133932   4.541   4.237   3.155 -1.2090 -2.5309 -2.3696
 7432SOL    HW233933   4.612   4.299   3.045  0.1162  1.8304 -0.1196
 7433SOL     OW33934   2.355   1.312   4.278  0.0107  0.1588  0.1272
 7433SOL    HW133935   2.429   1.334   4.334 -1.6308  1.0991  1.9628
 7433SOL    HW233936   2.293   1.369   4.324 -0.4457 -1.4878  1.5321
 7434SOL     OW33937   3.305   1.587  13.457  0.1291 -0.1813  0.5529
 7434SOL    HW133938   3.287   1.664  13.510 -1.8235 -0.8669  0.8866
 7434SOL    HW233939   3.214   1.572  13.431  0.3388  0.1927 -0.3891
 7435SOL     OW33940   1.803   4.472   5.240 -0.5769 -0.0132 -0.4487
 7435SOL    HW133941   1.854   4.537   5.192 -0.8301  0.9823  0.6172
 7435SOL    HW233942   1.863   4.452   5.312 -2.0092  0.5353  0.8937
 7436SOL     OW33943   3.973   2.973  14.673  0.5685  0.1534 -0.1912
 7436SOL    HW133944   4.002   2.909  14.737  0.3715  1.4965  1.2429
 7436SOL    HW233945   3.884   2.942  14.658 -0.0011  2.2396 -1.1792
 7437SOL     OW33946   0.179   3.849   4.494 -0.5956 -0.1531 -0.8799
 7437SOL    HW133947   0.089   3.874   4.472 -0.3254  1.7055  0.1217
 7437SOL    HW233948   0.177   3.754   4.496 -1.1383 -0.0859  1.1535
 7438SOL     OW33949   1.617   4.591   7.290  0.3398  0.1710 -0.0142
 7438SOL    HW133950   1.712   4.579   7.288  0.2680 -1.0265  2.7807
 7438SOL    HW233951   1.604   4.563   7.200 -1.1300 -0.5594  0.4254
 7439SOL     OW33952   1.969   2.040   8.678 -0.8981  0.1404 -0.5342
 7439SOL    HW133953   2.033   2.022   8.608 -0.2962  0.2474 -0.0146
 7439SOL    HW233954   1.966   1.956   8.724  1.5915  0.0829 -0.4530
 7440SOL     OW33955   3.415   4.377   4.061  0.3990  0.7627  0.0657
 7440SOL    HW133956   3.468   4.359   3.984 -0.2326 -0.1604 -0.1562
 7440SOL    HW233957   3.481   4.361   4.129  0.2275 -1.6823 -0.3276
 7441SOL     OW33958   1.061   4.277   8.701  0.2847 -0.0628  0.1102
 7441SOL    HW133959   1.065   4.183   8.719 -0.9163 -0.4079 -1.4281
 7441SOL    HW233960   1.073   4.275   8.606  0.5969  0.4714  0.1399
 7442SOL     OW33961   3.799   4.374   9.139 -0.4113 -0.2771 -0.1102
 7442SOL    HW133962   3.765   4.305   9.196  0.4205 -0.2210  0.4611
 7442SOL    HW233963   3.811   4.332   9.054  0.8211 -1.1590  0.4846
 7443SOL     OW33964   2.482   2.776   1.749  0.2483  0.2680  0.0814
 7443SOL    HW133965   2.412   2.712   1.762  0.2330  0.5159  1.1734
 7443SOL    HW233966   2.522   2.740   1.669  0.7530 -0.5523  0.7017
 7444SOL     OW33967   3.327   1.932   9.383 -0.0574  0.4872  0.1706
 7444SOL    HW133968   3.345   2.026   9.388 -1.0411  0.5296  2.5334
 7444SOL    HW233969   3.302   1.930   9.290 -1.1445 -1.8448  0.5127
 7445SOL     OW33970   4.531   2.937   6.681  0.1022 -0.7124 -0.8182
 7445SOL    HW133971   4.511   2.846   6.659  4.2270 -2.1102  1.3865
 7445SOL    HW233972   4.520   2.961   6.773  0.1352 -1.0270 -0.7342
 7446SOL     OW33973   1.778   0.702   5.980  0.0904  0.3246 -0.3156
 7446SOL    HW133974   1.726   0.683   6.057 -0.2052  0.1158 -0.5677
 7446SOL    HW233975   1.744   0.649   5.908 -0.1518 -0.0234  0.0593
 7447SOL     OW33976   0.286   0.410   5.846  0.2741  0.2365  0.0266
 7447SOL    HW133977   0.265   0.317   5.851  3.7474 -0.5915 -0.6858
 7447SOL    HW233978   0.352   0.411   5.916 -2.9331 -0.8865  3.0258
 7448SOL     OW33979   3.270   2.736   6.483  0.3435  0.4118  0.5478
 7448SOL    HW133980   3.352   2.714   6.526  0.2392  0.4518  0.7721
 7448SOL    HW233981   3.231   2.649   6.472 -0.5500  1.1769 -2.2196
 7449SOL     OW33982   3.700   2.727   4.821 -0.0844  0.2238  0.4913
 7449SOL    HW133983   3.730   2.788   4.754  0.4074  1.0115  1.4138
 7449SOL    HW233984   3.618   2.770   4.848  0.3824 -0.3734  2.9031
 7450SOL     OW33985   4.356   2.840  16.316  0.4597 -0.6875  0.1456
 7450SOL    HW133986   4.430   2.847  16.254  0.4790  1.9781  0.4681
 7450SOL    HW233987   4.281   2.826  16.259 -0.3675 -1.0893  1.3469
 7451SOL     OW33988   2.927   0.176   9.143 -0.2719  0.0360 -0.4545
 7451SOL    HW133989   3.013   0.141   9.118 -0.0694 -0.0081  0.3141
 7451SOL    HW233990   2.881   0.097   9.114 -0.4437  0.3234 -0.9658
 7452SOL     OW33991   1.031   4.036   5.873  0.4925  0.4800  0.2104
 7452SOL    HW133992   1.035   4.062   5.781  1.0006  0.7764  0.3133
 7452SOL    HW233993   1.093   4.094   5.918 -0.2668  2.7527 -1.6466
 7453SOL     OW33994   0.528   4.015  12.142 -0.0600 -0.0405 -0.2583
 7453SOL    HW133995   0.550   4.011  12.049 -1.4176 -0.5648 -0.5541
 7453SOL    HW233996   0.570   3.934  12.169  0.6637  0.5575  0.4246
 7454SOL     OW33997   3.344   2.893   1.952  0.0327 -0.1270  0.1067
 7454SOL    HW133998   3.291   2.972   1.942  0.1080 -0.0903 -0.0136
 7454SOL    HW233999   3.370   2.869   1.863 -0.4372 -1.5824  0.3723
 7455SOL     OW34000   2.517   4.219  14.250  0.3450  0.2601  0.0829
 7455SOL    HW134001   2.440   4.199  14.304 -1.5570  0.3145 -2.6151
 7455SOL    HW234002   2.484   4.300  14.212 -1.0074 -0.5161 -0.4392
 7456SOL     OW34003   0.120   1.935   2.277 -0.1331  0.1097 -0.0381
 7456SOL    HW134004   0.100   2.028   2.267  0.0609  0.0749 -0.7732
 7456SOL    HW234005   0.035   1.900   2.248  0.5837 -1.5900 -0.0918
 7457SOL     OW34006   1.530   0.804   0.153  0.4422  0.7195  0.2414
 7457SOL    HW134007   1.531   0.845   0.067 -0.4303  1.8361  0.7621
 7457SOL    HW234008   1.487   0.874   0.203  1.0863  1.3382 -0.0720
 7458SOL     OW34009   1.427   2.728   1.809  0.0098 -0.3603 -0.3098
 7458SOL    HW134010   1.505   2.766   1.850 -1.6067  0.8593  1.6802
 7458SOL    HW234011   1.476   2.666   1.756  0.2077 -1.4544  1.1297
 7459SOL     OW34012   0.778   3.746   4.565 -0.4585 -0.2399 -0.3664
 7459SOL    HW134013   0.771   3.702   4.480 -0.0772 -2.2837  0.6730
 7459SOL    HW234014   0.863   3.792   4.560 -1.0745  1.0774  1.4046
 7460SOL     OW34015   2.323   4.178   5.987 -0.4469 -0.0493 -0.1107
 7460SOL    HW134016   2.381   4.109   6.021  0.5613  0.1045 -1.5100
 7460SOL    HW234017   2.246   4.130   5.956  0.9527 -1.7938 -0.8999
 7461SOL     OW34018   2.416   1.909   7.225  0.0812 -0.2396 -0.2443
 7461SOL    HW134019   2.341   1.935   7.172 -1.9634 -3.7899  0.8871
 7461SOL    HW234020   2.414   1.814   7.215 -2.4234 -0.0353 -1.6762
 7462SOL     OW34021   3.713   4.606   8.355  0.4680  0.0683 -0.2708
 7462SOL    HW134022   3.651   4.638   8.290 -1.2167 -0.0677  1.2614
 7462SOL    HW234023   3.734   4.531   8.299 -0.4700 -0.2735 -0.1754
 7463SOL     OW34024   2.547   1.107   8.387 -0.4799  0.1834 -0.0563
 7463SOL    HW134025   2.491   1.181   8.361  0.3066  1.4953  1.9889
 7463SOL    HW234026   2.621   1.127   8.331 -1.1184  1.5330 -0.4218
 7464SOL     OW34027   0.668   1.104  10.853 -0.3617  0.8809 -0.3769
 7464SOL    HW134028   0.587   1.055  10.840  0.2488 -1.0305  3.1750
 7464SOL    HW234029   0.686   1.144  10.767 -3.4105 -0.9234 -1.8428
 7465SOL     OW34030   3.981   2.719  16.794 -0.5296 -0.1538 -0.5344
 7465SOL    HW134031   3.959   2.636  16.752  0.0043 -0.5640  0.0039
 7465SOL    HW234032   3.920   2.786  16.764 -0.8824  0.8527  2.4048
 7466SOL     OW34033   1.393   2.311  12.381 -0.5426  0.3554 -0.2932
 7466SOL    HW134034   1.297   2.317  12.384 -0.5608 -0.9234  1.3751
 7466SOL    HW234035   1.408   2.225  12.418  0.6132 -0.8945 -3.6594
 7467SOL     OW34036   0.853   0.571   8.072  0.1924  0.3493  0.3718
 7467SOL    HW134037   0.865   0.564   7.977  0.0093  0.5471  0.3329
 7467SOL    HW234038   0.758   0.555   8.078  0.2110  1.0722  2.4622
 7468SOL     OW34039   0.327   2.515   3.268  0.4427  0.1500 -0.1498
 7468SOL    HW134040   0.399   2.495   3.209  0.2723 -2.7628  0.6500
 7468SOL    HW234041   0.297   2.425   3.282 -0.8506  0.5136 -0.5309
 7469SOL     OW34042   3.065   4.565   3.780  0.1663  0.4515 -0.2169
 7469SOL    HW134043   3.100   4.589   3.695 -0.3051 -1.7334 -1.0208
 7469SOL    HW234044   3.103   4.639   3.827 -3.8926  0.6651  2.7908
 7470SOL     OW34045   2.232   2.911  17.006  0.4079 -0.0643 -0.2915
 7470SOL    HW134046   2.264   2.823  16.985  0.7916 -0.0126  0.0666
 7470SOL    HW234047   2.252   2.911  17.100 -0.0376  0.3273 -0.1948
 7471SOL     OW34048   2.665   2.581   0.856  0.3171 -0.3226  0.0345
 7471SOL    HW134049   2.594   2.603   0.916 -0.4457 -1.8583 -0.3352
 7471SOL    HW234050   2.738   2.636   0.887 -0.0063  0.1581 -0.0438
 7472SOL     OW34051   1.673   3.856   4.523  0.4627  0.4460 -0.3724
 7472SOL    HW134052   1.703   3.872   4.434 -1.0587  0.0556 -0.9357
 7472SOL    HW234053   1.581   3.866   4.501  0.4163  0.1429 -0.3219
 7473SOL     OW34054   1.634   3.480   5.745 -0.2035 -0.1404  0.7276
 7473SOL    HW134055   1.595   3.533   5.815 -0.3534 -0.5171  0.9300
 7473SOL    HW234056   1.580   3.401   5.755 -0.9860  0.1971 -0.9220
 7474SOL     OW34057   4.510   4.440   8.936 -0.1767 -0.4835 -0.3159
 7474SOL    HW134058   4.434   4.431   8.994  0.6652 -0.6416  0.7744
 7474SOL    HW234059   4.570   4.487   8.994 -0.9885  1.5086 -1.1120
 7475SOL     OW34060   3.632   0.358   5.553  0.3737 -0.2978  0.0069
 7475SOL    HW134061   3.588   0.352   5.467 -1.0763 -0.3648  0.7489
 7475SOL    HW234062   3.653   0.268   5.577 -0.4194 -0.4885 -0.0148
 7476SOL     OW34063   2.388   2.605   2.462  0.2082 -0.0233  0.3442
 7476SOL    HW134064   2.349   2.693   2.462 -1.6222 -0.8302 -0.3471
 7476SOL    HW234065   2.325   2.563   2.403 -0.3141  1.6012 -0.2533
 7477SOL     OW34066   1.463   1.124  16.372  0.0346  0.5687 -0.2498
 7477SOL    HW134067   1.550   1.089  16.357 -0.0451  0.1625  0.2530
 7477SOL    HW234068   1.418   1.100  16.291 -0.3800 -1.1379  0.4950
 7478SOL     OW34069   2.694   1.379   1.871  0.1155  0.1448 -0.7472
 7478SOL    HW134070   2.685   1.352   1.780 -1.8239 -0.8967 -0.2336
 7478SOL    HW234071   2.664   1.304   1.922  0.6808  0.6563  0.3337
 7479SOL     OW34072   2.739   0.934   7.463  0.1013  0.0171 -0.4903
 7479SOL    HW134073   2.720   0.864   7.526  1.9144  0.3323  0.3973
 7479SOL    HW234074   2.729   0.883   7.382  0.7142  1.6616 -1.5976
 7480SOL     OW34075   2.793   3.773   7.168 -0.2673  0.2570  0.3072
 7480SOL    HW134076   2.861   3.738   7.110  0.1545  2.3972 -0.4625
 7480SOL    HW234077   2.708   3.749   7.132  0.2635 -1.0885 -0.0884
 7481SOL     OW34078   1.998   1.756   6.039  0.0126  0.5810 -0.0882
 7481SOL    HW134079   2.083   1.740   6.079  0.9598  0.6869 -2.0115
 7481SOL    HW234080   1.946   1.710   6.104  0.7887 -0.9744 -0.5719
 7482SOL     OW34081   3.256   3.334   0.359  0.0508  0.1020  0.3662
 7482SOL    HW134082   3.226   3.258   0.308  4.3185 -0.0512 -1.9570
 7482SOL    HW234083   3.350   3.321   0.371  0.9674  3.8341 -2.9309
 7483SOL     OW34084   4.708   3.186   2.549 -0.6648 -0.1634  0.2092
 7483SOL    HW134085   4.673   3.099   2.568  0.2822 -0.6829 -0.4785
 7483SOL    HW234086   4.640   3.222   2.492 -0.1956  0.2072 -0.1183
 7484SOL     OW34087   1.021   3.353  10.255  0.3023 -0.2626 -0.2185
 7484SOL    HW134088   1.046   3.439  10.288 -0.3916 -0.5184  0.9701
 7484SOL    HW234089   0.945   3.366  10.200  0.4974  1.6666 -0.0204
 7485SOL     OW34090   0.087   0.389   4.859 -0.4720  0.0973  0.0531
 7485SOL    HW134091   0.044   0.456   4.911  0.0838  0.1216  0.4843
 7485SOL    HW234092   0.014   0.334   4.830  0.2559 -0.8652  0.0094
 7486SOL     OW34093   4.571   4.339   2.022 -0.7884 -0.5796  0.2839
 7486SOL    HW134094   4.542   4.286   1.947 -0.4315  1.9128 -1.5809
 7486SOL    HW234095   4.524   4.421   2.010 -0.9674 -1.0087 -2.0743
 7487SOL     OW34096   1.535   1.689   3.094  0.4868 -0.6608 -0.5731
 7487SOL    HW134097   1.476   1.763   3.077 -0.6576 -1.3318  0.4927
 7487SOL    HW234098   1.505   1.668   3.182 -1.1967  0.9282 -0.7490
 7488SOL     OW34099   2.501   4.545   4.581 -0.1893  0.2012  0.4104
 7488SOL    HW134100   2.493   4.453   4.556 -0.6184 -0.5332  3.3100
 7488SOL    HW234101   2.587   4.550   4.623 -0.4354  1.2420  0.7909
 7489SOL     OW34102   3.887   2.925   4.037 -0.2340 -0.1731  0.0624
 7489SOL    HW134103   3.965   2.936   3.982 -0.6461 -0.5412 -0.5853
 7489SOL    HW234104   3.815   2.923   3.975 -1.5948  0.3366  1.6239
 7490SOL     OW34105   0.804   3.159   6.646  0.0883 -0.2117  0.0325
 7490SOL    HW134106   0.898   3.179   6.641  0.4762 -1.9743  0.0525
 7490SOL    HW234107   0.766   3.216   6.579  1.7863  0.7365 -0.1251
 7491SOL     OW34108   2.456   4.245   0.827 -0.0083 -0.3039 -0.2643
 7491SOL    HW134109   2.448   4.219   0.919 -1.6706 -0.5143 -0.4547
 7491SOL    HW234110   2.539   4.292   0.832  0.4873 -1.1726 -0.2186
 7492SOL     OW34111   1.836   4.433   7.998 -0.3273  0.0308 -0.3635
 7492SOL    HW134112   1.882   4.353   7.975  0.4691  1.1071 -2.5956
 7492SOL    HW234113   1.747   4.416   7.968 -0.2665 -0.1302 -0.4520
 7493SOL     OW34114   2.469   0.668  10.894  0.1178  0.4216 -0.0880
 7493SOL    HW134115   2.445   0.713  10.812  0.2122  1.1798  0.2976
 7493SOL    HW234116   2.496   0.735  10.956 -1.8957 -0.7214  2.0017
 7494SOL     OW34117   2.189   2.851  13.446  0.1102 -0.3954  0.2126
 7494SOL    HW134118   2.208   2.775  13.502 -1.9782 -1.3809 -0.3866
 7494SOL    HW234119   2.277   2.879  13.424 -0.9854  4.0273  1.5838
 7495SOL     OW34120   3.688   1.442  15.054  0.1256 -0.0144  0.1663
 7495SOL    HW134121   3.691   1.441  15.149 -1.9140 -2.4884  0.2045
 7495SOL    HW234122   3.774   1.405  15.033  0.7915  0.6103  1.8118
 7496SOL     OW34123   1.167   1.436   3.986 -0.3033  0.1386  0.6954
 7496SOL    HW134124   1.103   1.366   3.971 -0.0081 -0.2978  1.4808
 7496SOL    HW234125   1.243   1.386   4.016  0.3462  1.9053  1.9888
 7497SOL     OW34126   1.035   2.881   9.798 -0.3063  0.4189  0.1077
 7497SOL    HW134127   0.953   2.863   9.753 -0.4238  0.9496  0.1046
 7497SOL    HW234128   1.013   2.862   9.889  1.8457  1.7305  0.9121
 7498SOL     OW34129   4.407   2.121  14.718 -0.1379  0.1130  0.2908
 7498SOL    HW134130   4.456   2.196  14.683 -0.7218  0.0384 -0.6524
 7498SOL    HW234131   4.453   2.048  14.677  0.9170  0.7093  0.4188
 7499SOL     OW34132   3.174   1.130   1.631 -0.0893 -0.2503  0.2546
 7499SOL    HW134133   3.131   1.131   1.545  2.9623 -0.1045 -1.2595
 7499SOL    HW234134   3.128   1.201   1.677  1.3210  0.6886  0.2075
 7500SOL     OW34135   3.786   0.701   9.774  0.0389  0.0281 -0.6179
 7500SOL    HW134136   3.807   0.791   9.799  1.2944 -0.4389 -0.0092
 7500SOL    HW234137   3.811   0.700   9.681 -0.1631 -2.0167 -0.6458
 7501SOL     OW34138   1.245   3.172   7.157  0.3479 -0.0436 -0.6440
 7501SOL    HW134139   1.273   3.117   7.084 -1.1962 -0.3022 -1.0235
 7501SOL    HW234140   1.171   3.125   7.194 -1.6378  2.1164 -1.8298
 7502SOL     OW34141   4.377   3.581   2.682  0.5112 -0.0875 -0.3459
 7502SOL    HW134142   4.327   3.662   2.694 -1.3466 -1.5378  1.6698
 7502SOL    HW234143   4.421   3.574   2.767 -0.3867  0.1913  0.1396
 7503SOL     OW34144   3.921   4.674  16.671  0.3613 -0.3225  0.1940
 7503SOL    HW134145   3.927   4.636  16.584  2.3528 -1.5218  0.8503
 7503SOL    HW234146   3.863   0.012  16.659 -0.2534 -1.1910 -2.1660
 7504SOL     OW34147   4.555   0.269   2.991  0.1879  0.2647  0.0358
 7504SOL    HW134148   4.616   0.204   3.025 -0.3474 -1.1926 -1.8170
 7504SOL    HW234149   4.505   0.288   3.071 -1.7301 -0.6859 -0.9453
 7505SOL     OW34150   3.386   1.576   1.483  0.1567 -0.7136  0.4382
 7505SOL    HW134151   3.380   1.635   1.559 -1.6394 -2.7377  1.8549
 7505SOL    HW234152   3.355   1.636   1.415  2.6086 -1.3473 -1.2437
 7506SOL     OW34153   0.257   1.986   1.053  0.1023 -0.4294 -0.3063
 7506SOL    HW134154   0.279   2.071   1.092 -0.2073 -0.7649  0.5950
 7506SOL    HW234155   0.204   2.007   0.976 -0.8462 -0.3272  0.3733
 7507SOL     OW34156   1.885   4.450   2.434 -0.1320 -0.6942 -0.1521
 7507SOL    HW134157   1.818   4.384   2.415 -0.1053 -0.7708  0.0152
 7507SOL    HW234158   1.949   4.395   2.480 -0.7288 -1.2035  0.0852
 7508SOL     OW34159   3.973   1.853   2.878  0.0525  0.3766 -0.6521
 7508SOL    HW134160   3.925   1.935   2.874 -0.6790  0.0306  1.1694
 7508SOL    HW234161   4.048   1.873   2.935  0.4742  1.2134 -1.5018
 7509SOL     OW34162   2.501   4.227   7.226 -0.0606 -0.1064  0.0254
 7509SOL    HW134163   2.537   4.267   7.147  0.2872  0.5179  0.4970
 7509SOL    HW234164   2.563   4.156   7.242 -0.3610  0.2348  2.7555
 7510SOL     OW34165   2.970   0.005   5.028 -0.4781 -0.5552 -0.5351
 7510SOL    HW134166   3.013   4.693   4.959  0.5034 -0.6313  0.1298
 7510SOL    HW234167   2.943   4.669   5.083  1.0268 -1.0997 -0.5353
 7511SOL     OW34168   4.537   1.753   9.194  0.0059 -0.4367 -0.3486
 7511SOL    HW134169   4.582   1.729   9.113  2.4094  1.5235  0.4393
 7511SOL    HW234170   4.477   1.678   9.187 -1.1093  0.2818  1.4445
 7512SOL     OW34171   4.103   0.424   1.679 -0.3032 -0.1511  0.0464
 7512SOL    HW134172   4.072   0.352   1.734  3.1577  0.0538  2.2400
 7512SOL    HW234173   4.144   0.480   1.744  1.5714  1.0922 -2.1786
 7513SOL     OW34174   0.198   2.445   0.414 -0.9640  0.0989  0.3699
 7513SOL    HW134175   0.250   2.478   0.487 -1.6179 -0.2920  1.0170
 7513SOL    HW234176   0.265   2.400   0.363 -0.0433  3.7183 -1.6210
 7514SOL     OW34177   2.358   3.520  14.931  0.3143 -0.2227  0.4554
 7514SOL    HW134178   2.403   3.436  14.935  0.9624  0.2814  4.0736
 7514SOL    HW234179   2.287   3.504  14.869  1.2376  0.7032 -0.8265
 7515SOL     OW34180   4.683   1.704  12.704  0.3282  0.4228 -0.1234
 7515SOL    HW134181   4.666   1.761  12.779  1.6784  1.2323 -0.4376
 7515SOL    HW234182   0.038   1.678  12.712  0.2691 -0.7556 -3.2114
 7516SOL     OW34183   0.937   0.992   0.414  0.0994  0.2434  0.1790
 7516SOL    HW134184   0.913   0.902   0.435  0.5441  0.6167  2.3081
 7516SOL    HW234185   0.991   0.982   0.336 -1.7234 -1.7506 -0.8312
 7517SOL     OW34186   0.345   2.868   8.973  0.4766 -0.5665 -0.0559
 7517SOL    HW134187   0.347   2.773   8.964  1.2009 -0.6347  0.8342
 7517SOL    HW234188   0.312   2.888   8.886  0.5936 -0.5319 -0.0912
 7518SOL     OW34189   3.054   1.584   7.983  0.1379 -0.0957  0.0941
 7518SOL    HW134190   3.063   1.622   8.070  1.7866 -1.9266  0.7009
 7518SOL    HW234191   3.072   1.662   7.929 -0.9101 -0.4356 -0.7398
 7519SOL     OW34192   2.911   3.819  13.722  0.3078  0.2739 -0.1580
 7519SOL    HW134193   2.934   3.731  13.752  0.4448  0.3696  0.0169
 7519SOL    HW234194   2.850   3.859  13.784  1.7417  2.4189 -0.1413
 7520SOL     OW34195   1.931   0.973   6.095 -0.0677  0.2373 -0.2416
 7520SOL    HW134196   1.917   0.882   6.070 -2.4950  0.3583  0.7139
 7520SOL    HW234197   1.848   0.996   6.136 -0.1192 -1.8577  0.8145
 7521SOL     OW34198   3.107   3.123   5.008 -0.5712  0.0549 -0.4213
 7521SOL    HW134199   3.072   3.199   4.963 -2.2599 -0.4640  0.0139
 7521SOL    HW234200   3.166   3.088   4.941 -1.4615  1.2527 -1.8253
 7522SOL     OW34201   2.561   3.253   6.134 -0.4662  0.9177 -0.0327
 7522SOL    HW134202   2.550   3.173   6.185  0.3679  0.1934 -0.9758
 7522SOL    HW234203   2.562   3.218   6.045  0.6550  2.9369 -0.8189
 7523SOL     OW34204   1.389   4.432   7.937  0.2178 -0.2810 -0.2017
 7523SOL    HW134205   1.457   4.469   7.881  0.3406 -0.5170 -0.2040
 7523SOL    HW234206   1.443   4.385   8.000  0.8043  0.1191 -0.4093
 7524SOL     OW34207   0.271   1.253   9.498  0.1297 -0.5436 -0.5670
 7524SOL    HW134208   0.366   1.245   9.488  0.1455 -0.4229 -0.5087
 7524SOL    HW234209   0.269   1.345   9.524  0.0318 -0.5051 -0.7093
 7525SOL     OW34210   1.798   3.748   8.146 -0.2369  0.0106 -0.4209
 7525SOL    HW134211   1.817   3.674   8.203 -0.8558  1.1806  1.3239
 7525SOL    HW234212   1.862   3.734   8.077  0.0259 -0.2096 -0.1273
 7526SOL     OW34213   2.191   1.492   5.694 -0.6674  0.1056 -0.4409
 7526SOL    HW134214   2.176   1.405   5.659 -4.0516  0.4676  0.1658
 7526SOL    HW234215   2.106   1.534   5.685 -0.1905  1.5952  2.0637
 7527SOL     OW34216   0.114   0.569   8.938  0.4128 -0.1402  0.1390
 7527SOL    HW134217   0.186   0.590   8.878 -0.0104 -0.1599 -0.3707
 7527SOL    HW234218   0.110   0.643   8.999  1.0342 -0.4806  0.5977
 7528SOL     OW34219   0.705   4.566   7.922 -0.0392 -0.1243  0.2898
 7528SOL    HW134220   0.654   4.527   7.850 -1.2917  2.4611 -0.2108
 7528SOL    HW234221   0.788   4.519   7.925  0.1765  0.2954  0.8641
 7529SOL     OW34222   0.092   3.354  15.965 -0.3515  0.4183 -0.4214
 7529SOL    HW134223   0.013   3.304  15.946  0.5359  0.1443 -3.3886
 7529SOL    HW234224   0.081   3.418  15.895  1.0853 -0.4444 -1.4229
 7530SOL     OW34225   4.476   1.467  13.483  0.2585  0.2352  0.5433
 7530SOL    HW134226   4.541   1.537  13.486  0.5438 -0.0883  1.8291
 7530SOL    HW234227   4.457   1.451  13.390  2.6602 -0.6066  0.1989
 7531SOL     OW34228   2.648   1.710   7.888 -0.0576  0.3195  0.6992
 7531SOL    HW134229   2.675   1.736   7.799 -2.4072  2.3079  0.5883
 7531SOL    HW234230   2.704   1.635   7.910 -0.2627 -0.1361 -0.3287
 7532SOL     OW34231   1.337   3.037  10.123 -0.3313  0.2630  0.1635
 7532SOL    HW134232   1.314   3.028  10.215  1.9655 -2.2598  0.4981
 7532SOL    HW234233   1.282   3.105  10.083 -0.8968 -1.1772 -1.5476
 7533SOL     OW34234   0.243   3.840   5.345  0.7205 -0.0018 -0.0466
 7533SOL    HW134235   0.244   3.861   5.251 -1.8550  0.2161 -0.0134
 7533SOL    HW234236   0.215   3.748   5.338 -1.2747  0.6107  0.0138
 7534SOL     OW34237   1.937   0.321   1.979 -0.0521 -0.3498  0.6174
 7534SOL    HW134238   1.960   0.269   1.901  1.6395  0.0520  0.8378
 7534SOL    HW234239   2.014   0.314   2.035  0.0363 -1.0413  0.4064
 7535SOL     OW34240   2.474   1.405   5.663  0.1043 -0.2180 -0.5542
 7535SOL    HW134241   2.489   1.338   5.596 -1.1785 -0.1067 -0.9550
 7535SOL    HW234242   2.385   1.426   5.633  0.2945  1.2236 -0.1459
 7536SOL     OW34243   4.655   1.730  15.498  0.0007  0.4920  0.3205
 7536SOL    HW134244   4.682   1.740  15.406 -2.5745 -0.0841 -0.5129
 7536SOL    HW234245   4.728   1.772  15.544 -0.2718  1.7406 -0.3736
 7537SOL     OW34246   1.270   0.550   4.488  0.2571 -0.5313 -0.0885
 7537SOL    HW134247   1.261   0.456   4.469 -1.8622  0.0706 -2.1548
 7537SOL    HW234248   1.179   0.557   4.517 -0.4354  0.7234 -2.5969
 7538SOL     OW34249   4.730   2.349   4.618 -0.4550  0.1845  0.2205
 7538SOL    HW134250   4.692   2.299   4.545  0.7437 -0.6618  0.1684
 7538SOL    HW234251   4.669   2.330   4.689 -1.2745  0.6419 -0.3677
 7539SOL     OW34252   3.815   1.495   9.534 -0.0151  0.0555 -0.1085
 7539SOL    HW134253   3.757   1.550   9.585  1.5712  1.4255  0.2109
 7539SOL    HW234254   3.893   1.518   9.585 -0.3229  0.4093  0.1973
 7540SOL     OW34255   4.667   0.983   2.867 -1.2146 -0.0938  0.0741
 7540SOL    HW134256   4.604   1.003   2.798 -1.8936  0.0005  0.7156
 7540SOL    HW234257   4.609   0.986   2.944  0.3474  0.7372  1.2274
 7541SOL     OW34258   0.922   3.513   4.429  0.0661 -0.0489  0.2107
 7541SOL    HW134259   0.879   3.523   4.344  1.1429  0.1104 -0.3121
 7541SOL    HW234260   0.957   3.425   4.414 -2.4346 -1.0246  0.0398
 7542SOL     OW34261   1.151   0.603   5.384  0.1009 -0.5102 -0.0602
 7542SOL    HW134262   1.096   0.565   5.454 -0.8584 -0.5892 -0.8506
 7542SOL    HW234263   1.108   0.686   5.366 -0.4017 -0.7032  0.2447
 7543SOL     OW34264   2.275   2.233   8.098  0.2130 -0.4351  0.4707
 7543SOL    HW134265   2.281   2.216   8.004  2.0541 -0.6020  0.6148
 7543SOL    HW234266   2.182   2.257   8.102  0.6062  1.1089  0.5745
 7544SOL     OW34267   4.272   2.148   5.957  0.5341  0.2016  0.0239
 7544SOL    HW134268   4.271   2.244   5.966 -1.1501  0.0332  1.6839
 7544SOL    HW234269   4.249   2.135   5.865 -2.3099  0.6230  0.6533
 7545SOL     OW34270   4.578   3.385   9.221 -0.1238  0.2727  0.2611
 7545SOL    HW134271   4.581   3.377   9.317  1.5236 -0.4147  0.1556
 7545SOL    HW234272   4.664   3.362   9.187 -0.2781 -0.7346  0.5458
 7546SOL     OW34273   2.141   2.986  13.832 -0.5701  0.2411 -0.3210
 7546SOL    HW134274   2.235   2.997  13.818 -0.9040  3.7325  0.3183
 7546SOL    HW234275   2.137   2.890  13.831 -0.4959  0.2264  1.3365
 7547SOL     OW34276   1.608   3.097   2.338 -0.2162  0.4312 -0.6915
 7547SOL    HW134277   1.677   3.148   2.293  0.6931  0.5656  0.8515
 7547SOL    HW234278   1.615   3.125   2.429 -2.4064 -1.3609  0.0083
 7548SOL     OW34279   3.163   4.718   7.220 -0.0432  0.1274  0.6411
 7548SOL    HW134280   3.150   4.643   7.278  0.4454 -2.0957 -2.1040
 7548SOL    HW234281   3.257   4.705   7.208 -0.1023  1.0784 -0.7609
 7549SOL     OW34282   2.614   4.004  11.713 -0.4788  0.2418 -0.2184
 7549SOL    HW134283   2.623   4.091  11.752  1.5445  0.0840 -0.3295
 7549SOL    HW234284   2.653   3.962  11.790 -2.1859 -0.8233  0.0655
 7550SOL     OW34285   2.046   4.597   3.453 -0.0979  0.2166 -0.2642
 7550SOL    HW134286   2.085   4.680   3.480 -0.6820  0.4845 -0.2641
 7550SOL    HW234287   2.092   4.532   3.507  0.1222  0.3596 -0.2804
 7551SOL     OW34288   3.467   2.341   2.752 -0.7485 -0.3443 -0.1594
 7551SOL    HW134289   3.454   2.362   2.844  0.3691  0.9247 -0.3011
 7551SOL    HW234290   3.381   2.349   2.710 -0.8692 -0.2080  0.1178
 7552SOL     OW34291   1.595   1.360   8.139 -0.5518 -0.0302 -0.2371
 7552SOL    HW134292   1.550   1.281   8.169 -0.4828 -0.9344 -2.5985
 7552SOL    HW234293   1.615   1.401   8.224 -0.0310 -0.1630 -0.2958
 7553SOL     OW34294   2.943   1.401   9.800  0.0583 -0.0942  0.5213
 7553SOL    HW134295   2.861   1.451   9.795 -2.0674 -3.4942  1.9177
 7553SOL    HW234296   2.971   1.415   9.890  1.0952  0.2428  0.1532
 7554SOL     OW34297   3.176   1.394  13.987  0.0985  0.4712 -0.1553
 7554SOL    HW134298   3.111   1.424  14.051 -1.4713  0.7323 -1.8809
 7554SOL    HW234299   3.235   1.469  13.991 -0.1084  0.6745 -1.0224
 7555SOL     OW34300   0.151   4.272   4.617 -0.1423  0.2147  0.1763
 7555SOL    HW134301   0.195   4.334   4.674  2.2837 -0.8332 -0.5769
 7555SOL    HW234302   0.222   4.230   4.568 -2.2768 -2.5101 -0.5624
 7556SOL     OW34303   1.562   2.972  10.570  0.0508 -0.5483  0.3978
 7556SOL    HW134304   1.608   3.055  10.582  0.5491 -0.6179 -1.0172
 7556SOL    HW234305   1.479   3.004  10.534 -0.9588 -3.4506  0.1341
 7557SOL     OW34306   2.958   1.082  13.585 -0.7522 -0.4130 -0.0834
 7557SOL    HW134307   3.018   1.153  13.608  0.3672 -1.6452  0.8472
 7557SOL    HW234308   2.920   1.099  13.499 -1.4605  3.3066  0.9728
 7558SOL     OW34309   3.423   0.628   6.649  0.1406  0.2622  0.2772
 7558SOL    HW134310   3.403   0.624   6.743 -0.4533  0.2881  0.1557
 7558SOL    HW234311   3.435   0.536   6.623  2.6061  0.7387 -0.2028
 7559SOL     OW34312   0.659   1.217   5.155 -0.6201  0.1732 -0.0967
 7559SOL    HW134313   0.574   1.258   5.141 -1.8492 -1.7849  1.8013
 7559SOL    HW234314   0.688   1.264   5.233  1.4185 -0.7739 -0.2873
 7560SOL     OW34315   0.519   4.453  11.672  0.3487 -0.0836  0.5927
 7560SOL    HW134316   0.565   4.403  11.604 -4.1970 -3.0037 -0.3310
 7560SOL    HW234317   0.578   4.528  11.670 -1.2630  1.2158  2.3048
 7561SOL     OW34318   2.238   2.900   8.204 -0.0764  0.2660  0.1327
 7561SOL    HW134319   2.318   2.891   8.254 -0.1508  1.2766  0.4394
 7561SOL    HW234320   2.174   2.911   8.275  0.1242 -0.8865  0.4944
 7562SOL     OW34321   2.259   3.957  15.496  0.1812  0.3390 -0.4592
 7562SOL    HW134322   2.171   3.944  15.461  0.5706 -1.2532 -0.8743
 7562SOL    HW234323   2.313   3.904  15.437  2.1354  1.5732  0.2285
 7563SOL     OW34324   0.772   3.534   4.176 -0.3381 -0.0912  0.1181
 7563SOL    HW134325   0.824   3.612   4.194  1.3319 -0.9102 -1.1524
 7563SOL    HW234326   0.695   3.563   4.127  0.4159  1.0302 -0.4136
 7564SOL     OW34327   1.643   2.592   0.423  0.3822 -0.1265 -0.6237
 7564SOL    HW134328   1.725   2.548   0.402 -1.1998 -4.5171  2.3817
 7564SOL    HW234329   1.574   2.528   0.407 -1.2381  1.5602 -0.3211
 7565SOL     OW34330   2.719   4.153  10.182  0.0899 -0.4711 -0.1892
 7565SOL    HW134331   2.728   4.196  10.096 -1.9047  1.4653  0.5650
 7565SOL    HW234332   2.693   4.227  10.236 -1.3629 -0.5502 -0.7749
 7566SOL     OW34333   0.273   2.223   7.537  0.6203  0.0112 -0.0499
 7566SOL    HW134334   0.277   2.227   7.441  0.0463  2.9579  0.0701
 7566SOL    HW234335   0.210   2.294   7.545 -2.3138 -2.6175  0.1176
 7567SOL     OW34336   1.599   1.678   9.315 -0.2415  0.5582 -0.5575
 7567SOL    HW134337   1.536   1.661   9.385  2.0613  2.3136  1.9566
 7567SOL    HW234338   1.656   1.728   9.373 -1.0801  0.4141  0.3826
 7568SOL     OW34339   2.690   0.187   4.534  0.2676 -0.0292  0.2850
 7568SOL    HW134340   2.757   0.208   4.468  0.0322 -1.9573 -0.5573
 7568SOL    HW234341   2.634   0.125   4.488  1.1157  0.5092 -1.5109
 7569SOL     OW34342   0.657   0.424   2.046 -0.4166 -0.1418  0.0159
 7569SOL    HW134343   0.680   0.493   2.107  1.1243  0.5583 -1.3600
 7569SOL    HW234344   0.741   0.399   2.007 -0.8366 -2.0736  0.3375
 7570SOL     OW34345   4.104   2.699   7.275  0.1464  0.1310 -0.0772
 7570SOL    HW134346   4.131   2.748   7.353  1.9526 -0.3804 -0.3858
 7570SOL    HW234347   4.179   2.646   7.247  0.5299 -0.1821  1.5632
 7571SOL     OW34348   4.314   2.499   1.291  0.0213  0.6096  0.1095
 7571SOL    HW134349   4.367   2.466   1.363 -0.9874  1.3647  1.2012
 7571SOL    HW234350   4.298   2.418   1.244  1.8796 -0.2572  0.9837
 7572SOL     OW34351   3.075   0.049   3.955  0.5255 -0.5435  0.1874
 7572SOL    HW134352   3.020   0.107   3.902  1.0040  0.4319  0.7468
 7572SOL    HW234353   3.155   0.078   3.910 -0.4504 -1.9879 -2.4599
 7573SOL     OW34354   3.859   2.240   3.367  0.1642  0.5206  0.2646
 7573SOL    HW134355   3.892   2.259   3.279 -1.6189 -0.6997 -0.7019
 7573SOL    HW234356   3.781   2.190   3.340  0.8739 -0.5124  0.1136
 7574SOL     OW34357   1.427   2.254   0.923  0.4768  0.3015  0.4725
 7574SOL    HW134358   1.371   2.300   0.985  0.4388  1.5717 -0.5189
 7574SOL    HW234359   1.386   2.267   0.838 -0.7362  2.6445  1.4090
 7575SOL     OW34360   1.257   1.366   4.799 -0.7986  0.8117 -0.2460
 7575SOL    HW134361   1.337   1.361   4.747 -2.1186 -2.2710 -1.9890
 7575SOL    HW234362   1.197   1.321   4.739 -2.3025  0.6940  1.3335
 7576SOL     OW34363   4.032   2.320  17.329  0.5591 -0.1591 -0.6396
 7576SOL    HW134364   4.080   2.328  17.247  1.2832 -0.2717 -0.2236
 7576SOL    HW234365   4.105   2.277  17.374 -0.0326 -1.4190 -0.8778
 7577SOL     OW34366   1.821   0.571  16.127  0.3655  0.7300 -0.4898
 7577SOL    HW134367   1.790   0.631  16.060  0.0381  0.5909 -0.4657
 7577SOL    HW234368   1.805   0.484  16.089 -0.7292  0.1338  1.2821
 7578SOL     OW34369   4.641   0.133   3.439 -0.4394 -0.4665  0.1302
 7578SOL    HW134370   4.728   0.093   3.449 -0.5129  0.0776  2.8774
 7578SOL    HW234371   4.660   0.174   3.355 -2.9661  0.6724  0.1431
 7579SOL     OW34372   2.503   4.208   4.795 -0.3024  0.2705 -0.0221
 7579SOL    HW134373   2.487   4.228   4.703 -2.4242  1.4519  0.5894
 7579SOL    HW234374   2.537   4.119   4.790 -0.4367  0.2374 -0.3597
 7580SOL     OW34375   1.743   4.442  12.945 -0.5504 -0.2258  0.4191
 7580SOL    HW134376   1.747   4.359  12.898  0.6764  0.0742  0.0055
 7580SOL    HW234377   1.808   4.485  12.890 -1.1747 -1.1589 -1.0455
 7581SOL     OW34378   1.771   4.556  12.073 -0.3051 -0.0461 -0.0114
 7581SOL    HW134379   1.866   4.554  12.061 -0.4520  0.4249 -1.2415
 7581SOL    HW234380   1.762   4.651  12.060  1.7711  0.3838  1.8352
 7582SOL     OW34381   3.796   2.384   9.771  0.6363  0.0828  0.3591
 7582SOL    HW134382   3.719   2.327   9.767  0.9035 -0.3680  1.4975
 7582SOL    HW234383   3.785   2.419   9.859  1.2120  1.4542 -0.1069
 7583SOL     OW34384   3.489   2.610   7.985 -0.4787  0.2845  0.1359
 7583SOL    HW134385   3.559   2.637   7.925 -0.3816  1.2693  0.6970
 7583SOL    HW234386   3.413   2.644   7.939  0.3345 -0.5080 -1.8099
 7584SOL     OW34387   1.098   1.041   6.518 -0.1912  0.2338 -0.2856
 7584SOL    HW134388   1.050   0.963   6.490 -1.7514  1.5760 -1.3399
 7584SOL    HW234389   1.119   1.078   6.432  2.8800 -2.1776 -0.5880
 7585SOL     OW34390   3.463   2.209  17.324 -0.1257 -0.3655  0.6021
 7585SOL    HW134391   3.499   2.216  17.413 -0.8973 -0.1982  0.9022
 7585SOL    HW234392   3.492   2.290  17.281 -1.5110  0.0820  0.5318
 7586SOL     OW34393   4.583   3.853   9.219  0.4721  0.6613 -0.2093
 7586SOL    HW134394   4.557   3.774   9.173 -3.7134  1.5389  0.6190
 7586SOL    HW234395   4.672   3.820   9.234  1.7802  4.3568  0.3675
 7587SOL     OW34396   1.207   2.746   9.169 -0.4126 -0.1191 -0.2976
 7587SOL    HW134397   1.119   2.721   9.198  0.7134 -1.4571  1.9476
 7587SOL    HW234398   1.202   2.764   9.075  1.6534  2.1059  0.0050
 7588SOL     OW34399   4.456   0.548   4.013 -0.1118 -0.0745 -0.3841
 7588SOL    HW134400   4.538   0.555   4.061  0.5691 -0.8012 -1.4383
 7588SOL    HW234401   4.411   0.621   4.054  2.3246  2.0640 -1.5343
 7589SOL     OW34402   0.430   0.248   9.446  0.3107 -0.5970  0.1082
 7589SOL    HW134403   0.355   0.297   9.479  2.2179  2.2026  0.3127
 7589SOL    HW234404   0.393   0.197   9.374  0.8350 -1.3224  0.3453
 7590SOL     OW34405   0.823   0.465   8.424  0.6227  0.6683 -0.3451
 7590SOL    HW134406   0.762   0.396   8.398 -1.5177  1.2299  3.2226
 7590SOL    HW234407   0.821   0.462   8.519 -1.4026 -0.6986 -0.4447
 7591SOL     OW34408   1.694   3.130   1.847 -0.2105 -0.1981  0.9955
 7591SOL    HW134409   1.625   3.196   1.838  1.9615  2.2674  2.1658
 7591SOL    HW234410   1.731   3.131   1.759 -0.7977  0.9318  0.7597
 7592SOL     OW34411   4.078   1.860   5.783 -0.6109 -0.8475 -0.1629
 7592SOL    HW134412   3.988   1.889   5.768  0.1080  1.4059 -0.0743
 7592SOL    HW234413   4.121   1.945   5.770 -1.4522 -0.4493 -0.3463
 7593SOL     OW34414   0.636   0.786   8.574 -0.1715 -0.2619 -0.2074
 7593SOL    HW134415   0.590   0.836   8.507 -1.5656  0.3245  1.1845
 7593SOL    HW234416   0.722   0.827   8.568  0.1262 -1.1305 -1.6838
 7594SOL     OW34417   3.161   3.039  14.856 -0.4246 -0.4615  0.1764
 7594SOL    HW134418   3.128   3.041  14.946 -2.0938 -2.3857 -0.4123
 7594SOL    HW234419   3.257   3.036  14.864 -0.6027  0.2733  2.6047
 7595SOL     OW34420   3.636   0.185  16.248 -0.2955  0.1667 -0.2604
 7595SOL    HW134421   3.644   0.253  16.181  1.1028  1.0947  0.8520
 7595SOL    HW234422   3.715   0.141  16.215  1.5483  3.5847 -0.4172
 7596SOL     OW34423   1.306   2.199  17.637  0.1364  0.1416  0.1247
 7596SOL    HW134424   1.302   2.139  17.562 -2.1090  0.6317 -0.1574
 7596SOL    HW234425   1.385   2.181  17.688  1.8340  0.3658 -2.4212
 7597SOL     OW34426   4.050   3.787   4.941  0.4127 -0.4497 -0.1968
 7597SOL    HW134427   3.999   3.865   4.919 -0.6138 -0.6980  1.2985
 7597SOL    HW234428   3.996   3.751   5.011 -0.9196  1.0755 -0.4358
 7598SOL     OW34429   2.632   0.445   5.318 -0.0967  0.0915 -0.1058
 7598SOL    HW134430   2.553   0.417   5.272  0.6821 -1.6513 -0.3627
 7598SOL    HW234431   2.699   0.385   5.286  0.7290  0.6833  0.5335
 7599SOL     OW34432   2.156   3.685  10.057  0.0553 -0.0001 -0.0222
 7599SOL    HW134433   2.200   3.608  10.022 -0.0906 -0.3392  0.5278
 7599SOL    HW234434   2.146   3.747   9.985 -0.3334  0.3603  0.3421
 7600SOL     OW34435   4.135   3.310   5.652  0.2229  0.4730  0.1555
 7600SOL    HW134436   4.110   3.395   5.689 -0.0448 -0.3428  1.8742
 7600SOL    HW234437   4.221   3.303   5.693 -0.6952  0.0555  2.0197
 7601SOL     OW34438   1.971   1.292   9.197  0.1281  0.3505  0.1930
 7601SOL    HW134439   1.922   1.279   9.278 -0.5468 -2.5448 -0.6641
 7601SOL    HW234440   1.899   1.300   9.135 -0.2832 -1.8292  0.4016
 7602SOL     OW34441   2.233   0.781  11.530  0.6200  0.1088  0.1235
 7602SOL    HW134442   2.260   0.873  11.523  2.6200 -0.5988 -1.5956
 7602SOL    HW234443   2.239   0.766  11.625  1.1151 -1.8416 -0.2167
 7603SOL     OW34444   3.559   0.919   7.229 -0.3477  0.1441  0.4187
 7603SOL    HW134445   3.522   0.908   7.317 -2.2524 -0.9692 -0.5455
 7603SOL    HW234446   3.651   0.894   7.240 -0.4207 -0.6490 -0.8825
 7604SOL     OW34447   0.580   1.410   9.841 -0.0436  0.2074 -0.5832
 7604SOL    HW134448   0.670   1.400   9.874 -0.6958 -1.8283  0.5650
 7604SOL    HW234449   0.541   1.327   9.868 -2.7532  1.3380 -1.0787
 7605SOL     OW34450   3.383   2.461   4.257  0.2277  0.1258 -0.0507
 7605SOL    HW134451   3.402   2.376   4.297  0.3668  0.8522  1.4162
 7605SOL    HW234452   3.456   2.509   4.297  1.3357 -2.0031  0.4830
 7606SOL     OW34453   4.019   3.444   3.801  0.0679  0.1184  0.1879
 7606SOL    HW134454   4.084   3.449   3.871 -0.1117 -1.6018  0.4686
 7606SOL    HW234455   3.937   3.454   3.848 -0.7518 -0.4556 -1.1360
 7607SOL     OW34456   2.502   0.091   9.876  0.3766  0.2572  0.4873
 7607SOL    HW134457   2.426   0.057   9.829  0.5261  1.2298 -0.4563
 7607SOL    HW234458   2.500   0.040   9.957 -2.2272 -0.6436 -0.1224
 7608SOL     OW34459   3.787   3.639   3.825 -0.0010  0.0135  0.1474
 7608SOL    HW134460   3.729   3.574   3.785  0.2597 -0.4195  0.4810
 7608SOL    HW234461   3.773   3.710   3.762 -1.4004  0.3647  0.8456
 7609SOL     OW34462   0.754   4.029   6.557  0.3932 -0.5718 -0.1722
 7609SOL    HW134463   0.669   3.994   6.532  0.0403  0.1629  0.0018
 7609SOL    HW234464   0.779   3.964   6.623 -0.7644  0.6035  1.4402
 7610SOL     OW34465   3.278   4.439   9.035  0.2278  0.6224 -0.3856
 7610SOL    HW134466   3.255   4.402   9.121  1.7693 -1.4708 -0.8829
 7610SOL    HW234467   3.329   4.369   8.996  0.9173 -0.4459  2.3823
 7611SOL     OW34468   0.913   2.543  14.678 -0.4003 -0.5813 -0.3926
 7611SOL    HW134469   0.837   2.577  14.631  0.6404  1.5313 -0.5495
 7611SOL    HW234470   0.953   2.503  14.600  0.7179 -0.4635  0.1177
 7612SOL     OW34471   3.277   1.579   2.958  0.3735  0.0891  0.3441
 7612SOL    HW134472   3.286   1.486   2.936  2.5837  0.0849  1.2777
 7612SOL    HW234473   3.228   1.577   3.040 -1.0042  2.1793 -0.4253
 7613SOL     OW34474   2.503   3.184   8.529  0.2112  0.2049  0.1306
 7613SOL    HW134475   2.567   3.196   8.599  0.0536 -0.5351  0.4022
 7613SOL    HW234476   2.558   3.205   8.453 -0.0438 -2.2839 -0.7388
 7614SOL     OW34477   3.535   0.170   5.861  0.1743  0.6557  0.7724
 7614SOL    HW134478   3.553   0.155   5.954 -0.0849 -1.1771  0.5151
 7614SOL    HW234479   3.440   0.182   5.868 -0.1934 -0.4481 -2.6678
 7615SOL     OW34480   0.956   3.807  10.528  0.1709  0.0643 -0.1673
 7615SOL    HW134481   1.022   3.843  10.586  2.1590  0.9486 -3.0071
 7615SOL    HW234482   0.887   3.856  10.572 -0.6921 -0.6996 -0.6523
 7616SOL     OW34483   0.881   0.830   9.114 -0.0186  0.2500 -0.7263
 7616SOL    HW134484   0.828   0.870   9.045 -1.8882  0.0069  0.5543
 7616SOL    HW234485   0.967   0.861   9.087 -0.0148 -0.4749 -1.5428
 7617SOL     OW34486   1.200   2.702   2.754 -0.3317 -0.1343  0.1485
 7617SOL    HW134487   1.164   2.700   2.665  1.5257 -1.4597 -0.5872
 7617SOL    HW234488   1.163   2.617   2.774  0.5213 -0.2383  1.2740
 7618SOL     OW34489   0.955   3.133   2.382  0.2539 -0.6398 -0.3325
 7618SOL    HW134490   1.044   3.149   2.415 -0.1843  0.2834  0.4007
 7618SOL    HW234491   0.928   3.090   2.463 -1.9761 -0.6908 -1.1041
 7619SOL     OW34492   1.377   1.854   9.548  0.1949 -0.6358 -0.2612
 7619SOL    HW134493   1.421   1.896   9.474  0.4819 -0.4570  0.0151
 7619SOL    HW234494   1.372   1.937   9.595 -0.3218 -2.7695  3.4187
 7620SOL     OW34495   0.392   2.444   4.455  0.4629  0.2125 -0.3759
 7620SOL    HW134496   0.338   2.370   4.483 -1.6890  1.3006 -1.6979
 7620SOL    HW234497   0.482   2.410   4.447  0.1148 -0.7657 -0.1521
 7621SOL     OW34498   4.442   2.646  14.488  0.1304 -0.3294 -0.0577
 7621SOL    HW134499   4.372   2.584  14.511  0.1884 -0.1414  0.6343
 7621SOL    HW234500   4.406   2.665  14.401 -2.6274 -0.0904  1.1323
 7622SOL     OW34501   1.273   2.104   9.623 -0.3647 -0.4531  0.3150
 7622SOL    HW134502   1.255   2.192   9.654  0.0050  0.0929 -1.0399
 7622SOL    HW234503   1.210   2.086   9.554 -0.4217 -1.4514  0.6145
 7623SOL     OW34504   3.937   1.962   0.636  0.0381  0.0102 -0.1506
 7623SOL    HW134505   3.901   1.989   0.721  0.5492  3.4488 -1.0412
 7623SOL    HW234506   3.888   1.880   0.630  1.2149 -0.6582 -0.5633
 7624SOL     OW34507   4.472   2.638   8.565 -0.0169  0.2683  0.7244
 7624SOL    HW134508   4.515   2.706   8.617 -0.1961  0.2567  0.8848
 7624SOL    HW234509   4.388   2.682   8.553 -1.1120 -1.8949  0.3834
 7625SOL     OW34510   3.419   3.610   9.126 -0.0576  0.5995  0.1415
 7625SOL    HW134511   3.479   3.651   9.189  0.9531  0.6621 -0.8504
 7625SOL    HW234512   3.458   3.639   9.043 -1.9464  1.1779 -0.5409
 7626SOL     OW34513   4.072   3.121   6.217 -0.0203 -0.0935  0.4657
 7626SOL    HW134514   4.050   3.100   6.127  2.5295  0.8456 -0.3677
 7626SOL    HW234515   4.099   3.032   6.239  0.0819  0.2073  1.5891
 7627SOL     OW34516   3.705   4.404   4.590 -0.4036  0.0746  0.0787
 7627SOL    HW134517   3.722   4.353   4.669  3.9497 -0.7149 -1.3248
 7627SOL    HW234518   3.703   4.494   4.622  0.3104  0.1590 -0.1091
 7628SOL     OW34519   0.821   2.358   9.522  0.5252 -0.0671 -0.0133
 7628SOL    HW134520   0.746   2.305   9.493 -1.5877  2.0593  1.6173
 7628SOL    HW234521   0.789   2.369   9.611 -1.0957 -0.2840 -0.5751
 7629SOL     OW34522   2.885   4.194   4.981  0.3107  0.1792 -0.2142
 7629SOL    HW134523   2.882   4.100   4.963  3.2132 -0.2056  1.4866
 7629SOL    HW234524   2.916   4.180   5.070  1.2649  1.1354 -0.4012
 7630SOL     OW34525   3.789   1.214   3.230 -0.2590 -0.1533 -0.4705
 7630SOL    HW134526   3.828   1.297   3.203 -1.3670  1.2474  2.2068
 7630SOL    HW234527   3.748   1.196   3.145 -1.0292  0.0431 -0.1472
 7631SOL     OW34528   2.048   1.250   5.297 -0.0309  0.2009  0.2964
 7631SOL    HW134529   2.054   1.250   5.202 -0.8188  1.5578  0.2464
 7631SOL    HW234530   2.065   1.343   5.309 -3.6641  0.7520  1.1580
 7632SOL     OW34531   3.005   2.922   7.230 -0.7674 -0.2736  0.2308
 7632SOL    HW134532   3.011   2.840   7.181 -0.4824 -0.0356 -0.1356
 7632SOL    HW234533   2.915   2.945   7.209  0.0487  1.9591 -0.8521
 7633SOL     OW34534   2.175   4.678  15.668 -0.3942  0.1051 -0.3921
 7633SOL    HW134535   2.198   4.589  15.695  1.8831  0.3962 -1.3191
 7633SOL    HW234536   2.090   4.665  15.626 -0.4579 -0.2442 -0.1529
 7634SOL     OW34537   4.405   0.539   2.335 -0.4256 -0.1863  0.0966
 7634SOL    HW134538   4.436   0.481   2.404 -0.2603 -1.7111 -1.2621
 7634SOL    HW234539   4.332   0.485   2.304 -0.0969  0.4138 -1.7549
 7635SOL     OW34540   3.980   4.419   2.018  0.3776 -0.2487  0.1389
 7635SOL    HW134541   3.907   4.480   2.006  0.6996  0.3190  1.0265
 7635SOL    HW234542   3.970   4.362   1.943  0.0816  0.6189 -0.4842
 7636SOL     OW34543   4.038   0.213   3.328 -0.7196 -0.1491 -0.2571
 7636SOL    HW134544   4.109   0.154   3.355  0.9316  1.7400 -0.5085
 7636SOL    HW234545   3.961   0.167   3.362 -2.2936  1.2428 -1.9212
 7637SOL     OW34546   3.691   3.512  13.142  0.6242 -0.3165 -0.4300
 7637SOL    HW134547   3.645   3.566  13.207  0.8736 -0.3374 -0.2363
 7637SOL    HW234548   3.768   3.563  13.119 -1.3874  3.3326  1.0792
 7638SOL     OW34549   1.785   2.642   7.019  0.1945 -0.4731 -0.4214
 7638SOL    HW134550   1.864   2.595   7.047 -1.7633 -3.1295  0.6907
 7638SOL    HW234551   1.824   2.720   6.980 -2.5306  1.0154 -0.1448
 7639SOL     OW34552   2.995   4.565  16.815 -0.4600 -0.0705 -0.0311
 7639SOL    HW134553   3.021   4.533  16.728  3.0369  3.0971 -0.1391
 7639SOL    HW234554   3.003   4.486  16.868  0.6990  0.0087 -0.0947
 7640SOL     OW34555   0.662   3.247   8.736  0.8044  0.4424 -0.1071
 7640SOL    HW134556   0.663   3.296   8.819  2.3957  0.1024  0.0748
 7640SOL    HW234557   0.601   3.177   8.757  1.1976 -0.2845 -1.3520
 7641SOL     OW34558   4.269   3.561   4.280  0.6194  0.2864 -0.1405
 7641SOL    HW134559   4.201   3.508   4.322  3.0117 -2.3196  0.4165
 7641SOL    HW234560   4.289   3.620   4.353 -0.3147  0.5519 -0.0903
 7642SOL     OW34561   1.362   2.809   9.545  0.6259 -0.0507 -0.3200
 7642SOL    HW134562   1.359   2.869   9.619  0.0573  1.2164 -1.3665
 7642SOL    HW234563   1.272   2.776   9.542  0.1915  1.1647 -0.6181
 7643SOL     OW34564   1.777   3.736   0.303  0.1374  0.2326  0.2873
 7643SOL    HW134565   1.828   3.682   0.243 -1.6541  1.8265 -2.6280
 7643SOL    HW234566   1.700   3.755   0.251  0.9406 -2.7062 -1.9391
 7644SOL     OW34567   1.093   0.066   8.041  0.4312  0.2466 -0.1081
 7644SOL    HW134568   1.135   0.145   8.009  0.0287 -0.5128 -2.5443
 7644SOL    HW234569   1.153   0.042   8.112  1.2433 -0.0765 -0.8968
 7645SOL     OW34570   3.972   1.795   4.758  0.5730 -0.1801 -0.5096
 7645SOL    HW134571   3.968   1.887   4.784 -0.4088 -0.4622  0.3421
 7645SOL    HW234572   3.905   1.759   4.816 -0.2567 -0.6018 -1.7161
 7646SOL     OW34573   0.788   2.015   9.322 -0.3125 -0.1366 -0.1953
 7646SOL    HW134574   0.872   1.970   9.325 -0.6890 -0.7409  1.3864
 7646SOL    HW234575   0.770   1.999   9.229  1.9707 -2.4720 -0.2191
 7647SOL     OW34576   2.759   2.520   5.032  0.1079 -0.1345  0.2759
 7647SOL    HW134577   2.838   2.519   5.085  0.6827  2.7012 -0.5003
 7647SOL    HW234578   2.696   2.572   5.083  0.2770  1.0359 -0.6880
 7648SOL     OW34579   1.310   4.181   3.413  0.5888 -0.8401  0.0164
 7648SOL    HW134580   1.388   4.154   3.365  1.2848 -1.0524  1.2770
 7648SOL    HW234581   1.337   4.194   3.504  0.6437  0.1271 -0.1300
 7649SOL     OW34582   1.491   0.335   4.552  0.7197 -0.2732  0.1202
 7649SOL    HW134583   1.469   0.387   4.630 -1.4783 -2.8776  1.2334
 7649SOL    HW234584   1.399   0.313   4.539  0.4000  0.9586  0.2478
 7650SOL     OW34585   1.017   3.845   4.583  0.2537 -0.2881  0.7749
 7650SOL    HW134586   1.046   3.787   4.512  0.1877  0.2710  0.2968
 7650SOL    HW234587   1.090   3.906   4.595 -0.8130  0.2404  4.3611
 7651SOL     OW34588   4.682   3.069   8.045  0.5869 -0.8776  0.1942
 7651SOL    HW134589   4.590   3.048   8.030  0.8598 -1.6381 -0.4225
 7651SOL    HW234590   4.714   3.079   7.955 -2.3706 -0.3898 -0.8014
 7652SOL     OW34591   0.717   2.613   9.217 -0.4110 -0.1272  0.2779
 7652SOL    HW134592   0.641   2.614   9.158 -0.0459  4.1481 -0.0749
 7652SOL    HW234593   0.705   2.522   9.245  1.3654 -0.4404  0.0145
 7653SOL     OW34594   4.495   0.401   7.589 -0.2494 -0.0496 -0.2592
 7653SOL    HW134595   4.580   0.398   7.547 -0.2830  0.2485 -0.3493
 7653SOL    HW234596   4.505   0.319   7.638  2.7040  0.5669  0.1219
 7654SOL     OW34597   1.420   3.816   4.854 -0.2450  0.2611 -0.1129
 7654SOL    HW134598   1.357   3.833   4.923 -2.7088  0.8648 -2.4939
 7654SOL    HW234599   1.451   3.731   4.886 -1.7096  0.2020  1.1298
 7655SOL     OW34600   4.564   0.394   5.207  0.0480  0.6733 -0.5047
 7655SOL    HW134601   4.655   0.422   5.198 -0.0788  0.2427 -2.8842
 7655SOL    HW234602   4.577   0.299   5.199  1.6918  0.7540  1.1103
 7656SOL     OW34603   3.836   0.213   1.071 -0.8012 -0.1528 -0.1756
 7656SOL    HW134604   3.786   0.204   1.153  0.5105  1.0695  0.7644
 7656SOL    HW234605   3.793   0.142   1.024 -2.8049  0.2956  0.9681
 7657SOL     OW34606   1.039   0.779   4.059 -0.0012 -0.2185 -0.4917
 7657SOL    HW134607   0.985   0.760   4.136 -1.7772  1.0946 -1.4331
 7657SOL    HW234608   0.987   0.842   4.009  0.4916 -0.7827 -1.7023
 7658SOL     OW34609   4.274   2.978   7.726  0.5810 -0.0917  0.5542
 7658SOL    HW134610   4.224   3.059   7.734  2.1640  0.6432  3.1466
 7658SOL    HW234611   4.254   2.952   7.637  1.4647  1.4004 -0.0995
 7659SOL     OW34612   3.743   3.032  11.641  0.4855 -0.1797  0.0304
 7659SOL    HW134613   3.796   2.968  11.689 -0.7192 -1.2463 -0.0740
 7659SOL    HW234614   3.720   2.981  11.564  0.7496  1.1716 -0.9498
 7660SOL     OW34615   4.201   2.148   2.501 -0.0810  0.3068  0.5349
 7660SOL    HW134616   4.187   2.208   2.428  2.1592  1.7555  1.2789
 7660SOL    HW234617   4.256   2.089   2.450  0.4657  1.7827 -0.5806
 7661SOL     OW34618   1.456   1.033  15.400  0.3838  0.1643 -0.1782
 7661SOL    HW134619   1.503   1.101  15.447  0.3032  0.4539 -0.5197
 7661SOL    HW234620   1.407   1.082  15.334  0.1768 -0.0504 -0.1840
 7662SOL     OW34621   1.967   0.997   6.861 -0.3153 -0.4085  0.0724
 7662SOL    HW134622   2.044   1.043   6.826 -0.1287 -0.1858  0.7608
 7662SOL    HW234623   1.909   1.013   6.787 -0.8623  3.1632  1.2872
 7663SOL     OW34624   2.007   1.111   4.489  0.0726  0.3826 -0.4713
 7663SOL    HW134625   2.084   1.072   4.449  0.6625 -0.3100  1.3244
 7663SOL    HW234626   1.966   1.169   4.426 -1.6769  1.3880  1.5812
 7664SOL     OW34627   1.580   3.366   0.777  0.3536 -0.0692 -0.4078
 7664SOL    HW134628   1.619   3.437   0.829  0.4737  1.1065 -2.0847
 7664SOL    HW234629   1.587   3.290   0.833  0.5704 -0.5433 -1.0727
 7665SOL     OW34630   0.305   2.421   2.175  0.9083 -0.0336  0.1460
 7665SOL    HW134631   0.314   2.516   2.185  1.1320 -0.2704  2.3071
 7665SOL    HW234632   0.316   2.409   2.081 -1.9976 -0.9856 -0.0510
 7666SOL     OW34633   0.226   0.003   2.767 -0.0509  0.0137 -0.3894
 7666SOL    HW134634   0.224   4.708   2.676 -1.5411 -1.4478  0.1572
 7666SOL    HW234635   0.156   0.069   2.768 -0.0866 -0.0564  0.7463
 7667SOL     OW34636   0.043   3.871   6.441  0.3662  0.0793 -0.1513
 7667SOL    HW134637   0.087   3.898   6.360  1.3185  0.8626  0.6237
 7667SOL    HW234638   4.712   3.814   6.405 -0.9674  1.2633  0.5112
 7668SOL     OW34639   2.539   0.936   4.670 -0.4958 -0.3306  0.0966
 7668SOL    HW134640   2.561   1.018   4.626 -1.1435 -0.3139 -0.1920
 7668SOL    HW234641   2.463   0.966   4.718 -1.1165 -1.7489  0.0139
 7669SOL     OW34642   2.593   4.254   0.511 -0.0874 -0.1755 -0.4094
 7669SOL    HW134643   2.648   4.183   0.479  0.4915  0.0901 -0.0066
 7669SOL    HW234644   2.649   4.323   0.548  0.0280 -0.4024 -0.1615
 7670SOL     OW34645   3.911   3.022   8.144 -0.0122 -0.1227  0.8507
 7670SOL    HW134646   3.859   2.974   8.080  1.4858 -1.6708  0.7936
 7670SOL    HW234647   3.853   3.095   8.165  0.0304  0.1177  0.1406
 7671SOL     OW34648   3.223   3.009   6.662 -0.1938  0.4176  0.0243
 7671SOL    HW134649   3.129   3.026   6.658 -0.4431 -0.8854  0.4981
 7671SOL    HW234650   3.237   2.937   6.600 -1.4108  0.7267 -0.6166
 7672SOL     OW34651   3.874   3.393   1.354 -0.1339 -0.1799 -0.2911
 7672SOL    HW134652   3.927   3.426   1.427  0.5195 -0.1132 -0.7903
 7672SOL    HW234653   3.856   3.473   1.304 -0.8120  0.1649  0.5203
 7673SOL     OW34654   3.097   3.822  11.660 -0.7330  0.1892 -0.4272
 7673SOL    HW134655   3.118   3.744  11.609 -0.7129  0.2613 -0.5274
 7673SOL    HW234656   3.146   3.795  11.738 -0.1954 -1.2178 -1.2398
 7674SOL     OW34657   0.424   3.555   1.738 -0.0195  0.8540 -0.8435
 7674SOL    HW134658   0.331   3.551   1.716 -0.4765 -0.8135  1.4144
 7674SOL    HW234659   0.425   3.643   1.776  2.6136 -0.2433  1.6118
 7675SOL     OW34660   1.214   2.088   4.807 -0.2869  0.3267 -0.3179
 7675SOL    HW134661   1.214   2.031   4.884 -0.4282  0.3058 -0.3317
 7675SOL    HW234662   1.186   2.030   4.736 -1.1582 -0.5068  0.7050
 7676SOL     OW34663   2.972   0.617   4.164  0.1415 -0.3842  0.2079
 7676SOL    HW134664   3.048   0.651   4.211  1.3933 -1.4611 -1.0459
 7676SOL    HW234665   2.913   0.606   4.238  0.3986  1.7779  0.7470
 7677SOL     OW34666   3.650   0.832  11.918  0.2686  0.7461  0.2732
 7677SOL    HW134667   3.678   0.779  11.993 -0.0420  0.5141  0.2271
 7677SOL    HW234668   3.573   0.785  11.887  1.0566  0.3968 -1.1709
 7678SOL     OW34669   4.566   2.333  12.709 -0.5567 -0.2631 -0.0856
 7678SOL    HW134670   4.589   2.240  12.717  0.9092  0.0456 -0.7235
 7678SOL    HW234671   4.482   2.320  12.666 -0.0364  0.8499 -1.4465
 7679SOL     OW34672   4.554   3.263  10.610  0.1062 -0.5137  0.3525
 7679SOL    HW134673   4.466   3.232  10.590 -0.0228 -0.5837  1.0436
 7679SOL    HW234674   4.542   3.357  10.616  0.5945 -0.3329 -1.5098
 7680SOL     OW34675   3.224   0.260  12.911 -0.2134  0.2960 -0.0162
 7680SOL    HW134676   3.156   0.293  12.852  0.4595  0.1552 -0.8617
 7680SOL    HW234677   3.197   0.170  12.926  0.3398 -0.2708 -2.4293
 7681SOL     OW34678   0.050   0.028   6.369  0.1373  0.1686  0.1248
 7681SOL    HW134679   0.113   0.098   6.352 -1.5087  1.1680 -1.9089
 7681SOL    HW234680   0.005   0.045   6.286 -0.0922 -1.3904 -0.0894
 7682SOL     OW34681   1.318   2.401  13.128  0.3466  0.1459  0.5237
 7682SOL    HW134682   1.228   2.424  13.152 -0.4210 -3.2343  0.8963
 7682SOL    HW234683   1.306   2.309  13.105  1.6012 -0.0952  0.8193
 7683SOL     OW34684   2.806   0.510   2.259  0.2189  0.4338 -0.7903
 7683SOL    HW134685   2.752   0.502   2.337  1.5735  1.6292  0.2704
 7683SOL    HW234686   2.746   0.525   2.186 -0.3325  3.2138  0.2165
 7684SOL     OW34687   4.707   4.734   1.078  0.7881 -0.3732 -0.0712
 7684SOL    HW134688   4.645   0.048   1.129 -0.0869 -0.6151 -0.8921
 7684SOL    HW234689   0.043   0.055   1.061  1.3779 -0.5696  1.7441
 7685SOL     OW34690   2.861   1.301   1.625  0.3407 -0.0105  0.4945
 7685SOL    HW134691   2.945   1.338   1.653  1.1884  0.6947 -3.0515
 7685SOL    HW234692   2.887   1.213   1.597 -1.5769 -0.6702  0.7815
 7686SOL     OW34693   1.022   0.121   0.807 -0.0792  0.1951  0.0237
 7686SOL    HW134694   1.045   0.160   0.723  2.3329 -0.9089  0.1635
 7686SOL    HW234695   1.004   0.034   0.770 -0.0213  0.2726 -0.1860
 7687SOL     OW34696   1.490   3.281   5.194 -0.1080  0.0899 -0.6541
 7687SOL    HW134697   1.453   3.277   5.106  1.7375 -0.9104 -1.3744
 7687SOL    HW234698   1.558   3.344   5.172  0.5241 -0.3716 -0.0487
 7688SOL     OW34699   2.509   2.123   6.662  0.2420 -0.3098  0.2556
 7688SOL    HW134700   2.592   2.161   6.633 -0.3255 -0.2651 -1.2869
 7688SOL    HW234701   2.515   2.151   6.754 -1.8601  1.3969 -0.1276
 7689SOL     OW34702   3.610   2.685  12.191  0.9460 -0.0086 -0.3343
 7689SOL    HW134703   3.700   2.700  12.220  0.3870  0.8599  0.9241
 7689SOL    HW234704   3.588   2.641  12.273 -1.0352  2.0810  0.2214
 7690SOL     OW34705   0.491   2.166  15.458  0.7320 -0.7671  0.0325
 7690SOL    HW134706   0.410   2.186  15.503  0.0917 -0.6808 -1.1632
 7690SOL    HW234707   0.470   2.188  15.367  0.8095  0.7886  0.3931
 7691SOL     OW34708   1.964   0.009  16.196 -0.1897  0.4792 -0.2276
 7691SOL    HW134709   1.967   0.004  16.101 -0.9133  1.7505 -0.3069
 7691SOL    HW234710   2.047   0.055  16.208  0.9693 -1.8559  0.8216
 7692SOL     OW34711   0.118   3.938   7.991  0.4873  0.2324 -0.1485
 7692SOL    HW134712   0.032   3.910   8.021 -0.2499 -0.0304 -2.4738
 7692SOL    HW234713   0.114   3.905   7.901  0.6519  1.7337 -0.7121
 7693SOL     OW34714   4.406   0.317   0.838 -0.1338 -0.2551 -0.0445
 7693SOL    HW134715   4.492   0.276   0.831  0.8044  1.6552  0.4454
 7693SOL    HW234716   4.431   0.406   0.813 -2.9728  0.7972  0.7734
 7694SOL     OW34717   1.678   1.622   7.628 -0.2932 -0.5771 -0.6643
 7694SOL    HW134718   1.647   1.682   7.559 -1.6269 -0.2480  0.2198
 7694SOL    HW234719   1.759   1.589   7.590  1.5101  0.8103  2.0737
 7695SOL     OW34720   2.407   1.343  12.012  0.1384 -0.2528  0.4890
 7695SOL    HW134721   2.411   1.436  12.033  0.2264  0.3291 -2.0981
 7695SOL    HW234722   2.429   1.301  12.095  3.3285  1.3378  0.4553
 7696SOL     OW34723   2.721   2.988   5.140 -0.4559 -0.1613 -0.2287
 7696SOL    HW134724   2.682   2.903   5.161 -0.7961  0.2359  0.7248
 7696SOL    HW234725   2.792   2.964   5.080  0.1395 -2.6885  1.4694
 7697SOL     OW34726   1.871   3.590   2.096  0.0676 -0.5878 -0.3307
 7697SOL    HW134727   1.937   3.524   2.075  1.2292  0.4997 -0.0999
 7697SOL    HW234728   1.795   3.532   2.100 -1.3592  1.5720  3.7223
 7698SOL     OW34729   0.586   1.704  11.229 -0.4306 -0.3313  0.4391
 7698SOL    HW134730   0.676   1.677  11.247 -0.8492 -1.0514  1.3738
 7698SOL    HW234731   0.576   1.688  11.135  0.8559  1.8973 -0.0762
 7699SOL     OW34732   2.180   0.665   4.546  0.2622  0.5494  0.3864
 7699SOL    HW134733   2.255   0.640   4.493  1.0119  1.4515  1.0170
 7699SOL    HW234734   2.104   0.630   4.498  1.0232 -0.9049  0.2255
 7700SOL     OW34735   1.935   4.068   1.879  0.1268  0.3083  0.3869
 7700SOL    HW134736   1.897   3.990   1.918 -2.1785  1.7360  0.9636
 7700SOL    HW234737   1.945   4.116   1.961 -1.0195  0.7185  0.2876
 7701SOL     OW34738   2.598   0.596   8.310 -0.6765  0.1375  0.5831
 7701SOL    HW134739   2.627   0.654   8.239 -2.5491 -1.1371 -1.1976
 7701SOL    HW234740   2.627   0.644   8.388  0.3647  1.6474 -0.7294
 7702SOL     OW34741   0.684   1.816  14.884  0.3787 -0.5008  0.4907
 7702SOL    HW134742   0.700   1.848  14.973 -0.8913 -1.3685  1.0343
 7702SOL    HW234743   0.772   1.829  14.849  1.0326  0.3475  2.4778
 7703SOL     OW34744   3.501   2.274  10.796  0.5080  0.0817 -0.3672
 7703SOL    HW134745   3.590   2.308  10.806  1.0434 -1.4365  0.1325
 7703SOL    HW234746   3.510   2.238  10.708 -0.3539  1.1493 -0.8925
 7704SOL     OW34747   3.664   4.278   8.285  0.4260 -0.0283 -0.3259
 7704SOL    HW134748   3.716   4.230   8.221  0.5054  1.1083 -1.1096
 7704SOL    HW234749   3.702   4.232   8.360 -0.0090  1.5557  0.8629
 7705SOL     OW34750   4.580   2.327   4.816 -0.2047  0.2746 -0.4679
 7705SOL    HW134751   4.547   2.417   4.822 -0.0178  0.3778 -0.9674
 7705SOL    HW234752   4.503   2.272   4.826  1.4304 -1.5370  2.1529
 7706SOL     OW34753   0.905   4.712   1.347 -0.1285 -0.2953 -0.2847
 7706SOL    HW134754   0.863   4.685   1.428 -0.1209  1.1864  0.2140
 7706SOL    HW234755   0.973   4.648   1.329  0.4325  0.2858 -0.2095
 7707SOL     OW34756   1.687   3.383   3.297 -0.3597  0.2534  0.4052
 7707SOL    HW134757   1.594   3.395   3.319 -0.3075  0.0433  0.7307
 7707SOL    HW234758   1.730   3.408   3.378  0.7253 -2.5361  0.6545
 7708SOL     OW34759   2.109   0.584   5.547 -0.4447  0.2054  0.2644
 7708SOL    HW134760   2.060   0.646   5.492 -0.5553 -0.2900 -0.2064
 7708SOL    HW234761   2.039   0.520   5.558  1.1814 -1.5873  0.2070
 7709SOL     OW34762   0.309   1.672   8.299 -0.0309  0.0158  0.4312
 7709SOL    HW134763   0.319   1.659   8.393  0.0941 -0.9549  0.2861
 7709SOL    HW234764   0.400   1.689   8.276 -0.1736  1.0672  0.6341
 7710SOL     OW34765   2.154   2.190  11.508  0.7507  0.1899  0.0528
 7710SOL    HW134766   2.175   2.211  11.599 -0.6666  0.9398  0.1963
 7710SOL    HW234767   2.224   2.128  11.484 -2.5577 -2.6156 -2.3653
 7711SOL     OW34768   2.938   2.894   8.099 -0.3315 -0.4688 -0.1638
 7711SOL    HW134769   2.985   2.820   8.138 -0.7985 -0.6037  0.1483
 7711SOL    HW234770   2.918   2.867   8.009 -0.4778 -0.8307 -0.0254
 7712SOL     OW34771   2.721   4.294   5.238 -0.5060 -0.2529 -0.0530
 7712SOL    HW134772   2.681   4.272   5.323 -0.1442  0.1606  0.2255
 7712SOL    HW234773   2.653   4.268   5.176 -0.5649 -0.7033  0.1945
 7713SOL     OW34774   3.443   1.464   5.119  0.0680 -0.4770  0.1466
 7713SOL    HW134775   3.525   1.512   5.133  0.4328 -0.9844 -0.2698
 7713SOL    HW234776   3.408   1.452   5.207  0.6650 -2.7437  0.0650
 7714SOL     OW34777   4.452   3.189   9.087 -0.4070  0.1782 -0.1989
 7714SOL    HW134778   4.530   3.154   9.043 -1.1892 -2.8763  0.8089
 7714SOL    HW234779   4.485   3.276   9.107  2.2789 -0.7806 -0.3761
 7715SOL     OW34780   2.154   0.880   7.010 -0.3320  0.2702  0.0232
 7715SOL    HW134781   2.191   0.830   6.937  0.6005  0.1085  0.5977
 7715SOL    HW234782   2.072   0.904   6.968 -0.4102  0.8944  0.5318
 7716SOL     OW34783   3.550   2.441   3.136 -0.2339  0.3344 -0.5046
 7716SOL    HW134784   3.556   2.536   3.148 -0.9195  0.1297  1.3763
 7716SOL    HW234785   3.641   2.411   3.133 -0.8593 -1.4612 -1.8538
 7717SOL     OW34786   0.812   4.440   4.557 -0.4504  0.4151 -0.3958
 7717SOL    HW134787   0.765   4.438   4.640  0.1570 -1.8188 -0.1008
 7717SOL    HW234788   0.885   4.382   4.580 -1.6634 -0.7426  0.5886
 7718SOL     OW34789   1.783   4.454   5.603 -0.4857  0.1291 -0.8084
 7718SOL    HW134790   1.819   4.509   5.533  0.2967 -0.3910 -0.8105
 7718SOL    HW234791   1.777   4.527   5.665  0.7434 -0.8841  0.4963
 7719SOL     OW34792   0.854   2.721   3.247 -0.2081  0.5353  0.4652
 7719SOL    HW134793   0.814   2.752   3.166 -0.3872  0.2662  0.4519
 7719SOL    HW234794   0.940   2.694   3.215  0.0470  1.4323  0.3904
 7720SOL     OW34795   3.451   1.134   5.134  0.5128  0.1565  1.0386
 7720SOL    HW134796   3.367   1.137   5.182 -0.9076 -0.9051 -1.3942
 7720SOL    HW234797   3.502   1.133   5.215  1.7322 -0.2435  0.2570
 7721SOL     OW34798   2.657   2.849   4.899  0.3178  0.2460 -0.8086
 7721SOL    HW134799   2.652   2.939   4.931 -2.1989  0.3963 -1.6310
 7721SOL    HW234800   2.623   2.861   4.810  1.4622 -0.1595 -1.3003
 7722SOL     OW34801   4.088   3.405   2.898  0.3741 -0.2873  0.2412
 7722SOL    HW134802   3.994   3.389   2.897  0.3945 -0.2906 -0.8472
 7722SOL    HW234803   4.121   3.338   2.958 -3.1386 -2.9392 -0.8144
 7723SOL     OW34804   1.285   0.327  17.508 -0.1145  0.1517 -0.2443
 7723SOL    HW134805   1.358   0.376  17.469  0.8011 -1.3712 -0.4540
 7723SOL    HW234806   1.326   0.320  17.594 -1.1455  1.4818  0.3495
 7724SOL     OW34807   1.668   1.858   2.485 -0.4140  0.1295 -0.3799
 7724SOL    HW134808   1.675   1.859   2.580  0.2591  0.8493 -0.4417
 7724SOL    HW234809   1.579   1.881   2.460  0.5296  1.4300 -2.5365
 7725SOL     OW34810   3.946   3.821   8.002  0.2233  0.0207 -0.1077
 7725SOL    HW134811   3.919   3.880   7.932  0.4535  1.2756  0.8541
 7725SOL    HW234812   3.954   3.878   8.079 -0.6414 -2.2045  1.6187
 7726SOL     OW34813   3.703   0.159   4.755 -0.3734 -0.2716  0.5375
 7726SOL    HW134814   3.613   0.153   4.723 -0.3866  0.6222  0.3996
 7726SOL    HW234815   3.696   0.233   4.815  0.4885  0.0590  0.2239
 7727SOL     OW34816   2.448   3.611  17.447  0.2815  0.6204 -0.2301
 7727SOL    HW134817   2.383   3.632  17.514 -0.7943 -1.0180 -0.7655
 7727SOL    HW234818   2.525   3.602  17.502 -1.4785 -2.0478  1.7445
 7728SOL     OW34819   0.906   4.101   2.522 -0.4036 -0.0323 -0.7411
 7728SOL    HW134820   0.993   4.064   2.534 -0.0930  0.6575 -0.9065
 7728SOL    HW234821   0.853   4.022   2.539  0.4569 -0.1071  1.5253
 7729SOL     OW34822   1.802   2.399  14.609 -0.8591  0.3463 -0.2503
 7729SOL    HW134823   1.803   2.385  14.704  0.4318 -2.6389 -0.7120
 7729SOL    HW234824   1.756   2.320  14.583 -2.1811  0.1421  2.7118
 7730SOL     OW34825   0.857   3.499   6.766  0.0290  0.3826  0.0017
 7730SOL    HW134826   0.777   3.531   6.724  1.5759  2.2641 -1.5104
 7730SOL    HW234827   0.835   3.435   6.833  0.2415 -0.3708 -0.6489
 7731SOL     OW34828   2.349   4.542   6.901 -0.2359 -0.0128 -1.0015
 7731SOL    HW134829   2.311   4.502   6.979 -1.4891  1.4074 -0.8903
 7731SOL    HW234830   2.432   4.576   6.934  0.8891 -2.7322 -1.0052
 7732SOL     OW34831   2.437   3.040   9.891 -0.2498 -0.1709  0.0428
 7732SOL    HW134832   2.379   3.069   9.821 -0.3646  1.1617  0.6984
 7732SOL    HW234833   2.492   3.117   9.908 -1.3143  0.7330 -0.6239
 7733SOL     OW34834   2.716   1.316   4.745 -0.0236  0.0448  0.0340
 7733SOL    HW134835   2.766   1.298   4.824  2.1034  0.3128 -1.2463
 7733SOL    HW234836   2.735   1.410   4.746  0.3099 -0.0249  0.2040
 7734SOL     OW34837   2.742   0.231   6.163 -0.1729  0.3250  0.4644
 7734SOL    HW134838   2.689   0.255   6.240 -1.0511  1.1908 -0.4140
 7734SOL    HW234839   2.795   0.162   6.205  0.2126  0.5926  0.4188
 7735SOL     OW34840   0.368   2.299  13.146 -0.3916 -0.4158  0.3172
 7735SOL    HW134841   0.339   2.387  13.168  0.2875 -0.2516  0.5585
 7735SOL    HW234842   0.444   2.303  13.204  0.1094  1.3335 -0.4669
 7736SOL     OW34843   2.511   2.588  12.889  0.3885 -0.0493 -0.3530
 7736SOL    HW134844   2.424   2.549  12.877  0.0331  0.6392  0.0664
 7736SOL    HW234845   2.540   2.619  12.803 -1.3514 -0.3176 -1.0289
 7737SOL     OW34846   2.017   4.244   2.568  0.1189 -0.6480  0.6297
 7737SOL    HW134847   2.053   4.251   2.656 -1.1539  1.0909  1.0036
 7737SOL    HW234848   2.002   4.150   2.560 -2.8672 -0.0078 -1.2515
 7738SOL     OW34849   1.396   4.036  11.945  0.3338  0.3606  0.0878
 7738SOL    HW134850   1.460   4.085  11.892 -0.5910  2.2324  0.6937
 7738SOL    HW234851   1.446   4.032  12.026  0.4576  0.5712  0.0235
 7739SOL     OW34852   4.263   2.430   0.528  0.1536  0.1226  0.0296
 7739SOL    HW134853   4.267   2.523   0.553 -2.9289 -0.4014  2.5697
 7739SOL    HW234854   4.171   2.411   0.548  0.2129  1.8961  2.0009
 7740SOL     OW34855   1.885   0.470   5.196 -0.4014 -0.3781  0.3849
 7740SOL    HW134856   1.933   0.408   5.251  1.5689 -1.9552 -3.1231
 7740SOL    HW234857   1.848   0.413   5.129 -2.4671  0.7489  0.5652
 7741SOL     OW34858   2.656   4.721   0.926  0.8389  0.3065  0.1113
 7741SOL    HW134859   2.574   4.715   0.876  0.8021  1.0472  0.0826
 7741SOL    HW234860   2.633   0.066   0.968  2.0036  1.9703 -2.5112
 7742SOL     OW34861   4.545   1.154   7.865 -0.0052 -0.0550  0.5992
 7742SOL    HW134862   4.516   1.181   7.778  0.0604  0.0869  0.6220
 7742SOL    HW234863   4.639   1.176   7.867 -0.2261  1.0094 -0.9554
 7743SOL     OW34864   0.073   0.444  16.815 -0.0911  0.4823  0.3466
 7743SOL    HW134865   0.039   0.384  16.749  2.1625  0.1825 -0.5479
 7743SOL    HW234866   4.732   0.442  16.869 -0.6865  0.3526 -0.5173
 7744SOL     OW34867   4.214   3.438  16.651  0.5193  0.0655  0.2321
 7744SOL    HW134868   4.228   3.359  16.599 -0.8251 -0.3213  0.4494
 7744SOL    HW234869   4.158   3.409  16.724 -0.4605  1.2082 -0.0564
 7745SOL     OW34870   2.842   2.345   7.903  0.3528  0.6439 -0.2732
 7745SOL    HW134871   2.933   2.341   7.932 -0.5125  2.2751  2.6898
 7745SOL    HW234872   2.830   2.251   7.888 -0.2647  0.0015  4.2612
 7746SOL     OW34873   0.854   1.683  11.202 -0.2605  0.1418 -0.6308
 7746SOL    HW134874   0.881   1.686  11.110  1.9434 -0.8038  0.0028
 7746SOL    HW234875   0.919   1.631  11.249  0.7013  0.2780 -1.8150
 7747SOL     OW34876   0.150   0.875   7.074  0.3638 -0.1971  0.4010
 7747SOL    HW134877   0.168   0.916   7.159 -0.9506 -0.0993  0.6289
 7747SOL    HW234878   0.195   0.791   7.082  0.7031  0.0500  1.1084
 7748SOL     OW34879   0.228   4.390  15.762  0.1730  0.2808  0.3088
 7748SOL    HW134880   0.245   4.455  15.693 -0.3452  1.2603  1.0973
 7748SOL    HW234881   0.266   4.425  15.843 -0.4429  0.6027  0.4594
 7749SOL     OW34882   2.195   2.416   4.218  0.2138  0.4815 -0.0798
 7749SOL    HW134883   2.256   2.345   4.195  0.2062 -0.1877  1.9350
 7749SOL    HW234884   2.113   2.368   4.214  1.3404 -1.8123  3.3884
 7750SOL     OW34885   0.954   4.625   6.069  0.0521 -0.2394  0.1226
 7750SOL    HW134886   1.004   4.645   5.989  0.0363  1.9602  0.6518
 7750SOL    HW234887   0.956   4.530   6.075  1.0184 -0.0402  3.0691
 7751SOL     OW34888   4.456   4.275  12.945  0.2634 -0.4250  0.0696
 7751SOL    HW134889   4.416   4.340  13.003 -1.6161 -0.9532 -0.6355
 7751SOL    HW234890   4.385   4.280  12.881  1.0986  3.1655 -0.5752
 7752SOL     OW34891   4.619   1.557   9.001  0.5899  0.6128 -0.0423
 7752SOL    HW134892   4.680   1.484   8.986  1.0604  1.1277 -0.6316
 7752SOL    HW234893   4.586   1.572   8.912  2.3861  0.7294 -0.6911
 7753SOL     OW34894   3.263   1.306  17.152  0.1688  0.0252  0.3000
 7753SOL    HW134895   3.220   1.391  17.142 -1.7416 -0.8293  1.1862
 7753SOL    HW234896   3.350   1.329  17.185  0.6753 -1.8319  0.2430
 7754SOL     OW34897   0.716   0.674   2.216  0.2564 -0.1511  0.3516
 7754SOL    HW134898   0.745   0.675   2.307 -1.4333  2.3774  0.8592
 7754SOL    HW234899   0.718   0.768   2.196 -0.7234 -0.0391  0.7705
 7755SOL     OW34900   1.630   3.206   4.197 -0.6635 -0.1922 -0.7090
 7755SOL    HW134901   1.677   3.123   4.212 -2.3873 -0.4342  3.3969
 7755SOL    HW234902   1.697   3.264   4.162 -1.1444  0.3009 -0.8105
 7756SOL     OW34903   3.559   3.361   7.601 -0.2321  0.4832 -0.3851
 7756SOL    HW134904   3.465   3.380   7.607 -0.5535 -1.5784  1.1671
 7756SOL    HW234905   3.595   3.421   7.666 -2.7269 -1.9737  3.2479
 7757SOL     OW34906   1.996   2.451   4.441 -0.4617  0.6306 -0.1185
 7757SOL    HW134907   2.043   2.379   4.481  1.8320  2.3564  0.3040
 7757SOL    HW234908   1.985   2.423   4.351 -1.1194  1.8262 -0.4175
 7758SOL     OW34909   4.156   2.500  10.284 -0.3678 -0.4057 -0.5587
 7758SOL    HW134910   4.224   2.448  10.327  0.6043  2.2905  1.1512
 7758SOL    HW234911   4.215   2.543  10.222  1.4780 -1.8633  0.1614
 7759SOL     OW34912   0.526   3.566   8.803  0.0832  0.5160 -0.0879
 7759SOL    HW134913   0.462   3.634   8.826 -0.5186  0.2055 -0.8434
 7759SOL    HW234914   0.504   3.500   8.868  0.5540  2.6271  2.2314
 7760SOL     OW34915   2.029   0.965   2.493 -0.4056 -0.0209  0.3179
 7760SOL    HW134916   1.985   1.040   2.533 -0.5188  0.5596 -0.8807
 7760SOL    HW234917   2.007   0.983   2.402  0.7794  1.3508  0.3001
 7761SOL     OW34918   4.278   2.161   6.666 -0.3557 -0.2871 -0.0051
 7761SOL    HW134919   4.282   2.097   6.737 -1.1108 -0.1693  0.1436
 7761SOL    HW234920   4.196   2.145   6.619 -1.4291  3.2151  0.7177
 7762SOL     OW34921   3.153   2.909   3.604 -0.2187  0.4732  0.2874
 7762SOL    HW134922   3.066   2.893   3.567  1.3351 -0.0908 -3.0940
 7762SOL    HW234923   3.179   2.976   3.541  0.1512  0.2434  0.1981
 7763SOL     OW34924   2.356   2.141   0.728 -0.0582 -0.1234 -0.2179
 7763SOL    HW134925   2.440   2.165   0.766  0.5252  2.4035 -3.1070
 7763SOL    HW234926   2.316   2.228   0.735 -1.1659 -0.8054  1.8265
 7764SOL     OW34927   1.514   0.634   6.825  0.1995 -0.1506 -0.6142
 7764SOL    HW134928   1.597   0.645   6.870  0.3601  0.6198 -1.1046
 7764SOL    HW234929   1.449   0.619   6.894  1.0108  2.6782  0.7510
 7765SOL     OW34930   3.122   0.414  13.788  0.0453  0.4997  0.1004
 7765SOL    HW134931   3.181   0.487  13.771 -0.4990  0.8536 -0.2827
 7765SOL    HW234932   3.129   0.361  13.708  4.2698  1.1434  0.0544
 7766SOL     OW34933   2.120   2.700   8.665  0.2949  0.0356 -0.4589
 7766SOL    HW134934   2.137   2.663   8.578 -2.6829 -0.5824 -0.7997
 7766SOL    HW234935   2.108   2.792   8.642 -1.1407  0.3095  1.3574
 7767SOL     OW34936   2.433   1.094   7.691  0.0913  0.2110  0.2615
 7767SOL    HW134937   2.462   1.136   7.772  0.1912 -1.2733  0.9866
 7767SOL    HW234938   2.510   1.122   7.641 -0.0628  1.1532  0.5444
 7768SOL     OW34939   3.768   1.656   1.696 -0.5080 -0.5859 -0.0278
 7768SOL    HW134940   3.821   1.577   1.702  1.6496  0.7411 -1.6067
 7768SOL    HW234941   3.731   1.669   1.783  2.4758 -0.2244  1.1932
 7769SOL     OW34942   4.505   0.944  10.077 -0.2741 -0.0139 -0.6694
 7769SOL    HW134943   4.436   0.964  10.140  0.2079  1.4282 -0.5981
 7769SOL    HW234944   4.577   1.000  10.106 -0.6845 -0.0627  0.4234
 7770SOL     OW34945   4.194   0.282  15.697 -0.0697 -0.3423 -0.1149
 7770SOL    HW134946   4.288   0.269  15.690  0.2196  0.6142  1.9922
 7770SOL    HW234947   4.164   0.191  15.690  1.3104 -0.6106 -2.3340
 7771SOL     OW34948   1.913   3.061   9.901 -0.4885  0.0438  0.3151
 7771SOL    HW134949   1.911   3.144   9.852  0.1014  0.8175  1.6062
 7771SOL    HW234950   1.879   3.002   9.833 -0.2004 -0.5579  0.6947
 7772SOL     OW34951   0.260   1.376   4.495  0.3251 -0.6907 -0.0344
 7772SOL    HW134952   0.287   1.464   4.471  1.9226 -0.9148  0.9511
 7772SOL    HW234953   0.188   1.397   4.555 -0.1543 -0.6405 -0.6255
 7773SOL     OW34954   2.431   1.012   1.918  0.1386  0.2163 -0.4636
 7773SOL    HW134955   2.444   0.942   1.983 -0.9794 -1.3734 -1.9402
 7773SOL    HW234956   2.472   1.086   1.963  0.1731 -0.4364  0.5901
 7774SOL     OW34957   4.137   2.599   3.553 -0.5051  0.1700 -0.2947
 7774SOL    HW134958   4.181   2.536   3.610 -1.2882  0.3246  0.4866
 7774SOL    HW234959   4.206   2.626   3.493  1.5349 -1.7503  1.1685
 7775SOL     OW34960   2.107   3.359   2.043 -0.2387  0.1928 -0.3427
 7775SOL    HW134961   2.033   3.299   2.033 -0.3018  0.1750  0.2586
 7775SOL    HW234962   2.139   3.354   1.952 -3.9876  0.6192 -1.6719
 7776SOL     OW34963   4.486   2.589   6.565 -0.3047  0.2937 -0.4970
 7776SOL    HW134964   4.559   2.614   6.510 -0.9919  3.7009  0.1188
 7776SOL    HW234965   4.416   2.590   6.500 -1.0950 -1.0111  0.3323
 7777SOL     OW34966   3.846   0.170  16.800  0.1069  0.1984  1.1366
 7777SOL    HW134967   3.885   0.132  16.879 -1.8204 -0.0842  1.9410
 7777SOL    HW234968   3.860   0.264  16.808 -1.0804  0.5664 -1.0125
 7778SOL     OW34969   0.556   1.686   8.593  0.0306 -0.0435  0.0875
 7778SOL    HW134970   0.605   1.669   8.512 -1.7963  1.3325 -1.2995
 7778SOL    HW234971   0.626   1.680   8.658 -1.2910 -1.6161  1.3614
 7779SOL     OW34972   1.642   3.936   9.149 -0.2374 -0.0596  0.6311
 7779SOL    HW134973   1.570   3.971   9.095 -0.1257 -2.6534 -1.2139
 7779SOL    HW234974   1.604   3.873   9.211 -2.8436  0.9591  0.0844
 7780SOL     OW34975   0.415   4.104  15.443 -0.5660  0.2885  0.5102
 7780SOL    HW134976   0.401   4.154  15.362  0.8990 -2.4160 -1.4196
 7780SOL    HW234977   0.406   4.018  15.403 -0.9180  2.5683 -4.4207
 7781SOL     OW34978   2.773   0.101   5.912 -0.1251  0.1267  0.3175
 7781SOL    HW134979   2.720   0.138   5.982 -2.4513 -1.5588 -0.5306
 7781SOL    HW234980   2.712   0.107   5.837 -0.7804  0.6065  0.8866
 7782SOL     OW34981   2.066   4.254   3.764  0.1796 -0.1833 -0.6303
 7782SOL    HW134982   1.999   4.281   3.701 -0.4751  0.3331  0.2821
 7782SOL    HW234983   2.098   4.338   3.795  0.2695  0.4856 -2.5403
 7783SOL     OW34984   4.295   1.490   7.221 -0.2775 -0.0182  0.0444
 7783SOL    HW134985   4.211   1.481   7.267 -1.5300  2.6827 -1.6554
 7783SOL    HW234986   4.364   1.496   7.287 -0.2321 -1.2979  0.1103
 7784SOL     OW34987   0.631   4.190   3.187  0.4454 -0.3574  0.1315
 7784SOL    HW134988   0.698   4.152   3.131  3.0131  2.5502  1.2214
 7784SOL    HW234989   0.588   4.255   3.131  2.1600 -0.6819 -1.5697
 7785SOL     OW34990   3.675   3.658   9.716 -0.1285 -0.5039 -0.0257
 7785SOL    HW134991   3.722   3.575   9.729  3.9683  1.8270  0.0629
 7785SOL    HW234992   3.717   3.692   9.637  2.0408  0.3653  1.5027
 7786SOL     OW34993   4.052   4.365   8.466  0.4978 -0.6636  0.2283
 7786SOL    HW134994   4.094   4.450   8.473  0.7684 -0.9281  1.9983
 7786SOL    HW234995   4.122   4.308   8.436  0.3454 -1.0289  0.5508
 7787SOL     OW34996   4.514   1.778  10.260 -0.3897 -0.3955 -0.5423
 7787SOL    HW134997   4.579   1.708  10.248 -0.1671 -0.5509  1.5272
 7787SOL    HW234998   4.512   1.819  10.173  2.8324  1.6236  0.3333
 7788SOL     OW34999   1.584   2.719   7.978 -0.2189 -0.2587  0.3262
 7788SOL    HW135000   1.600   2.811   7.957 -1.4472 -0.1281 -0.0336
 7788SOL    HW235001   1.499   2.719   8.021  0.5354  0.4140  1.8462
 7789SOL     OW35002   1.039   3.218   6.879 -0.2631  0.0584 -0.3755
 7789SOL    HW135003   0.958   3.267   6.890 -0.7699 -1.0914  1.0669
 7789SOL    HW235004   1.010   3.127   6.889  1.3642 -0.7797 -3.1262
 7790SOL     OW35005   1.684   2.675  11.924  0.4333 -0.0382  0.4435
 7790SOL    HW135006   1.721   2.702  12.008 -0.8965  1.1140  0.6541
 7790SOL    HW235007   1.709   2.761  11.889  0.2017  0.2767  1.0536
 7791SOL     OW35008   4.591   4.723   1.736 -0.0025 -0.9361  0.7382
 7791SOL    HW135009   4.594   0.081   1.737 -1.3533 -0.9042  0.8857
 7791SOL    HW235010   4.683   4.710   1.712  0.6179  1.5590  1.7560
 7792SOL     OW35011   3.420   4.317  11.162 -0.4267 -0.4170  0.0354
 7792SOL    HW135012   3.414   4.285  11.073  1.2914  1.1464 -0.6421
 7792SOL    HW235013   3.461   4.402  11.145 -1.2663 -0.0616 -0.2065
 7793SOL     OW35014   1.564   1.684   6.834 -0.0306 -0.3779  0.0372
 7793SOL    HW135015   1.544   1.624   6.762  2.7224 -1.8836  0.5207
 7793SOL    HW235016   1.598   1.755   6.780 -2.3666  1.2401  0.7044
 7794SOL     OW35017   3.942   4.056   4.038 -0.1116  0.3119  0.7951
 7794SOL    HW135018   3.907   4.060   3.949 -0.5047  1.0930  0.9792
 7794SOL    HW235019   3.980   4.143   4.053  0.9938  0.4133 -2.8018
 7795SOL     OW35020   2.398   2.939  13.718  0.5559  0.4562 -0.2782
 7795SOL    HW135021   2.490   2.953  13.697  1.1299 -1.3897  0.9974
 7795SOL    HW235022   2.379   2.882  13.642  1.0500  2.1405 -1.6609
 7796SOL     OW35023   0.139   1.820   7.836  0.1233  0.6945  0.6875
 7796SOL    HW135024   0.228   1.792   7.859 -1.7409 -6.4623 -0.9766
 7796SOL    HW235025   0.104   1.888   7.894 -0.7313 -1.3367  2.5305
 7797SOL     OW35026   1.822   0.702   7.197 -0.5035  0.4470  0.1801
 7797SOL    HW135027   1.802   0.686   7.105 -0.8715 -1.1784  0.5355
 7797SOL    HW235028   1.759   0.642   7.238  0.3084 -1.5429 -1.4895
 7798SOL     OW35029   1.536   0.356   4.269 -0.6381  0.7379  0.9763
 7798SOL    HW135030   1.445   0.370   4.244 -0.1822 -0.1159 -1.2009
 7798SOL    HW235031   1.530   0.372   4.363 -3.1652  2.9612  0.4359
 7799SOL     OW35032   3.473   3.083   3.476  0.2683  0.9484 -0.5568
 7799SOL    HW135033   3.489   3.052   3.387  0.5862 -1.8132  0.4502
 7799SOL    HW235034   3.378   3.091   3.472  0.2447  0.8789 -0.1382
 7800SOL     OW35035   2.301   0.321   1.045  0.2903  0.1906  0.1076
 7800SOL    HW135036   2.281   0.265   1.119  0.7432 -2.1470 -1.5339
 7800SOL    HW235037   2.290   0.268   0.966 -1.9916  0.7906 -0.0043
 7801SOL     OW35038   1.414   1.530   0.417 -0.2928 -0.0018 -0.3695
 7801SOL    HW135039   1.361   1.588   0.472  2.1053  1.9638 -0.1353
 7801SOL    HW235040   1.504   1.559   0.433 -0.2618  0.3963 -1.2779
 7802SOL     OW35041   1.022   3.736   6.758  0.4533  0.6343 -0.0294
 7802SOL    HW135042   0.942   3.785   6.739  0.8968  2.6254  3.2820
 7802SOL    HW235043   0.983   3.648   6.763 -1.6679  1.3022 -4.4375
 7803SOL     OW35044   1.615   2.267   7.464  0.0557  0.0754  0.0438
 7803SOL    HW135045   1.600   2.323   7.541 -0.9964 -2.2308  1.5218
 7803SOL    HW235046   1.582   2.184   7.498  0.3665  0.2597  0.8110
 7804SOL     OW35047   1.038   0.275  11.302  0.0722 -0.0022 -0.0026
 7804SOL    HW135048   0.977   0.330  11.253  0.4692  0.0988 -0.3820
 7804SOL    HW235049   1.122   0.311  11.274  0.4879 -0.7167  0.3148
 7805SOL     OW35050   4.520   1.317   4.359  0.4418 -0.2546  0.0047
 7805SOL    HW135051   4.530   1.398   4.309 -0.5028  0.6325  1.2586
 7805SOL    HW235052   4.501   1.264   4.281 -1.7374  2.3938 -1.2869
 7806SOL     OW35053   4.346   1.571   3.017  0.2519  0.0342  0.2332
 7806SOL    HW135054   4.268   1.535   2.975  1.7464 -2.9091 -0.0069
 7806SOL    HW235055   4.417   1.546   2.958 -1.1766 -0.1678 -1.3842
 7807SOL     OW35056   3.210   1.106   0.786  0.3715 -0.1524  0.8050
 7807SOL    HW135057   3.254   1.031   0.745  1.8294  0.8190  0.5656
 7807SOL    HW235058   3.122   1.075   0.803 -0.6054  2.7486  1.0425
 7808SOL     OW35059   1.425   1.505  15.262 -0.3897  0.0578 -0.4626
 7808SOL    HW135060   1.407   1.593  15.296 -1.0256 -0.3114  0.1541
 7808SOL    HW235061   1.518   1.498  15.284 -0.9277 -0.7990  1.5353
 7809SOL     OW35062   4.136   0.151   9.391  0.3467 -0.1493  0.0285
 7809SOL    HW135063   4.197   0.143   9.318 -0.1091  1.5308 -0.5359
 7809SOL    HW235064   4.061   0.190   9.347  0.0664  0.1488  0.7561
 7810SOL     OW35065   1.685   0.850  10.140  0.7038  0.0380  0.7946
 7810SOL    HW135066   1.608   0.815  10.185 -0.6291  0.6018 -1.0885
 7810SOL    HW235067   1.744   0.776  10.153  1.4565  0.6809  1.0447
 7811SOL     OW35068   2.621   1.514  13.481  0.6187 -0.8867  0.6609
 7811SOL    HW135069   2.581   1.434  13.514  0.0549 -0.6802  0.4709
 7811SOL    HW235070   2.711   1.489  13.461  0.9371  0.0315  0.9112
 7812SOL     OW35071   3.055   1.832   7.804 -0.3117 -0.5787  0.2017
 7812SOL    HW135072   3.081   1.923   7.788  0.9125 -1.0894 -0.6747
 7812SOL    HW235073   2.960   1.842   7.810 -0.2369  0.5645 -0.3157
 7813SOL     OW35074   1.794   0.037  12.430 -0.2591  0.1875 -0.4559
 7813SOL    HW135075   1.768   0.058  12.340  0.0353 -0.2893 -0.6545
 7813SOL    HW235076   1.800   0.118  12.480 -2.9673 -0.8093  1.4169
 7814SOL     OW35077   1.176   3.459   9.142 -0.1945 -0.7470 -0.2747
 7814SOL    HW135078   1.157   3.414   9.059 -1.4648  0.1080 -0.4363
 7814SOL    HW235079   1.272   3.455   9.146 -0.0886  2.0019 -0.2390
 7815SOL     OW35080   2.040   4.681   8.562 -0.2381 -0.0420 -0.1032
 7815SOL    HW135081   2.090   4.725   8.630 -0.9575 -1.2784  1.2415
 7815SOL    HW235082   2.054   4.588   8.581  0.2026 -0.4041 -2.1871
 7816SOL     OW35083   0.750   2.390  16.019 -0.1234  0.3258  0.8349
 7816SOL    HW135084   0.834   2.350  16.044 -1.0177 -1.0229  1.7127
 7816SOL    HW235085   0.747   2.382  15.923 -0.2648 -2.3996  1.0621
 7817SOL     OW35086   1.522   0.400  17.093  0.3725  0.2660 -0.4722
 7817SOL    HW135087   1.536   0.308  17.116 -1.8731  0.6135  2.3397
 7817SOL    HW235088   1.496   0.390  17.002 -2.0069 -1.7119  0.4272
 7818SOL     OW35089   4.082   4.441   4.748 -0.1995 -0.2812  0.3934
 7818SOL    HW135090   4.054   4.515   4.694 -3.1663 -0.8469  1.1102
 7818SOL    HW235091   4.176   4.459   4.751 -0.4425  1.2749 -0.9538
 7819SOL     OW35092   1.201   4.151   0.311 -0.3400 -0.1357  0.2516
 7819SOL    HW135093   1.160   4.115   0.232  1.8028 -1.8036 -0.0720
 7819SOL    HW235094   1.292   4.170   0.288 -0.0933  1.3441  2.4136
 7820SOL     OW35095   3.979   0.059   9.047 -0.2974 -0.0802 -0.1682
 7820SOL    HW135096   3.896   0.047   9.001 -1.8594  0.4382  2.5098
 7820SOL    HW235097   3.953   0.128   9.108  0.1183  0.6390 -0.8077
 7821SOL     OW35098   0.515   1.035   9.622 -0.1734  0.7760 -0.7473
 7821SOL    HW135099   0.585   1.067   9.566  0.0293 -0.2653 -1.0986
 7821SOL    HW235100   0.509   0.940   9.611  2.3145  0.2825  2.3139
 7822SOL     OW35101   3.803   2.581   2.525 -0.2426  0.2128 -0.2353
 7822SOL    HW135102   3.867   2.511   2.512 -0.4125  0.1412 -0.7205
 7822SOL    HW235103   3.772   2.603   2.437 -1.2088  0.1927  0.0958
 7823SOL     OW35104   2.604   3.056   6.406  0.5490 -0.6670 -0.0863
 7823SOL    HW135105   2.667   2.998   6.362  1.0802 -0.1297 -0.0307
 7823SOL    HW235106   2.663   3.130   6.419  0.2540 -0.4228 -0.1225
 7824SOL     OW35107   4.168   1.173   4.754 -0.1697  0.2961 -0.0736
 7824SOL    HW135108   4.132   1.256   4.722  0.2099 -0.4310 -2.4344
 7824SOL    HW235109   4.119   1.168   4.835  0.0975 -3.4400 -0.1513
 7825SOL     OW35110   1.240   0.445   2.178 -0.1434  0.3832 -0.4295
 7825SOL    HW135111   1.306   0.437   2.109 -0.3330 -0.0026 -0.5677
 7825SOL    HW235112   1.188   0.516   2.141 -1.3461 -0.4861 -0.4301
 7826SOL     OW35113   2.830   0.902   6.120 -0.7446  0.3785  0.2692
 7826SOL    HW135114   2.869   0.959   6.053 -1.8122 -0.8484 -1.3959
 7826SOL    HW235115   2.737   0.912   6.101 -1.1604 -3.2282  0.3717
 7827SOL     OW35116   3.431   0.524  12.895  0.5865 -0.6313 -0.2462
 7827SOL    HW135117   3.368   0.596  12.895  1.4486  0.1334 -3.2548
 7827SOL    HW235118   3.410   0.487  12.810  1.1398 -2.5203  0.4458
 7828SOL     OW35119   0.545   3.644   0.713  0.3540 -0.3502  0.4822
 7828SOL    HW135120   0.456   3.627   0.684  0.5788  1.1781 -1.0935
 7828SOL    HW235121   0.536   3.721   0.770  2.3279 -1.0676  1.7310
 7829SOL     OW35122   1.885   3.118   3.522 -0.0352 -0.4057 -0.3782
 7829SOL    HW135123   1.794   3.088   3.514  0.4345 -1.4685 -1.9365
 7829SOL    HW235124   1.895   3.141   3.614 -1.4479  2.2995 -0.9175
 7830SOL     OW35125   3.480   1.759   3.349 -0.2234 -0.1956 -0.2666
 7830SOL    HW135126   3.439   1.693   3.405  0.3052  0.0856  0.4389
 7830SOL    HW235127   3.404   1.812   3.324  0.2787  0.3720 -0.5978
 7831SOL     OW35128   0.161   0.131   4.634 -0.7942 -0.5081 -0.9550
 7831SOL    HW135129   0.212   0.124   4.553  1.1058  1.4191  0.0776
 7831SOL    HW235130   0.085   0.183   4.612 -1.1077 -0.1038  1.0435
 7832SOL     OW35131   2.416   2.527   7.786  0.2038 -0.0381 -0.2894
 7832SOL    HW135132   2.404   2.587   7.712 -2.8794  0.6931  0.7646
 7832SOL    HW235133   2.510   2.538   7.801  0.3413 -2.2962  0.4498
 7833SOL     OW35134   4.621   3.187   6.516  0.0039 -0.2447 -0.1367
 7833SOL    HW135135   4.683   3.191   6.443 -0.2168  0.2965 -0.2944
 7833SOL    HW235136   4.609   3.093   6.527  1.1981 -0.4186 -0.3030
 7834SOL     OW35137   2.867   4.079   2.614 -0.3620  0.4379  0.4878
 7834SOL    HW135138   2.821   4.048   2.691 -1.0787  1.5182  0.4925
 7834SOL    HW235139   2.956   4.079   2.649 -0.3297  1.1180  0.3976
 7835SOL     OW35140   4.325   3.012   4.885 -0.0090  0.2655  0.2875
 7835SOL    HW135141   4.415   3.001   4.917 -0.1971 -1.1144  0.3497
 7835SOL    HW235142   4.349   3.046   4.799  0.2699 -1.2438 -0.2313
 7836SOL     OW35143   0.098   1.172  14.970 -0.0225 -0.1168  0.1659
 7836SOL    HW135144   0.183   1.153  14.930 -0.2553 -1.1784  0.1790
 7836SOL    HW235145   0.107   1.248  15.028  0.4733 -0.0221 -0.0354
 7837SOL     OW35146   2.031   0.558   7.290 -0.6540 -0.0014 -0.2971
 7837SOL    HW135147   2.099   0.624   7.302  0.8286 -1.6264  0.2553
 7837SOL    HW235148   1.960   0.615   7.260 -1.5358 -1.0181 -0.1168
 7838SOL     OW35149   1.345   3.834   2.200  0.3636 -0.3085  0.3110
 7838SOL    HW135150   1.274   3.898   2.202  1.1754  0.5042  2.4543
 7838SOL    HW235151   1.346   3.796   2.112  0.3841  0.9473 -0.2200
 7839SOL     OW35152   4.557   3.925   5.605  0.3042 -0.1086 -0.1717
 7839SOL    HW135153   4.497   3.946   5.676 -0.3204 -1.4853 -0.3040
 7839SOL    HW235154   4.631   3.893   5.657  0.1908  0.6826  0.4786
 7840SOL     OW35155   4.260   0.845  12.454 -0.1191 -0.5859  0.0725
 7840SOL    HW135156   4.333   0.821  12.397  1.0306 -0.2982  1.3919
 7840SOL    HW235157   4.205   0.767  12.463  0.2192 -0.8510 -0.1560
 7841SOL     OW35158   4.337   4.709  16.515 -0.1684 -0.0429  0.0656
 7841SOL    HW135159   4.359   4.625  16.555  1.5638  0.5276  0.2840
 7841SOL    HW235160   4.342   0.027  16.592  1.7984 -1.3417  0.8674
 7842SOL     OW35161   0.037   3.446   2.189  0.0356 -0.3956 -0.7014
 7842SOL    HW135162   0.010   3.361   2.155 -1.2157 -0.2099 -0.1610
 7842SOL    HW235163   0.104   3.410   2.246 -0.5729 -1.9477 -0.9473
 7843SOL     OW35164   0.876   2.098   7.959 -0.6370 -0.3242 -0.1801
 7843SOL    HW135165   0.913   2.044   7.889 -1.3796  1.0198 -1.6203
 7843SOL    HW235166   0.908   2.048   8.034 -0.9400 -2.5209 -1.5178
 7844SOL     OW35167   2.925   0.842   2.749 -0.3594  0.4057 -0.1889
 7844SOL    HW135168   2.950   0.778   2.682  0.9051 -0.5456  1.1866
 7844SOL    HW235169   2.885   0.912   2.697 -0.7079  1.1765  1.1253
 7845SOL     OW35170   2.756   1.098   5.754 -0.0481 -0.1329 -0.7170
 7845SOL    HW135171   2.775   1.190   5.773  1.8194 -1.1380  2.1254
 7845SOL    HW235172   2.825   1.048   5.797  0.0448 -0.4270 -1.2030
 7846SOL     OW35173   1.935   4.586  10.416  0.7418 -0.4745 -0.2961
 7846SOL    HW135174   1.855   4.534  10.406  0.4162  0.0747 -0.5477
 7846SOL    HW235175   1.905   4.671  10.448 -0.7036 -0.1884 -2.3522
 7847SOL     OW35176   1.234   0.254   4.540 -0.0634 -0.1956 -0.0719
 7847SOL    HW135177   1.249   0.160   4.538 -0.5926 -0.3188  1.3938
 7847SOL    HW235178   1.148   0.245   4.581 -2.0250  1.8346 -3.7914
 7848SOL     OW35179   2.116   1.856  12.737 -0.2272  0.2900  0.0253
 7848SOL    HW135180   2.132   1.946  12.710 -1.4136  0.2449 -0.8150
 7848SOL    HW235181   2.042   1.827  12.684 -1.2200 -0.5773  1.8574
 7849SOL     OW35182   0.022   0.231  16.657 -0.3797  0.0947 -0.0558
 7849SOL    HW135183   0.111   0.217  16.626 -0.2562  1.0207 -0.1261
 7849SOL    HW235184   4.717   0.262  16.577  0.4390 -2.3418 -1.4328
 7850SOL     OW35185   3.966   0.096   7.080  0.0932 -0.6486  1.0370
 7850SOL    HW135186   4.005   0.147   7.008 -1.7220  0.9422  1.1795
 7850SOL    HW235187   3.945   0.019   7.027 -1.5084  0.4700  0.0305
 7851SOL     OW35188   1.349   1.482   1.044  0.3937 -0.0077 -0.2716
 7851SOL    HW135189   1.348   1.388   1.064  1.0746 -0.1799 -1.0554
 7851SOL    HW235190   1.286   1.520   1.106 -1.9305 -1.9605 -1.4403
 7852SOL     OW35191   0.020   0.233   2.468  0.3361 -0.4391 -0.7831
 7852SOL    HW135192   0.068   0.313   2.488 -2.5804  1.1647 -0.2137
 7852SOL    HW235193   0.077   0.177   2.415  0.1042 -1.2184 -0.2150
 7853SOL     OW35194   3.342   4.200   1.601  0.3582  0.0870  0.3973
 7853SOL    HW135195   3.403   4.131   1.575  4.1466  3.6490 -0.1229
 7853SOL    HW235196   3.381   4.270   1.549 -0.0927  1.1958  1.5468
 7854SOL     OW35197   2.339   3.732   3.242 -0.4969 -0.4618 -0.0206
 7854SOL    HW135198   2.400   3.758   3.173 -3.6414  3.3068 -1.3605
 7854SOL    HW235199   2.309   3.649   3.205  1.1554 -0.6101 -1.0424
 7855SOL     OW35200   3.693   2.667   0.623 -0.1269  0.5416 -0.0002
 7855SOL    HW135201   3.608   2.622   0.621 -0.0249  0.3765 -0.8345
 7855SOL    HW235202   3.737   2.622   0.695 -0.5059  2.3371  1.3368
 7856SOL     OW35203   2.392   3.714   6.580 -0.1998  0.3093 -0.6382
 7856SOL    HW135204   2.325   3.724   6.648  1.6335  3.6608  0.6794
 7856SOL    HW235205   2.460   3.756   6.632 -2.2097  1.7700  0.8558
 7857SOL     OW35206   0.577   1.809   4.620  0.7057 -0.9261  0.1279
 7857SOL    HW135207   0.635   1.755   4.566 -1.4410  1.5072 -4.6674
 7857SOL    HW235208   0.613   1.781   4.704  0.8134 -4.0682 -0.9455
 7858SOL     OW35209   0.061   3.218  13.868  0.3511  0.6133 -0.6092
 7858SOL    HW135210   0.024   3.197  13.782  1.3722  1.4226 -1.2354
 7858SOL    HW235211   0.154   3.235  13.853  0.4106  1.8498  1.1850
 7859SOL     OW35212   2.877   1.736   7.113 -0.0343  0.5159  0.6780
 7859SOL    HW135213   2.972   1.724   7.102 -0.1590  1.3404 -1.4099
 7859SOL    HW235214   2.863   1.826   7.084 -0.7137  0.0557 -0.4194
 7860SOL     OW35215   2.052   1.743   9.051  0.3216  0.1898  0.0291
 7860SOL    HW135216   2.070   1.774   8.962  1.9177 -2.2068 -0.4808
 7860SOL    HW235217   1.961   1.714   9.041 -0.1809  0.6061  3.2908
 7861SOL     OW35218   4.198   1.068   4.251 -0.3314 -0.0344 -0.4584
 7861SOL    HW135219   4.205   1.141   4.189 -0.6616  0.3919  0.0047
 7861SOL    HW235220   4.208   0.994   4.191 -1.5528  1.0698 -2.0505
 7862SOL     OW35221   2.769   4.011   9.777  0.3734  0.0100 -0.4409
 7862SOL    HW135222   2.834   4.029   9.845 -1.0937 -1.8957  1.4224
 7862SOL    HW235223   2.700   3.973   9.830 -1.2244  1.9535 -1.1315
 7863SOL     OW35224   0.121   2.162  16.692  0.3639  0.3849 -0.3153
 7863SOL    HW135225   0.203   2.118  16.711  0.2165 -0.1064 -0.8078
 7863SOL    HW235226   0.148   2.223  16.624  3.7655  0.1331  0.8212
 7864SOL     OW35227   3.986   2.844  14.265 -0.6362 -0.1353 -0.3326
 7864SOL    HW135228   3.978   2.883  14.178  1.6721 -0.3441 -0.6344
 7864SOL    HW235229   3.940   2.761  14.255  1.0679 -0.9151 -1.7922
 7865SOL     OW35230   3.071   2.809   4.549 -0.2296  0.2958 -0.1424
 7865SOL    HW135231   3.072   2.904   4.539  0.9007  0.0883 -1.9792
 7865SOL    HW235232   3.016   2.796   4.626  1.6623 -1.5535  0.8853
 7866SOL     OW35233   4.089   4.271   4.100 -0.2210 -0.6839 -0.6170
 7866SOL    HW135234   4.095   4.366   4.091  2.2325 -0.8524 -0.6883
 7866SOL    HW235235   4.155   4.257   4.167 -0.8653  1.0856  0.3959
 7867SOL     OW35236   4.176   0.286   4.288  0.4426  0.1796 -0.4709
 7867SOL    HW135237   4.235   0.269   4.215 -0.2726 -2.1790 -0.5005
 7867SOL    HW235238   4.088   0.272   4.252  0.2922 -0.6085  0.2089
 7868SOL     OW35239   0.184   0.892   7.429 -0.0916  0.4044  0.3765
 7868SOL    HW135240   0.142   0.921   7.510  1.3377 -1.0035  1.6399
 7868SOL    HW235241   0.225   0.974   7.403 -0.3934  0.7700  1.0627
 7869SOL     OW35242   2.124   1.490   3.868  0.2524  0.2861 -0.2231
 7869SOL    HW135243   2.107   1.455   3.780 -1.5342 -1.6380  0.9028
 7869SOL    HW235244   2.186   1.425   3.901 -0.4842  0.3304  1.2198
 7870SOL     OW35245   3.132   1.374  13.590 -0.5599 -0.0232 -0.2361
 7870SOL    HW135246   3.124   1.321  13.510 -2.4941 -1.3468  0.8407
 7870SOL    HW235247   3.227   1.380  13.582 -0.4828 -0.2141  0.5681
 7871SOL     OW35248   2.477   4.038   8.024 -0.1584  0.4515  0.0199
 7871SOL    HW135249   2.537   4.072   8.091  1.9685 -0.7762 -1.2441
 7871SOL    HW235250   2.409   4.002   8.080  0.3085  3.6345  2.6558
 7872SOL     OW35251   4.421   1.735   4.785 -0.0312  0.6668 -0.2618
 7872SOL    HW135252   4.362   1.682   4.730  0.4926 -0.6739  0.4888
 7872SOL    HW235253   4.496   1.676   4.781 -0.6036 -0.0783  0.0089
 7873SOL     OW35254   4.089   1.511   2.734  0.3542 -0.1812 -0.4830
 7873SOL    HW135255   4.036   1.507   2.813 -2.1039 -0.7568 -2.1703
 7873SOL    HW235256   4.018   1.488   2.674 -1.4903  0.8361  1.3119
 7874SOL     OW35257   2.442   1.901   9.710  0.1965  0.0886  0.2240
 7874SOL    HW135258   2.406   1.844   9.777  0.3269  0.2006  0.3910
 7874SOL    HW235259   2.476   1.969   9.769 -2.4196  1.8603 -0.3214
 7875SOL     OW35260   3.787   4.240   2.189  0.4018 -0.9699  0.3511
 7875SOL    HW135261   3.831   4.300   2.130  1.1245  0.5299  2.4197
 7875SOL    HW235262   3.735   4.309   2.230  0.7764  0.7060 -1.9831
 7876SOL     OW35263   2.533   3.748   8.975  0.0565 -0.0150  0.6959
 7876SOL    HW135264   2.508   3.805   9.048 -1.2863 -0.4197  0.5474
 7876SOL    HW235265   2.575   3.676   9.023  0.2929 -0.2610  0.1113
 7877SOL     OW35266   2.800   0.252   7.828  0.6758  0.0079  0.8700
 7877SOL    HW135267   2.866   0.214   7.770  1.9369  1.2527  1.5105
 7877SOL    HW235268   2.858   0.311   7.876 -1.4309  1.9579  1.0532
 7878SOL     OW35269   3.993   4.260  10.952  0.2546 -0.6681 -0.4426
 7878SOL    HW135270   4.028   4.193  10.894 -2.5116 -1.2138 -1.4733
 7878SOL    HW235271   3.968   4.203  11.024 -0.4940  0.4051  0.1471
 7879SOL     OW35272   3.103   3.868   4.726 -0.3225 -0.3300 -0.4427
 7879SOL    HW135273   3.108   3.790   4.670  0.1379 -0.5687 -0.0706
 7879SOL    HW235274   3.170   3.853   4.792 -0.0182  0.7785 -0.5021
 7880SOL     OW35275   0.407   3.327   3.315 -0.2505 -0.1888  0.0533
 7880SOL    HW135276   0.463   3.291   3.384 -0.4934 -1.0143 -0.1895
 7880SOL    HW235277   0.480   3.376   3.276 -1.6692  0.9311 -1.2002
 7881SOL     OW35278   4.165   2.853   9.197 -0.7065  0.0433  0.1315
 7881SOL    HW135279   4.167   2.940   9.156  3.4773 -0.5569 -0.9724
 7881SOL    HW235280   4.106   2.874   9.269 -2.3750  1.3551 -1.6124
 7882SOL     OW35281   3.533   1.614  13.297  0.0683 -0.0065 -0.0586
 7882SOL    HW135282   3.537   1.558  13.220 -0.5376 -0.8542  0.5287
 7882SOL    HW235283   3.440   1.610  13.320  0.1007 -2.3622 -0.3489
 7883SOL     OW35284   0.950   3.069  10.182 -0.8830  0.4075 -0.8848
 7883SOL    HW135285   0.879   3.107  10.131 -0.7206  0.1953 -1.2646
 7883SOL    HW235286   1.003   3.145  10.206 -0.8018  0.9986 -2.9583
 7884SOL     OW35287   0.930   2.653  11.638  0.4415  0.0136  0.5894
 7884SOL    HW135288   0.868   2.704  11.689 -0.7077  0.9446 -1.7226
 7884SOL    HW235289   0.878   2.576  11.614 -0.0831  0.2103  1.1033
 7885SOL     OW35290   4.401   1.491   9.712  0.3782  0.1496  0.0604
 7885SOL    HW135291   4.339   1.520   9.645  1.5176  2.3150 -0.0748
 7885SOL    HW235292   4.424   1.408   9.670  0.5279  0.2000  0.0403
 7886SOL     OW35293   3.078   2.440  11.230  0.9668  0.6386  0.3110
 7886SOL    HW135294   3.148   2.375  11.245  0.3829 -0.1239 -0.2793
 7886SOL    HW235295   2.997   2.391  11.219  2.1903 -1.3205  0.0145
 7887SOL     OW35296   3.759   2.497  15.496  0.7007 -0.1890 -0.4691
 7887SOL    HW135297   3.797   2.537  15.418 -0.6307  0.3345 -0.8488
 7887SOL    HW235298   3.709   2.425  15.457  0.9890 -0.0205 -1.1622
 7888SOL     OW35299   4.317   0.153   5.996 -0.4745 -0.1775  0.0033
 7888SOL    HW135300   4.334   0.165   6.090 -2.0538  1.2767  0.1044
 7888SOL    HW235301   4.398   0.113   5.965  0.6280  1.2527  1.0511
 7889SOL     OW35302   4.320   2.970  16.552 -0.3971 -0.2703  0.2562
 7889SOL    HW135303   4.340   2.950  16.461 -1.4149  0.1605 -0.0651
 7889SOL    HW235304   4.302   2.883  16.589 -0.5588  0.6802  2.3929
 7890SOL     OW35305   1.683   0.373   2.112 -0.2294  0.0248 -0.3431
 7890SOL    HW135306   1.697   0.338   2.200 -1.9004 -0.8110 -0.4184
 7890SOL    HW235307   1.772   0.373   2.076 -0.0031  0.5233  0.2325
 7891SOL     OW35308   1.192   4.654  10.418  0.1847  0.3219 -0.3737
 7891SOL    HW135309   1.200   4.680  10.326 -1.8027  0.3660 -0.5376
 7891SOL    HW235310   1.135   4.578  10.405 -1.7769  1.2886  2.7264
 7892SOL     OW35311   2.216   0.647   7.711  0.2068  0.2596 -0.0175
 7892SOL    HW135312   2.269   0.713   7.667  0.9289 -1.5702 -1.8948
 7892SOL    HW235313   2.178   0.600   7.637  0.9413  1.4224 -1.1344
 7893SOL     OW35314   0.304   2.769   9.616 -0.0093 -0.4408  0.4632
 7893SOL    HW135315   0.297   2.851   9.567 -0.1781  0.2257  1.6174
 7893SOL    HW235316   0.338   2.701   9.557  0.7911  1.7454 -1.5889
 7894SOL     OW35317   3.464   2.418  15.921  0.1513  0.2514 -0.3732
 7894SOL    HW135318   3.388   2.475  15.933 -0.2181 -0.8337  2.4064
 7894SOL    HW235319   3.471   2.405  15.826 -0.8916 -0.7622 -0.3098
 7895SOL     OW35320   2.521   4.052  12.101  0.1917 -0.2435  0.1234
 7895SOL    HW135321   2.605   4.042  12.057 -0.0364  0.9703 -0.6106
 7895SOL    HW235322   2.482   3.967  12.081 -0.7952  0.4178 -0.8075
 7896SOL     OW35323   1.870   4.177   6.084 -0.0323  0.1597 -0.5132
 7896SOL    HW135324   1.860   4.175   6.179 -0.8192  0.8166 -0.5838
 7896SOL    HW235325   1.898   4.267   6.068 -0.3356  0.6189  1.5348
 7897SOL     OW35326   0.687   2.809   4.594  0.5574 -0.1991 -0.1405
 7897SOL    HW135327   0.601   2.824   4.555  0.8400  0.6235 -0.4438
 7897SOL    HW235328   0.703   2.902   4.602  0.2842 -0.1658  0.0260
 7898SOL     OW35329   4.404   4.058   8.728  0.8695  0.0602  0.0412
 7898SOL    HW135330   4.405   4.137   8.674  2.4498 -0.5759 -0.8594
 7898SOL    HW235331   4.422   4.003   8.652 -0.2587 -2.5031  1.5894
 7899SOL     OW35332   3.365   0.365   3.240 -0.9944 -0.3461 -0.0580
 7899SOL    HW135333   3.372   0.400   3.151  0.2219 -0.8552 -0.1548
 7899SOL    HW235334   3.287   0.408   3.274 -0.1389  0.3076  1.0636
 7900SOL     OW35335   4.630   3.694   5.436  0.7586  0.0881 -0.0026
 7900SOL    HW135336   4.629   3.781   5.477  1.6311 -1.1871  2.7910
 7900SOL    HW235337   4.539   3.665   5.448  0.8034  1.1289  3.0438
 7901SOL     OW35338   0.296   0.386   8.474 -0.3175  0.0689  0.4194
 7901SOL    HW135339   0.348   0.307   8.487 -2.6674 -1.3548  1.0969
 7901SOL    HW235340   0.363   0.453   8.460 -1.3989  1.3595  1.5455
 7902SOL     OW35341   2.738   2.309   4.846  0.0713 -0.2186  0.4668
 7902SOL    HW135342   2.695   2.244   4.902 -0.6623 -0.8043 -0.7900
 7902SOL    HW235343   2.761   2.373   4.914  0.5164 -0.4490  0.5353
 7903SOL     OW35344   1.660   0.519  13.103 -0.2060  0.0767 -0.4038
 7903SOL    HW135345   1.662   0.607  13.140  0.9932 -0.4420  0.7317
 7903SOL    HW235346   1.676   0.535  13.010 -0.2579  1.3980 -0.1855
 7904SOL     OW35347   2.968   0.138  14.879 -0.6060  0.1996  0.1079
 7904SOL    HW135348   2.905   0.071  14.906 -2.2337  0.6310 -2.6727
 7904SOL    HW235349   2.934   0.215  14.925 -0.7161  0.0664  0.2507
 7905SOL     OW35350   4.082   4.024   6.053 -0.2871  0.2262 -0.1317
 7905SOL    HW135351   4.123   4.014   6.139  0.4839 -1.2913 -0.6635
 7905SOL    HW235352   4.156   4.055   6.000 -0.8039  1.3963 -0.1705
 7906SOL     OW35353   4.555   4.166   8.512 -0.1522  0.3412  0.5985
 7906SOL    HW135354   4.628   4.119   8.472 -1.0843  0.8947 -1.7994
 7906SOL    HW235355   4.606   4.231   8.561  0.5202 -0.1949  0.6044
 7907SOL     OW35356   2.156   2.177   4.446 -0.1667  0.0201 -0.6530
 7907SOL    HW135357   2.229   2.233   4.421  0.4098 -0.1365  0.6666
 7907SOL    HW235358   2.146   2.177   4.541  1.9223 -0.1358 -0.4510
 7908SOL     OW35359   3.569   4.310   3.845  0.1197 -0.3555 -0.5423
 7908SOL    HW135360   3.650   4.340   3.888  0.4059  0.3559 -1.5814
 7908SOL    HW235361   3.613   4.263   3.774 -0.5567 -2.6351  0.5688
 7909SOL     OW35362   4.581   0.486   4.326 -0.0817  0.1474 -0.0474
 7909SOL    HW135363   4.549   0.408   4.280 -0.0442  0.5627 -0.7862
 7909SOL    HW235364   4.501   0.512   4.371 -0.5794 -0.8534 -0.3470
 7910SOL     OW35365   3.213   3.388   9.683 -0.1610 -0.1610 -0.4193
 7910SOL    HW135366   3.219   3.441   9.763 -1.9889 -1.3236  0.4708
 7910SOL    HW235367   3.242   3.452   9.618  0.6155 -0.1528 -0.0747
 7911SOL     OW35368   1.064   2.200   9.457 -0.2211  0.9574 -0.3132
 7911SOL    HW135369   0.973   2.202   9.428 -0.4722 -2.0168  0.1989
 7911SOL    HW235370   1.057   2.246   9.541 -1.3184  1.2214 -0.5477
 7912SOL     OW35371   4.428   1.681  13.717  0.4606 -0.4387  0.9753
 7912SOL    HW135372   4.395   1.592  13.729  1.0903 -0.5257  2.1125
 7912SOL    HW235373   4.467   1.708  13.801  0.8460 -0.4321  0.7963
 7913SOL     OW35374   0.988   3.369   4.083  0.7538  0.0931 -0.0454
 7913SOL    HW135375   1.025   3.457   4.076 -0.7522  0.6259 -1.4247
 7913SOL    HW235376   0.901   3.387   4.120 -0.1265  0.9109 -2.4989
 7914SOL     OW35377   1.550   1.164   9.964 -0.1323 -0.5425 -0.2340
 7914SOL    HW135378   1.588   1.161  10.052 -0.0981  1.4340 -0.1614
 7914SOL    HW235379   1.465   1.124   9.983 -0.2729 -0.5709 -0.9176
 7915SOL     OW35380   3.928   3.755   5.191 -0.3862  0.0059 -0.4204
 7915SOL    HW135381   3.974   3.718   5.267  1.3278  3.6930  0.3017
 7915SOL    HW235382   3.945   3.848   5.205 -1.2472 -0.2352  2.2914
 7916SOL     OW35383   1.404   3.486   4.228 -0.0947 -0.1433  0.2312
 7916SOL    HW135384   1.379   3.495   4.136 -0.1883  0.8711  0.3544
 7916SOL    HW235385   1.488   3.532   4.225 -0.0717 -0.2989 -1.5441
 7917SOL     OW35386   3.659   3.680  16.743 -0.5962  0.1354 -0.4283
 7917SOL    HW135387   3.578   3.731  16.755 -1.5884 -1.7326  0.7290
 7917SOL    HW235388   3.662   3.645  16.832  2.8041 -0.5627 -0.8199
 7918SOL     OW35389   4.326   3.830   5.320 -0.7301  0.2292 -0.1295
 7918SOL    HW135390   4.359   3.764   5.381  0.9255  0.0482 -1.2285
 7918SOL    HW235391   4.258   3.882   5.363 -0.9949  0.9569 -1.4422
 7919SOL     OW35392   1.062   4.306  16.692  0.8036  0.0062 -0.6310
 7919SOL    HW135393   1.157   4.295  16.691  0.6595 -1.3509  1.5845
 7919SOL    HW235394   1.034   4.216  16.703 -1.9285  0.9416  0.0175
 7920SOL     OW35395   3.894   2.327   5.709  0.1215 -0.0158  0.5144
 7920SOL    HW135396   3.956   2.292   5.645  2.4849  2.5370  1.4054
 7920SOL    HW235397   3.832   2.255   5.719  1.0427 -1.1931 -2.2463
 7921SOL     OW35398   2.141   1.788  11.275 -0.3135 -0.1182 -0.2563
 7921SOL    HW135399   2.220   1.831  11.307 -0.0568 -1.5285  1.0052
 7921SOL    HW235400   2.101   1.862  11.228 -0.3066  0.3225  0.4356
 7922SOL     OW35401   2.395   3.901  14.597  0.1279  0.7783 -0.3508
 7922SOL    HW135402   2.462   3.926  14.660  1.4692 -1.3173 -0.9415
 7922SOL    HW235403   2.326   3.861  14.651  0.4861  1.5371  0.6812
 7923SOL     OW35404   2.322   1.754  14.485  0.3034  0.6014  0.5965
 7923SOL    HW135405   2.382   1.806  14.432  1.3618  0.8115  1.9988
 7923SOL    HW235406   2.278   1.692  14.427  1.2526  0.7122 -0.2556
 7924SOL     OW35407   1.342   0.971  10.018 -0.1573 -0.1360 -0.1579
 7924SOL    HW135408   1.309   0.946   9.931 -1.1195  2.2295 -0.4558
 7924SOL    HW235409   1.316   0.899  10.076  0.6112 -1.4451 -1.4060
 7925SOL     OW35410   2.955   4.733   9.370  0.1866 -0.0978  0.6886
 7925SOL    HW135411   2.956   0.085   9.403  0.4386 -0.4262  1.5848
 7925SOL    HW235412   2.984   0.008   9.279  2.4262  1.7913  1.6580
 7926SOL     OW35413   2.783   0.403   5.022  0.0213 -0.6104  0.2075
 7926SOL    HW135414   2.867   0.363   5.041 -0.5722 -0.8205  2.4011
 7926SOL    HW235415   2.728   0.328   4.999 -2.9349  1.4924  0.4558
 7927SOL     OW35416   2.449   1.486   8.551  0.4354 -0.3977 -0.4364
 7927SOL    HW135417   2.357   1.461   8.561 -0.1369  1.4566 -1.1065
 7927SOL    HW235418   2.461   1.570   8.595  1.5630 -0.5491 -0.4568
 7928SOL     OW35419   2.574   3.312  15.061  0.2972  0.3233 -0.2173
 7928SOL    HW135420   2.633   3.324  15.135 -0.8014  2.1838  0.3510
 7928SOL    HW235421   2.625   3.343  14.986  1.1240  3.0373  1.4437
 7929SOL     OW35422   3.237   1.272  10.033 -0.4569  0.2255 -0.2036
 7929SOL    HW135423   3.193   1.188  10.035 -0.6056  0.3350  1.4644
 7929SOL    HW235424   3.326   1.242  10.051 -1.4602 -2.6085 -0.1081
 7930SOL     OW35425   4.374   2.771   2.239 -0.0712 -0.0449  0.2705
 7930SOL    HW135426   4.421   2.847   2.203 -0.5100  0.9851  1.8757
 7930SOL    HW235427   4.290   2.781   2.196 -1.4347 -0.4602  2.8597
 7931SOL     OW35428   2.236   2.317   3.710 -0.3866 -0.2439 -0.0987
 7931SOL    HW135429   2.321   2.272   3.710  1.4247  3.1341  0.2613
 7931SOL    HW235430   2.194   2.267   3.640 -0.0652  0.9034 -1.1045
 7932SOL     OW35431   3.503   0.347   6.585  0.1191 -0.3942  0.4917
 7932SOL    HW135432   3.518   0.273   6.644 -1.6242  0.8861  2.5144
 7932SOL    HW235433   3.417   0.320   6.555  0.9233 -0.8644 -1.4173
 7933SOL     OW35434   3.148   0.040   6.518 -0.1858 -0.1333  0.3240
 7933SOL    HW135435   3.056   0.066   6.525  0.2081  0.6327  2.5194
 7933SOL    HW235436   3.146   4.731   6.602 -0.3652 -0.0592  0.3604
 7934SOL     OW35437   0.913   3.527   0.674  0.8445 -0.0333  0.4077
 7934SOL    HW135438   0.941   3.591   0.609 -2.1244  0.2822 -0.5758
 7934SOL    HW235439   0.989   3.471   0.660 -0.1186 -1.4660  0.8636
 7935SOL     OW35440   1.046   1.868   9.096  0.6124  0.7626  0.2765
 7935SOL    HW135441   1.006   1.836   9.177  3.0657 -0.5996  0.9542
 7935SOL    HW235442   0.992   1.833   9.026  0.8530 -0.2407  0.5947
 7936SOL     OW35443   0.054   0.888  11.342 -0.5047  0.9940 -0.3729
 7936SOL    HW135444   0.032   0.821  11.407  2.8718 -1.8561 -2.1918
 7936SOL    HW235445   0.112   0.946  11.391  0.4664 -1.0468  0.8854
 7937SOL     OW35446   2.296   0.295   2.383 -0.5334  0.2062  0.3640
 7937SOL    HW135447   2.358   0.222   2.377 -1.9235 -0.9764  0.4561
 7937SOL    HW235448   2.240   0.281   2.306 -0.1220  0.7885 -0.0430
 7938SOL     OW35449   1.608   2.673   3.237  0.4099 -0.6816  0.5560
 7938SOL    HW135450   1.679   2.668   3.173  0.5885 -0.3885  0.7320
 7938SOL    HW235451   1.598   2.585   3.273  3.5417 -1.1428  0.3078
 7939SOL     OW35452   4.227   1.310   4.111 -0.1082 -0.1657 -0.3852
 7939SOL    HW135453   4.260   1.382   4.057  0.1232  1.1010  1.4391
 7939SOL    HW235454   4.139   1.319   4.072 -0.3135 -2.1387 -0.3418
 7940SOL     OW35455   3.807   1.750  16.620  0.2029  0.1787  0.3135
 7940SOL    HW135456   3.801   1.690  16.694  1.3221 -0.2567  0.0465
 7940SOL    HW235457   3.766   1.828  16.658 -0.4088  0.7078 -1.4184
 7941SOL     OW35458   3.058   0.178   2.676  0.3923 -0.0688  0.8589
 7941SOL    HW135459   3.043   0.084   2.678  1.2446 -0.2521 -0.8133
 7941SOL    HW235460   2.978   0.210   2.718  0.3112  1.0522 -0.1561
 7942SOL     OW35461   0.552   0.259   6.283 -0.1506 -0.0796  0.5552
 7942SOL    HW135462   0.504   0.232   6.205 -0.7339 -0.7089  1.1207
 7942SOL    HW235463   0.640   0.239   6.251  0.2611 -0.7205  2.0559
 7943SOL     OW35464   3.578   1.280   0.647  0.0359 -0.1284 -0.1504
 7943SOL    HW135465   3.615   1.342   0.710  1.0758 -0.8377 -0.0710
 7943SOL    HW235466   3.560   1.203   0.699  1.6137 -0.4526 -0.0773
 7944SOL     OW35467   1.367   3.847   6.945 -0.1698  0.9580 -0.2789
 7944SOL    HW135468   1.297   3.797   6.987 -0.2378 -1.0510 -2.7644
 7944SOL    HW235469   1.312   3.876   6.872  1.5301  2.8805 -0.7951
 7945SOL     OW35470   2.604   1.590   5.458 -0.7471  0.0834 -0.0410
 7945SOL    HW135471   2.517   1.584   5.419  0.4555  0.2032 -2.7752
 7945SOL    HW235472   2.588   1.560   5.547 -0.2763 -2.3907 -0.7826
 7946SOL     OW35473   1.095   1.491  11.343 -0.2399 -0.5049  0.7851
 7946SOL    HW135474   1.152   1.420  11.315  1.3198  1.3679 -0.8232
 7946SOL    HW235475   1.155   1.540  11.399 -1.3664  1.2295  0.4901
 7947SOL     OW35476   1.548   4.340  15.281 -0.6272  0.3920 -0.1130
 7947SOL    HW135477   1.526   4.246  15.279  3.6740 -0.6400  2.2784
 7947SOL    HW235478   1.570   4.353  15.189  0.1801 -0.7547 -0.0875
 7948SOL     OW35479   2.409   0.852   4.950  0.0406 -0.1913  0.2782
 7948SOL    HW135480   2.440   0.765   4.976  3.3897  1.3634  1.5217
 7948SOL    HW235481   2.348   0.832   4.880 -0.2121  2.6719 -0.3147
 7949SOL     OW35482   1.955   0.248   4.297  0.3449 -0.2585 -0.3114
 7949SOL    HW135483   1.937   0.265   4.389  0.2132 -0.0961 -0.3687
 7949SOL    HW235484   2.048   0.223   4.299  0.3494 -0.3620 -1.8836
 7950SOL     OW35485   2.620   2.878   3.054 -0.2922 -0.2315 -0.4776
 7950SOL    HW135486   2.619   2.929   3.135 -2.5267 -4.0345  1.8638
 7950SOL    HW235487   2.708   2.840   3.062  0.2879  0.9948 -1.0211
 7951SOL     OW35488   4.004   2.767   9.852 -0.4774 -0.2581  0.3268
 7951SOL    HW135489   3.962   2.844   9.814  0.0397 -1.4372 -2.5968
 7951SOL    HW235490   3.997   2.778   9.947 -1.1949 -0.9599  0.3558
 7952SOL     OW35491   2.531   3.109   4.390  0.2852  0.0001 -0.3235
 7952SOL    HW135492   2.544   3.196   4.428 -1.1485 -0.9351  2.3179
 7952SOL    HW235493   2.467   3.073   4.452 -0.9095 -1.5700 -2.4506
 7953SOL     OW35494   4.383   4.600   2.036 -0.1475 -0.3361 -1.2456
 7953SOL    HW135495   4.362   4.686   2.073  1.3792 -0.4722 -0.0969
 7953SOL    HW235496   4.308   4.547   2.065 -0.6615  0.4434 -1.1408
 7954SOL     OW35497   3.996   2.392   1.373 -0.2449 -0.2324 -0.0249
 7954SOL    HW135498   4.088   2.377   1.350 -0.2573  0.9685 -0.8835
 7954SOL    HW235499   3.990   2.473   1.322 -1.5913  0.6965  1.5806
 7955SOL     OW35500   0.650   1.058   3.544  0.0321 -0.2168 -0.4259
 7955SOL    HW135501   0.593   1.035   3.471 -2.5766  0.4370  1.4248
 7955SOL    HW235502   0.662   0.971   3.584 -1.0851  0.2807  0.9797
 7956SOL     OW35503   2.234   1.179  13.639  0.1050 -0.0561  0.1786
 7956SOL    HW135504   2.154   1.191  13.689  1.4455  5.4095  1.0568
 7956SOL    HW235505   2.254   1.086  13.645  2.2055  0.3837  0.0801
 7957SOL     OW35506   0.254   1.320  11.404 -0.4472  0.2627  0.0394
 7957SOL    HW135507   0.296   1.367  11.332 -0.5965 -1.6049 -1.2404
 7957SOL    HW235508   0.163   1.347  11.389 -0.2790 -0.0087 -1.4102
 7958SOL     OW35509   2.657   3.619   7.501 -0.1895 -0.1575 -0.0554
 7958SOL    HW135510   2.647   3.546   7.440  1.1123  0.7078 -1.2979
 7958SOL    HW235511   2.624   3.689   7.446  1.1113  0.3125 -0.2541
 7959SOL     OW35512   2.709   1.928  15.580 -0.7033  0.8309 -0.7343
 7959SOL    HW135513   2.649   1.858  15.552 -0.4317  0.4739 -0.4274
 7959SOL    HW235514   2.684   2.002  15.525  0.4645 -0.1081 -2.5477
 7960SOL     OW35515   3.825   0.433  16.827  0.6650  0.2122 -0.5249
 7960SOL    HW135516   3.746   0.486  16.838 -0.5212 -1.4765 -0.9520
 7960SOL    HW235517   3.894   0.497  16.811  2.4864 -1.6450 -0.0261
 7961SOL     OW35518   3.032   1.471   3.521  0.1527 -0.3187 -0.3726
 7961SOL    HW135519   3.111   1.492   3.471 -0.5007  0.5276 -1.0540
 7961SOL    HW235520   3.057   1.496   3.610 -0.5603 -1.6609  0.2122
 7962SOL     OW35521   1.021   4.618   3.623  0.1535  0.0879  0.7771
 7962SOL    HW135522   0.957   4.560   3.666 -0.2657 -0.4396 -0.5626
 7962SOL    HW235523   1.086   4.556   3.588  3.5963  2.9353  2.0629
 7963SOL     OW35524   4.294   4.382   9.097  0.0898 -0.1311 -0.0197
 7963SOL    HW135525   4.243   4.462   9.087  2.5302  1.5566  0.9709
 7963SOL    HW235526   4.255   4.327   9.029 -0.2562  0.4882 -0.3209
 7964SOL     OW35527   3.915   0.441   7.260 -0.2575 -0.1994  0.1688
 7964SOL    HW135528   3.847   0.375   7.251  3.0460 -3.7462  0.9841
 7964SOL    HW235529   3.883   0.503   7.194  1.9822 -0.5078 -1.2124
 7965SOL     OW35530   3.709   4.187   9.584  0.5666 -0.1995 -0.6099
 7965SOL    HW135531   3.759   4.231   9.515 -1.9406 -0.5073 -2.6457
 7965SOL    HW235532   3.770   4.201   9.656  0.9962 -1.8100 -0.6731
 7966SOL     OW35533   0.604   3.566  12.790  0.3130  0.2095 -0.1193
 7966SOL    HW135534   0.640   3.654  12.795  1.7757 -0.3039 -1.2695
 7966SOL    HW235535   0.573   3.547  12.878 -2.0022  0.7478 -0.8382
 7967SOL     OW35536   3.356   0.002   5.619  0.4528 -0.4965  0.1964
 7967SOL    HW135537   3.317   0.043   5.696  1.4688  0.8150  0.0082
 7967SOL    HW235538   3.287   0.022   5.557  0.5044 -0.9675 -0.0127
 7968SOL     OW35539   2.341   4.063   7.781  0.2675 -0.4639 -0.0127
 7968SOL    HW135540   2.344   4.158   7.764 -1.6870 -0.5390 -0.7247
 7968SOL    HW235541   2.398   4.049   7.856 -0.8131 -2.1204  0.4998
 7969SOL     OW35542   0.005   4.040  10.905 -0.1428  0.5046 -0.0275
 7969SOL    HW135543   0.096   4.010  10.908 -0.3189 -0.2624 -2.8131
 7969SOL    HW235544   0.014   4.120  10.852  0.9350  0.1316 -0.4118
 7970SOL     OW35545   0.007   4.026   8.372 -0.4849  0.4282  0.1991
 7970SOL    HW135546   0.035   3.945   8.330 -0.8828  0.7531 -0.6941
 7970SOL    HW235547   0.094   4.064   8.386 -0.5385  0.5136  0.2997
 7971SOL     OW35548   0.184   1.803   8.696  0.2594  0.2958 -0.0142
 7971SOL    HW135549   0.247   1.830   8.764 -0.4836 -2.8307  1.9231
 7971SOL    HW235550   0.100   1.795   8.741  0.2993 -1.1001 -0.2057
 7972SOL     OW35551   0.359   3.722   7.163 -0.5477  0.3696  0.5996
 7972SOL    HW135552   0.353   3.664   7.239 -2.2093 -1.7878 -1.1915
 7972SOL    HW235553   0.272   3.699   7.131 -0.5840 -0.5105  1.3230
 7973SOL     OW35554   4.400   4.203  14.579  0.6672  0.4196 -0.2191
 7973SOL    HW135555   4.434   4.292  14.588 -0.5217  0.9863 -1.2586
 7973SOL    HW235556   4.321   4.220  14.528 -0.8745  2.0887  2.7498
 7974SOL     OW35557   2.750   2.670   9.428 -0.0379  0.2467  0.3642
 7974SOL    HW135558   2.685   2.728   9.467  0.6931  0.7326  0.8714
 7974SOL    HW235559   2.690   2.617   9.376  2.8802  0.5604 -3.3228
 7975SOL     OW35560   1.269   3.590   5.518 -0.1649  0.1452  0.4179
 7975SOL    HW135561   1.363   3.607   5.511 -0.3500  1.9571  2.1883
 7975SOL    HW235562   1.270   3.534   5.596  0.1425  0.6999  0.8193
 7976SOL     OW35563   4.698   2.631   7.252  0.6022 -0.0964  0.3269
 7976SOL    HW135564   4.703   2.616   7.157  1.0722  0.5954  0.2388
 7976SOL    HW235565   0.039   2.686   7.259  1.5821 -1.7219  2.0642
 7977SOL     OW35566   0.665   4.224  11.198  0.8056  0.1159  0.4040
 7977SOL    HW135567   0.657   4.130  11.186 -1.4690  0.4154 -0.4267
 7977SOL    HW235568   0.574   4.249  11.181  0.6545 -0.8169 -0.1252
 7978SOL     OW35569   3.058   4.048   6.059  0.1224 -0.2626  0.2091
 7978SOL    HW135570   3.005   4.121   6.026  1.2558  0.1485 -0.7121
 7978SOL    HW235571   3.100   4.095   6.131  1.4972  2.4555 -2.3744
 7979SOL     OW35572   4.674   2.088   0.465 -0.4145 -0.2562  0.6418
 7979SOL    HW135573   4.587   2.122   0.444 -0.0967  0.0656 -0.1752
 7979SOL    HW235574   4.693   2.155   0.530 -0.4089 -0.0489  0.4284
 7980SOL     OW35575   2.258   0.622   6.522 -0.2627 -0.0797  0.2141
 7980SOL    HW135576   2.248   0.663   6.437  0.7925  0.1070  0.1796
 7980SOL    HW235577   2.350   0.598   6.515 -0.6593 -1.4102 -0.4416
 7981SOL     OW35578   0.925   3.377   5.618 -0.1631 -0.0630 -0.4098
 7981SOL    HW135579   0.831   3.382   5.637  0.2564  3.6042  0.7396
 7981SOL    HW235580   0.933   3.444   5.550  0.6823  0.1040 -0.1501
 7982SOL     OW35581   2.689   0.829  12.928  0.3894  0.0200  0.2870
 7982SOL    HW135582   2.704   0.736  12.944 -0.1717  0.0637  1.0370
 7982SOL    HW235583   2.598   0.828  12.899 -0.1261  4.0848  1.6684
 7983SOL     OW35584   1.676   1.245   5.692 -0.2743 -0.0028  0.6204
 7983SOL    HW135585   1.687   1.317   5.754  2.1312  0.5354 -0.4063
 7983SOL    HW235586   1.724   1.277   5.615 -0.4182 -0.4382  0.3480
 7984SOL     OW35587   1.120   1.497  12.370  0.0885  0.7942  0.1872
 7984SOL    HW135588   1.211   1.474  12.388 -0.1120 -0.5294 -0.5030
 7984SOL    HW235589   1.115   1.580  12.418  1.3083  0.8592  0.1898
 7985SOL     OW35590   3.622   3.567   4.378  0.3331  0.2217 -0.2007
 7985SOL    HW135591   3.683   3.586   4.449  0.8257  1.3161 -0.9133
 7985SOL    HW235592   3.591   3.480   4.404 -3.2457  1.3659 -0.6508
 7986SOL     OW35593   3.451   3.638   5.538 -1.1188  0.1727 -0.0965
 7986SOL    HW135594   3.405   3.720   5.519 -0.8219  0.7976  1.8360
 7986SOL    HW235595   3.504   3.630   5.459  3.1819  0.2416  2.7962
 7987SOL     OW35596   2.516   2.785   4.652 -0.6296  0.1622 -0.8376
 7987SOL    HW135597   2.451   2.721   4.682 -0.9743  0.7539 -0.3145
 7987SOL    HW235598   2.559   2.733   4.585  1.2621 -0.8729  1.1625
 7988SOL     OW35599   3.043   0.956   9.453 -0.0647 -0.1393 -0.3823
 7988SOL    HW135600   3.039   0.895   9.379 -1.0039 -1.3490  0.6726
 7988SOL    HW235601   3.060   1.038   9.406  0.5804  0.4971  0.9666
 7989SOL     OW35602   3.707   0.832   2.552 -0.0362 -0.3039  0.5231
 7989SOL    HW135603   3.797   0.801   2.562 -0.6472 -2.7428 -1.5134
 7989SOL    HW235604   3.691   0.797   2.465  1.1101  1.5409 -0.4443
 7990SOL     OW35605   3.927   1.305   9.397 -0.0763 -0.8453 -0.1613
 7990SOL    HW135606   4.009   1.353   9.410 -0.3266 -0.0082 -1.6260
 7990SOL    HW235607   3.873   1.360   9.454 -0.3544  1.0504 -2.2294
 7991SOL     OW35608   0.128   2.210   2.222  0.2190 -0.2728  0.2780
 7991SOL    HW135609   0.108   2.241   2.311 -1.5621 -1.0368  0.1470
 7991SOL    HW235610   0.183   2.285   2.199 -4.0453  2.4903 -0.8405
 7992SOL     OW35611   3.711   4.002   3.173  0.2116  0.4676 -0.5467
 7992SOL    HW135612   3.690   4.080   3.225  2.6933 -2.1769  4.4696
 7992SOL    HW235613   3.688   4.028   3.084 -1.3826  2.2579  0.3938
 7993SOL     OW35614   1.069   2.852   7.687 -0.2385 -0.3356  0.4853
 7993SOL    HW135615   0.994   2.826   7.740 -1.2399  0.3464 -0.6142
 7993SOL    HW235616   1.099   2.766   7.658  2.0839  1.0132 -1.1263
 7994SOL     OW35617   4.437   4.270  13.446 -0.2911  0.4361 -0.7814
 7994SOL    HW135618   4.473   4.250  13.360  1.1659 -2.3673  0.4785
 7994SOL    HW235619   4.518   4.269  13.497 -2.2566  0.1495  2.3315
 7995SOL     OW35620   3.864   3.692   0.844  0.0670 -0.4068  0.2729
 7995SOL    HW135621   3.937   3.753   0.837  0.0993 -0.4896 -0.0960
 7995SOL    HW235622   3.862   3.658   0.755 -0.7800  0.9780 -0.2383
 7996SOL     OW35623   2.893   2.188  17.414  0.2852  0.1494  0.1979
 7996SOL    HW135624   2.937   2.246  17.352 -0.3441 -0.1507 -0.5268
 7996SOL    HW235625   2.804   2.216  17.394  0.1543 -0.9557 -0.8083
 7997SOL     OW35626   4.285   4.399   3.870 -0.3454  0.0843 -0.0983
 7997SOL    HW135627   4.211   4.358   3.826 -1.3069 -0.3239  1.8752
 7997SOL    HW235628   4.343   4.326   3.889  2.1774  1.9124 -0.8612
 7998SOL     OW35629   2.480   0.066  11.887  0.4082  0.9862  0.2302
 7998SOL    HW135630   2.550   0.000  11.885 -1.4496 -0.9769  0.2459
 7998SOL    HW235631   2.470   0.080  11.792 -1.0048  2.4179  0.5967
 7999SOL     OW35632   2.622   1.181  11.795  0.6741  0.1515 -0.4613
 7999SOL    HW135633   2.620   1.161  11.889 -0.2851 -0.2389 -0.5554
 7999SOL    HW235634   2.682   1.255  11.796  0.2268  0.5138 -0.4680
 8000SOL     OW35635   2.324   4.592   4.829  0.2417 -0.0154 -0.0405
 8000SOL    HW135636   2.289   4.503   4.830  1.3336 -0.4281  0.6592
 8000SOL    HW235637   2.375   4.593   4.749  0.5443  1.8203  0.1727
 8001SOL     OW35638   1.502   3.622   5.940 -0.5636  0.2140 -0.5873
 8001SOL    HW135639   1.425   3.615   5.997 -0.8208 -1.5162 -1.1419
 8001SOL    HW235640   1.565   3.616   6.011 -1.9023  0.1072  0.6057
 8002SOL     OW35641   1.923   4.112   7.653  0.5975  0.5648 -0.3960
 8002SOL    HW135642   2.018   4.119   7.660  0.7467  1.0629 -2.6838
 8002SOL    HW235643   1.903   4.036   7.598 -0.1229  0.6759 -0.2974
 8003SOL     OW35644   3.784   2.287  17.171  0.1557 -0.0186 -0.0650
 8003SOL    HW135645   3.860   2.272  17.227  0.2924  0.1594 -0.2006
 8003SOL    HW235646   3.729   2.335  17.233 -2.3007 -1.3658 -1.2078
 8004SOL     OW35647   1.778   3.478   9.276  0.6389  0.0480 -0.0978
 8004SOL    HW135648   1.694   3.463   9.232  0.2141  1.6571  0.1800
 8004SOL    HW235649   1.835   3.402   9.262  0.4340  0.1525 -1.4793
 8005SOL     OW35650   3.308   0.788  12.060 -0.2097 -0.3458  0.0213
 8005SOL    HW135651   3.391   0.758  12.097  0.2573  0.6032 -0.2563
 8005SOL    HW235652   3.337   0.782  11.969  0.1112  0.9321  0.0451
 8006SOL     OW35653   3.303   1.188   7.135 -0.2531  0.2663 -0.0662
 8006SOL    HW135654   3.314   1.093   7.133 -0.9967  0.2228 -2.0474
 8006SOL    HW235655   3.307   1.205   7.230  0.2817 -2.0164  0.3009
 8007SOL     OW35656   2.700   0.003  11.176  0.1388  0.2531  0.2840
 8007SOL    HW135657   2.701   0.061  11.100 -0.3335 -0.4697 -0.2771
 8007SOL    HW235658   2.758   4.668  11.153 -0.4960 -0.8592  2.2333
 8008SOL     OW35659   3.709   2.564   6.560 -0.1371  0.2589 -0.1093
 8008SOL    HW135660   3.748   2.547   6.646  1.4755  2.4703 -0.4103
 8008SOL    HW235661   3.753   2.648   6.544  0.4265 -0.0937 -0.3821
 8009SOL     OW35662   1.171   4.346   2.635 -0.1928  0.1121 -0.2646
 8009SOL    HW135663   1.077   4.346   2.655 -0.0312 -2.1864  0.4965
 8009SOL    HW235664   1.202   4.428   2.674  0.4680  0.3425 -1.2955
 8010SOL     OW35665   0.618   4.084   4.028  0.3265 -0.2017 -0.1043
 8010SOL    HW135666   0.566   4.017   3.984 -3.2929  2.4324  0.0988
 8010SOL    HW235667   0.603   4.050   4.116  1.0388 -0.7291 -0.1883
 8011SOL     OW35668   4.482   0.101   7.712  0.4395  0.1726  0.6650
 8011SOL    HW135669   4.488   0.018   7.664  1.0047 -0.9764  2.7045
 8011SOL    HW235670   4.479   0.070   7.802 -4.7880  0.9150  0.7076
 8012SOL     OW35671   2.368   0.905   8.337 -0.2466  0.3066 -0.3187
 8012SOL    HW135672   2.334   0.952   8.261  2.0014  0.4058 -1.2602
 8012SOL    HW235673   2.459   0.935   8.345 -0.3773  0.7225 -0.3977
 8013SOL     OW35674   4.034   1.587   8.316  0.1337  0.3846  0.3193
 8013SOL    HW135675   3.939   1.586   8.305  0.2019  0.6121 -0.2736
 8013SOL    HW235676   4.060   1.620   8.230 -0.3162  1.4491  0.5877
 8014SOL     OW35677   1.582   0.139  17.159 -0.1173  0.2494 -0.2401
 8014SOL    HW135678   1.626   0.083  17.222  0.6564  0.3334 -0.7092
 8014SOL    HW235679   1.492   0.119  17.187 -0.0719  0.2144 -0.1199
 8015SOL     OW35680   2.691   1.035   7.956  0.3550 -0.5502 -0.0011
 8015SOL    HW135681   2.774   1.039   8.004  1.3827  1.0317 -1.9022
 8015SOL    HW235682   2.644   1.112   7.988 -3.5299 -2.5464 -0.8790
 8016SOL     OW35683   1.022   1.371   7.241  0.7891  0.3587 -0.3750
 8016SOL    HW135684   0.976   1.453   7.264  0.0707 -0.1108 -0.1282
 8016SOL    HW235685   0.971   1.343   7.165  0.1439  0.0705  0.1596
 8017SOL     OW35686   1.771   2.952   2.624 -0.2494 -0.4279 -0.1714
 8017SOL    HW135687   1.841   2.937   2.688  0.9332 -0.5463 -1.4939
 8017SOL    HW235688   1.696   2.926   2.677 -1.5004  1.5992 -0.9803
 8018SOL     OW35689   3.305   2.121  16.937  0.0742  0.3514  0.2137
 8018SOL    HW135690   3.250   2.129  17.015  1.9984  1.3691  1.4714
 8018SOL    HW235691   3.346   2.207  16.945  1.7839 -0.2920 -1.4566
 8019SOL     OW35692   2.873   1.645   3.987  0.0662 -0.6296 -1.1031
 8019SOL    HW135693   2.802   1.672   3.929  0.9999 -0.4798 -2.1587
 8019SOL    HW235694   2.822   1.631   4.068  0.2936  2.2492 -0.4646
 8020SOL     OW35695   2.801   2.141   4.075  0.3247  0.0217 -0.0190
 8020SOL    HW135696   2.787   2.206   4.006  1.2731  1.6483  1.3108
 8020SOL    HW235697   2.849   2.073   4.028  0.6173  1.3079 -1.5817
 8021SOL     OW35698   2.649   4.068   3.407  0.6875 -0.0318  0.2033
 8021SOL    HW135699   2.641   4.154   3.447  0.8948  1.1729 -2.3387
 8021SOL    HW235700   2.679   4.009   3.476  1.5308  1.4242  1.0874
 8022SOL     OW35701   3.596   3.166   3.702 -0.2592 -0.0355  0.3342
 8022SOL    HW135702   3.522   3.107   3.716  0.1120 -0.0839  2.0254
 8022SOL    HW235703   3.576   3.194   3.612  1.5751 -0.3008 -0.1539
 8023SOL     OW35704   3.094   1.614   3.758 -0.2471  0.4209  0.4170
 8023SOL    HW135705   3.168   1.652   3.806 -0.9841  0.2975  1.6532
 8023SOL    HW235706   3.027   1.615   3.827 -0.9833  1.9948 -0.3109
 8024SOL     OW35707   0.213   0.393   4.497  0.0963  0.3031  0.1868
 8024SOL    HW135708   0.301   0.398   4.458  1.0377  3.5337  2.6951
 8024SOL    HW235709   0.243   0.385   4.588 -1.6281  0.9120  0.7913
 8025SOL     OW35710   4.020   0.460   4.493 -0.1893 -0.4313  0.0777
 8025SOL    HW135711   4.027   0.370   4.525 -1.1289 -1.2790 -2.0233
 8025SOL    HW235712   4.072   0.504   4.559 -1.5718  1.8469 -0.3736
 8026SOL     OW35713   2.025   0.708   3.241  0.6891 -0.2031 -0.2572
 8026SOL    HW135714   2.066   0.761   3.172  2.4562 -1.0064  0.1888
 8026SOL    HW235715   2.042   0.765   3.316  1.7905 -1.6402  0.5798
 8027SOL     OW35716   3.245   0.059   3.034  0.1135 -0.3945  0.5860
 8027SOL    HW135717   3.318   0.058   3.097 -0.5929 -0.5403  1.3923
 8027SOL    HW235718   3.293   0.098   2.960  0.4996  1.7845  2.0004
 8028SOL     OW35719   1.167   3.678   7.008  0.0014  0.5895 -0.0065
 8028SOL    HW135720   1.110   3.699   6.934 -1.1431 -1.3126  0.3270
 8028SOL    HW235721   1.170   3.582   7.010  0.5786  0.5840 -1.5860
 8029SOL     OW35722   0.056   1.273   7.845  0.2416 -0.3177 -0.0252
 8029SOL    HW135723   0.072   1.362   7.875 -0.7399 -0.7010  1.5867
 8029SOL    HW235724   0.103   1.274   7.761 -2.8324 -1.9185 -1.7658
 8030SOL     OW35725   3.517   4.101   7.905  0.5346 -0.5002  0.0823
 8030SOL    HW135726   3.438   4.102   7.852 -0.9112 -2.2246  2.1815
 8030SOL    HW235727   3.576   4.144   7.844 -0.1822 -0.6451 -0.7050
 8031SOL     OW35728   3.662   2.911   0.232 -0.2466 -0.3976  0.4777
 8031SOL    HW135729   3.581   2.875   0.268  1.2562 -1.3400  2.9036
 8031SOL    HW235730   3.629   2.981   0.175 -0.7608  0.5594  1.9525
 8032SOL     OW35731   3.792   3.529   4.785  1.1136 -0.1366  0.4645
 8032SOL    HW135732   3.705   3.494   4.768 -0.0133  2.0969  1.7123
 8032SOL    HW235733   3.768   3.567   4.869 -0.6305  1.9895 -0.9925
 8033SOL     OW35734   3.993   0.179   3.628 -0.1282  0.0747 -0.0365
 8033SOL    HW135735   4.004   0.084   3.627  1.3556  0.2416 -1.0161
 8033SOL    HW235736   3.902   0.190   3.601  0.7194  4.4385 -1.1887
 8034SOL     OW35737   1.557   4.121   3.312  0.2207 -0.4090  0.0261
 8034SOL    HW135738   1.522   4.159   3.231  0.0739  0.4189  0.4719
 8034SOL    HW235739   1.613   4.198   3.325 -0.1060 -0.3420  1.0378
 8035SOL     OW35740   4.232   1.826   5.312 -0.2792  0.4147  0.1568
 8035SOL    HW135741   4.166   1.799   5.248 -0.1295  3.4250 -1.2413
 8035SOL    HW235742   4.304   1.793   5.259 -0.4112  0.6979 -0.1990
 8036SOL     OW35743   4.539   2.541   5.847 -0.4800 -0.7172  0.0234
 8036SOL    HW135744   4.607   2.473   5.840  0.4330  0.0286  1.7117
 8036SOL    HW235745   4.505   2.535   5.758  0.6575  2.1643 -0.5966
 8037SOL     OW35746   3.881   2.408  13.771  0.0065  0.4355 -0.2139
 8037SOL    HW135747   3.823   2.459  13.714 -0.1089 -0.4856 -0.9141
 8037SOL    HW235748   3.939   2.371  13.704 -0.2492  3.1331 -1.9202
 8038SOL     OW35749   0.358   2.962   7.567 -0.2607 -0.3712  0.1651
 8038SOL    HW135750   0.414   2.948   7.644 -0.6635 -0.2869  0.4748
 8038SOL    HW235751   0.420   2.941   7.497  0.7283 -3.5207  1.9863
 8039SOL     OW35752   2.039   2.501   7.790  0.4933  0.1205 -0.5594
 8039SOL    HW135753   2.105   2.444   7.749  0.8064  1.5693 -2.0595
 8039SOL    HW235754   2.027   2.462   7.877 -1.7835 -0.0765 -0.9653
 8040SOL     OW35755   3.583   2.312   5.517  0.2881  0.2489 -0.0950
 8040SOL    HW135756   3.489   2.305   5.534  0.8198 -3.9394  1.1120
 8040SOL    HW235757   3.579   2.327   5.422  1.2993  1.7154  0.0886
 8041SOL     OW35758   0.622   3.275   9.530  0.7274 -0.1323 -0.0830
 8041SOL    HW135759   0.618   3.305   9.439 -0.4210 -0.2334 -0.0641
 8041SOL    HW235760   0.714   3.284   9.555  0.9601  0.5149 -1.2093
 8042SOL     OW35761   4.710   0.464   9.719  0.1060 -0.0656  0.5387
 8042SOL    HW135762   4.653   0.444   9.793 -2.2903  0.7388 -1.0733
 8042SOL    HW235763   4.643   0.470   9.650  0.1981  2.3464  0.6435
 8043SOL     OW35764   2.945   1.620   1.546 -0.4835 -0.7769  0.4155
 8043SOL    HW135765   2.986   1.551   1.493  0.1714 -2.1454  2.6905
 8043SOL    HW235766   2.968   1.582   1.631  0.6384  1.5120  1.1313
 8044SOL     OW35767   1.626   3.697  12.878 -0.8891  0.6588 -0.3150
 8044SOL    HW135768   1.680   3.771  12.905 -0.0096 -0.5039  1.0393
 8044SOL    HW235769   1.583   3.685  12.962 -0.0631 -0.8923 -0.1118
 8045SOL     OW35770   2.612   4.484   6.041  0.7971  0.3026  0.1394
 8045SOL    HW135771   2.574   4.530   6.116  2.6365 -0.9405  1.8672
 8045SOL    HW235772   2.549   4.501   5.972 -0.4433 -1.4395  0.8432
 8046SOL     OW35773   2.015   0.502  14.564  0.0135  0.2582 -0.4513
 8046SOL    HW135774   1.964   0.422  14.565  0.2103  0.1321 -0.5173
 8046SOL    HW235775   2.082   0.500  14.496  1.7515 -0.1797  1.2817
 8047SOL     OW35776   1.163   4.365  13.055  0.3474  0.2940 -0.4425
 8047SOL    HW135777   1.119   4.356  12.971  1.1263  0.3134 -0.8457
 8047SOL    HW235778   1.210   4.448  13.048 -0.0429  0.6675  1.1655
 8048SOL     OW35779   0.290   3.278   7.620  0.0583 -0.2252 -0.2939
 8048SOL    HW135780   0.294   3.241   7.532  0.3034  0.7587 -0.6933
 8048SOL    HW235781   0.378   3.250   7.646  0.0843 -1.1868 -1.4300
 8049SOL     OW35782   0.656   0.126   0.672  0.9187 -0.2376 -0.2918
 8049SOL    HW135783   0.704   0.142   0.591  1.1051  4.0977  0.6794
 8049SOL    HW235784   0.721   0.147   0.739 -0.6188 -0.5629  1.3086
 8050SOL     OW35785   0.489   4.122   1.017 -0.2122 -0.0576 -0.0899
 8050SOL    HW135786   0.469   4.215   1.029  1.4097  0.2919 -0.0988
 8050SOL    HW235787   0.581   4.122   0.992  0.2690 -2.8419  1.7640
 8051SOL     OW35788   3.374   0.779  17.545 -0.4747  1.0502  0.5208
 8051SOL    HW135789   3.311   0.756  17.477  1.1228 -0.4871 -0.4366
 8051SOL    HW235790   3.408   0.694  17.573  0.5097  1.5178  0.7488
 8052SOL     OW35791   1.538   2.695  10.647 -0.4385  1.2854  0.0307
 8052SOL    HW135792   1.545   2.782  10.606  0.1620  1.1281 -0.2058
 8052SOL    HW235793   1.568   2.732  10.730  1.1199  0.1795 -0.0538
 8053SOL     OW35794   2.080   3.789   6.442 -0.0420 -0.4006 -0.3104
 8053SOL    HW135795   2.122   3.711   6.405  1.3149 -0.2236  0.8546
 8053SOL    HW235796   2.058   3.815   6.352  0.4170  0.1796 -0.2534
 8054SOL     OW35797   3.662   0.566   6.474 -0.0474 -0.0081  0.4328
 8054SOL    HW135798   3.597   0.498   6.493 -2.3696  1.6078 -1.7018
 8054SOL    HW235799   3.689   0.598   6.560  0.5458  1.2598 -0.2241
 8055SOL     OW35800   0.079   1.223   2.606  0.0271  0.1913  0.4262
 8055SOL    HW135801   0.079   1.310   2.645 -0.6258  1.8590 -3.2878
 8055SOL    HW235802   0.106   1.170   2.681  0.0632 -0.4695 -0.0479
 8056SOL     OW35803   1.355   2.196   6.929 -0.5062 -0.1936 -0.0282
 8056SOL    HW135804   1.266   2.173   6.955 -0.8096 -0.7916 -1.6078
 8056SOL    HW235805   1.408   2.185   7.009 -0.2096 -1.0161 -0.3368
 8057SOL     OW35806   3.125   1.041  12.496  0.4034 -0.1457  0.2658
 8057SOL    HW135807   3.192   1.100  12.462  0.8387 -0.4078  0.6665
 8057SOL    HW235808   3.104   1.003  12.411 -1.2233 -0.8034  0.9637
 8058SOL     OW35809   3.017   1.070   8.601 -0.1795  0.9000  0.6200
 8058SOL    HW135810   2.972   1.102   8.523 -0.7777 -0.9619  0.2077
 8058SOL    HW235811   3.044   1.138   8.663 -0.6574 -0.3693  2.2343
 8059SOL     OW35812   0.089   2.049   1.851  0.2765 -0.2434  0.2252
 8059SOL    HW135813   0.030   2.070   1.923 -0.1612 -2.5738  0.5417
 8059SOL    HW235814   0.082   2.132   1.804  0.9858  0.5851  1.5788
 8060SOL     OW35815   2.689   2.704   7.187  0.5696  0.4973 -0.1034
 8060SOL    HW135816   2.702   2.793   7.221 -1.7127 -0.3331  2.9889
 8060SOL    HW235817   2.770   2.665   7.153  0.9706 -0.8353  2.4147
 8061SOL     OW35818   1.453   0.808   3.904 -0.0421  0.2068 -0.7796
 8061SOL    HW135819   1.439   0.733   3.962  0.8042 -0.0541 -0.9110
 8061SOL    HW235820   1.540   0.841   3.928 -0.7347  1.0654  0.4653
 8062SOL     OW35821   2.679   3.638   6.308 -0.0694 -0.1692  0.3812
 8062SOL    HW135822   2.618   3.621   6.236  0.0852  2.6928 -0.4161
 8062SOL    HW235823   2.662   3.564   6.367 -1.5670 -1.1050 -1.2360
 8063SOL     OW35824   0.534   4.353   5.425 -0.0032 -0.0869  0.7602
 8063SOL    HW135825   0.448   4.367   5.384  0.2575  4.0862  1.6556
 8063SOL    HW235826   0.584   4.299   5.364 -0.2844  1.6062 -0.9962
 8064SOL     OW35827   3.941   4.175   7.482 -0.0491  0.0107  0.1653
 8064SOL    HW135828   3.888   4.114   7.534  0.9084  0.9462  2.2067
 8064SOL    HW235829   4.011   4.209   7.538 -0.4416  1.3767 -0.1723
 8065SOL     OW35830   1.018   0.782   7.598  0.2437 -0.8759  0.0836
 8065SOL    HW135831   1.034   0.692   7.568  2.1225 -1.2278  2.1108
 8065SOL    HW235832   0.925   0.796   7.582  0.4772  1.1266  0.5255
 8066SOL     OW35833   1.007   0.620  13.437 -0.1597 -0.4817  0.1824
 8066SOL    HW135834   1.089   0.596  13.394  0.1023 -1.5738  1.3005
 8066SOL    HW235835   1.020   0.707  13.474 -0.6619 -1.1313  1.9136
 8067SOL     OW35836   1.676   0.759   7.821  0.4013 -0.3194 -0.4000
 8067SOL    HW135837   1.630   0.817   7.760 -0.5160  0.5497  1.1150
 8067SOL    HW235838   1.606   0.697   7.841  0.2918  0.6778  2.2648
 8068SOL     OW35839   4.111   1.340  10.584 -0.2134 -0.7906 -0.1705
 8068SOL    HW135840   4.085   1.320  10.494 -0.6493 -1.0934  0.0206
 8068SOL    HW235841   4.023   1.346  10.621  1.1039 -1.1594  3.0270
 8069SOL     OW35842   1.837   0.233  11.287 -0.6387 -0.2282  0.6223
 8069SOL    HW135843   1.848   0.321  11.253  1.1123 -0.7846 -0.2207
 8069SOL    HW235844   1.775   0.200  11.222  2.1646 -0.0369 -2.1089
 8070SOL     OW35845   3.171   3.708  12.168  0.5105  0.2566  0.1533
 8070SOL    HW135846   3.202   3.744  12.250 -1.6536 -0.7283  1.4003
 8070SOL    HW235847   3.244   3.651  12.143  1.0788  1.5364 -1.1344
 8071SOL     OW35848   0.486   2.322   5.392  0.0022  0.2019  0.8011
 8071SOL    HW135849   0.534   2.321   5.309 -1.1454  1.1876  0.1316
 8071SOL    HW235850   0.557   2.337   5.454 -0.3881  3.2043  0.4959
 8072SOL     OW35851   4.361   1.681   3.251 -0.0185 -0.0710  0.4263
 8072SOL    HW135852   4.348   1.632   3.170  1.8696  0.1929 -0.0356
 8072SOL    HW235853   4.323   1.768   3.236 -1.7178 -0.7858  0.5868
 8073SOL     OW35854   3.883   3.864   1.474  0.0770  0.0856  0.1800
 8073SOL    HW135855   3.799   3.845   1.432 -0.4902  3.4987 -0.1675
 8073SOL    HW235856   3.940   3.888   1.401 -0.4641 -0.6919 -0.5046
 8074SOL     OW35857   4.475   1.143   3.837 -0.0081 -0.0340  0.5461
 8074SOL    HW135858   4.475   1.052   3.807 -1.1405 -0.4667  1.8390
 8074SOL    HW235859   4.568   1.164   3.832 -0.6020  2.3108 -0.5211
 8075SOL     OW35860   0.817   0.728   7.090  0.3272  0.3551  0.3004
 8075SOL    HW135861   0.775   0.814   7.081  1.0013  0.8877  2.1654
 8075SOL    HW235862   0.902   0.756   7.124  1.9000 -1.8641 -1.7443
 8076SOL     OW35863   1.667   0.786  16.579 -0.2700 -0.1549  0.0212
 8076SOL    HW135864   1.734   0.782  16.510 -1.2721 -1.5409 -0.8639
 8076SOL    HW235865   1.714   0.741  16.650 -0.1968 -1.8969 -1.1356
 8077SOL     OW35866   2.554   1.169  13.566 -0.6282  0.0531 -0.4246
 8077SOL    HW135867   2.549   1.077  13.541 -0.5174  0.9640 -3.7282
 8077SOL    HW235868   2.566   1.205  13.479  0.2911 -0.1467 -0.3784
 8078SOL     OW35869   4.516   2.861   5.763  0.2220  0.9955  0.2252
 8078SOL    HW135870   4.569   2.810   5.824  0.9781 -0.2098 -1.4305
 8078SOL    HW235871   4.434   2.814   5.749  0.0298  1.0821  1.0579
 8079SOL     OW35872   4.037   2.385   3.218 -0.2395  0.0321 -0.1362
 8079SOL    HW135873   4.087   2.461   3.189 -0.0892  0.3646  1.0042
 8079SOL    HW235874   4.098   2.342   3.278 -0.8933 -1.3030 -0.4253
 8080SOL     OW35875   0.169   1.633   0.835  0.2002  0.0274 -0.3949
 8080SOL    HW135876   0.252   1.680   0.844  0.2958 -0.0480 -0.9003
 8080SOL    HW235877   0.159   1.618   0.741  1.3738  1.5164 -0.7679
 8081SOL     OW35878   1.169   3.118   3.534  0.2792 -0.1568 -0.0353
 8081SOL    HW135879   1.155   3.024   3.549 -0.6145  0.1434  0.9974
 8081SOL    HW235880   1.254   3.133   3.575 -0.7156  0.8813  1.6354
 8082SOL     OW35881   0.902   2.658   4.481  0.2034 -0.1114 -0.0183
 8082SOL    HW135882   0.905   2.691   4.391  0.6897 -0.5474 -0.1575
 8082SOL    HW235883   0.812   2.680   4.506  0.3353  1.5758 -0.9888
 8083SOL     OW35884   2.913   3.371   1.168  0.3896  0.1105 -0.0207
 8083SOL    HW135885   2.923   3.339   1.078  0.8112 -2.3779  0.9108
 8083SOL    HW235886   2.928   3.283   1.202  0.6300  0.5830  1.0986
 8084SOL     OW35887   0.397   0.376   1.934 -0.3094  0.6866 -0.1908
 8084SOL    HW135888   0.487   0.392   1.962 -0.0026 -2.2443  0.5017
 8084SOL    HW235889   0.375   0.315   2.004  1.7240 -0.3741 -0.4934
 8085SOL     OW35890   0.230   0.389   3.324  0.3031  0.0806  0.0042
 8085SOL    HW135891   0.184   0.377   3.407  1.8839  1.4976  1.0686
 8085SOL    HW235892   0.267   0.303   3.306 -2.6376 -1.3672  0.8009
 8086SOL     OW35893   4.094   2.137   8.279 -0.3068 -0.2010 -0.1423
 8086SOL    HW135894   4.136   2.176   8.355  2.0480 -0.1955 -1.4477
 8086SOL    HW235895   4.118   2.200   8.211 -1.5794  0.5062  0.0589
 8087SOL     OW35896   0.845   1.382  11.171 -0.4050 -0.6466 -0.0232
 8087SOL    HW135897   0.755   1.365  11.145  0.0759 -2.2256 -0.6801
 8087SOL    HW235898   0.840   1.474  11.145  1.8787 -0.2395  0.9750
 8088SOL     OW35899   3.028   0.791  12.631  0.2154  0.1559  0.5257
 8088SOL    HW135900   3.084   0.851  12.583 -0.7981 -1.9429 -3.3266
 8088SOL    HW235901   2.985   0.844  12.698 -0.0637 -0.4763  0.8486
 8089SOL     OW35902   1.118   0.360   3.266 -0.2508  0.4177  0.6815
 8089SOL    HW135903   1.137   0.424   3.198  0.9198 -0.5578  0.0778
 8089SOL    HW235904   1.141   0.412   3.343 -0.8582  2.8635 -0.7747
 8090SOL     OW35905   1.830   1.278   7.561 -0.2441  0.8536  0.4653
 8090SOL    HW135906   1.866   1.360   7.595 -1.0510  1.5189 -0.3072
 8090SOL    HW235907   1.779   1.308   7.486 -0.6596  2.0958  1.2406
 8091SOL     OW35908   0.279   4.342   7.782  0.1007  0.4146  0.8305
 8091SOL    HW135909   0.323   4.271   7.829  0.4728 -0.0921 -0.2806
 8091SOL    HW235910   0.326   4.419   7.813  1.4877 -0.1931  0.2226
 8092SOL     OW35911   1.297   0.302   6.407  0.6453 -0.1897  0.6593
 8092SOL    HW135912   1.343   0.337   6.482 -0.0521  0.1038  0.9548
 8092SOL    HW235913   1.317   0.209   6.398 -0.0584 -0.3841  1.0897
 8093SOL     OW35914   4.250   2.693  10.080 -0.3359 -0.2088 -0.2491
 8093SOL    HW135915   4.305   2.771  10.085 -2.2385  1.1586 -0.2620
 8093SOL    HW235916   4.171   2.728  10.121  0.2097  0.2161  0.4351
 8094SOL     OW35917   2.934   2.862   3.456  0.0440  0.3310 -0.3185
 8094SOL    HW135918   2.889   2.831   3.535  1.8460 -0.2347  0.4795
 8094SOL    HW235919   2.874   2.816   3.397 -0.1709 -1.2186  1.1027
 8095SOL     OW35920   1.584   3.929   8.099  0.0951 -0.4470 -0.2747
 8095SOL    HW135921   1.556   3.889   8.017 -0.5019 -2.0861  0.7443
 8095SOL    HW235922   1.668   3.887   8.121  1.7395  1.4701 -2.8619
 8096SOL     OW35923   3.386   2.518   8.603  0.5867  0.1576 -0.4487
 8096SOL    HW135924   3.479   2.517   8.582  1.1240  1.7195  1.9022
 8096SOL    HW235925   3.351   2.539   8.516  1.4079 -2.7113 -1.4594
 8097SOL     OW35926   4.358   2.953  10.761 -0.7472  0.0639  0.6439
 8097SOL    HW135927   4.377   2.992  10.846 -0.4236 -0.9049  1.0156
 8097SOL    HW235928   4.290   3.013  10.732 -0.5057 -0.7930 -1.7407
 8098SOL     OW35929   1.437   3.713   9.211  0.1666 -0.5082 -0.0210
 8098SOL    HW135930   1.351   3.722   9.252  0.8637  2.8489  0.7300
 8098SOL    HW235931   1.436   3.621   9.184 -0.3299 -0.7705  0.8875
 8099SOL     OW35932   2.791   3.952  10.398  0.0403 -0.8275 -0.7862
 8099SOL    HW135933   2.775   4.046  10.402 -0.4170 -0.9165 -0.5541
 8099SOL    HW235934   2.787   3.938  10.492 -0.2616  0.5145 -0.5936
 8100SOL     OW35935   2.900   4.490   5.139 -0.1143 -0.3831 -0.6210
 8100SOL    HW135936   2.839   4.430   5.181  1.2253  0.3678  2.3810
 8100SOL    HW235937   2.945   4.453   5.063  1.3164 -0.4066  0.2310
 8101SOL     OW35938   3.642   0.083   1.672  0.1472 -0.2100  0.2260
 8101SOL    HW135939   3.649   4.728   1.692 -0.3258  0.1790  2.1548
 8101SOL    HW235940   3.619   0.076   1.580  1.8246 -0.6310 -0.1714
 8102SOL     OW35941   1.907   2.763   5.086  0.2077 -0.7615  0.3388
 8102SOL    HW135942   1.887   2.828   5.153  1.7708 -0.8058  0.8285
 8102SOL    HW235943   1.826   2.760   5.034 -0.0390 -1.1586  0.7470
 8103SOL     OW35944   2.962   3.737   7.385  0.1097 -0.4870 -0.0636
 8103SOL    HW135945   3.016   3.813   7.362  1.7753 -1.0534  1.9783
 8103SOL    HW235946   2.891   3.748   7.322  0.7079 -2.0419 -1.0272
 8104SOL     OW35947   0.643   1.643  17.505  0.0831  0.2341 -0.2337
 8104SOL    HW135948   0.590   1.668  17.581  1.0270 -1.0479  0.8446
 8104SOL    HW235949   0.570   1.654  17.443 -1.7330  0.6723  1.9585
 8105SOL     OW35950   3.307   3.747   1.860 -0.1689 -0.1549  0.7014
 8105SOL    HW135951   3.295   3.778   1.770 -3.5816 -0.4419  1.0532
 8105SOL    HW235952   3.258   3.816   1.904 -1.4816 -0.9974  0.5496
 8106SOL     OW35953   1.959   0.780   5.372  0.3412  0.0873 -0.3997
 8106SOL    HW135954   1.941   0.811   5.283 -0.4624  1.0803  0.1053
 8106SOL    HW235955   1.976   0.867   5.406 -1.3039 -0.0728  0.8234
 8107SOL     OW35956   1.067   3.867   4.884 -0.1669  0.2241 -0.0888
 8107SOL    HW135957   1.066   3.956   4.920  1.8848  0.1440  0.1818
 8107SOL    HW235958   1.110   3.874   4.799 -1.1203  1.1592 -0.4910
 8108SOL     OW35959   2.644   1.023  17.206  0.2105 -0.5962 -0.2621
 8108SOL    HW135960   2.659   1.117  17.203  1.0973 -0.7148  0.7141
 8108SOL    HW235961   2.632   1.001  17.113  0.4118  0.2838 -0.4998
 8109SOL     OW35962   1.566   0.378   7.018  0.2985 -0.4650 -0.3189
 8109SOL    HW135963   1.555   0.378   7.113 -1.3949 -0.3798 -0.5235
 8109SOL    HW235964   1.526   0.461   6.995  0.1738 -0.0971  1.2721
 8110SOL     OW35965   4.470   1.254   4.923  0.6188  0.5387  0.5695
 8110SOL    HW135966   4.503   1.165   4.916 -1.0715 -0.1823  1.8544
 8110SOL    HW235967   4.450   1.272   4.831  1.4845 -0.0677  0.2629
 8111SOL     OW35968   2.417   3.174  13.521 -0.2350 -0.1409 -0.3929
 8111SOL    HW135969   2.394   3.114  13.592 -0.4245 -1.2547 -1.3911
 8111SOL    HW235970   2.503   3.202  13.553 -0.3785 -0.6113  0.4189
 8112SOL     OW35971   3.920   4.635  17.288 -0.1773 -0.3133 -0.2299
 8112SOL    HW135972   3.986   4.568  17.269 -0.4074 -0.2232 -1.3712
 8112SOL    HW235973   3.848   4.580  17.256 -1.9660  1.3899  0.8878
 8113SOL     OW35974   0.826   0.770  15.521 -0.6397  0.2104 -0.1114
 8113SOL    HW135975   0.789   0.842  15.572 -1.3048 -0.9242  1.0106
 8113SOL    HW235976   0.765   0.701  15.548 -0.3399 -0.6954 -1.7479
 8114SOL     OW35977   3.518   2.491  13.975 -0.1144 -0.1152  0.0470
 8114SOL    HW135978   3.576   2.553  13.931 -0.0789 -0.0394  0.1997
 8114SOL    HW235979   3.468   2.462  13.899  0.5616 -0.1888 -0.3687
 8115SOL     OW35980   2.532   2.096   2.531  0.3720  0.8345  0.3274
 8115SOL    HW135981   2.602   2.140   2.484 -1.5467  1.5469 -1.8611
 8115SOL    HW235982   2.574   2.054   2.606 -0.9703 -1.2129 -0.0645
 8116SOL     OW35983   1.057   2.475  13.161 -0.9016  0.3052 -0.1596
 8116SOL    HW135984   1.012   2.556  13.186 -2.0452 -0.3021 -0.2108
 8116SOL    HW235985   0.996   2.445  13.094 -0.2582  0.6312 -0.8777
 8117SOL     OW35986   1.062   3.768   7.821 -0.0166 -0.2375 -0.1351
 8117SOL    HW135987   1.153   3.774   7.848  0.1828  0.2189 -0.9128
 8117SOL    HW235988   1.061   3.673   7.812 -0.9239 -0.0742 -1.8526
 8118SOL     OW35989   1.363   2.199   2.921 -0.2408  0.0844  0.3300
 8118SOL    HW135990   1.384   2.173   2.831  0.4124  1.1425  0.1727
 8118SOL    HW235991   1.308   2.131   2.960  0.5220 -0.0527  1.1436
 8119SOL     OW35992   0.597   3.955   9.570 -0.1068  0.4401 -0.8887
 8119SOL    HW135993   0.607   4.047   9.595 -0.6393  0.2166  0.1463
 8119SOL    HW235994   0.655   3.917   9.635 -1.6734 -0.1556  0.1529
 8120SOL     OW35995   0.813   2.385   0.511 -0.6545 -0.2425  0.1148
 8120SOL    HW135996   0.725   2.390   0.474 -0.6845  2.6037  0.6038
 8120SOL    HW235997   0.856   2.414   0.430 -2.9529  3.6920  0.3087
 8121SOL     OW35998   4.612   0.944   4.470 -0.0312 -0.5910  0.6412
 8121SOL    HW135999   4.677   0.890   4.517 -0.0414 -0.8344  0.3729
 8121SOL    HW236000   4.609   1.027   4.519 -1.1017 -1.8693  2.7426
 8122SOL     OW36001   1.654   1.239   3.778  0.2837  0.1644 -0.3532
 8122SOL    HW136002   1.680   1.316   3.728 -0.8932  1.2930  0.7634
 8122SOL    HW236003   1.596   1.197   3.714  1.6643 -1.4861 -0.5180
 8123SOL     OW36004   0.787   2.976  10.544 -0.1703  0.2607  0.1191
 8123SOL    HW136005   0.747   2.895  10.512  0.0335  0.1921  0.0399
 8123SOL    HW236006   0.727   2.987  10.618  1.7141  1.8350  1.4063
 8124SOL     OW36007   2.860   1.942  11.704  0.2559  0.4209 -0.1744
 8124SOL    HW136008   2.896   2.028  11.724 -1.2938  1.1370 -0.4642
 8124SOL    HW236009   2.814   1.916  11.784  0.4665 -0.0005 -0.1908
 8125SOL     OW36010   2.275   1.702   3.538 -0.1906  0.6539 -0.0188
 8125SOL    HW136011   2.302   1.662   3.621 -0.6912 -0.1973 -0.2666
 8125SOL    HW236012   2.307   1.645   3.468 -0.5323  0.5260 -0.0713
 8126SOL     OW36013   0.413   1.098  13.274 -0.1421 -0.0849  0.2452
 8126SOL    HW136014   0.426   1.051  13.356 -1.1336  1.7397  1.4407
 8126SOL    HW236015   0.379   1.028  13.217  0.2585  0.7595 -1.0205
 8127SOL     OW36016   2.487   3.775   9.647 -0.1041 -0.0106  0.3144
 8127SOL    HW136017   2.492   3.833   9.723 -2.6642 -1.9775  2.0122
 8127SOL    HW236018   2.453   3.837   9.582  0.1045 -0.8500 -0.5956
 8128SOL     OW36019   1.583   0.188  15.434 -0.4494  0.4994  0.3650
 8128SOL    HW136020   1.519   0.216  15.368 -0.5068 -3.6451 -1.3411
 8128SOL    HW236021   1.557   0.096  15.429  1.1397  0.0576  0.0905
 8129SOL     OW36022   3.792   2.473   5.172 -0.1103  0.3624 -0.4621
 8129SOL    HW136023   3.785   2.558   5.216  1.8671  0.8353 -1.0762
 8129SOL    HW236024   3.711   2.444   5.214  1.0463 -4.4265 -1.5279
 8130SOL     OW36025   4.446   2.530  10.389  0.3209  0.0591 -0.3435
 8130SOL    HW136026   4.453   2.622  10.363 -0.8889  0.4181  0.6014
 8130SOL    HW236027   4.495   2.527  10.471 -1.3305 -0.9035  0.6052
 8131SOL     OW36028   1.598   3.755   1.893 -0.1582  0.2629 -0.3459
 8131SOL    HW136029   1.510   3.747   1.929  0.7792 -0.3577  1.7777
 8131SOL    HW236030   1.584   3.744   1.799  0.1870 -2.5185 -0.0597
 8132SOL     OW36031   1.911   3.564  10.082  0.0491  0.7275  0.3251
 8132SOL    HW136032   1.979   3.628  10.101  0.8683  0.0532 -0.3221
 8132SOL    HW236033   1.896   3.586   9.990  0.6890  0.7925  0.2339
 8133SOL     OW36034   3.920   3.261   4.553 -0.1614  0.1705 -0.2196
 8133SOL    HW136035   3.892   3.208   4.479 -0.3982 -2.1323  1.5038
 8133SOL    HW236036   3.951   3.346   4.521 -0.7419 -0.7587 -3.2517
 8134SOL     OW36037   1.049   0.424   0.935  0.4300  0.3146  0.0569
 8134SOL    HW136038   0.970   0.471   0.906 -0.9193 -0.8559  1.8679
 8134SOL    HW236039   1.036   0.340   0.891 -0.7638 -0.5451  2.0218
 8135SOL     OW36040   2.300   4.695   9.236  0.1098 -0.5944 -0.0382
 8135SOL    HW136041   2.295   4.677   9.330  0.2753  2.7822  0.6216
 8135SOL    HW236042   2.394   4.701   9.216 -0.7401 -0.1833 -3.9894
 8136SOL     OW36043   4.481   1.152   5.260  0.3449  0.0077  0.2501
 8136SOL    HW136044   4.459   1.116   5.346  2.1348 -0.0760  0.6660
 8136SOL    HW236045   4.550   1.210   5.292  2.2838 -2.0693 -0.2421
 8137SOL     OW36046   4.011   1.699   4.514 -0.2912 -0.0283 -0.4294
 8137SOL    HW136047   4.014   1.730   4.604  2.1895 -1.7029  0.0493
 8137SOL    HW236048   3.959   1.619   4.527  0.6987 -0.4259  1.0769
 8138SOL     OW36049   3.266   3.745   5.795 -0.0317 -0.7462 -0.8234
 8138SOL    HW136050   3.250   3.700   5.712 -2.1109 -1.2151 -0.1744
 8138SOL    HW236051   3.207   3.820   5.785  0.9744  0.4387  2.3070
 8139SOL     OW36052   0.542   1.065  11.511  0.2550  0.6545  0.2435
 8139SOL    HW136053   0.540   1.160  11.515 -0.2295  0.7304 -1.7423
 8139SOL    HW236054   0.570   1.055  11.420 -1.0373  1.9853 -0.2954
 8140SOL     OW36055   1.464   0.726  10.291 -0.4238  0.4547 -0.3438
 8140SOL    HW136056   1.445   0.690  10.378 -0.6450  0.2465 -0.4794
 8140SOL    HW236057   1.432   0.656  10.235 -1.2588  0.7248 -0.2117
 8141SOL     OW36058   1.907   2.102   5.671  0.4607 -0.4888 -0.1586
 8141SOL    HW136059   1.890   2.117   5.577 -1.5397  1.1098  0.4446
 8141SOL    HW236060   1.868   2.181   5.709  0.8201 -0.6336  0.4964
 8142SOL     OW36061   1.519   1.475   5.094  0.4414  0.2043  0.4723
 8142SOL    HW136062   1.462   1.527   5.151  0.6040  1.5541 -0.5854
 8142SOL    HW236063   1.598   1.471   5.149  0.8162  0.9209 -0.0039
 8143SOL     OW36064   4.695   2.518  16.933 -0.9521  0.2573  0.3599
 8143SOL    HW136065   4.634   2.564  16.875 -0.0280 -0.2603 -1.0126
 8143SOL    HW236066   0.027   2.582  16.946 -0.5670 -0.2620  0.8626
 8144SOL     OW36067   0.209   3.936   9.381 -0.1554  0.7974  0.2322
 8144SOL    HW136068   0.186   4.018   9.337 -3.3293  0.5002  1.4040
 8144SOL    HW236069   0.130   3.910   9.427  0.8115 -0.8057  0.9923
 8145SOL     OW36070   4.223   2.052   2.097  0.5173 -0.0440 -0.1126
 8145SOL    HW136071   4.151   2.002   2.136  0.5811  0.2677  0.4103
 8145SOL    HW236072   4.299   2.004   2.129  0.8548  0.4061 -0.2392
 8146SOL     OW36073   1.584   2.633  15.404  0.1306 -0.5956  0.2187
 8146SOL    HW136074   1.576   2.708  15.344 -2.6870 -0.5552  0.6195
 8146SOL    HW236075   1.544   2.560  15.357  0.9174  0.7078 -2.4634
 8147SOL     OW36076   1.433   0.756  17.314  0.9699 -0.8308 -0.2163
 8147SOL    HW136077   1.421   0.665  17.339  4.1704 -1.0578  0.5397
 8147SOL    HW236078   1.491   0.792  17.381  0.2187 -0.0127 -0.0034
 8148SOL     OW36079   3.506   1.156   2.727  0.1824 -0.0250  0.1843
 8148SOL    HW136080   3.489   1.062   2.721 -1.2540  0.2271  0.3699
 8148SOL    HW236081   3.586   1.168   2.676 -2.2132 -0.3044 -3.6207
 8149SOL     OW36082   0.869   1.239   4.931 -0.1463 -0.1306  0.4130
 8149SOL    HW136083   0.796   1.247   4.992 -2.0431  1.0815 -2.0254
 8149SOL    HW236084   0.939   1.211   4.990 -0.5411 -0.2945  0.8099
 8150SOL     OW36085   0.307   1.489   7.556  0.0923 -0.0613 -0.1993
 8150SOL    HW136086   0.388   1.537   7.545 -0.6396  1.0378 -0.7847
 8150SOL    HW236087   0.248   1.547   7.507 -0.2885 -0.2893 -0.0143
 8151SOL     OW36088   1.461   0.961   5.376  0.3696 -0.1401 -0.5621
 8151SOL    HW136089   1.472   1.043   5.327  0.8545 -0.3021 -0.7215
 8151SOL    HW236090   1.544   0.951   5.423  0.8955  0.8884 -1.2734
 8152SOL     OW36091   0.281   2.258   3.299  0.5331 -0.1895 -0.6728
 8152SOL    HW136092   0.207   2.198   3.288 -1.8608  2.4482  0.9839
 8152SOL    HW236093   0.326   2.236   3.217  0.4201  1.2890 -1.1373
 8153SOL     OW36094   0.413   3.491  15.885  0.2619  0.6380  0.1887
 8153SOL    HW136095   0.425   3.581  15.854  2.3126  1.0758  2.2483
 8153SOL    HW236096   0.338   3.476  15.827  0.7550 -1.2443  0.0223
 8154SOL     OW36097   3.914   2.501   0.789  0.7098 -0.2796 -0.1547
 8154SOL    HW136098   3.933   2.594   0.801  1.2590 -0.4470  0.2817
 8154SOL    HW236099   3.886   2.480   0.877  1.2567 -0.3022  0.0156
 8155SOL     OW36100   4.443   2.763   1.496  0.1326  0.3769 -0.1500
 8155SOL    HW136101   4.521   2.708   1.508 -1.1377 -1.3195  0.2679
 8155SOL    HW236102   4.376   2.709   1.536  2.3234 -1.8073  0.5756
 8156SOL     OW36103   2.686   4.643   8.880  0.3619 -0.0387  0.5869
 8156SOL    HW136104   2.709   4.617   8.791 -0.7755 -0.4733  0.4194
 8156SOL    HW236105   2.633   4.722   8.874 -0.0621 -0.3704 -0.1038
 8157SOL     OW36106   2.911   0.964  14.304  0.1624 -0.1552  0.3344
 8157SOL    HW136107   2.831   0.931  14.344  0.9724 -0.9050  1.3221
 8157SOL    HW236108   2.979   0.910  14.343 -0.0130  1.2625  2.6010
 8158SOL     OW36109   3.853   2.956   9.704 -0.3400 -0.3456  0.6450
 8158SOL    HW136110   3.857   3.003   9.787  0.7597  0.6371  0.0289
 8158SOL    HW236111   3.766   2.968   9.666 -0.0709  0.0219  0.1616
 8159SOL     OW36112   1.579   3.830   3.362 -0.2295  0.2274  0.5106
 8159SOL    HW136113   1.655   3.812   3.306 -1.0774  1.3059 -0.9956
 8159SOL    HW236114   1.556   3.917   3.331  0.8479  0.9458  1.7521
 8160SOL     OW36115   1.554   2.073   9.914  0.6976  0.0435  0.1992
 8160SOL    HW136116   1.596   1.988   9.904 -2.3424 -1.4009 -0.4266
 8160SOL    HW236117   1.627   2.130   9.938  0.7682 -0.4939  1.2691
 8161SOL     OW36118   2.970   0.201   2.030 -0.0645 -0.0895  0.1901
 8161SOL    HW136119   3.059   0.175   2.006  0.3162  2.5636 -1.2596
 8161SOL    HW236120   2.977   0.206   2.125 -2.6577  0.2426  0.3538
 8162SOL     OW36121   4.595   1.266   2.446 -0.0805 -0.3105 -0.0530
 8162SOL    HW136122   4.668   1.273   2.508 -0.7708 -1.0823  0.8312
 8162SOL    HW236123   4.570   1.178   2.474 -2.3453  0.7235  1.1991
 8163SOL     OW36124   3.500   3.040   8.400 -0.2018 -0.3237 -0.1784
 8163SOL    HW136125   3.579   3.006   8.441 -1.5216 -3.8535 -0.5410
 8163SOL    HW236126   3.456   2.957   8.380  0.1692 -0.9767  1.6167
 8164SOL     OW36127   1.765   0.999   9.053 -0.2800 -0.7215 -0.2581
 8164SOL    HW136128   1.710   0.981   9.129 -0.1508 -0.0888 -0.0194
 8164SOL    HW236129   1.848   0.982   9.098  0.1201  0.5047 -0.5409
 8165SOL     OW36130   0.221   2.628  16.682 -0.1963 -0.2101  0.3848
 8165SOL    HW136131   0.192   2.679  16.758  0.3046 -0.4232  0.7198
 8165SOL    HW236132   0.305   2.604  16.722  0.0996  0.5676  0.2328
 8166SOL     OW36133   3.377   2.519   6.235  0.3427  0.1098  0.1681
 8166SOL    HW136134   3.366   2.589   6.170 -0.1431 -0.2195 -0.0936
 8166SOL    HW236135   3.470   2.527   6.257  0.0779  0.7160  1.0673
 8167SOL     OW36136   3.641   2.902   2.838 -0.4985  0.3329 -0.1608
 8167SOL    HW136137   3.620   2.862   2.753  0.1205  0.3673 -0.3271
 8167SOL    HW236138   3.641   2.835   2.906 -3.5637  3.1130  2.5827
 8168SOL     OW36139   1.272   3.085   0.298  0.4114  0.1272 -0.3399
 8168SOL    HW136140   1.356   3.088   0.252 -0.5433 -2.8377 -2.2872
 8168SOL    HW236141   1.204   3.096   0.231  1.0985 -0.3134 -1.1033
 8169SOL     OW36142   3.619   3.665   5.333  0.0674  0.3540 -0.1583
 8169SOL    HW136143   3.679   3.624   5.395 -1.8730  0.7999  2.0589
 8169SOL    HW236144   3.587   3.588   5.287  1.0415 -0.3576  0.3432
 8170SOL     OW36145   4.446   0.857   4.698 -0.2362  0.0160 -0.5564
 8170SOL    HW136146   4.416   0.877   4.609 -1.5847  1.4183  0.2122
 8170SOL    HW236147   4.472   0.766   4.685  0.9110  0.2776 -0.1194
 8171SOL     OW36148   0.241   1.268   2.300  0.4923  0.2809 -0.0274
 8171SOL    HW136149   0.168   1.277   2.362  0.9137 -1.8786  0.7778
 8171SOL    HW236150   0.311   1.228   2.352 -0.5392  0.3759  1.4419
 8172SOL     OW36151   1.267   0.006   4.260 -0.4647 -1.0165  0.0642
 8172SOL    HW136152   1.348   4.720   4.215 -0.7997 -0.9662 -0.5621
 8172SOL    HW236153   1.282   4.719   4.351 -3.6232  1.9369  1.3575
 8173SOL     OW36154   2.678   3.508   3.332  0.0648  0.4511 -0.2181
 8173SOL    HW136155   2.658   3.601   3.338 -0.3954  0.4304 -1.6508
 8173SOL    HW236156   2.732   3.505   3.412 -2.4381 -0.9786  1.4418
 8174SOL     OW36157   0.984   0.354  17.624 -0.5440 -0.1756  0.1157
 8174SOL    HW136158   1.056   0.351  17.560 -0.6210 -0.2491  0.0326
 8174SOL    HW236159   0.979   0.263  17.655 -1.3819 -0.9191 -2.2241
 8175SOL     OW36160   0.481   1.084  11.145  1.0099 -0.1883 -0.8129
 8175SOL    HW136161   0.445   1.076  11.057 -1.9091  0.4717  0.3194
 8175SOL    HW236162   0.431   1.016  11.189  1.2055  0.1852 -0.0028
 8176SOL     OW36163   1.626   0.315  14.991 -0.4395 -0.8253 -0.3703
 8176SOL    HW136164   1.628   0.233  14.941  1.8557 -1.1983  0.3351
 8176SOL    HW236165   1.721   0.326  14.998 -0.4349 -1.4333  0.4779
 8177SOL     OW36166   2.276   3.766   7.219 -0.2149  0.1000  0.1489
 8177SOL    HW136167   2.227   3.847   7.205  0.0517  0.0841 -0.9219
 8177SOL    HW236168   2.279   3.768   7.315  0.0834 -0.8475  0.1596
 8178SOL     OW36169   1.666   0.498   8.218  0.0382 -0.1144 -0.3105
 8178SOL    HW136170   1.742   0.443   8.204 -0.9960 -0.8451 -3.0475
 8178SOL    HW236171   1.703   0.587   8.215  0.4202 -0.2714 -0.1518
 8179SOL     OW36172   0.977   0.189   3.030  0.1066 -0.6934  0.5533
 8179SOL    HW136173   1.017   0.133   3.096 -2.2391 -2.8778  0.1337
 8179SOL    HW236174   1.022   0.272   3.040 -1.7994  0.1333  2.1978
 8180SOL     OW36175   0.924   4.027  15.290 -0.0344  0.1154 -0.2599
 8180SOL    HW136176   0.925   3.932  15.302 -0.6589  0.2495  0.8218
 8180SOL    HW236177   0.997   4.043  15.230  1.4477  1.7398  1.9799
 8181SOL     OW36178   0.984   0.116   2.734  0.0781  0.4775  0.0920
 8181SOL    HW136179   1.000   0.178   2.663 -1.9447  1.7372  0.7392
 8181SOL    HW236180   1.033   0.156   2.806  0.9078  2.0905 -1.3754
 8182SOL     OW36181   4.131   0.642   7.257  0.1161 -0.4792 -0.2056
 8182SOL    HW136182   4.152   0.588   7.333 -0.6673  0.5243  0.7268
 8182SOL    HW236183   4.053   0.598   7.225 -1.1464  0.8087  1.1296
 8183SOL     OW36184   4.575   3.901  16.951 -0.2446 -0.0098 -0.3493
 8183SOL    HW136185   4.517   3.976  16.958 -1.0996 -0.7553  0.5722
 8183SOL    HW236186   4.516   3.844  16.901  0.7176  0.8403 -2.4483
 8184SOL     OW36187   1.355   0.162  14.917  0.2080  1.1625 -0.0751
 8184SOL    HW136188   1.365   0.219  14.840  1.5653  0.9892 -0.0260
 8184SOL    HW236189   1.324   0.078  14.883  1.7707  1.0983 -1.3409
 8185SOL     OW36190   0.152   2.173   3.689  0.0404 -0.2337  0.2455
 8185SOL    HW136191   0.077   2.161   3.631 -0.6006  1.1130  0.7800
 8185SOL    HW236192   0.114   2.204   3.772  0.7711  1.2054  0.0469
 8186SOL     OW36193   3.217   3.566   3.660 -0.3034 -0.4378 -0.4942
 8186SOL    HW136194   3.191   3.572   3.568 -1.2688 -2.2862 -0.3377
 8186SOL    HW236195   3.298   3.617   3.669 -0.4819 -0.3924  0.8499
 8187SOL     OW36196   4.243   1.166   2.312 -0.5060 -0.6755 -0.2906
 8187SOL    HW136197   4.302   1.186   2.239  0.6963  2.1100  1.4520
 8187SOL    HW236198   4.306   1.170   2.383 -0.4429  1.1066 -0.4290
 8188SOL     OW36199   2.754   3.615   5.069 -0.1319 -0.3668 -0.8285
 8188SOL    HW136200   2.689   3.663   5.019  0.1479 -0.6283 -1.4532
 8188SOL    HW236201   2.725   3.524   5.057 -0.1911 -0.4707  0.1404
 8189SOL     OW36202   0.848   4.243   5.404  0.1984 -0.3508 -0.4893
 8189SOL    HW136203   0.840   4.201   5.319 -1.3708  0.8779 -0.9389
 8189SOL    HW236204   0.858   4.335   5.379 -0.6055 -0.4984 -1.3345
 8190SOL     OW36205   4.443   1.251  15.834 -0.1028 -0.2921  0.2784
 8190SOL    HW136206   4.524   1.229  15.787  1.9159  0.5596  3.4018
 8190SOL    HW236207   4.429   1.172  15.885  2.1248  1.0313  2.9623
 8191SOL     OW36208   3.737   4.356  16.567 -0.0660 -0.1262 -0.1210
 8191SOL    HW136209   3.708   4.392  16.651  1.0543  1.3849 -0.3949
 8191SOL    HW236210   3.772   4.435  16.525  0.6172  0.0057  0.7025
 8192SOL     OW36211   3.247   0.921   8.666 -0.1129  0.0142 -0.0208
 8192SOL    HW136212   3.229   0.905   8.759  0.5859 -0.1832  0.0840
 8192SOL    HW236213   3.161   0.942   8.632 -0.7168 -1.4008  0.6311
 8193SOL     OW36214   0.167   1.182   4.303 -0.5187 -0.7292  0.0701
 8193SOL    HW136215   0.192   1.246   4.371  0.3219 -0.8574 -0.1265
 8193SOL    HW236216   0.132   1.114   4.360 -0.0018  0.2763  1.5992
 8194SOL     OW36217   0.422   3.038  11.589 -0.0487 -0.6243  0.2871
 8194SOL    HW136218   0.431   3.124  11.547 -2.1760  0.2950  1.7124
 8194SOL    HW236219   0.332   3.061  11.613 -0.5439 -4.1733  1.7754
 8195SOL     OW36220   4.174   1.065   6.131  0.1937 -0.3799 -0.1892
 8195SOL    HW136221   4.197   1.152   6.099  0.0323 -0.1893  0.2125
 8195SOL    HW236222   4.123   1.074   6.212 -0.6558 -1.7588 -0.5653
 8196SOL     OW36223   2.533   1.344   7.387  0.3097 -0.2551  0.1593
 8196SOL    HW136224   2.565   1.297   7.465  0.5809  0.0950  0.2606
 8196SOL    HW236225   2.569   1.291   7.316  1.7545  1.8770 -0.7213
 8197SOL     OW36226   1.045   2.324   9.727  0.4742 -0.8417  0.5739
 8197SOL    HW136227   0.953   2.333   9.752 -0.6198 -2.7200 -2.8274
 8197SOL    HW236228   1.086   2.344   9.811  0.2671  1.7172  0.0724
 8198SOL     OW36229   1.078   4.693   4.817 -0.0089 -0.1025  0.3144
 8198SOL    HW136230   1.133   4.615   4.812 -0.4570 -0.3853 -0.2032
 8198SOL    HW236231   1.067   4.707   4.912  1.3121 -0.6975  0.5446
 8199SOL     OW36232   2.030   4.690   4.026 -0.7445 -0.5549 -0.1289
 8199SOL    HW136233   2.050   4.733   4.109  1.7696 -1.8605 -0.0491
 8199SOL    HW236234   2.094   0.001   3.973  0.5484 -2.5345 -0.3649
 8200SOL     OW36235   1.679   4.085  12.559  0.2142 -0.4283  0.4233
 8200SOL    HW136236   1.674   4.170  12.515  1.2155  0.4065  1.9414
 8200SOL    HW236237   1.774   4.073  12.565  0.5147  2.2726  0.8624
 8201SOL     OW36238   1.724   4.400   4.207  0.3389  0.7560  0.1709
 8201SOL    HW136239   1.754   4.391   4.116 -0.2562 -1.8371  0.2289
 8201SOL    HW236240   1.773   4.476   4.238 -1.3081  1.1098  1.9015
 8202SOL     OW36241   2.275   4.492  14.979 -0.1906  0.0561  0.5691
 8202SOL    HW136242   2.297   4.403  15.009 -0.5462 -0.6760 -1.3283
 8202SOL    HW236243   2.346   4.546  15.014  0.4039  0.9115 -1.9539
 8203SOL     OW36244   4.376   2.260  12.534 -0.4812 -0.4310  0.2656
 8203SOL    HW136245   4.351   2.169  12.543  0.8463 -0.7322  0.9199
 8203SOL    HW236246   4.349   2.273  12.443 -2.0440  1.3483  0.9765
 8204SOL     OW36247   0.075   0.190   7.157 -0.6708 -0.3510 -0.0538
 8204SOL    HW136248   0.009   0.259   7.155 -0.4567 -0.1068  0.9682
 8204SOL    HW236249   0.064   0.151   7.071  3.0823 -1.2047 -0.1435
 8205SOL     OW36250   4.622   1.491  10.258  0.0361  0.7853  0.0102
 8205SOL    HW136251   4.693   1.458  10.203 -0.9392 -1.4193  0.0921
 8205SOL    HW236252   4.671   1.513  10.337  1.9849 -1.7079 -0.5117
 8206SOL     OW36253   1.350   1.903   3.296  0.0805 -0.6045  0.1034
 8206SOL    HW136254   1.368   1.817   3.333 -0.5388 -0.6941  0.1815
 8206SOL    HW236255   1.256   1.916   3.307 -0.2721 -0.5227 -2.9334
 8207SOL     OW36256   2.076   4.349  11.863 -0.2791  0.1766  0.8387
 8207SOL    HW136257   2.061   4.430  11.912  0.4461  0.0700  1.2247
 8207SOL    HW236258   2.165   4.326  11.888 -0.0262 -0.0366 -0.2689
 8208SOL     OW36259   2.925   3.866   3.312  0.0640 -0.2941  0.2622
 8208SOL    HW136260   2.971   3.786   3.288 -0.5467 -1.6747  3.6417
 8208SOL    HW236261   2.949   3.866   3.405  1.6346  1.5727 -0.1560
 8209SOL     OW36262   2.381   1.369  16.250 -0.1557 -0.0719 -0.2623
 8209SOL    HW136263   2.428   1.436  16.201 -1.8187  0.4852 -1.1225
 8209SOL    HW236264   2.402   1.396  16.339 -2.3545 -1.9072  0.8154
 8210SOL     OW36265   2.943   2.838   0.698  0.1867  0.3698  0.3480
 8210SOL    HW136266   2.953   2.762   0.755  0.9680 -0.2506 -0.6164
 8210SOL    HW236267   2.926   2.798   0.613 -0.6102 -1.6798  1.4717
 8211SOL     OW36268   1.431   0.829   9.091 -0.1034 -0.1894  0.7531
 8211SOL    HW136269   1.448   0.911   9.044  1.6912 -0.3473  1.1021
 8211SOL    HW236270   1.480   0.765   9.040  0.4920  1.7803 -1.1675
 8212SOL     OW36271   0.985   4.592   0.713 -0.2983  0.4795 -0.1211
 8212SOL    HW136272   0.987   4.586   0.617  3.5275 -1.3065  0.0973
 8212SOL    HW236273   1.027   4.508   0.731 -1.0190 -0.3956 -2.4619
 8213SOL     OW36274   4.430   3.797  13.219  0.4100 -0.0867 -0.0277
 8213SOL    HW136275   4.461   3.732  13.156 -0.0077 -1.4103  1.1324
 8213SOL    HW236276   4.351   3.829  13.177  0.0447  0.2026  0.8995
 8214SOL     OW36277   1.523   3.973   4.107  0.0326  0.1724  0.5709
 8214SOL    HW136278   1.510   3.952   4.200 -1.7600  1.0510  0.5048
 8214SOL    HW236279   1.471   4.052   4.094 -1.1490 -0.9585 -1.5648
 8215SOL     OW36280   2.363   2.555   3.700 -0.2949  0.5373  0.4059
 8215SOL    HW136281   2.434   2.555   3.763  0.6193  0.2219 -0.6132
 8215SOL    HW236282   2.310   2.484   3.737 -0.9680 -0.6462 -2.7870
 8216SOL     OW36283   0.725   0.411   3.695  0.2743 -0.7105  0.3742
 8216SOL    HW136284   0.724   0.320   3.665 -3.3642 -1.0818  1.6232
 8216SOL    HW236285   0.806   0.409   3.747  0.8498  0.1163 -0.4824
 8217SOL     OW36286   3.368   0.641   6.061 -0.2325 -0.2374 -0.0073
 8217SOL    HW136287   3.399   0.669   6.147  2.6651 -1.5073 -0.6471
 8217SOL    HW236288   3.408   0.715   6.014 -3.3046  0.1632 -1.9986
 8218SOL     OW36289   2.235   0.047  16.139 -0.5239 -0.2512  0.4363
 8218SOL    HW136290   2.269   4.735  16.065 -1.6297 -1.8478  0.9790
 8218SOL    HW236291   2.279   0.131  16.133 -2.2654  0.5506 -1.1053
 8219SOL     OW36292   1.918   3.609   2.643 -0.4238 -0.3603  0.9001
 8219SOL    HW136293   1.977   3.623   2.716 -0.5407 -0.8041  1.0768
 8219SOL    HW236294   1.969   3.550   2.588 -0.2016  1.5338 -0.9298
 8220SOL     OW36295   3.460   0.719   4.966 -0.1281  0.1949 -0.6100
 8220SOL    HW136296   3.451   0.720   5.061 -0.0322  0.5805 -0.6051
 8220SOL    HW236297   3.390   0.658   4.941 -1.2755  0.7533  1.2814
 8221SOL     OW36298   0.151   3.621   7.085  0.4299  0.3099  0.7142
 8221SOL    HW136299   0.059   3.605   7.065  0.6328  2.9306 -2.2805
 8221SOL    HW236300   0.192   3.549   7.037 -2.8474 -2.2324  1.7930
 8222SOL     OW36301   2.251   0.554   2.450  0.1360  0.0853 -0.3515
 8222SOL    HW136302   2.244   0.463   2.420 -1.3906  0.1141 -0.0862
 8222SOL    HW236303   2.288   0.546   2.538  4.0572 -0.0001 -2.0491
 8223SOL     OW36304   2.256   4.381   1.056  0.3022 -0.0885 -0.7785
 8223SOL    HW136305   2.323   4.320   1.087  0.8741  0.9050 -0.0275
 8223SOL    HW236306   2.200   4.314   1.017 -1.4483  1.2870 -0.6132
 8224SOL     OW36307   3.254   3.726  11.856 -0.0249 -0.4343 -0.1866
 8224SOL    HW136308   3.269   3.633  11.838  0.2521 -0.4538  0.1629
 8224SOL    HW236309   3.341   3.763  11.841 -0.7592  1.7899  0.9988
 8225SOL     OW36310   4.709   4.200  10.040 -0.6684  0.9783  0.0204
 8225SOL    HW136311   4.711   4.104  10.045  0.2557  0.8849 -2.3292
 8225SOL    HW236312   4.723   4.215   9.947 -1.4510  0.8301 -0.1141
 8226SOL     OW36313   3.129   3.260   6.336  0.8024 -0.3831 -0.1736
 8226SOL    HW136314   3.158   3.206   6.263 -1.3802 -0.9443 -0.6192
 8226SOL    HW236315   3.159   3.348   6.313  1.6903 -0.3088  1.2384
 8227SOL     OW36316   2.393   2.761  13.922 -0.1359  0.0724  0.1443
 8227SOL    HW136317   2.299   2.743  13.931 -0.1689  0.8362  1.3284
 8227SOL    HW236318   2.389   2.845  13.876 -0.2237 -0.3381 -0.6062
 8228SOL     OW36319   0.330   0.839   3.922  0.6062 -0.3125  0.0069
 8228SOL    HW136320   0.276   0.894   3.979  1.0966 -0.4252  0.5767
 8228SOL    HW236321   0.410   0.826   3.973  0.7112  0.1857 -0.0362
 8229SOL     OW36322   0.118   3.645   2.499 -0.5752 -0.8412  0.3589
 8229SOL    HW136323   0.102   3.578   2.565 -0.9597 -1.9466 -0.8762
 8229SOL    HW236324   0.194   3.609   2.454  0.1345  0.5542  0.4206
 8230SOL     OW36325   0.278   3.776   5.075  0.0536  0.1714  0.2431
 8230SOL    HW136326   0.365   3.813   5.062  0.4383 -1.6481 -2.3059
 8230SOL    HW236327   0.293   3.690   5.037 -3.7872  0.2039 -1.3400
 8231SOL     OW36328   1.719   4.428   4.823 -0.3364 -0.1569  0.3643
 8231SOL    HW136329   1.747   4.339   4.844 -1.0380 -1.1358 -2.8508
 8231SOL    HW236330   1.746   4.476   4.901 -0.7077  0.6156  0.0170
 8232SOL     OW36331   2.814   3.872   8.489  0.4193  0.2923 -0.1023
 8232SOL    HW136332   2.769   3.799   8.445  1.0799  0.4207 -0.9691
 8232SOL    HW236333   2.748   3.942   8.491  0.7002  0.5748 -0.8783
 8233SOL     OW36334   2.954   0.944   5.493  0.1254 -0.0934  0.0178
 8233SOL    HW136335   2.899   0.893   5.433 -0.0759 -0.8947  0.8790
 8233SOL    HW236336   2.964   0.887   5.569  0.1438 -0.6703 -0.4160
 8234SOL     OW36337   2.045   2.993   9.489 -0.1206  0.6058 -0.1392
 8234SOL    HW136338   2.034   3.087   9.495  3.5121  1.1933 -2.5292
 8234SOL    HW236339   2.050   2.980   9.394 -0.2315 -1.2216  0.0895
 8235SOL     OW36340   0.790   1.613  12.813 -0.3649  0.3338  0.6449
 8235SOL    HW136341   0.746   1.528  12.811 -0.7053  0.5022  1.0719
 8235SOL    HW236342   0.850   1.602  12.739  0.9128  1.5616  1.4875
 8236SOL     OW36343   3.487   3.865   0.205  0.3998  0.8683  0.0157
 8236SOL    HW136344   3.411   3.810   0.223  0.4866  0.0927 -1.9750
 8236SOL    HW236345   3.476   3.945   0.257  0.5694  0.3435  0.8511
 8237SOL     OW36346   1.114   4.395   0.348 -0.4142  0.2172  0.1159
 8237SOL    HW136347   1.145   4.305   0.342 -0.3603  0.2467 -0.0589
 8237SOL    HW236348   1.024   4.393   0.379 -0.3356 -1.9001  0.1937
 8238SOL     OW36349   0.981   1.605   4.951  0.3784  0.6237 -0.7904
 8238SOL    HW136350   1.052   1.579   5.010 -1.2171  2.4543  1.9191
 8238SOL    HW236351   0.982   1.699   4.971 -2.4455  0.4952 -0.0883
 8239SOL     OW36352   2.403   0.654   8.517  0.1494 -0.0330  0.0117
 8239SOL    HW136353   2.417   0.748   8.508  0.9059 -0.1225  0.2904
 8239SOL    HW236354   2.456   0.615   8.448 -2.2157 -3.4266  0.1177
 8240SOL     OW36355   1.007   0.060  17.716 -0.2599  0.0414 -0.2420
 8240SOL    HW136356   1.024   4.707  17.691 -0.5640  0.4361 -1.9022
 8240SOL    HW236357   1.030   0.056   0.061  1.0836 -0.6475 -0.6085
 8241SOL     OW36358   3.521   1.193   9.844  0.2700 -0.7218  0.2187
 8241SOL    HW136359   3.615   1.210   9.849  0.1825  0.2185 -1.3763
 8241SOL    HW236360   3.508   1.113   9.894  1.3131 -1.2592 -0.3761
 8242SOL     OW36361   3.732   0.179  12.806  0.7566  0.0102  0.0000
 8242SOL    HW136362   3.710   0.149  12.718  1.9136  0.7990 -0.5644
 8242SOL    HW236363   3.644   0.199  12.839  0.5663 -0.2496 -0.3606
 8243SOL     OW36364   4.232   2.850   5.922 -0.1093  0.5755 -0.0639
 8243SOL    HW136365   4.221   2.784   5.854 -0.8388 -0.9608  1.5351
 8243SOL    HW236366   4.149   2.896   5.937  0.3679  1.2904  0.3948
 8244SOL     OW36367   2.518   4.008   6.074  0.2064 -0.4093 -0.3284
 8244SOL    HW136368   2.575   4.071   6.031  2.4182 -0.8360  2.0106
 8244SOL    HW236369   2.577   3.974   6.141 -0.9365 -0.3207  0.7263
 8245SOL     OW36370   1.259   3.171  14.700  0.4106  0.3062 -0.6345
 8245SOL    HW136371   1.283   3.088  14.742 -1.8062  0.0051  0.0295
 8245SOL    HW236372   1.248   3.137  14.611 -1.0610  0.9168 -0.6751
 8246SOL     OW36373   3.516   0.227  12.998  0.3280 -0.1582  0.3919
 8246SOL    HW136374   3.426   0.236  12.965 -0.0913 -1.9876  1.0223
 8246SOL    HW236375   3.512   0.292  13.068  2.4944  0.1273  0.2484
 8247SOL     OW36376   4.616   2.523   9.308  0.2004  0.0614 -0.4789
 8247SOL    HW136377   4.668   2.583   9.362 -2.6554  1.5831  0.6168
 8247SOL    HW236378   4.528   2.539   9.342  0.8812  2.3623  0.1789
 8248SOL     OW36379   3.766   3.536  14.112 -0.1155 -0.0754  0.0353
 8248SOL    HW136380   3.672   3.540  14.127 -0.0510 -0.5390  0.5435
 8248SOL    HW236381   3.788   3.481  14.187 -0.2395  1.9648  1.5603
 8249SOL     OW36382   3.245   4.261   6.934  0.6095 -0.0099  0.5507
 8249SOL    HW136383   3.230   4.339   6.987 -0.6375  1.1297 -1.4759
 8249SOL    HW236384   3.291   4.200   6.991  3.1501  1.5815  0.1890
 8250SOL     OW36385   3.410   4.157  13.830 -0.5686  0.0822 -0.1276
 8250SOL    HW136386   3.388   4.122  13.743  0.5566 -1.0237  0.0468
 8250SOL    HW236387   3.445   4.077  13.869 -0.4838  0.0306 -0.3075
 8251SOL     OW36388   0.081   2.959   4.785  0.2135  0.2147 -0.5536
 8251SOL    HW136389   0.042   2.873   4.793 -0.8034  0.8628  1.4591
 8251SOL    HW236390   0.041   3.002   4.861  0.8790 -1.5985  0.8196
 8252SOL     OW36391   3.290   4.035   0.363 -0.4900 -0.3000  0.3617
 8252SOL    HW136392   3.223   4.062   0.300 -0.6524  0.7273  0.9758
 8252SOL    HW236393   3.231   3.993   0.426  1.1725 -2.1710  0.6736
 8253SOL     OW36394   2.077   0.971  11.742  0.0434 -0.3489 -0.1644
 8253SOL    HW136395   2.162   1.000  11.711 -0.2318 -0.5562 -1.1160
 8253SOL    HW236396   2.050   1.042  11.800  0.1773  0.9843 -1.7300
 8254SOL     OW36397   0.698   3.306   5.221 -0.5483 -0.4534  0.0602
 8254SOL    HW136398   0.695   3.400   5.238  1.3829 -0.1872 -1.0789
 8254SOL    HW236399   0.739   3.305   5.135  1.4349  0.1522  0.9983
 8255SOL     OW36400   0.376   4.368   1.040  0.0165  0.3037  0.3722
 8255SOL    HW136401   0.428   4.445   1.015  1.4669 -0.8679 -0.2387
 8255SOL    HW236402   0.287   4.400   1.025 -0.6954 -2.0316 -0.3539
 8256SOL     OW36403   1.999   3.538   3.164 -0.1013 -0.9539 -0.1043
 8256SOL    HW136404   1.910   3.536   3.198  0.0967  1.9296  0.5931
 8256SOL    HW236405   2.039   3.475   3.224  0.0020  1.0758  1.9674
 8257SOL     OW36406   0.153   1.404   3.857 -0.3260  0.0332  0.5426
 8257SOL    HW136407   0.118   1.429   3.942 -0.0042 -0.5060  0.8342
 8257SOL    HW236408   0.247   1.394   3.873 -0.3568 -2.6796 -0.8865
 8258SOL     OW36409   1.975   2.666   8.216  0.4688  0.0860 -0.2708
 8258SOL    HW136410   1.937   2.582   8.240 -1.4058  0.6322 -1.2974
 8258SOL    HW236411   1.932   2.691   8.134  2.2265 -0.0889 -1.2550
 8259SOL     OW36412   2.992   3.724   6.976  0.3405 -0.2769  0.3069
 8259SOL    HW136413   3.014   3.817   6.980 -3.2227  0.5287  0.9123
 8259SOL    HW236414   2.962   3.714   6.886 -1.5945 -0.6256  0.9813
 8260SOL     OW36415   0.231   2.911  10.294 -0.3512 -0.2006  0.2012
 8260SOL    HW136416   0.206   3.001  10.315  0.9867  0.1606  0.2158
 8260SOL    HW236417   0.143   2.878  10.274 -0.5468  0.7174 -0.4197
 8261SOL     OW36418   3.104   4.086   3.492  0.1967  0.1652 -0.0110
 8261SOL    HW136419   3.056   4.006   3.514  1.0069 -0.1284  0.6574
 8261SOL    HW236420   3.139   4.105   3.579  0.5223  0.4347 -0.2005
 8262SOL     OW36421   0.048   1.369  10.101  0.6659  0.6332  0.2272
 8262SOL    HW136422   0.129   1.326  10.128 -1.2377 -3.2492 -0.2431
 8262SOL    HW236423   0.073   1.407  10.017  1.9482 -2.8079 -0.9731
 8263SOL     OW36424   3.095   4.650   8.583 -0.0611  0.4130 -0.3621
 8263SOL    HW136425   3.179   4.603   8.586 -1.0821 -1.3436  0.4751
 8263SOL    HW236426   3.104   4.716   8.651 -0.2142  0.5014 -0.4287
 8264SOL     OW36427   4.007   1.205  10.051  0.0072 -0.3691 -0.2030
 8264SOL    HW136428   4.016   1.264  10.126  3.6908 -1.8680  0.5028
 8264SOL    HW236429   3.979   1.266   9.983  0.5200  2.0678  1.7844
 8265SOL     OW36430   4.358   0.327   2.815  0.3960  0.3413 -0.1016
 8265SOL    HW136431   4.416   0.356   2.745  0.9589  0.9000  0.5860
 8265SOL    HW236432   4.422   0.284   2.871 -0.4376  0.1366  0.7018
 8266SOL     OW36433   2.337   4.143  13.668  0.8026  0.3369  0.1471
 8266SOL    HW136434   2.251   4.185  13.667  0.0964 -1.1523 -2.7910
 8266SOL    HW236435   2.373   4.158  13.580  1.5906 -2.0647  0.0751
 8267SOL     OW36436   4.237   2.790  16.783 -0.4949 -0.1552  0.7947
 8267SOL    HW136437   4.289   2.715  16.753  1.6883  0.5603  2.8008
 8267SOL    HW236438   4.152   2.746  16.778 -1.5470  1.7098  2.6527
 8268SOL     OW36439   1.943   3.853   6.791 -0.1934 -0.3809 -0.0860
 8268SOL    HW136440   2.023   3.878   6.744 -1.2382 -1.5696 -2.4981
 8268SOL    HW236441   1.936   3.914   6.864 -0.7174  1.2602 -1.4899
 8269SOL     OW36442   0.563   1.648   4.124  0.0641  0.1854 -0.2953
 8269SOL    HW136443   0.593   1.558   4.109 -1.5193 -0.0125 -2.2382
 8269SOL    HW236444   0.612   1.694   4.056  1.2697 -1.3305 -0.4653
 8270SOL     OW36445   3.773   4.463   7.645  0.0274 -0.3953  0.2498
 8270SOL    HW136446   3.725   4.545   7.660 -0.7995 -0.6420 -1.0016
 8270SOL    HW236447   3.847   4.496   7.595 -1.2315  0.9360 -0.7607
 8271SOL     OW36448   1.994   4.118   4.874 -0.0263 -0.2442  0.2307
 8271SOL    HW136449   2.009   4.030   4.910  0.8954 -1.2446 -2.6032
 8271SOL    HW236450   2.048   4.113   4.795  1.2489 -0.8405  1.1317
 8272SOL     OW36451   2.251   1.576  16.714 -0.3880 -0.3125 -0.1360
 8272SOL    HW136452   2.303   1.650  16.746 -1.8961  1.5095 -1.9715
 8272SOL    HW236453   2.220   1.526  16.790  2.5280  1.2250  2.0734
 8273SOL     OW36454   1.499   2.441  15.243 -0.6677  0.4685  0.0063
 8273SOL    HW136455   1.453   2.395  15.313 -0.4744 -0.3251 -0.3989
 8273SOL    HW236456   1.442   2.420  15.170 -0.8555  1.0405 -0.0165
 8274SOL     OW36457   1.837   2.987   4.597  0.2625  0.5813  0.5164
 8274SOL    HW136458   1.846   2.892   4.593 -1.2324  0.3954  1.3822
 8274SOL    HW236459   1.902   3.018   4.535  1.4021 -1.5362  0.6726
 8275SOL     OW36460   1.313   0.822   6.024 -0.1633 -0.3300 -0.5807
 8275SOL    HW136461   1.371   0.880   5.974  0.4701 -0.4953 -0.0498
 8275SOL    HW236462   1.368   0.751   6.057  2.6657  2.5125  0.8165
 8276SOL     OW36463   0.651   3.405   5.547  0.1338  0.1546  0.3945
 8276SOL    HW136464   0.568   3.369   5.515 -0.4727  0.7443  1.3339
 8276SOL    HW236465   0.652   3.485   5.494 -0.3780  1.1516  1.9016
 8277SOL     OW36466   4.534   4.619   6.018  0.2613 -0.0249  0.7484
 8277SOL    HW136467   4.614   4.672   6.023  0.7444 -0.7410  0.5838
 8277SOL    HW236468   4.512   4.629   5.925 -0.9742 -1.4058  0.8844
 8278SOL     OW36469   2.734   1.051  17.628  0.7710 -0.4289  0.1827
 8278SOL    HW136470   2.717   1.143  17.650 -1.2386 -0.6292 -0.5594
 8278SOL    HW236471   2.685   1.005  17.696  0.6346  0.6424  0.8077
 8279SOL     OW36472   0.529   4.125   6.046  0.0577 -0.0584 -0.1696
 8279SOL    HW136473   0.519   4.077   6.128  0.6802  1.3728  0.7556
 8279SOL    HW236474   0.620   4.100   6.032  0.0478  0.0545 -0.4303
 8280SOL     OW36475   2.673   1.346   4.060  0.5072  0.1494  0.3345
 8280SOL    HW136476   2.715   1.260   4.060 -0.6825 -0.4378 -0.9172
 8280SOL    HW236477   2.672   1.354   3.964 -5.1385  1.2539  0.4885
 8281SOL     OW36478   1.102   1.264   2.243  0.2096 -0.3164  0.4224
 8281SOL    HW136479   1.105   1.356   2.270 -0.3522  0.1511 -1.1244
 8281SOL    HW236480   1.080   1.260   2.150 -1.1747 -0.5851  0.7612
 8282SOL     OW36481   0.303   3.070   6.728 -0.0178  0.0212 -0.2591
 8282SOL    HW136482   0.221   3.109   6.757 -0.1167 -0.0326 -0.4639
 8282SOL    HW236483   0.300   2.992   6.785 -0.7630  0.5457  0.4245
 8283SOL     OW36484   1.564   1.710   4.048  0.0898  0.5929  0.0435
 8283SOL    HW136485   1.610   1.792   4.064  1.7454 -0.2822 -0.2070
 8283SOL    HW236486   1.567   1.705   3.952  0.4865 -1.1496  0.1425
 8284SOL     OW36487   3.807   2.894   5.787  0.0779 -0.0145  0.1787
 8284SOL    HW136488   3.795   2.800   5.790 -0.8978  0.0623 -1.2043
 8284SOL    HW236489   3.871   2.895   5.715  0.9606 -0.0088  0.9646
 8285SOL     OW36490   1.152   0.769   7.835  0.3880  0.0444  0.1428
 8285SOL    HW136491   1.101   0.697   7.870  1.6589 -1.7150 -1.6619
 8285SOL    HW236492   1.112   0.782   7.749  2.3658 -3.2272 -1.2471
 8286SOL     OW36493   2.069   2.902   4.153  0.0264 -0.0232  0.1562
 8286SOL    HW136494   2.107   2.821   4.188 -0.7241 -0.6764 -0.5194
 8286SOL    HW236495   2.036   2.864   4.071  2.8116 -0.7285 -0.6192
 8287SOL     OW36496   2.310   3.193   8.783  0.2780  0.3610  0.0462
 8287SOL    HW136497   2.397   3.209   8.818  0.1824 -0.5255  0.6756
 8287SOL    HW236498   2.318   3.242   8.701  2.7304  0.9963  0.6586
 8288SOL     OW36499   3.765   0.846  10.120  0.4793  0.2246 -0.1514
 8288SOL    HW136500   3.842   0.841  10.064  1.0106  1.8346  0.4234
 8288SOL    HW236501   3.716   0.910  10.068  1.0479  0.5537 -0.2739
 8289SOL     OW36502   4.652   0.711   7.585 -0.0877  0.2154 -0.3254
 8289SOL    HW136503   4.587   0.646   7.611  0.7874 -0.6088 -0.1929
 8289SOL    HW236504   4.680   0.688   7.497  1.4568 -0.3218  0.3048
 8290SOL     OW36505   0.764   2.151   6.939 -0.0757  0.0372 -0.0290
 8290SOL    HW136506   0.779   2.154   6.844  1.3359  1.2380  0.2244
 8290SOL    HW236507   0.758   2.246   6.950  3.7833  0.4025 -1.2909
 8291SOL     OW36508   2.107   1.953  12.427  0.8323  0.0010  0.6467
 8291SOL    HW136509   2.178   1.892  12.445  1.8478  1.5295  1.8798
 8291SOL    HW236510   2.174   2.021  12.417  0.2698  0.0982 -2.2961
 8292SOL     OW36511   4.220   1.776   7.924 -0.4384 -0.8043 -0.0413
 8292SOL    HW136512   4.302   1.738   7.958  0.1696  0.3426 -0.2372
 8292SOL    HW236513   4.179   1.804   8.006 -0.2300 -0.0133 -0.2033
 8293SOL     OW36514   1.245   4.329   7.345 -0.5467  0.0556  0.1223
 8293SOL    HW136515   1.239   4.357   7.436  1.5186  1.3952 -0.1662
 8293SOL    HW236516   1.319   4.269   7.336  0.3893  0.9571  1.7701
 8294SOL     OW36517   0.476   2.307   9.660 -1.0655  0.5306 -0.1669
 8294SOL    HW136518   0.404   2.282   9.602 -0.5085  0.4333 -0.8209
 8294SOL    HW236519   0.540   2.241   9.633 -1.7303 -0.2483  0.1748
 8295SOL     OW36520   1.582   3.051   8.599 -0.4483  0.0977 -0.4834
 8295SOL    HW136521   1.659   3.013   8.641 -0.4177  0.6907  0.0005
 8295SOL    HW236522   1.571   3.003   8.517 -0.0402 -0.4518 -0.2154
 8296SOL     OW36523   3.210   3.765   0.303 -0.4337 -0.4595  0.3748
 8296SOL    HW136524   3.117   3.765   0.279 -0.7504 -1.9807  1.6319
 8296SOL    HW236525   3.201   3.830   0.373 -1.2474  0.4139 -0.5343
 8297SOL     OW36526   3.825   1.647  14.148 -0.0193 -0.7011  0.1574
 8297SOL    HW136527   3.790   1.733  14.172 -2.2471 -1.6571  0.2914
 8297SOL    HW236528   3.887   1.664  14.077 -0.8857  2.0073  0.0395
 8298SOL     OW36529   2.334   1.022   7.394 -0.2887  0.1303 -0.3478
 8298SOL    HW136530   2.259   1.079   7.412  0.5421  0.7942  0.9967
 8298SOL    HW236531   2.381   1.074   7.329  0.7073 -1.6259 -1.0416
 8299SOL     OW36532   4.375   0.175   2.455 -0.0153  0.2842 -0.8557
 8299SOL    HW136533   4.431   0.100   2.437  0.0189 -0.1368  1.0160
 8299SOL    HW236534   4.351   0.186   2.363  2.0714  2.2874 -1.1450
 8300SOL     OW36535   1.818   0.472   3.343 -0.0026 -0.0994 -0.2204
 8300SOL    HW136536   1.726   0.498   3.350  0.0160  0.2759 -1.4440
 8300SOL    HW236537   1.823   0.471   3.248  1.9601  2.4667 -0.1665
 8301SOL     OW36538   4.607   2.891  12.773 -0.0904 -0.0618  0.4616
 8301SOL    HW136539   4.551   2.928  12.705 -0.4055 -3.0976 -0.9355
 8301SOL    HW236540   4.558   2.931  12.845 -0.9988 -0.7892  0.2525
 8302SOL     OW36541   1.935   4.480   5.963 -0.2685  0.1587  0.3119
 8302SOL    HW136542   1.943   4.521   6.049 -0.3257  0.1060  0.3424
 8302SOL    HW236543   2.028   4.464   5.946 -1.1646 -1.5895 -2.9193
 8303SOL     OW36544   3.226   2.591   3.315  0.4360 -0.0081  0.0084
 8303SOL    HW136545   3.250   2.602   3.407  0.6468  0.6349 -0.1312
 8303SOL    HW236546   3.296   2.634   3.267 -0.7825  1.7618 -0.1766
 8304SOL     OW36547   1.957   0.035   7.123 -0.5115 -0.7263 -0.3751
 8304SOL    HW136548   1.918   0.018   7.037 -2.8885  1.2556  0.3314
 8304SOL    HW236549   1.999   0.118   7.102 -2.4113  0.3218 -0.0015
 8305SOL     OW36550   3.732   2.230   8.524  0.3634  0.0848  0.2477
 8305SOL    HW136551   3.643   2.200   8.507  0.6630  0.2478 -1.6065
 8305SOL    HW236552   3.736   2.323   8.502  0.4123  0.4091  1.5874
 8306SOL     OW36553   2.510   4.112   2.215 -0.0714 -0.6949 -0.0712
 8306SOL    HW136554   2.553   4.193   2.187  0.4881 -0.9635  0.0003
 8306SOL    HW236555   2.576   4.081   2.277  0.0239  0.9519  0.6525
 8307SOL     OW36556   1.570   3.314   6.401  0.1749  0.2369  0.6776
 8307SOL    HW136557   1.516   3.278   6.330  2.5528 -3.7326  0.8646
 8307SOL    HW236558   1.535   3.401   6.417  0.1572  0.4573 -0.6134
 8308SOL     OW36559   0.134   0.013   3.430 -0.3288  0.2707 -0.6214
 8308SOL    HW136560   0.202   0.048   3.488 -0.2078 -0.9905 -0.0182
 8308SOL    HW236561   0.180   0.006   3.347  0.0462  0.2242 -0.4104
 8309SOL     OW36562   4.475   3.237   2.393 -0.8444  0.1368 -0.5998
 8309SOL    HW136563   4.492   3.162   2.336 -1.7348  0.7883 -1.7162
 8309SOL    HW236564   4.464   3.306   2.328 -3.3360  0.4488  0.1480
 8310SOL     OW36565   0.978   2.666  16.662 -0.1438 -0.0273  0.1235
 8310SOL    HW136566   0.927   2.708  16.732  0.3181  2.0070 -0.7706
 8310SOL    HW236567   1.067   2.662  16.696  0.8368 -0.4759 -2.4897
 8311SOL     OW36568   2.295   2.994   5.979 -0.0023 -0.2896  0.1031
 8311SOL    HW136569   2.389   2.990   6.000  0.2971  0.4595 -1.0893
 8311SOL    HW236570   2.252   2.963   6.059  0.5047 -1.2219  0.0133
 8312SOL     OW36571   0.358   1.402   8.092 -0.2675 -0.3799 -0.3338
 8312SOL    HW136572   0.450   1.414   8.069 -0.3636  0.4613 -0.2619
 8312SOL    HW236573   0.363   1.430   8.183  0.3838 -0.8749 -0.2118
 8313SOL     OW36574   3.359   2.324   3.006  0.1555 -0.1498 -0.5051
 8313SOL    HW136575   3.295   2.395   3.012  0.8529  0.4206  0.3174
 8313SOL    HW236576   3.434   2.363   3.051 -1.1880  1.7753  0.0759
 8314SOL     OW36577   0.058   4.448   8.642  0.0778 -0.2789  0.0889
 8314SOL    HW136578   4.711   4.485   8.667  0.9410  0.5776  1.7467
 8314SOL    HW236579   0.086   4.420   8.730  0.2436 -3.1387 -0.8759
 8315SOL     OW36580   1.796   2.210   9.705  0.0476 -0.3650 -0.9578
 8315SOL    HW136581   1.867   2.265   9.670  1.8091 -0.6609  2.0977
 8315SOL    HW236582   1.848   2.153   9.760 -0.6744 -0.0272  0.0778
 8316SOL     OW36583   1.680   4.187   2.597 -0.5081 -0.3355  0.6246
 8316SOL    HW136584   1.585   4.176   2.597 -0.7114  1.5057 -2.7399
 8316SOL    HW236585   1.693   4.264   2.652 -0.7682  0.6117 -0.6380
 8317SOL     OW36586   2.133   1.667  12.243 -0.2608 -0.0457  0.0580
 8317SOL    HW136587   2.115   1.735  12.177 -0.1357 -0.9016 -0.8697
 8317SOL    HW236588   2.168   1.722  12.313  0.0096 -0.8672  0.5666
 8318SOL     OW36589   2.379   1.597  12.687  0.2508 -0.4918 -0.4867
 8318SOL    HW136590   2.431   1.572  12.763  1.6830  0.2628 -1.2211
 8318SOL    HW236591   2.411   1.550  12.609  0.9503 -0.5343 -0.1740
 8319SOL     OW36592   0.358   0.740   7.836  0.4215 -0.5182 -0.1185
 8319SOL    HW136593   0.385   0.688   7.760  1.9273 -0.2435  0.2323
 8319SOL    HW236594   0.433   0.798   7.850 -0.0698  0.0005  0.3899
 8320SOL     OW36595   4.630   3.221   6.114  1.0366 -0.9313 -0.0520
 8320SOL    HW136596   4.707   3.275   6.130 -0.4233  1.1566  0.0307
 8320SOL    HW236597   4.633   3.201   6.020  0.7907  0.4409 -0.3588
 8321SOL     OW36598   2.820   3.072   0.617 -0.7410 -0.1145 -0.2652
 8321SOL    HW136599   2.899   3.108   0.579 -1.7562 -0.1664 -2.4161
 8321SOL    HW236600   2.841   2.982   0.642 -0.4102 -0.8684 -3.3268
 8322SOL     OW36601   1.867   2.947   3.832  0.0918 -0.3249  0.3942
 8322SOL    HW136602   1.879   2.852   3.831 -0.0852 -0.3418 -0.0363
 8322SOL    HW236603   1.953   2.980   3.806 -0.0775  0.3681  0.7141
 8323SOL     OW36604   1.857   3.744   7.713 -0.5983  0.8255 -0.2130
 8323SOL    HW136605   1.864   3.745   7.617  0.5098 -2.3269 -0.1895
 8323SOL    HW236606   1.772   3.701   7.709 -1.2449  2.0835  0.2968
 8324SOL     OW36607   2.666   4.142  16.087 -0.0486  0.2507  0.1740
 8324SOL    HW136608   2.574   4.151  16.064  0.3077  0.3939 -1.2159
 8324SOL    HW236609   2.706   4.158  16.002 -0.0814  0.7827  0.2602
 8325SOL     OW36610   2.846   1.427   7.404 -0.0137 -0.0135 -0.3477
 8325SOL    HW136611   2.849   1.339   7.366  0.6373  0.3808 -1.2263
 8325SOL    HW236612   2.794   1.465   7.333 -0.8916 -0.6470 -0.0430
 8326SOL     OW36613   1.786   0.695  15.339  0.3786 -0.4289 -0.1949
 8326SOL    HW136614   1.876   0.686  15.368  0.3636 -0.6190 -0.2105
 8326SOL    HW236615   1.749   0.612  15.368 -0.0155  0.1354  0.9327
 8327SOL     OW36616   0.140   4.431   6.746  0.0200 -0.1197  0.3485
 8327SOL    HW136617   0.051   4.467   6.742 -1.0594 -2.5190  1.9333
 8327SOL    HW236618   0.135   4.342   6.711  1.0580  0.1218 -0.3722
 8328SOL     OW36619   4.605   0.676   6.458  0.3459  0.0334 -0.3746
 8328SOL    HW136620   4.589   0.699   6.550 -2.4069 -1.2615 -0.5404
 8328SOL    HW236621   4.560   0.748   6.414  0.1105  0.9496  1.3634
 8329SOL     OW36622   2.725   4.477   6.500  0.6566  0.3809  0.5380
 8329SOL    HW136623   2.799   4.486   6.440  1.8325 -2.1617  1.5871
 8329SOL    HW236624   2.737   4.382   6.513  2.8684  0.3903 -1.3748
 8330SOL     OW36625   3.057   2.812   3.224 -0.7452  0.6396  0.1609
 8330SOL    HW136626   3.142   2.770   3.236 -1.1442  0.7992  3.4712
 8330SOL    HW236627   3.022   2.838   3.309 -0.4009  1.2838  0.1070
 8331SOL     OW36628   2.371   3.672   7.736 -0.1323  0.2440  0.1423
 8331SOL    HW136629   2.429   3.739   7.771 -1.8885  0.9915  1.6632
 8331SOL    HW236630   2.426   3.594   7.733 -0.9375 -0.3673  1.4850
 8332SOL     OW36631   1.682   3.634   4.126 -0.0131  0.5511  0.0277
 8332SOL    HW136632   1.669   3.667   4.037 -1.7342 -2.0536 -0.6767
 8332SOL    HW236633   1.778   3.625   4.125 -0.0325  0.3115  0.5079
 8333SOL     OW36634   1.052   4.699   5.396  0.0147 -0.0164 -0.3083
 8333SOL    HW136635   1.110   0.032   5.425  0.2184 -0.0100 -0.7217
 8333SOL    HW236636   1.114   4.628   5.413 -1.7511 -1.5246 -0.1653
 8334SOL     OW36637   1.786   4.721   2.230 -0.1179  0.1524  0.2467
 8334SOL    HW136638   1.692   4.732   2.240 -0.1018  0.4885  0.0084
 8334SOL    HW236639   1.814   4.719   2.322  0.3147  1.1976  0.1315
 8335SOL     OW36640   3.024   3.871   5.838 -0.4816  0.6482 -0.6048
 8335SOL    HW136641   3.044   3.919   5.919  1.5312 -0.0155 -0.6919
 8335SOL    HW236642   2.954   3.814   5.868 -0.4207 -0.2169 -2.1646
 8336SOL     OW36643   4.245   1.572   4.628  0.5691 -0.0318  0.0054
 8336SOL    HW136644   4.242   1.574   4.533  0.2039 -0.1753  0.0162
 8336SOL    HW236645   4.165   1.521   4.643  0.0549  1.7051  3.3027
 8337SOL     OW36646   0.146   3.072  10.718  0.8177  0.2468  0.1418
 8337SOL    HW136647   0.162   2.981  10.743  2.3979  0.1838 -1.0782
 8337SOL    HW236648   0.062   3.048  10.677  0.2667  2.2142  0.1089
 8338SOL     OW36649   0.466   3.762   4.250 -0.1795 -0.6115 -0.1162
 8338SOL    HW136650   0.428   3.723   4.172 -1.7820  0.0062  0.3499
 8338SOL    HW236651   0.402   3.832   4.268 -0.2091 -0.1102 -2.1686
 8339SOL     OW36652   0.869   0.790   3.043 -0.3408  0.1097  0.4588
 8339SOL    HW136653   0.814   0.717   3.015  0.3223  0.6902 -2.2918
 8339SOL    HW236654   0.805   0.836   3.098 -0.7569  0.0178  0.0505
 8340SOL     OW36655   0.474   2.676   2.670  0.1827 -0.1773  0.2780
 8340SOL    HW136656   0.550   2.715   2.626  0.0762 -1.6141 -1.1782
 8340SOL    HW236657   0.405   2.714   2.616  0.8510  0.8288  0.1357
 8341SOL     OW36658   2.993   0.904   4.138 -0.1828 -0.8705 -0.2216
 8341SOL    HW136659   3.009   0.810   4.147  0.7129 -0.1899  5.1779
 8341SOL    HW236660   3.084   0.931   4.147 -0.3872 -0.7426  1.3737
 8342SOL     OW36661   1.277   1.775   8.219  0.0255 -0.1510 -0.2597
 8342SOL    HW136662   1.364   1.758   8.182 -0.8641  1.0139 -2.9380
 8342SOL    HW236663   1.296   1.761   8.311 -1.4864  1.8783  0.3567
 8343SOL     OW36664   3.586   3.298   7.346 -0.2799 -0.1100  0.4809
 8343SOL    HW136665   3.568   3.316   7.438 -0.4478  2.9517 -0.1374
 8343SOL    HW236666   3.667   3.249   7.332  1.6030  3.2801 -0.6201
 8344SOL     OW36667   3.267   0.065  15.058  0.0508 -0.2329  0.4890
 8344SOL    HW136668   3.267   0.156  15.087  0.1499 -0.4290  1.1115
 8344SOL    HW236669   3.207   0.027  15.122  0.9443 -0.7057  1.0524
 8345SOL     OW36670   1.801   0.309  10.914  0.2569  0.7480 -0.2736
 8345SOL    HW136671   1.799   0.403  10.896  1.1517  0.7086 -0.6082
 8345SOL    HW236672   1.895   0.289  10.912  0.2266  0.6696 -1.3008
 8346SOL     OW36673   0.598   1.836   6.777 -0.0437  0.7634  0.1573
 8346SOL    HW136674   0.601   1.746   6.810 -1.1994  0.8495  0.4928
 8346SOL    HW236675   0.687   1.852   6.746 -0.4649 -0.2786 -1.5923
 8347SOL     OW36676   1.284   2.761  12.579 -0.9115  0.6555 -0.0993
 8347SOL    HW136677   1.341   2.739  12.652 -0.8227  1.2037 -0.0007
 8347SOL    HW236678   1.316   2.700  12.513 -1.3575 -1.2833  1.5129
 8348SOL     OW36679   2.302   3.592   8.874  0.3663 -0.3266  0.0647
 8348SOL    HW136680   2.275   3.574   8.964  0.3488  1.2122  0.3803
 8348SOL    HW236681   2.387   3.629   8.896  0.6950 -2.1169  1.7695
 8349SOL     OW36682   3.978   0.985   1.205  0.4849 -0.5755  0.1796
 8349SOL    HW136683   3.941   0.904   1.239 -1.6006 -0.0493 -0.7925
 8349SOL    HW236684   3.953   0.987   1.113 -2.2400  1.0777  0.9292
 8350SOL     OW36685   0.014   3.837   5.068  0.2268 -0.3972  0.5410
 8350SOL    HW136686   0.022   3.820   4.974  0.1813  1.2956  0.2428
 8350SOL    HW236687   0.107   3.828   5.090  0.2436 -3.3064 -0.7281
 8351SOL     OW36688   0.865   2.181   3.642  0.1616 -0.1978 -0.0431
 8351SOL    HW136689   0.842   2.242   3.572  1.0112 -0.3481 -0.4581
 8351SOL    HW236690   0.942   2.224   3.681 -0.1970  0.7740 -0.3968
 8352SOL     OW36691   3.585   3.851   5.119  0.4426 -0.1762 -0.0195
 8352SOL    HW136692   3.646   3.896   5.177 -0.3823 -0.3719  1.0007
 8352SOL    HW236693   3.562   3.790   5.189  0.5380 -0.4850 -0.2582
 8353SOL     OW36694   4.343   0.603   3.744  0.0311 -0.1514 -0.3844
 8353SOL    HW136695   4.388   0.588   3.827 -0.9283 -2.5623 -0.2906
 8353SOL    HW236696   4.378   0.535   3.687 -0.3354 -1.1909  0.6006
 8354SOL     OW36697   4.085   0.253   7.744 -0.5977  0.4858  0.1456
 8354SOL    HW136698   4.121   0.165   7.750  2.5261  1.7577 -0.1507
 8354SOL    HW236699   4.023   0.249   7.671  1.3204  2.4179 -1.5900
 8355SOL     OW36700   3.456   3.040   3.213 -0.8445 -0.0478  0.1363
 8355SOL    HW136701   3.386   3.013   3.153 -0.0497 -0.6675 -0.5095
 8355SOL    HW236702   3.511   3.077   3.144  0.3658  0.4766  1.3941
 8356SOL     OW36703   2.409   3.227  16.496  0.5913 -0.0329 -0.0909
 8356SOL    HW136704   2.320   3.247  16.466  0.7042  2.5052  1.2971
 8356SOL    HW236705   2.454   3.203  16.415  1.3258  1.0274  0.0129
 8357SOL     OW36706   1.399   2.251   8.266 -0.1978  0.3291  0.4990
 8357SOL    HW136707   1.395   2.156   8.270  0.8815  0.2617 -0.0664
 8357SOL    HW236708   1.333   2.282   8.329 -1.7375 -2.7153  0.3593
 8358SOL     OW36709   3.880   0.545  15.529 -1.0407  0.2489 -0.5628
 8358SOL    HW136710   3.827   0.467  15.550 -1.6138  1.0624  0.9988
 8358SOL    HW236711   3.967   0.519  15.558 -1.7532 -1.2998  0.2373
 8359SOL     OW36712   4.477   3.137   8.744  0.1954 -0.0219  0.2761
 8359SOL    HW136713   4.409   3.099   8.689  0.2054 -0.1889  0.3803
 8359SOL    HW236714   4.428   3.195   8.802 -0.6948 -1.4039  0.8912
 8360SOL     OW36715   0.252   2.757   3.165 -0.3226 -0.5410  0.6148
 8360SOL    HW136716   0.273   2.669   3.197 -0.0585 -0.4371  0.7231
 8360SOL    HW236717   0.257   2.740   3.071 -0.8473 -0.7970  0.6331
 8361SOL     OW36718   2.630   0.992   2.780 -0.3928  0.1449  0.0393
 8361SOL    HW136719   2.663   1.031   2.861  0.0199 -0.9205  0.3798
 8361SOL    HW236720   2.690   1.021   2.712  0.8648 -0.0775  1.0532
 8362SOL     OW36721   2.187   2.555   3.015 -0.2449 -0.5697  0.5473
 8362SOL    HW136722   2.147   2.608   3.084  1.4390 -1.5036  2.2444
 8362SOL    HW236723   2.120   2.555   2.947  0.3632  1.3306 -0.0432
 8363SOL     OW36724   0.329   3.455   4.208  0.7616 -0.0554  0.3995
 8363SOL    HW136725   0.293   3.498   4.131  2.9823  0.9670 -0.0508
 8363SOL    HW236726   0.410   3.422   4.170  1.1896 -0.1284  1.3555
 8364SOL     OW36727   2.784   1.337   6.207  0.4734  0.9207 -0.9991
 8364SOL    HW136728   2.771   1.408   6.270  1.3447 -0.6248  0.9236
 8364SOL    HW236729   2.851   1.287   6.254  0.1702 -0.5056 -2.1051
 8365SOL     OW36730   2.485   1.761   8.301  0.8819  0.3523  0.6569
 8365SOL    HW136731   2.561   1.723   8.345 -0.7534 -2.6773  0.8880
 8365SOL    HW236732   2.522   1.848   8.292  3.0209 -0.6085  0.1607
 8366SOL     OW36733   0.811   0.141   3.525  0.0937 -0.0335  0.1460
 8366SOL    HW136734   0.874   0.150   3.596  0.7681  2.4108 -0.7646
 8366SOL    HW236735   0.851   0.200   3.461 -0.5212  1.2114  0.9041
 8367SOL     OW36736   2.450   4.183   1.123 -0.5272  0.0499  0.2370
 8367SOL    HW136737   2.503   4.184   1.202 -1.3190  2.1159  0.7522
 8367SOL    HW236738   2.421   4.093   1.112  0.5150 -0.1392 -0.8881
 8368SOL     OW36739   1.310   3.394   4.454  1.0645  0.4097 -0.1832
 8368SOL    HW136740   1.377   3.326   4.461 -2.0031 -2.8979 -2.9703
 8368SOL    HW236741   1.333   3.415   4.363  0.7180 -1.9315 -0.8122
 8369SOL     OW36742   2.383   0.406   7.724 -0.4500  0.3524 -0.2445
 8369SOL    HW136743   2.360   0.499   7.718  0.2474  0.5790  0.5888
 8369SOL    HW236744   2.410   0.392   7.815  1.1545  1.2075 -0.5780
 8370SOL     OW36745   0.430   2.711   5.999 -0.5580  0.4032 -0.2151
 8370SOL    HW136746   0.347   2.677   6.033  0.8115 -0.0500  2.7093
 8370SOL    HW236747   0.484   2.690   6.075  0.7993  0.7262 -1.0993
 8371SOL     OW36748   4.108   2.237   7.811  0.0036 -0.4422  0.5230
 8371SOL    HW136749   4.175   2.168   7.810  0.0679 -0.3540 -1.0614
 8371SOL    HW236750   4.029   2.190   7.838 -0.0442 -0.1103  0.9662
 8372SOL     OW36751   0.194   1.670   6.685  0.2265 -0.8421 -0.7260
 8372SOL    HW136752   0.280   1.628   6.689 -0.0797 -1.4005  0.0632
 8372SOL    HW236753   0.138   1.593   6.687 -0.7424 -0.1496 -1.4789
 8373SOL     OW36754   3.197   4.390   8.077  0.0900 -0.2544 -0.0936
 8373SOL    HW136755   3.201   4.485   8.089  0.5901 -0.3253  0.2408
 8373SOL    HW236756   3.282   4.358   8.104  1.4958  4.1989  0.6910
 8374SOL     OW36757   0.054   0.085   8.467  0.0677  0.2378 -0.2122
 8374SOL    HW136758   0.010   0.154   8.516 -1.6410 -0.8230 -0.2465
 8374SOL    HW236759   0.142   0.091   8.505 -0.3909 -1.4795  1.1490
 8375SOL     OW36760   3.489   0.674   7.862 -0.9978 -0.4213 -0.2912
 8375SOL    HW136761   3.578   0.639   7.863 -0.5409  0.7525  0.5355
 8375SOL    HW236762   3.449   0.591   7.837  1.5247 -2.0516  1.0385
 8376SOL     OW36763   1.433   4.349   2.235 -0.2427 -0.4670  0.2680
 8376SOL    HW136764   1.433   4.411   2.161 -0.7977  0.8671  1.3844
 8376SOL    HW236765   1.522   4.315   2.226  0.5452  1.7876 -0.6433
 8377SOL     OW36766   1.442   2.911  14.731  0.2890  0.0826 -0.1948
 8377SOL    HW136767   1.483   2.841  14.679 -1.3585 -0.4569 -0.7752
 8377SOL    HW236768   1.500   2.977  14.692 -2.4408  2.6039  0.0484
 8378SOL     OW36769   4.040   0.607  16.796 -0.2583 -0.4637  0.2430
 8378SOL    HW136770   4.112   0.653  16.754 -1.0669  1.2145  0.7142
 8378SOL    HW236771   3.988   0.682  16.824 -1.5912 -1.7475  1.1801
 8379SOL     OW36772   4.035   0.016  15.645  0.2254 -0.1913  0.0832
 8379SOL    HW136773   4.096   4.679  15.643  0.1404 -0.2030 -1.6465
 8379SOL    HW236774   4.046   0.053  15.558 -1.9750  0.8093  0.2364
 8380SOL     OW36775   0.729   2.536   2.423  0.0911  0.7112 -0.3613
 8380SOL    HW136776   0.716   2.611   2.480  1.2593  1.3194 -0.8777
 8380SOL    HW236777   0.638   2.520   2.400  0.5145 -0.6286 -1.1455
 8381SOL     OW36778   0.249   3.090   4.619 -0.0753 -0.0960 -0.1778
 8381SOL    HW136779   0.234   3.184   4.628 -3.4486 -0.8127  1.2962
 8381SOL    HW236780   0.199   3.051   4.690  0.3348 -1.3080 -0.5500
 8382SOL     OW36781   2.886   1.506  13.134 -0.2128 -0.2532 -0.9179
 8382SOL    HW136782   2.813   1.564  13.155 -0.2870  0.4745 -3.2064
 8382SOL    HW236783   2.876   1.454  13.214 -0.2410  1.0297 -0.1042
 8383SOL     OW36784   3.046   2.981   5.225  0.3620  0.7109  0.0309
 8383SOL    HW136785   3.079   3.025   5.147 -1.4097  3.6766  0.9829
 8383SOL    HW236786   3.016   3.055   5.278 -1.5211  1.1257 -1.5907
 8384SOL     OW36787   4.501   2.336   0.571 -0.1960 -0.2904 -0.3913
 8384SOL    HW136788   4.415   2.377   0.568 -0.7726 -1.3949  0.8303
 8384SOL    HW236789   4.546   2.371   0.495  1.6338  0.7347  1.1743
 8385SOL     OW36790   1.277   2.349  16.111 -0.8022  0.0595 -0.0743
 8385SOL    HW136791   1.315   2.296  16.181 -1.3260 -0.7777 -0.4166
 8385SOL    HW236792   1.256   2.434  16.149 -1.7281 -1.0257  1.8503
 8386SOL     OW36793   0.464   0.115  11.534 -0.3346 -0.5631 -0.5832
 8386SOL    HW136794   0.556   0.118  11.509 -0.5818 -2.5671 -1.7617
 8386SOL    HW236795   0.437   0.036  11.487 -1.1170  0.0996 -1.2463
 8387SOL     OW36796   2.906   0.472   0.816 -0.6599 -0.8291  0.2374
 8387SOL    HW136797   2.816   0.440   0.821 -0.3909 -1.4466  1.2013
 8387SOL    HW236798   2.897   0.556   0.771 -2.3034 -0.5791  1.0455
 8388SOL     OW36799   2.698   4.311   2.152  0.0876  0.7645 -0.4782
 8388SOL    HW136800   2.725   4.370   2.222 -0.7260 -2.1621  2.2744
 8388SOL    HW236801   2.689   4.375   2.081  2.3867  1.8118  0.2062
 8389SOL     OW36802   3.978   3.400   5.342 -0.2877  0.5971 -0.3420
 8389SOL    HW136803   3.937   3.343   5.276  1.9313 -1.5793  0.1664
 8389SOL    HW236804   4.043   3.339   5.375 -3.7189 -2.4054  0.8810
 8390SOL     OW36805   1.377   0.195   5.259  0.2182 -0.4515  0.5044
 8390SOL    HW136806   1.378   0.211   5.165 -1.0694 -1.5086  0.3119
 8390SOL    HW236807   1.360   0.284   5.289 -1.7118 -0.4228 -0.7292
 8391SOL     OW36808   0.025   0.609   2.653 -0.3663 -0.0153 -0.1047
 8391SOL    HW136809   4.735   0.573   2.737 -0.7781 -1.0368 -0.6819
 8391SOL    HW236810   0.095   0.547   2.630 -1.8663 -1.3135 -1.1648
 8392SOL     OW36811   0.133   2.995   8.537  0.7432 -0.1026 -0.3359
 8392SOL    HW136812   0.097   2.907   8.525 -3.0569  1.0843  2.3735
 8392SOL    HW236813   0.108   3.030   8.451 -2.0068 -1.3790 -0.0327
 8393SOL     OW36814   3.298   1.366   1.331  0.6960 -0.2552 -0.4872
 8393SOL    HW136815   3.352   1.437   1.298 -0.4190  0.7351 -0.1775
 8393SOL    HW236816   3.306   1.391   1.423 -0.7555  1.3176 -0.7970
 8394SOL     OW36817   0.454   4.159   2.775 -0.2143  0.1862 -0.2127
 8394SOL    HW136818   0.413   4.091   2.828 -0.0620 -1.1555 -1.8141
 8394SOL    HW236819   0.423   4.141   2.687 -0.4846  0.9077 -0.2636
 8395SOL     OW36820   2.650   0.632  16.551  0.1336  0.7108 -0.3993
 8395SOL    HW136821   2.617   0.721  16.534  0.5586  0.7605 -0.9720
 8395SOL    HW236822   2.688   0.606  16.467 -2.1013  0.8000 -1.4372
 8396SOL     OW36823   0.765   0.768   0.991 -0.8002  0.2623  0.2483
 8396SOL    HW136824   0.798   0.686   1.027  0.7358  1.5891  1.8377
 8396SOL    HW236825   0.688   0.741   0.940 -1.6669  0.2988  1.5155
 8397SOL     OW36826   4.722   3.381   2.739 -0.0822 -0.4052  0.4498
 8397SOL    HW136827   4.695   3.332   2.660 -2.3976  0.6713  0.5522
 8397SOL    HW236828   4.651   3.367   2.802  1.0430 -2.5074  1.2566
 8398SOL     OW36829   3.823   1.768  16.360 -0.3558 -0.0799  0.2271
 8398SOL    HW136830   3.817   1.777  16.455  0.4052 -2.9829  0.5471
 8398SOL    HW236831   3.907   1.809  16.340 -1.6362  2.2386 -0.3149
 8399SOL     OW36832   2.403   4.336  11.911 -0.1781 -0.9755  0.1481
 8399SOL    HW136833   2.496   4.351  11.894 -0.4890  0.0732 -0.6551
 8399SOL    HW236834   2.370   4.381  11.833  1.7969  2.4749  1.2663
 8400SOL     OW36835   3.584   0.613  10.546  0.0807 -0.2412  0.0729
 8400SOL    HW136836   3.583   0.521  10.575  2.6449 -0.4569 -0.5171
 8400SOL    HW236837   3.679   0.624  10.539  0.3858 -2.0383  1.2641
 8401SOL     OW36838   2.047   0.311  12.874 -0.3424 -0.5389  0.0884
 8401SOL    HW136839   2.140   0.318  12.855 -0.1892 -2.4891  0.0579
 8401SOL    HW236840   2.046   0.225  12.916  0.0899 -0.6222 -0.0727
 8402SOL     OW36841   1.280   2.671   3.052 -0.2008 -0.3921  0.3314
 8402SOL    HW136842   1.337   2.596   3.034 -0.8750 -0.4928 -1.2941
 8402SOL    HW236843   1.249   2.684   2.963  0.9420  0.5738  0.0765
 8403SOL     OW36844   2.280   0.154   5.100 -0.0927  0.2324  0.1658
 8403SOL    HW136845   2.279   0.249   5.097 -1.1132  0.2033 -0.2837
 8403SOL    HW236846   2.362   0.141   5.148  0.6646  2.8211 -0.4747
 8404SOL     OW36847   2.978   0.949   3.823  0.0319  0.1910 -0.1821
 8404SOL    HW136848   3.003   0.948   3.915  2.6250 -1.0671 -0.9033
 8404SOL    HW236849   2.903   0.891   3.829  1.7296 -1.7367  2.0366
 8405SOL     OW36850   4.184   3.066   8.380 -0.0805  0.4627  0.2222
 8405SOL    HW136851   4.192   3.016   8.461  2.4657  1.0348  0.3058
 8405SOL    HW236852   4.152   3.151   8.408  2.8211  1.4978  0.3964
 8406SOL     OW36853   1.568   0.094  13.937 -0.0182  0.1036  0.5341
 8406SOL    HW136854   1.610   0.133  13.860  1.7934  1.3163  2.1415
 8406SOL    HW236855   1.488   0.054  13.904  0.0577 -0.3747  0.9328
 8407SOL     OW36856   4.094   0.408  13.822  0.2302  0.6841  0.7100
 8407SOL    HW136857   4.062   0.468  13.890 -1.6465 -0.2762  0.6541
 8407SOL    HW236858   4.164   0.363  13.869 -0.2923 -0.2950  0.5392
 8408SOL     OW36859   2.072   0.327   8.454  0.0197 -0.1144 -0.0957
 8408SOL    HW136860   2.101   0.418   8.448 -1.2731  0.2432 -0.9835
 8408SOL    HW236861   1.995   0.327   8.396  2.3427  0.6053 -3.1741
 8409SOL     OW36862   4.469   3.883   3.764 -0.4030 -0.3526 -0.7190
 8409SOL    HW136863   4.377   3.901   3.748 -0.4036 -1.2455 -1.7027
 8409SOL    HW236864   4.515   3.912   3.685  3.8062  0.7401  2.0817
 8410SOL     OW36865   2.103   4.409   6.856 -0.0914 -0.2430  0.5306
 8410SOL    HW136866   2.155   4.489   6.867 -1.3714  0.6524  0.0456
 8410SOL    HW236867   2.169   4.341   6.849  0.6453  0.2977  2.1133
 8411SOL     OW36868   0.717   4.437   7.450 -0.6430 -0.6728 -0.9083
 8411SOL    HW136869   0.749   4.361   7.401 -2.0352 -0.3127 -2.3809
 8411SOL    HW236870   0.680   4.499   7.387 -1.3730 -1.1464 -0.9512
 8412SOL     OW36871   3.907   3.305  13.012 -0.2004  0.5094 -0.0431
 8412SOL    HW136872   3.820   3.346  13.019 -0.0352  0.6973  1.0198
 8412SOL    HW236873   3.952   3.370  12.958 -0.6358  0.9648  0.1308
 8413SOL     OW36874   1.924   1.266   0.909  0.3503  0.1706  1.3590
 8413SOL    HW136875   1.910   1.359   0.924 -0.7342  0.1048  0.7529
 8413SOL    HW236876   1.942   1.233   0.997 -0.5325 -3.3455  0.2362
 8414SOL     OW36877   1.373   2.743   6.085 -0.2555 -0.6554  0.1275
 8414SOL    HW136878   1.364   2.708   5.996  1.1411  1.2886 -0.7783
 8414SOL    HW236879   1.296   2.710   6.131  0.9240 -0.2594  2.4240
 8415SOL     OW36880   2.323   4.061   9.631 -1.0323  0.5935 -0.0885
 8415SOL    HW136881   2.291   4.149   9.610  0.8338  1.0829 -0.8503
 8415SOL    HW236882   2.331   4.066   9.726 -0.9003 -1.5759  0.0123
 8416SOL     OW36883   1.912   2.539   0.328  0.0187 -0.4478  0.8801
 8416SOL    HW136884   1.961   2.527   0.247 -1.9939 -1.9043 -0.1220
 8416SOL    HW236885   1.910   2.451   0.363 -2.1811 -2.0799 -3.3126
 8417SOL     OW36886   1.539   2.918   3.401  0.5069  0.8771  1.2630
 8417SOL    HW136887   1.634   2.920   3.387 -0.0493  3.4208 -1.9442
 8417SOL    HW236888   1.515   2.836   3.359 -2.6146  1.4823  1.8275
 8418SOL     OW36889   1.612   3.988  11.177 -0.2621  0.0943 -0.0168
 8418SOL    HW136890   1.602   4.022  11.088 -1.4838  2.6397  1.1143
 8418SOL    HW236891   1.704   3.962  11.170 -0.0330  0.5603  1.3551
 8419SOL     OW36892   1.029   0.771   4.571 -0.2737 -0.1532 -0.2389
 8419SOL    HW136893   0.984   0.823   4.639  0.2425  0.4862 -0.3846
 8419SOL    HW236894   0.999   0.682   4.587 -1.0783  0.0582 -0.5987
 8420SOL     OW36895   4.545   3.034  14.808 -0.2299  0.1300  0.3598
 8420SOL    HW136896   4.525   2.943  14.785  1.4635 -0.1278 -0.1281
 8420SOL    HW236897   4.533   3.062  14.717 -2.0295 -2.0561 -0.0788
 8421SOL     OW36898   1.653   0.999   4.511 -0.5578  0.5012  0.1957
 8421SOL    HW136899   1.698   1.083   4.507 -0.0647  0.2594  0.8138
 8421SOL    HW236900   1.696   0.959   4.435 -0.1888  0.8941  0.2028
 8422SOL     OW36901   2.963   0.134   3.077  0.2733 -0.1651 -0.4660
 8422SOL    HW136902   3.055   0.116   3.057  0.1164  1.1130 -2.3335
 8422SOL    HW236903   2.973   0.159   3.169 -0.7024 -0.7608 -0.2015
 8423SOL     OW36904   2.188   3.337  15.506 -0.5883 -0.4653 -0.0279
 8423SOL    HW136905   2.264   3.313  15.453 -0.8357  1.7816 -1.4093
 8423SOL    HW236906   2.188   3.431  15.486  0.0245 -0.6649 -0.9376
 8424SOL     OW36907   0.792   0.161   0.445  0.6372  0.1520  0.1489
 8424SOL    HW136908   0.817   0.207   0.365  2.6913 -0.6291  0.3373
 8424SOL    HW236909   0.847   0.083   0.445 -1.2890 -1.1765  0.8313
 8425SOL     OW36910   4.160   2.592   2.584  0.3258 -0.2686 -0.4181
 8425SOL    HW136911   4.128   2.620   2.499 -2.0946  0.0824  0.6224
 8425SOL    HW236912   4.111   2.512   2.600 -0.5444  0.5559  0.9847
 8426SOL     OW36913   3.613   3.109   3.008 -0.6180  0.1788 -0.3019
 8426SOL    HW136914   3.596   3.179   2.945  0.2326 -0.3121 -1.0580
 8426SOL    HW236915   3.627   3.036   2.948 -0.0492  0.3337 -0.3535
 8427SOL     OW36916   1.832   2.914   9.664  0.5189  0.0528 -0.0873
 8427SOL    HW136917   1.766   2.914   9.594  0.9741 -0.1328 -0.5151
 8427SOL    HW236918   1.912   2.919   9.613  0.2488  1.2702 -0.3788
 8428SOL     OW36919   2.797   1.354  10.114  0.2199 -0.7068 -0.4494
 8428SOL    HW136920   2.762   1.403  10.040 -1.7293  1.6034  1.9632
 8428SOL    HW236921   2.818   1.273  10.067  1.8504 -1.1137  0.9838
 8429SOL     OW36922   3.030   0.211   6.852  0.1270 -0.4622 -0.1152
 8429SOL    HW136923   2.964   0.155   6.891 -0.6646 -0.3955 -1.3664
 8429SOL    HW236924   3.110   0.161   6.872  0.2357 -0.4825 -0.5893
 8430SOL     OW36925   3.827   1.316   4.521  0.3900  0.2095  0.2281
 8430SOL    HW136926   3.885   1.278   4.455 -1.4662 -0.2728 -1.1131
 8430SOL    HW236927   3.785   1.232   4.538 -1.5515  1.4830  1.6257
 8431SOL     OW36928   2.491   4.725  10.170  0.3658 -0.0586 -0.4264
 8431SOL    HW136929   2.434   0.021  10.239 -1.0970 -1.3918 -0.9838
 8431SOL    HW236930   2.459   4.636  10.155 -0.0236  0.4119 -2.4137
 8432SOL     OW36931   0.658   3.555   0.478  0.0766  0.3309  0.1698
 8432SOL    HW136932   0.635   3.590   0.564 -2.1862 -1.8939  0.4691
 8432SOL    HW236933   0.625   3.623   0.420 -1.5149  0.3699  1.1319
 8433SOL     OW36934   1.605   0.607   6.153  0.4221  0.4509  0.1478
 8433SOL    HW136935   1.566   0.634   6.236 -1.7539 -1.2699 -0.3087
 8433SOL    HW236936   1.528   0.563   6.115 -0.5155  2.0949  0.1223
 8434SOL     OW36937   4.066   1.474   5.495 -0.2695  0.3993 -0.5149
 8434SOL    HW136938   4.011   1.508   5.424  0.2204 -0.7823 -1.4707
 8434SOL    HW236939   4.009   1.429   5.556  0.1485 -2.0187 -1.9057
 8435SOL     OW36940   2.146   2.344   0.755  0.6832 -0.5530  0.0671
 8435SOL    HW136941   2.053   2.322   0.750  0.9432 -0.8270 -3.7827
 8435SOL    HW236942   2.166   2.437   0.753 -1.6902 -0.0270  0.5366
 8436SOL     OW36943   3.410   0.292   4.012 -0.0687  0.6172 -0.9483
 8436SOL    HW136944   3.437   0.329   3.928  0.6561  1.3250 -0.4184
 8436SOL    HW236945   3.382   0.372   4.057 -0.4602  0.1063 -0.2851
 8437SOL     OW36946   4.052   1.518   8.019 -0.0181  0.0625 -0.8492
 8437SOL    HW136947   4.111   1.462   8.070 -2.9779 -1.3912  1.0176
 8437SOL    HW236948   4.034   1.472   7.938 -2.4075 -1.5574  0.5972
 8438SOL     OW36949   2.546   2.963   6.069 -0.1051 -0.1145 -0.8494
 8438SOL    HW136950   2.570   2.925   6.154 -2.5334  0.5844  0.1602
 8438SOL    HW236951   2.618   2.921   6.022  1.2593  1.1462  0.1170
 8439SOL     OW36952   4.322   4.025   3.420 -0.3089 -0.0911 -0.0238
 8439SOL    HW136953   4.405   3.979   3.406 -0.7406 -1.3125  1.5053
 8439SOL    HW236954   4.260   3.971   3.371 -0.3918  0.4559 -0.5137
 8440SOL     OW36955   2.249   4.113   2.231 -0.2279  0.2645  0.6481
 8440SOL    HW136956   2.228   4.144   2.319 -3.3855  1.7920 -0.6334
 8440SOL    HW236957   2.344   4.123   2.222 -0.6298  2.8317 -0.8393
 8441SOL     OW36958   4.282   3.457   1.870 -0.0897 -0.3050  0.0650
 8441SOL    HW136959   4.266   3.533   1.926  2.4593 -0.5873  1.1696
 8441SOL    HW236960   4.240   3.472   1.786  0.3091 -1.6216 -0.3646
 8442SOL     OW36961   2.805   3.872   5.615  0.2174  0.2303  0.4507
 8442SOL    HW136962   2.713   3.846   5.612 -0.4322  2.4713  0.5185
 8442SOL    HW236963   2.796   3.950   5.669 -0.7198  0.7586 -0.4509
 8443SOL     OW36964   1.123   0.750   8.517  0.6882  0.4176  0.0640
 8443SOL    HW136965   1.107   0.681   8.581 -0.9878  0.3123 -0.4518
 8443SOL    HW236966   1.187   0.707   8.461  1.6875 -0.2551  1.7449
 8444SOL     OW36967   0.895   2.714   7.889  0.3014  0.3582 -1.0871
 8444SOL    HW136968   0.905   2.648   7.820 -0.7545 -0.1856 -0.7167
 8444SOL    HW236969   0.835   2.667   7.947  0.1572  1.0972 -0.6304
 8445SOL     OW36970   4.213   0.426   3.991  0.0386  0.2307 -0.0229
 8445SOL    HW136971   4.253   0.345   3.960  0.8260 -0.9842  4.1535
 8445SOL    HW236972   4.294   0.473   4.014  0.5155 -0.2613 -0.6971
 8446SOL     OW36973   0.724   4.592  11.970  0.2536  0.0970 -1.0952
 8446SOL    HW136974   0.665   4.517  11.956 -0.2544  0.1376  0.7914
 8446SOL    HW236975   0.768   4.606  11.887 -0.1029  0.0690 -1.2916
 8447SOL     OW36976   3.828   3.377   5.061 -0.5537 -0.0213  0.2993
 8447SOL    HW136977   3.921   3.384   5.039 -0.6673  0.1557 -0.1369
 8447SOL    HW236978   3.800   3.468   5.053 -0.3527 -0.0308 -0.5228
 8448SOL     OW36979   4.710   3.222   2.073  0.1466  0.0637 -0.2923
 8448SOL    HW136980   4.642   3.271   2.028 -0.7211  0.3845  1.3815
 8448SOL    HW236981   0.026   3.218   1.993  2.0732  0.6933  0.9498
 8449SOL     OW36982   0.232   1.126   7.252  0.1915 -0.0941  0.7822
 8449SOL    HW136983   0.160   1.131   7.189  0.2174 -0.8020  0.6962
 8449SOL    HW236984   0.232   1.215   7.287 -1.2831  1.2962 -2.7831
 8450SOL     OW36985   1.414   3.265   5.442  0.4823 -0.4531 -0.2472
 8450SOL    HW136986   1.414   3.169   5.451 -2.8117 -0.3129  1.3931
 8450SOL    HW236987   1.435   3.285   5.351 -0.9313  2.0754 -0.0308
 8451SOL     OW36988   1.303   0.452  11.715 -0.2565 -0.0214 -0.4685
 8451SOL    HW136989   1.325   0.371  11.669 -1.7893 -0.9605  0.4405
 8451SOL    HW236990   1.242   0.497  11.656  1.1491  1.4420 -0.7902
 8452SOL     OW36991   1.644   2.111   5.516  0.2998  0.4004  0.3631
 8452SOL    HW136992   1.625   2.202   5.538  1.3003 -0.1372  3.3656
 8452SOL    HW236993   1.555   2.078   5.529  0.4293  0.1415  0.6038
 8453SOL     OW36994   1.747   3.105   1.288  0.4906 -0.1711 -0.0868
 8453SOL    HW136995   1.717   3.039   1.224  0.6225 -0.0894 -0.2328
 8453SOL    HW236996   1.752   3.052   1.368  2.3744 -1.2551 -0.9089
 8454SOL     OW36997   1.339   2.923   8.678 -0.1316  0.2920 -0.3629
 8454SOL    HW136998   1.294   2.973   8.610 -0.7627 -0.6882 -0.6741
 8454SOL    HW236999   1.418   2.975   8.688  0.1516 -0.1067 -0.5627
 8455SOL     OW37000   1.335   2.527  10.672  0.4285 -0.0721  0.5537
 8455SOL    HW137001   1.396   2.600  10.676 -0.6552  0.8663 -0.0502
 8455SOL    HW237002   1.394   2.455  10.696 -0.1132 -0.5017  0.5969
 8456SOL     OW37003   3.905   2.856   1.612 -0.5343  0.1878 -0.1566
 8456SOL    HW137004   3.852   2.777   1.600 -1.8758  0.8109  1.7078
 8456SOL    HW237005   3.833   2.906   1.650  0.5646  2.5298 -1.1740
 8457SOL     OW37006   2.163   4.299  13.380 -0.5573 -0.1993 -0.9003
 8457SOL    HW137007   2.074   4.296  13.416 -0.1676 -0.9927 -0.0154
 8457SOL    HW237008   2.176   4.394  13.384 -0.4666 -0.3248  1.5636
 8458SOL     OW37009   2.461   4.081   2.604  0.0546  0.0013 -0.2814
 8458SOL    HW137010   2.376   4.107   2.567  0.2266  3.8404  2.0282
 8458SOL    HW237011   2.518   4.052   2.532 -0.7888 -1.0728 -0.5286
 8459SOL     OW37012   0.916   2.121   6.088  0.2060  0.7082 -0.4865
 8459SOL    HW137013   0.964   2.110   6.005 -0.1233 -3.0107 -0.1619
 8459SOL    HW237014   0.826   2.112   6.057  0.1598  1.5819 -0.6256
 8460SOL     OW37015   3.974   3.035   3.158  0.2596 -0.5762  0.5603
 8460SOL    HW137016   4.002   3.031   3.250  1.5093  1.7054  0.2628
 8460SOL    HW237017   4.001   2.944   3.147 -2.3151 -1.3386  0.4278
 8461SOL     OW37018   3.307   3.069   2.278 -0.0172  0.6736  0.0532
 8461SOL    HW137019   3.228   3.110   2.242  1.2905  2.9717 -0.1961
 8461SOL    HW237020   3.275   3.067   2.368  1.1372  0.5607  0.4533
 8462SOL     OW37021   3.292   2.303   3.317  0.5081  0.0653  0.1525
 8462SOL    HW137022   3.265   2.394   3.307 -3.9038 -1.3349 -0.5309
 8462SOL    HW237023   3.352   2.307   3.392  1.3340  1.0501 -0.5416
 8463SOL     OW37024   0.051   0.296   7.712  0.2385  0.2870  0.3452
 8463SOL    HW137025   0.109   0.229   7.747 -0.4118  0.7365  2.2750
 8463SOL    HW237026   0.087   0.381   7.738  0.3923 -0.1822  1.6608
 8464SOL     OW37027   3.539   2.871   5.929  0.2723  0.7170  0.2249
 8464SOL    HW137028   3.603   2.927   5.885 -0.7612  0.9096 -0.9984
 8464SOL    HW237029   3.569   2.877   6.020 -0.5637  3.0567  0.3590
 8465SOL     OW37030   2.891   2.004   2.386  0.0565 -0.3909 -0.1542
 8465SOL    HW137031   2.889   2.100   2.378  2.7194 -0.2931  0.2440
 8465SOL    HW237032   2.951   2.013   2.459  1.6941  0.9574 -1.6543
 8466SOL     OW37033   3.046   1.848   1.258  0.0095 -0.0249 -0.5704
 8466SOL    HW137034   2.957   1.833   1.291  0.2789  1.2335  0.6950
 8466SOL    HW237035   3.041   1.822   1.166 -0.7675  0.1323 -0.5735
 8467SOL     OW37036   4.053   4.544   9.027 -0.0015  0.9028 -0.1889
 8467SOL    HW137037   3.987   4.479   9.004 -2.9159  2.2731  4.2220
 8467SOL    HW237038   4.004   4.625   9.016 -1.3483  0.3466  1.6329
 8468SOL     OW37039   4.244   2.853   7.476 -0.4385  0.1297  0.5281
 8468SOL    HW137040   4.338   2.867   7.468 -0.5433  1.6180  1.9013
 8468SOL    HW237041   4.198   2.928   7.438  0.7665  0.2287 -0.7345
 8469SOL     OW37042   0.745   2.668  12.701 -0.5373 -0.6885  0.4676
 8469SOL    HW137043   0.799   2.746  12.714 -0.7650 -0.6911  1.4576
 8469SOL    HW237044   0.679   2.672  12.770  0.4440 -0.2100  1.3698
 8470SOL     OW37045   3.477   1.420  12.243 -0.2542  0.1158 -0.3247
 8470SOL    HW137046   3.414   1.464  12.185 -0.5273  2.3819  1.7163
 8470SOL    HW237047   3.555   1.450  12.196  0.9775 -3.1020 -0.2775
 8471SOL     OW37048   3.332   0.148   2.769  0.0920  0.3607 -0.1084
 8471SOL    HW137049   3.245   0.109   2.759 -0.1411  0.6310  0.8475
 8471SOL    HW237050   3.348   0.148   2.675 -0.2241  0.4991 -0.1616
 8472SOL     OW37051   1.105   3.594  11.698  0.1496  0.1679 -0.1456
 8472SOL    HW137052   1.126   3.531  11.767 -0.1287  0.8949  0.6103
 8472SOL    HW237053   1.184   3.648  11.709 -0.1740  0.5768  0.2111
 8473SOL     OW37054   4.002   4.129   3.220  0.9813  0.1716 -0.6188
 8473SOL    HW137055   4.032   4.040   3.240 -0.2728 -0.2007 -0.3923
 8473SOL    HW237056   3.919   4.100   3.183  0.5705  0.6875 -0.1036
 8474SOL     OW37057   0.166   3.502   1.718 -0.1651  0.5672 -0.0138
 8474SOL    HW137058   0.095   3.557   1.749 -0.1831 -0.2709  1.4579
 8474SOL    HW237059   0.130   3.414   1.702  2.7074 -0.6765  0.3092
 8475SOL     OW37060   3.995   3.979   1.860  0.0753  0.0431  0.0970
 8475SOL    HW137061   3.905   3.975   1.892  0.3620  0.3019  0.9538
 8475SOL    HW237062   4.042   3.949   1.938 -0.7163 -3.0984 -0.6595
 8476SOL     OW37063   2.344   0.434   4.151 -0.3513 -0.5574  0.1193
 8476SOL    HW137064   2.436   0.452   4.133 -0.1466 -0.3504  1.3201
 8476SOL    HW237065   2.316   0.416   4.062 -0.7352 -2.5375  0.6427
 8477SOL     OW37066   3.867   1.443   7.251  0.1522 -0.8743  0.3268
 8477SOL    HW137067   3.801   1.399   7.306 -0.2479 -1.4169 -0.5978
 8477SOL    HW237068   3.919   1.492   7.315  1.1908 -2.3294  0.6078
 8478SOL     OW37069   1.103   3.314   0.652 -0.4102 -0.4923 -0.1451
 8478SOL    HW137070   1.028   3.258   0.634 -0.1499 -1.6840  2.4826
 8478SOL    HW237071   1.176   3.262   0.617  0.6991 -0.0230  1.4895
 8479SOL     OW37072   3.634   0.919   4.283 -0.2263  0.0088 -0.0746
 8479SOL    HW137073   3.542   0.894   4.293 -0.1396 -0.1019  0.4760
 8479SOL    HW237074   3.675   0.858   4.345  1.1001  1.8893  0.9125
 8480SOL     OW37075   1.494   1.767  17.559  0.5525 -0.0709 -0.3705
 8480SOL    HW137076   1.551   1.694  17.534  1.7702  0.9966 -0.7459
 8480SOL    HW237077   1.522   1.777  17.650  2.5416 -1.4668 -0.8399
 8481SOL     OW37078   2.565   2.220   5.622 -0.2509 -0.4238  0.8366
 8481SOL    HW137079   2.554   2.188   5.533  3.0765  0.0466  0.2554
 8481SOL    HW237080   2.481   2.193   5.659  0.7939 -1.8906  2.1404
 8482SOL     OW37081   0.357   3.190   6.324 -0.0930 -0.4973 -0.4655
 8482SOL    HW137082   0.328   3.264   6.271 -0.4086 -0.6279 -0.4741
 8482SOL    HW237083   0.411   3.139   6.264  0.6424  0.5769 -0.7269
 8483SOL     OW37084   3.523   1.104   0.842  0.1371 -0.4875 -0.3200
 8483SOL    HW137085   3.594   1.050   0.877  1.3867  1.6969  0.4975
 8483SOL    HW237086   3.457   1.090   0.910  0.5845 -0.6825  0.0746
 8484SOL     OW37087   4.297   4.045  16.301 -0.1762 -0.3895 -0.1782
 8484SOL    HW137088   4.358   4.094  16.245 -0.2732  1.8241  1.6662
 8484SOL    HW237089   4.247   4.120  16.335  1.4355  0.3630  0.5403
 8485SOL     OW37090   2.597   2.552   6.950 -0.5023  0.2596 -0.6774
 8485SOL    HW137091   2.505   2.525   6.945  0.0676 -1.9630  1.0101
 8485SOL    HW237092   2.589   2.647   6.948 -0.5734  0.3010  1.3595
 8486SOL     OW37093   1.126   0.329   1.806 -0.4610  0.0569  0.0271
 8486SOL    HW137094   1.197   0.309   1.745 -0.2109  0.8294  0.0626
 8486SOL    HW237095   1.083   0.410   1.776  1.7225  0.3286 -2.3756
 8487SOL     OW37096   1.743   2.759  12.792 -0.0740  0.0440 -0.2521
 8487SOL    HW137097   1.711   2.764  12.882  0.1221 -0.6612 -0.1451
 8487SOL    HW237098   1.809   2.694  12.814 -1.0014 -1.0839 -0.8028
 8488SOL     OW37099   1.790   2.516  16.885 -0.5089 -0.3295 -0.0208
 8488SOL    HW137100   1.718   2.461  16.852 -0.5638 -0.3132  0.0717
 8488SOL    HW237101   1.837   2.552  16.810 -0.2741  0.3263  0.4483
 8489SOL     OW37102   0.865   0.900  10.385 -0.3923 -0.6066  0.0803
 8489SOL    HW137103   0.850   0.978  10.438  3.0007 -1.8415  2.9159
 8489SOL    HW237104   0.960   0.885  10.383 -0.5749 -1.8884  1.2414
 8490SOL     OW37105   2.649   1.663  13.147  0.5318  0.5601 -0.4050
 8490SOL    HW137106   2.559   1.653  13.176  1.2321 -3.5170  0.3231
 8490SOL    HW237107   2.667   1.753  13.174 -0.0359  0.0014  1.8299
 8491SOL     OW37108   1.215   4.604   0.211 -0.2368  0.2120  0.1585
 8491SOL    HW137109   1.188   4.572   0.125  0.3691  0.4797 -0.1319
 8491SOL    HW237110   1.183   4.534   0.268  0.0747 -1.4958 -1.8109
 8492SOL     OW37111   3.225   1.316  11.643  0.1527 -0.7879  0.0723
 8492SOL    HW137112   3.243   1.223  11.626  0.3309 -1.3048  3.1683
 8492SOL    HW237113   3.132   1.311  11.665 -0.1305  1.1074 -0.7265
 8493SOL     OW37114   1.363   3.868  13.424 -0.1019  0.1576 -0.0063
 8493SOL    HW137115   1.427   3.808  13.384  1.8826  1.4739  1.1627
 8493SOL    HW237116   1.288   3.872  13.365 -0.1739 -0.8854 -0.0013
 8494SOL     OW37117   1.453   4.604  12.254 -0.5134 -0.5525 -0.0420
 8494SOL    HW137118   1.365   4.581  12.224 -0.5471  0.2918 -0.5959
 8494SOL    HW237119   1.500   4.585  12.173  2.3378  0.3778  1.3793
 8495SOL     OW37120   3.072   4.008   8.525  0.0485  0.2134 -0.3273
 8495SOL    HW137121   3.086   4.067   8.451  0.8656  0.2789 -0.1198
 8495SOL    HW237122   2.996   3.956   8.501 -0.3046  0.3387  0.4902
 8496SOL     OW37123   0.104   1.954   9.425 -0.0907 -1.1553 -0.1974
 8496SOL    HW137124   0.115   2.033   9.478 -3.4069 -0.4505 -0.5457
 8496SOL    HW237125   0.101   1.997   9.340 -0.8750 -1.4937 -0.3397
 8497SOL     OW37126   0.846   1.745   6.048 -0.1496  0.0647  0.9145
 8497SOL    HW137127   0.836   1.666   6.102 -1.4971 -0.1895  0.2926
 8497SOL    HW237128   0.919   1.789   6.091  0.1618  0.2715  0.1771
 8498SOL     OW37129   0.301   4.165  14.952 -0.2799 -0.3297 -0.6972
 8498SOL    HW137130   0.357   4.179  15.029  1.7653 -0.3029 -2.1800
 8498SOL    HW237131   0.299   4.259  14.936  0.1203  0.4300  3.6708
 8499SOL     OW37132   1.863   0.156   3.358 -0.2305 -0.0626  0.2075
 8499SOL    HW137133   1.950   0.194   3.352 -1.4741  3.3128  3.5511
 8499SOL    HW237134   1.858   0.118   3.270  1.6664 -3.1977  1.4596
 8500SOL     OW37135   1.842   3.682   6.582  0.5343  0.0522  0.5174
 8500SOL    HW137136   1.900   3.732   6.526 -0.5057 -1.4984 -1.9408
 8500SOL    HW237137   1.856   3.728   6.665 -2.9110  0.7920  0.6856
 8501SOL     OW37138   3.907   4.125   6.386 -0.6717  0.4084 -0.4257
 8501SOL    HW137139   3.932   4.157   6.472  0.4530 -2.5194  0.3400
 8501SOL    HW237140   3.953   4.041   6.395  1.1053  1.3278 -0.8588
 8502SOL     OW37141   2.226   0.169   4.235 -0.0088 -0.0955  0.1696
 8502SOL    HW137142   2.278   0.250   4.233  0.2444 -0.3046 -2.0479
 8502SOL    HW237143   2.238   0.130   4.149 -1.1339  0.9233 -0.4539
 8503SOL     OW37144   2.661   4.162  12.333 -0.4121  0.3971  0.2987
 8503SOL    HW137145   2.718   4.096  12.372 -0.4766  2.2337  3.4431
 8503SOL    HW237146   2.580   4.112  12.321 -0.4041  0.4512  0.0161
 8504SOL     OW37147   1.636   0.449  13.985  0.0550  0.3824  0.3462
 8504SOL    HW137148   1.685   0.385  13.934  0.4756  0.1300  1.0652
 8504SOL    HW237149   1.609   0.513  13.919 -0.2365 -0.1307 -0.0350
 8505SOL     OW37150   0.588   1.889  16.430 -0.0278  0.4873  0.6053
 8505SOL    HW137151   0.598   1.829  16.503  1.2650 -0.1792 -0.1193
 8505SOL    HW237152   0.654   1.957  16.445  0.3390  0.3483 -0.3588
 8506SOL     OW37153   4.149   1.611   3.468 -0.6834  0.1680  0.5259
 8506SOL    HW137154   4.172   1.603   3.375  1.0875 -2.4878  1.2048
 8506SOL    HW237155   4.167   1.528   3.512 -1.8766  0.4173  1.4960
 8507SOL     OW37156   4.735   0.088   5.138  0.1195 -0.3890 -0.7151
 8507SOL    HW137157   4.641   0.104   5.151  0.8307  1.9348  1.3523
 8507SOL    HW237158   4.730   0.040   5.055 -2.0452 -1.9522  0.3048
 8508SOL     OW37159   1.279   1.085  11.721 -0.5010 -0.0369 -0.1974
 8508SOL    HW137160   1.222   1.107  11.647 -0.4237  1.6908  0.2647
 8508SOL    HW237161   1.233   1.144  11.781  1.7126  1.7565 -0.3150
 8509SOL     OW37162   0.460   3.006   5.666  0.0430  0.0217 -0.5567
 8509SOL    HW137163   0.439   3.056   5.745 -0.8240  1.0989 -1.4699
 8509SOL    HW237164   0.404   2.929   5.671  0.8427 -0.3915  2.1042
 8510SOL     OW37165   4.119   0.126   1.085 -0.2936 -0.3944 -0.3826
 8510SOL    HW137166   4.083   0.205   1.046  0.5622 -2.1412 -4.6290
 8510SOL    HW237167   4.096   0.130   1.178 -0.5875  1.2286 -0.5357
 8511SOL     OW37168   2.082   3.417   2.490  0.0812  0.0781  0.1040
 8511SOL    HW137169   2.130   3.450   2.414 -0.7150 -1.7782 -1.1925
 8511SOL    HW237170   2.041   3.339   2.453 -0.2404  0.4643 -0.3455
 8512SOL     OW37171   2.442   2.458   3.455  1.0110 -0.0978 -0.2325
 8512SOL    HW137172   2.528   2.418   3.465  0.4527 -0.7865  1.8385
 8512SOL    HW237173   2.425   2.491   3.543  1.1042  0.0977 -0.2876
 8513SOL     OW37174   4.098   3.111   4.670  0.2127 -0.6756  0.4430
 8513SOL    HW137175   4.177   3.148   4.630 -1.0517  0.7259 -0.7758
 8513SOL    HW237176   4.037   3.182   4.649  0.5900  0.0151  1.7145
 8514SOL     OW37177   3.705   3.236   5.964 -0.2900  0.5381 -0.0091
 8514SOL    HW137178   3.644   3.307   5.985 -0.4787  0.2516  0.4112
 8514SOL    HW237179   3.686   3.180   6.040 -0.9025  0.0235 -0.5455
 8515SOL     OW37180   1.195   0.383  11.971 -0.0167  0.6977 -0.6195
 8515SOL    HW137181   1.254   0.383  11.896 -1.0473  3.5281 -1.4085
 8515SOL    HW237182   1.242   0.317  12.023  0.8486  1.3180 -0.6144
 8516SOL     OW37183   2.818   3.244   6.246  0.4358  0.2124  0.0874
 8516SOL    HW137184   2.753   3.278   6.184 -0.5399 -3.3980 -0.8735
 8516SOL    HW237185   2.835   3.153   6.223 -1.2743  0.0692 -0.6415
 8517SOL     OW37186   3.684   2.836   4.249  0.2871 -0.4052 -0.3361
 8517SOL    HW137187   3.743   2.910   4.233  2.4406 -1.7962  1.1651
 8517SOL    HW237188   3.743   2.765   4.224 -1.4652 -0.7766 -3.3557
 8518SOL     OW37189   1.183   4.690   0.954  0.1396 -0.2901  0.4685
 8518SOL    HW137190   1.133   4.610   0.963  0.5534 -0.2320  3.2348
 8518SOL    HW237191   1.120   0.023   0.941 -0.5864 -1.1693 -0.6936
 8519SOL     OW37192   3.451   3.112   4.385  0.2860  0.1562  0.0709
 8519SOL    HW137193   3.387   3.168   4.429  0.1522 -1.0064  1.3418
 8519SOL    HW237194   3.409   3.124   4.299  3.7892 -1.7138 -1.9012
 8520SOL     OW37195   2.696   0.447   1.463 -0.7196  0.2055  0.1704
 8520SOL    HW137196   2.637   0.404   1.525 -0.1598 -0.0785  0.5124
 8520SOL    HW237197   2.779   0.452   1.512 -1.6227 -1.6598  1.8680
 8521SOL     OW37198   2.757   3.246   9.036 -0.0319 -0.2184 -0.1092
 8521SOL    HW137199   2.833   3.215   9.086  0.2014 -0.7188 -0.7654
 8521SOL    HW237200   2.696   3.190   9.083 -0.1771 -0.8622 -1.0713
 8522SOL     OW37201   4.534   0.750   5.134  0.5321 -0.4991  0.4465
 8522SOL    HW137202   4.586   0.717   5.208 -0.2058 -0.1155  1.1336
 8522SOL    HW237203   4.444   0.735   5.162 -0.0942  1.4155 -0.5588
 8523SOL     OW37204   4.065   0.518   6.058  0.2009  0.1683 -0.2901
 8523SOL    HW137205   4.055   0.449   5.992  0.8240 -0.0484 -0.1586
 8523SOL    HW237206   3.986   0.571   6.046 -0.5499 -0.8842 -0.0663
 8524SOL     OW37207   0.662   0.433   4.544  0.1135  0.3352  0.1466
 8524SOL    HW137208   0.654   0.415   4.638 -3.8286 -0.0756 -0.2688
 8524SOL    HW237209   0.710   0.360   4.505 -2.4284 -1.6515  0.7081
 8525SOL     OW37210   0.528   1.617  14.787  0.0068  0.1611  0.5226
 8525SOL    HW137211   0.461   1.673  14.747 -0.2437  1.0314  2.1779
 8525SOL    HW237212   0.584   1.683  14.827  0.2924 -1.5880  2.9908
 8526SOL     OW37213   1.078   0.576   2.757 -0.4270  0.7947  0.0580
 8526SOL    HW137214   1.001   0.564   2.701 -2.2417 -2.1829  3.2573
 8526SOL    HW237215   1.128   0.496   2.743  2.4550  2.7977 -1.3692
 8527SOL     OW37216   4.378   2.949  10.023  0.3575 -0.2698  0.2286
 8527SOL    HW137217   4.299   3.003  10.017  0.8337  0.4140  0.1066
 8527SOL    HW237218   4.441   3.017  10.047  0.1848 -0.0666  0.0969
 8528SOL     OW37219   4.435   3.989   9.700  0.4966  0.1973  0.2246
 8528SOL    HW137220   4.380   4.067   9.696  2.3945  1.4657 -0.8199
 8528SOL    HW237221   4.455   3.978   9.607  1.0291 -1.2644  0.5184
 8529SOL     OW37222   3.692   4.348  10.343  0.4993 -0.0604 -0.0231
 8529SOL    HW137223   3.740   4.376  10.421 -1.2970  1.1396  0.6555
 8529SOL    HW237224   3.624   4.295  10.385 -1.2196  2.4107  0.2913
 8530SOL     OW37225   3.252   1.836  10.660 -0.8792  0.0426 -0.4383
 8530SOL    HW137226   3.227   1.920  10.699  0.5973  0.3890 -0.2159
 8530SOL    HW237227   3.348   1.841  10.655 -0.9017  0.6911 -0.3051
 8531SOL     OW37228   3.779   4.470   3.387  0.4443  0.1616  0.0460
 8531SOL    HW137229   3.701   4.521   3.364 -0.1911 -1.3524 -1.2032
 8531SOL    HW237230   3.822   4.518   3.458  0.3589  1.9633 -1.1128
 8532SOL     OW37231   4.492   4.301   7.008 -0.6220  0.1834  0.1269
 8532SOL    HW137232   4.568   4.334   7.057  0.3402  0.6357 -1.6745
 8532SOL    HW237233   4.510   4.341   6.923 -1.1937  1.8579  0.7808
 8533SOL     OW37234   4.653   2.674  13.642 -0.0895 -0.5845 -0.5597
 8533SOL    HW137235   4.589   2.604  13.630  1.6946 -2.1446 -1.1519
 8533SOL    HW237236   4.607   2.746  13.600  0.2581 -0.6406 -1.0347
 8534SOL     OW37237   3.975   0.447   9.051  0.4297 -0.5069  0.3112
 8534SOL    HW137238   4.069   0.439   9.067  0.1789 -0.0591  1.9809
 8534SOL    HW237239   3.974   0.452   8.955 -0.3764  0.1278  0.3536
 8535SOL     OW37240   1.455   4.401  15.531 -0.7300  0.4082  0.1842
 8535SOL    HW137241   1.444   4.397  15.436  1.0972  1.8669 -0.0906
 8535SOL    HW237242   1.503   4.320  15.547  1.2482  1.3743 -0.9159
 8536SOL     OW37243   3.950   3.769   4.449  0.2147 -0.2488 -0.2901
 8536SOL    HW137244   3.861   3.786   4.479  1.0061  1.9112  0.7950
 8536SOL    HW237245   4.007   3.813   4.511  0.2256  1.8228 -1.8044
 8537SOL     OW37246   1.136   3.858   3.983 -0.7385  0.1366 -0.0430
 8537SOL    HW137247   1.228   3.839   3.961 -0.4327  0.2378  1.1724
 8537SOL    HW237248   1.134   3.945   3.942 -0.3089  0.3600  0.4055
 8538SOL     OW37249   2.439   0.008  15.608 -0.4624  0.2813 -0.2213
 8538SOL    HW137250   2.439   0.070  15.681  1.2080  1.3004 -1.0648
 8538SOL    HW237251   2.347   4.722  15.619 -0.1246 -1.2313 -0.6670
 8539SOL     OW37252   0.251   2.134   8.677 -0.2177 -0.1653  0.2341
 8539SOL    HW137253   0.283   2.161   8.591 -0.2902  0.0525  0.2751
 8539SOL    HW237254   0.163   2.100   8.659  0.1986 -0.7122 -0.7457
 8540SOL     OW37255   1.315   2.985   6.922 -0.0297 -0.1113  0.8175
 8540SOL    HW137256   1.318   2.906   6.977 -1.5783  0.9696  2.4613
 8540SOL    HW237257   1.319   2.939   6.838 -0.8930  1.8001 -0.2731
 8541SOL     OW37258   0.517   3.000   8.787 -0.0293  0.0411 -0.0358
 8541SOL    HW137259   0.461   3.021   8.862  0.4887  0.0654  0.3474
 8541SOL    HW237260   0.588   2.965   8.841 -0.4063 -0.7296 -0.0498
 8542SOL     OW37261   1.434   1.687  14.122  0.6656  0.2162  0.1508
 8542SOL    HW137262   1.431   1.688  14.218 -1.7040 -1.5094  0.1022
 8542SOL    HW237263   1.425   1.593  14.107  4.2756 -0.1787  0.3803
 8543SOL     OW37264   2.226   1.932   8.571 -0.2358  0.3683  0.1292
 8543SOL    HW137265   2.250   2.018   8.606 -3.0479  0.9548  0.5762
 8543SOL    HW237266   2.263   1.938   8.483  0.1385 -2.8307  0.0807
 8544SOL     OW37267   2.402   1.544   3.365 -0.1006  0.2238  0.0812
 8544SOL    HW137268   2.469   1.592   3.413 -1.0721  1.3861  0.2868
 8544SOL    HW237269   2.454   1.469   3.336  2.4261  1.5744  1.1169
 8545SOL     OW37270   2.521   1.103   8.794 -0.0812 -0.3062 -0.5255
 8545SOL    HW137271   2.491   1.106   8.885  2.3618 -0.5186  0.2708
 8545SOL    HW237272   2.480   1.181   8.757 -0.2243 -1.3255 -2.4837
 8546SOL     OW37273   1.120   0.413   9.288 -0.8853  0.2885  0.3432
 8546SOL    HW137274   1.080   0.326   9.279 -3.1290  1.2564  1.1931
 8546SOL    HW237275   1.109   0.430   9.381  0.5549  2.5299  0.0807
 8547SOL     OW37276   3.202   1.029   2.802  0.2633 -0.5103  0.2100
 8547SOL    HW137277   3.186   1.114   2.763 -0.8953 -1.9013 -2.3609
 8547SOL    HW237278   3.294   1.004   2.791  0.7148  1.3664 -0.2478
 8548SOL     OW37279   3.135   4.683   8.300 -0.4392  0.2072  0.0331
 8548SOL    HW137280   3.112   4.714   8.388 -0.4314  1.0437 -0.2624
 8548SOL    HW237281   3.186   4.606   8.327  2.9253  2.4845  0.2081
 8549SOL     OW37282   4.538   3.670  13.489 -0.5694  0.1989  0.3937
 8549SOL    HW137283   4.527   3.704  13.400 -0.5247 -1.9818 -0.4327
 8549SOL    HW237284   4.472   3.717  13.541  0.9606  0.1094  2.4121
 8550SOL     OW37285   4.411   2.300  16.767 -0.0288  0.4455 -0.0596
 8550SOL    HW137286   4.372   2.251  16.840  1.8740  0.1579  0.7929
 8550SOL    HW237287   4.500   2.269  16.783  0.3016  1.5621  0.2623
 8551SOL     OW37288   2.559   0.666  14.974 -0.6933  0.8555  0.1419
 8551SOL    HW137289   2.612   0.646  14.897 -0.6709  0.7698  0.1793
 8551SOL    HW237290   2.493   0.598  14.981  0.3918  0.0475  2.5626
 8552SOL     OW37291   1.268   4.641  12.027 -0.2970  0.5968  0.0097
 8552SOL    HW137292   1.195   4.627  11.967 -2.1553  1.1418  2.1440
 8552SOL    HW237293   1.327   4.573  11.995 -0.3544  2.0207 -3.1532
 8553SOL     OW37294   3.348   3.069  16.727 -0.1881  0.0634 -0.1031
 8553SOL    HW137295   3.370   3.070  16.820  1.6678  1.7001 -0.5634
 8553SOL    HW237296   3.383   3.154  16.698 -0.4303  1.2444  3.0540
 8554SOL     OW37297   2.373   3.946  14.300 -0.0398 -0.0954  0.5109
 8554SOL    HW137298   2.290   3.994  14.310 -0.5641 -1.1545  1.2545
 8554SOL    HW237299   2.397   3.929  14.391  0.2506 -1.0220  0.2588
 8555SOL     OW37300   0.007   0.534   6.924 -0.1953  0.1803 -0.2740
 8555SOL    HW137301   0.015   0.495   6.837  0.4646 -0.9698  0.3045
 8555SOL    HW237302   0.090   0.575   6.947 -0.6665  0.0896  1.6030
 8556SOL     OW37303   2.440   0.135  14.148  0.0981  0.1896 -0.2581
 8556SOL    HW137304   2.380   0.082  14.201  2.6390 -3.5039 -1.0914
 8556SOL    HW237305   2.411   0.114  14.059 -1.8204 -1.0076  0.6393
 8557SOL     OW37306   3.079   0.452  15.059  0.4916  0.3181  0.1083
 8557SOL    HW137307   3.066   0.546  15.070  1.9306  0.7726 -2.1714
 8557SOL    HW237308   2.988   0.429  15.042  0.5874 -0.1952  0.2847
 8558SOL     OW37309   3.777   1.718   9.693  0.5948  0.5112  0.2730
 8558SOL    HW137310   3.722   1.791   9.723 -0.3402 -0.1379  0.1578
 8558SOL    HW237311   3.864   1.753   9.710 -0.2761  3.4402 -1.1969
 8559SOL     OW37312   4.141   4.243   7.662 -0.2593  0.1039 -0.4382
 8559SOL    HW137313   4.197   4.284   7.597  0.6358  2.2169  1.6626
 8559SOL    HW237314   4.191   4.256   7.743  2.0726  0.5896 -1.9568
 8560SOL     OW37315   0.492   2.175   6.805  0.7164 -0.1127  0.0751
 8560SOL    HW137316   0.583   2.148   6.796  0.7544 -0.8474  2.6030
 8560SOL    HW237317   0.459   2.183   6.716  2.9279 -0.0697 -0.7422
 8561SOL     OW37318   2.236   2.164   3.290 -0.0963  0.0336 -0.6367
 8561SOL    HW137319   2.192   2.121   3.364  0.5791  0.1039 -0.1926
 8561SOL    HW237320   2.308   2.104   3.271 -1.4731 -1.5691 -0.8216
 8562SOL     OW37321   0.967   3.965   9.083 -0.2614 -0.3101 -0.0970
 8562SOL    HW137322   0.901   3.896   9.085 -0.1741 -0.4637 -2.1301
 8562SOL    HW237323   1.040   3.903   9.074 -1.2819 -1.7035  1.2164
 8563SOL     OW37324   0.917   2.732   1.852 -0.1559  0.3334  0.2287
 8563SOL    HW137325   0.992   2.716   1.795 -1.0737 -0.3113 -0.8050
 8563SOL    HW237326   0.930   2.656   1.909 -1.4200  0.8545  1.2040
 8564SOL     OW37327   3.709   4.492  16.815 -0.2436 -0.1832 -0.2208
 8564SOL    HW137328   3.770   4.564  16.836 -1.4792  0.5074  1.0043
 8564SOL    HW237329   3.623   4.533  16.823 -0.2443  0.0015 -1.2134
 8565SOL     OW37330   2.692   3.130   5.861  0.4082 -0.2769  0.6919
 8565SOL    HW137331   2.614   3.115   5.808  1.7821 -1.6449 -0.9515
 8565SOL    HW237332   2.714   3.222   5.845  1.0222 -0.6776 -0.7455
 8566SOL     OW37333   2.331   3.324   7.739 -0.7101  0.0912  0.1600
 8566SOL    HW137334   2.392   3.327   7.664 -0.2715 -1.8097  0.4581
 8566SOL    HW237335   2.264   3.385   7.706 -0.7854 -0.4808 -0.7561
 8567SOL     OW37336   4.011   2.809   8.341  0.1132 -0.1023  0.2385
 8567SOL    HW137337   3.994   2.890   8.293 -0.5004 -0.7381 -0.6409
 8567SOL    HW237338   3.980   2.740   8.281  0.3217  0.0784 -0.0784
 8568SOL     OW37339   2.737   2.513  13.978 -0.3114  0.5935  0.4388
 8568SOL    HW137340   2.734   2.443  14.043  0.7704  0.4993  0.3946
 8568SOL    HW237341   2.802   2.478  13.917 -0.2927  1.9286 -0.2989
 8569SOL     OW37342   2.135   3.799  16.689 -0.1100  0.6206 -0.1158
 8569SOL    HW137343   2.220   3.765  16.662 -1.2549 -0.6689 -2.0879
 8569SOL    HW237344   2.120   3.740  16.762 -1.3550  0.9640 -0.0850
 8570SOL     OW37345   2.874   1.196   5.144 -0.4940 -0.2757  0.2862
 8570SOL    HW137346   2.783   1.225   5.152 -0.1577  1.4995 -2.2445
 8570SOL    HW237347   2.914   1.191   5.231  1.1669  0.8814 -0.3992
 8571SOL     OW37348   1.196   0.501   9.062 -0.3727  0.2662 -0.4886
 8571SOL    HW137349   1.219   0.421   9.015  0.2044  0.0322  0.1862
 8571SOL    HW237350   1.180   0.460   9.147 -0.0984  1.2060  0.0145
 8572SOL     OW37351   2.400   0.154  15.844  0.0980 -0.3336 -0.2444
 8572SOL    HW137352   2.413   0.218  15.914 -1.4954 -1.8846  1.4436
 8572SOL    HW237353   2.396   0.067  15.884  0.6968 -0.0292  0.4806
 8573SOL     OW37354   0.919   3.974  14.939 -0.2729 -0.1676 -0.5322
 8573SOL    HW137355   0.941   4.063  14.966  1.9049 -0.7533 -0.4001
 8573SOL    HW237356   1.004   3.931  14.930 -0.3008  0.1496 -2.3320
 8574SOL     OW37357   3.991   0.944   2.630 -0.7825 -0.4065  0.2031
 8574SOL    HW137358   3.961   1.006   2.697 -1.0878 -2.3176  1.8129
 8574SOL    HW237359   3.993   0.861   2.677  0.4580  0.4699  1.6960
 8575SOL     OW37360   3.211   4.019   5.278 -0.2721  0.1277  0.0534
 8575SOL    HW137361   3.284   4.073   5.246  0.8643 -0.7135  1.2312
 8575SOL    HW237362   3.138   4.080   5.281  0.7600  1.4073 -0.7545
 8576SOL     OW37363   1.843   3.365  10.908 -0.8622 -0.0713 -0.5833
 8576SOL    HW137364   1.870   3.304  10.839 -0.8410  0.8312 -1.3733
 8576SOL    HW237365   1.762   3.393  10.866 -0.0364  0.8099 -1.5743
 8577SOL     OW37366   3.063   1.860   3.526  0.2925 -0.4560  0.0903
 8577SOL    HW137367   3.142   1.812   3.552  0.5518 -1.4861 -2.6139
 8577SOL    HW237368   3.102   1.946   3.515  0.6226 -0.6707 -0.4572
 8578SOL     OW37369   0.403   3.477   9.276 -0.6295  0.5082  0.3614
 8578SOL    HW137370   0.494   3.456   9.255  0.0034 -1.3439  4.9711
 8578SOL    HW237371   0.365   3.469   9.188 -0.3200 -0.2828  0.3048
 8579SOL     OW37372   3.671   0.055   9.346  0.4794  0.1874  0.0840
 8579SOL    HW137373   3.685   0.005   9.266  0.8459  0.7365 -0.1905
 8579SOL    HW237374   3.627   4.719   9.389 -0.1808  0.5523  0.0363
 8580SOL     OW37375   2.134   3.468   4.450  0.5478 -0.4216  0.0889
 8580SOL    HW137376   2.153   3.389   4.399 -1.8331  0.5434 -2.2567
 8580SOL    HW237377   2.131   3.428   4.537 -2.8243 -0.8879 -0.2691
 8581SOL     OW37378   1.728   1.019  17.213  0.0155 -0.7303  0.0474
 8581SOL    HW137379   1.703   0.974  17.132 -0.2040  0.8146 -0.7358
 8581SOL    HW237380   1.749   1.107  17.181  0.9039 -0.8344  0.3347
 8582SOL     OW37381   4.664   3.311   5.598 -0.5069  0.0376  0.2166
 8582SOL    HW137382   4.579   3.354   5.594 -0.2487  0.7944  3.0587
 8582SOL    HW237383   4.650   3.232   5.546  1.8864 -0.3616  0.1378
 8583SOL     OW37384   4.182   0.161  13.002 -0.6309 -0.0108  0.2643
 8583SOL    HW137385   4.184   0.086  13.062 -2.8383  0.0096  0.3725
 8583SOL    HW237386   4.094   0.196  13.018 -0.6542 -0.5421  1.2954
 8584SOL     OW37387   3.440   3.580   2.627 -0.2361 -0.3067 -0.7549
 8584SOL    HW137388   3.501   3.615   2.692 -1.5780  0.2253  0.2215
 8584SOL    HW237389   3.498   3.554   2.555  0.1741  1.0486 -0.9098
 8585SOL     OW37390   1.110   2.702   9.561 -0.1871 -0.2414 -0.4850
 8585SOL    HW137391   1.076   2.689   9.650 -0.6549 -0.3202 -0.6784
 8585SOL    HW237392   1.049   2.659   9.502 -0.1604  0.0935 -0.7589
 8586SOL     OW37393   0.856   0.371  11.122 -0.1957  0.0350 -0.0498
 8586SOL    HW137394   0.790   0.319  11.076 -0.3561 -0.2465  0.5008
 8586SOL    HW237395   0.803   0.433  11.173  0.0761  1.2783 -1.2934
 8587SOL     OW37396   0.471   0.380   9.908 -0.0013  0.4023 -0.3964
 8587SOL    HW137397   0.392   0.366   9.856 -0.1852  0.1755 -0.0595
 8587SOL    HW237398   0.461   0.306   9.967  0.0970 -0.5102 -1.5229
 8588SOL     OW37399   1.781   2.987   6.883  0.3055 -0.3173 -0.4496
 8588SOL    HW137400   1.772   2.919   6.816  0.0705 -0.6004 -0.1297
 8588SOL    HW237401   1.872   2.981   6.914  0.2826 -0.1848 -0.3564
 8589SOL     OW37402   0.584   0.393  12.550  0.4222 -0.4644 -0.6156
 8589SOL    HW137403   0.567   0.305  12.517 -0.5148  0.1562 -1.8341
 8589SOL    HW237404   0.577   0.444  12.469  0.9484 -0.3255 -0.5716
 8590SOL     OW37405   1.372   1.759   2.162  0.5388 -0.1079  0.1996
 8590SOL    HW137406   1.289   1.757   2.115  1.2151  0.6530 -1.0365
 8590SOL    HW237407   1.352   1.692   2.227  2.0285 -0.2254  0.5400
 8591SOL     OW37408   1.155   3.764   9.095 -0.6791  0.3245 -0.4886
 8591SOL    HW137409   1.165   3.741   9.003  0.3223 -0.2417 -0.2332
 8591SOL    HW237410   1.121   3.679   9.123  3.2515 -1.2637 -0.4961
 8592SOL     OW37411   0.188   0.870   1.260 -0.6381 -0.0898  0.1209
 8592SOL    HW137412   0.257   0.874   1.194  1.6977 -0.0982  2.5409
 8592SOL    HW237413   0.190   0.957   1.301 -1.8582  0.4780 -1.0381
 8593SOL     OW37414   3.582   3.292   9.251  0.2473  0.5145  0.0767
 8593SOL    HW137415   3.661   3.242   9.230 -0.3313 -0.4491  0.1994
 8593SOL    HW237416   3.588   3.290   9.347  1.5236  0.0366 -0.0090
 8594SOL     OW37417   3.133   1.078   9.097 -0.2688 -0.1762  0.7415
 8594SOL    HW137418   3.109   1.167   9.122  2.5648  1.1908 -1.4057
 8594SOL    HW237419   3.187   1.052   9.172  1.3665  0.4422 -0.2294
 8595SOL     OW37420   0.486   1.839   3.184  0.4018  0.2869  0.1395
 8595SOL    HW137421   0.514   1.908   3.124  0.4377 -1.9265 -2.3834
 8595SOL    HW237422   0.550   1.770   3.162  1.1435  1.6688 -2.0500
 8596SOL     OW37423   3.747   0.769   4.036  0.6692  0.3229 -0.0372
 8596SOL    HW137424   3.686   0.792   4.106 -0.6062 -1.8853 -0.4260
 8596SOL    HW237425   3.773   0.682   4.066 -0.1697  0.1442  0.1601
 8597SOL     OW37426   3.224   1.773   7.308  0.6370  0.5061  0.5252
 8597SOL    HW137427   3.210   1.751   7.400 -2.4429 -1.4937 -0.3953
 8597SOL    HW237428   3.287   1.845   7.313  0.9500  0.5867 -4.1173
 8598SOL     OW37429   3.919   3.391   2.181 -0.0219 -0.0617  0.1703
 8598SOL    HW137430   3.966   3.352   2.107  0.3219 -0.0771  0.3967
 8598SOL    HW237431   3.849   3.442   2.141 -0.7580  0.1439  1.7166
 8599SOL     OW37432   0.853   1.759  17.647  0.5264 -0.3691 -0.0577
 8599SOL    HW137433   0.775   1.728  17.600  1.1334 -0.7157 -0.8329
 8599SOL    HW237434   0.921   1.712  17.599  1.0180  0.2459  0.0385
 8600SOL     OW37435   2.143   3.501  11.393 -0.2899 -0.1036  0.4905
 8600SOL    HW137436   2.141   3.595  11.405  1.4030 -0.1808  1.3928
 8600SOL    HW237437   2.109   3.471  11.478 -0.0048 -0.0710  0.6161
 8601SOL     OW37438   0.483   4.273   7.416  0.6141 -0.6613  0.2201
 8601SOL    HW137439   0.437   4.190   7.410 -0.5831  0.0230 -0.0620
 8601SOL    HW237440   0.552   4.255   7.480  1.0092  1.1341  0.3181
 8602SOL     OW37441   2.261   4.353   7.088  0.0198 -0.0308 -0.0281
 8602SOL    HW137442   2.279   4.301   7.010 -4.0017 -1.7376  0.1515
 8602SOL    HW237443   2.290   4.298   7.160 -3.6261  0.4020  1.8075
 8603SOL     OW37444   1.875   2.960  14.350  0.0478  0.1387 -0.1354
 8603SOL    HW137445   1.802   2.905  14.323 -0.9119  1.6001 -0.5254
 8603SOL    HW237446   1.834   3.046  14.340  0.1861  0.1444 -0.6631
 8604SOL     OW37447   4.058   3.279  17.289  0.0513 -0.1030  0.2572
 8604SOL    HW137448   4.133   3.317  17.243 -0.2663 -0.6246 -0.6979
 8604SOL    HW237449   4.032   3.215  17.222 -1.0870 -0.0541  0.6463
 8605SOL     OW37450   3.298   0.559   6.872 -0.3371 -0.0024 -0.4386
 8605SOL    HW137451   3.222   0.501   6.879 -1.4965  1.6475  0.6287
 8605SOL    HW237452   3.284   0.619   6.945  0.9610  0.1586 -0.3170
 8606SOL     OW37453   2.447   2.737   5.050 -0.0424 -0.3680 -0.2345
 8606SOL    HW137454   2.507   2.699   5.114  0.5731  0.4115 -0.3497
 8606SOL    HW237455   2.508   2.765   4.982  1.0586 -1.3359  0.3607
 8607SOL     OW37456   0.164   3.406   4.603  0.1531  0.2308 -0.0059
 8607SOL    HW137457   0.152   3.390   4.509 -0.1631  1.1409 -0.1270
 8607SOL    HW237458   0.238   3.466   4.592  1.3458 -1.3820 -0.7617
 8608SOL     OW37459   0.450   1.139   4.953 -0.0668  0.2393  0.0757
 8608SOL    HW137460   0.377   1.112   4.897  1.4967 -0.1149 -1.8001
 8608SOL    HW237461   0.524   1.130   4.893  1.7809  0.2958  2.3230
 8609SOL     OW37462   0.761   0.399  14.682  0.0682  0.4686 -0.0035
 8609SOL    HW137463   0.682   0.386  14.629 -0.0456  0.6086  0.1295
 8609SOL    HW237464   0.811   0.347  14.619 -0.1478  1.0071 -0.6237
 8610SOL     OW37465   2.229   4.235   9.065  0.0608  0.2526  0.3036
 8610SOL    HW137466   2.170   4.309   9.083  0.6122  0.2943  1.9635
 8610SOL    HW237467   2.258   4.208   9.152  1.5636 -1.0505 -0.6149
 8611SOL     OW37468   4.268   1.094   7.442  0.0731 -0.2509 -0.0630
 8611SOL    HW137469   4.315   1.131   7.516 -2.2717  0.7076  0.9508
 8611SOL    HW237470   4.272   1.002   7.465 -1.4380 -0.9281 -2.4553
 8612SOL     OW37471   3.333   2.488   9.577 -0.4773  0.2355  0.2032
 8612SOL    HW137472   3.419   2.447   9.590  0.3176  1.0911 -2.3953
 8612SOL    HW237473   3.337   2.562   9.636 -0.5926 -0.4263  1.0430
 8613SOL     OW37474   3.747   1.016  12.500  0.4338  0.0671 -0.4792
 8613SOL    HW137475   3.745   0.960  12.422  1.1591  0.8435 -1.0460
 8613SOL    HW237476   3.833   1.054  12.485 -0.4854  2.1955 -0.3657
 8614SOL     OW37477   1.108   2.392   9.196  0.1566  0.9093 -0.2394
 8614SOL    HW137478   1.123   2.424   9.285 -0.7126  2.1059 -0.5182
 8614SOL    HW237479   1.120   2.299   9.211 -2.5023  0.1452 -2.9175
 8615SOL     OW37480   1.878   3.623   1.134 -0.5025  0.4171  0.1980
 8615SOL    HW137481   1.840   3.535   1.146 -1.3218  0.4449 -2.2471
 8615SOL    HW237482   1.968   3.606   1.162 -0.0616  0.3841 -1.2721
 8616SOL     OW37483   0.215   3.314   3.129 -0.0466 -0.0399 -0.8682
 8616SOL    HW137484   0.284   3.293   3.191  1.2376 -1.2846 -2.7046
 8616SOL    HW237485   0.226   3.233   3.079 -3.4836 -0.8676 -0.3349
 8617SOL     OW37486   4.495   3.215  15.178 -0.2641 -0.4467 -0.0980
 8617SOL    HW137487   4.581   3.220  15.219 -1.6152 -0.6475  2.8017
 8617SOL    HW237488   4.507   3.185  15.089 -1.3782 -0.7718 -0.1402
 8618SOL     OW37489   3.870   1.028   9.036  0.3988  0.0081 -0.6629
 8618SOL    HW137490   3.942   0.965   9.045 -1.1470 -1.6574 -0.0133
 8618SOL    HW237491   3.919   1.101   9.074  0.5732 -0.2074 -0.4667
 8619SOL     OW37492   0.320   1.596   4.215  1.0258 -0.1003  0.6423
 8619SOL    HW137493   0.408   1.609   4.180  0.4156 -0.5901 -1.0892
 8619SOL    HW237494   0.277   1.646   4.146 -1.2351 -3.0788 -0.1436
 8620SOL     OW37495   2.591   0.147   5.715  0.5945  0.3809  0.5772
 8620SOL    HW137496   2.617   0.219   5.658  2.2323  0.2790  1.1853
 8620SOL    HW237497   2.584   0.078   5.649  2.7490 -0.6266  1.3918
 8621SOL     OW37498   1.924   1.191  10.075 -0.3316  0.5898 -0.2091
 8621SOL    HW137499   1.850   1.217  10.130 -1.7555 -0.8267 -1.4626
 8621SOL    HW237500   1.891   1.124  10.016 -2.9394  2.9744 -1.4727
 8622SOL     OW37501   3.008   0.729  15.086  0.2550  0.0721  0.4742
 8622SOL    HW137502   2.936   0.775  15.129 -1.2940  0.3957 -2.4397
 8622SOL    HW237503   3.051   0.807  15.052 -0.5939  1.0042  1.5267
 8623SOL     OW37504   0.104   3.107   5.840  0.3880 -0.1698 -0.3330
 8623SOL    HW137505   0.097   3.047   5.765  1.4488 -1.5008  0.6268
 8623SOL    HW237506   0.199   3.119   5.848 -0.1060  2.6452  0.9484
 8624SOL     OW37507   0.739   1.013   2.865  0.2005 -0.7542  0.3246
 8624SOL    HW137508   0.709   1.014   2.956  2.1682 -2.7371  0.9823
 8624SOL    HW237509   0.797   1.089   2.862  0.7336 -1.2048 -1.0639
 8625SOL     OW37510   2.053   1.696   1.080  0.1180  0.1391  0.2165
 8625SOL    HW137511   1.988   1.764   1.094  0.9296  0.4587  2.3823
 8625SOL    HW237512   2.115   1.729   1.145 -0.1674 -1.3024  1.2188
 8626SOL     OW37513   2.350   2.346  14.028  0.2796 -0.3360 -0.0597
 8626SOL    HW137514   2.264   2.381  14.052  1.8282  1.3732  3.0819
 8626SOL    HW237515   2.405   2.415  14.065  0.1907  0.7072 -1.9112
 8627SOL     OW37516   4.519   1.616   2.585 -0.1028 -0.3320  0.4894
 8627SOL    HW137517   4.464   1.546   2.620 -0.3987 -0.5425 -0.3992
 8627SOL    HW237518   4.590   1.609   2.649  0.5779  0.7420 -0.1557
 8628SOL     OW37519   4.520   1.742  15.723 -0.0065 -0.2071  0.1503
 8628SOL    HW137520   4.556   1.655  15.741 -1.1172 -0.7468 -0.2357
 8628SOL    HW237521   4.550   1.755  15.633  1.6291 -3.3505  0.2153
 8629SOL     OW37522   3.227   1.837   2.682  0.1945  0.0352 -0.1522
 8629SOL    HW137523   3.178   1.869   2.606  0.3064  0.6931  0.0539
 8629SOL    HW237524   3.158   1.842   2.748  2.8165  2.0274  2.4084
 8630SOL     OW37525   3.975   4.735   5.642 -0.2914  0.1420  0.1009
 8630SOL    HW137526   3.888   0.016   5.609 -0.3535  1.0283  0.7639
 8630SOL    HW237527   4.024   0.074   5.612  0.8912 -0.4368  0.5066
 8631SOL     OW37528   3.096   4.272  16.036 -0.7176 -0.0564 -0.1920
 8631SOL    HW137529   3.100   4.339  15.969 -1.6701 -0.1935 -0.3890
 8631SOL    HW237530   3.171   4.218  16.010 -0.5845  1.5828 -3.2143
 8632SOL     OW37531   1.853   3.719  11.564  0.1378  0.1497 -0.2798
 8632SOL    HW137532   1.931   3.724  11.509 -0.5342  1.1843 -1.1278
 8632SOL    HW237533   1.780   3.709  11.503 -1.4459  0.3159  1.5769
 8633SOL     OW37534   1.899   3.571   6.000  0.1192 -0.4409  0.2779
 8633SOL    HW137535   1.823   3.547   6.053  1.4684 -1.7642  1.6329
 8633SOL    HW237536   1.891   3.504   5.932 -3.5736 -1.0950  1.3434
 8634SOL     OW37537   2.254   1.554   7.001  0.2953  0.5492  0.1105
 8634SOL    HW137538   2.179   1.612   6.986 -1.0710 -0.9132  1.2441
 8634SOL    HW237539   2.206   1.477   6.971  0.5880  0.2703  0.3518
 8635SOL     OW37540   2.447   4.184   5.749  0.0468 -0.0371  0.5469
 8635SOL    HW137541   2.421   4.193   5.841  1.3826  1.5598  0.7871
 8635SOL    HW237542   2.381   4.124   5.715 -2.5930  2.0738  1.9090
 8636SOL     OW37543   2.531   4.000   8.475 -0.1537  0.5675  0.2415
 8636SOL    HW137544   2.533   3.982   8.569 -0.6505 -0.0756  0.1269
 8636SOL    HW237545   2.440   4.006   8.447  0.1481  0.6047 -0.7415
 8637SOL     OW37546   1.417   0.478   6.587 -0.2008  0.3621 -0.3591
 8637SOL    HW137547   1.330   0.484   6.627  0.6540  0.5740  1.4916
 8637SOL    HW237548   1.467   0.538   6.643 -1.0604 -0.8015  1.6523
 8638SOL     OW37549   3.321   2.502   0.188  0.6876  0.0911 -0.0015
 8638SOL    HW137550   3.301   2.428   0.245 -0.4013  1.2394  1.1495
 8638SOL    HW237551   3.402   2.483   0.141  0.5911 -0.3087  0.0018
 8639SOL     OW37552   3.106   1.345   8.343  0.5792  0.4207  0.2289
 8639SOL    HW137553   3.176   1.289   8.376  1.3853 -0.5227 -3.0737
 8639SOL    HW237554   3.072   1.374   8.427 -0.1785 -1.0487  0.4408
 8640SOL     OW37555   4.023   1.828   6.643 -0.2639  0.8566  0.2868
 8640SOL    HW137556   4.068   1.745   6.658 -0.7359  0.8161  1.4483
 8640SOL    HW237557   3.950   1.829   6.704  0.2803 -3.2601  0.9930
 8641SOL     OW37558   3.105   2.690   8.195  0.2862  0.0701  0.2105
 8641SOL    HW137559   3.159   2.628   8.147 -0.5290 -0.4677 -0.0169
 8641SOL    HW237560   3.171   2.755   8.218  1.6344 -0.8232 -1.1472
 8642SOL     OW37561   0.221   0.204   5.013  0.3753 -0.2230 -0.2449
 8642SOL    HW137562   0.148   0.171   5.065 -0.9229 -1.0533 -2.5963
 8642SOL    HW237563   0.188   0.290   4.991  2.2357  0.0963 -1.7337
 8643SOL     OW37564   4.652   0.016  11.440  0.4407  0.2832  0.9124
 8643SOL    HW137565   4.618   4.674  11.482 -1.5615  0.6325 -0.0150
 8643SOL    HW237566   4.647   0.069  11.520 -2.1089  0.5394  0.5827
 8644SOL     OW37567   1.515   1.275   7.439 -0.3538 -0.3641  0.4424
 8644SOL    HW137568   1.465   1.193   7.442  0.3251 -0.7425  1.5565
 8644SOL    HW237569   1.515   1.307   7.529  0.3353  0.0824  0.2825
 8645SOL     OW37570   1.828   0.741   8.058 -0.1329  0.1412 -0.2015
 8645SOL    HW137571   1.797   0.729   7.968  0.7857  0.4256 -0.5508
 8645SOL    HW237572   1.814   0.836   8.062 -0.5256  0.1013 -0.6335
 8646SOL     OW37573   4.503   0.865  12.840 -0.4362 -0.1129 -0.0579
 8646SOL    HW137574   4.508   0.900  12.751  0.6918 -0.8660 -0.2958
 8646SOL    HW237575   4.520   0.773  12.822  1.3500 -0.3703  2.8927
 8647SOL     OW37576   1.345   1.596   4.884 -0.2555 -0.3089  0.0111
 8647SOL    HW137577   1.318   1.511   4.848  2.5878 -0.7834 -0.9808
 8647SOL    HW237578   1.414   1.572   4.946 -0.8009  0.6350  0.9905
 8648SOL     OW37579   1.034   1.731  12.498  0.0709 -0.2750 -0.3887
 8648SOL    HW137580   0.980   1.770  12.430  1.0933  1.7616 -0.0459
 8648SOL    HW237581   1.023   1.788  12.575 -2.0383  0.6874 -1.4071
 8649SOL     OW37582   3.686   0.471   4.120  0.7498 -0.1835  0.3349
 8649SOL    HW137583   3.715   0.475   4.212 -0.2081  1.6703  0.5462
 8649SOL    HW237584   3.590   0.471   4.123  0.7836  0.6109  1.2627
 8650SOL     OW37585   3.295   3.505   3.348  0.2434 -0.1688  0.5862
 8650SOL    HW137586   3.325   3.442   3.282  0.2058 -0.5167  0.9034
 8650SOL    HW237587   3.374   3.541   3.388 -1.3149  2.0065  1.7084
 8651SOL     OW37588   2.500   1.430   3.037 -0.0256 -0.1178 -0.0159
 8651SOL    HW137589   2.585   1.466   3.062 -0.2179 -0.0688  0.5642
 8651SOL    HW237590   2.465   1.493   2.974 -1.6578  1.1477  2.1432
 8652SOL     OW37591   4.611   1.215   3.426 -0.1631  0.0903  0.1647
 8652SOL    HW137592   4.622   1.128   3.466 -1.2450 -0.2250 -0.2292
 8652SOL    HW237593   4.654   1.267   3.493 -1.9191  0.0964  1.2725
 8653SOL     OW37594   0.573   3.614  13.130 -0.4372  0.3819  0.0969
 8653SOL    HW137595   0.593   3.698  13.089  0.2905  1.0346  1.7801
 8653SOL    HW237596   0.656   3.567  13.136 -0.2339  0.5468 -1.4241
 8654SOL     OW37597   3.074   0.514  12.717  0.1708  0.0576  0.0325
 8654SOL    HW137598   2.999   0.455  12.705 -1.7779  2.0026  2.6113
 8654SOL    HW237599   3.040   0.601  12.694 -1.3223 -1.4528 -3.5285
 8655SOL     OW37600   1.119   0.916  10.434  0.1507  0.0422  0.3158
 8655SOL    HW137601   1.164   0.996  10.409 -2.2837  1.3483  0.1839
 8655SOL    HW237602   1.103   0.936  10.526 -0.4127  1.9765 -0.2135
 8656SOL     OW37603   0.082   3.162   6.924 -0.7136 -0.1268  0.2468
 8656SOL    HW137604   0.027   3.181   7.000  0.3843  3.4959  0.1275
 8656SOL    HW237605   0.117   3.082   6.962  1.2164  0.7376  0.2895
 8657SOL     OW37606   0.821   3.829  12.712 -0.4630  0.8600  0.2615
 8657SOL    HW137607   0.879   3.789  12.648  0.1706  5.1368 -1.8230
 8657SOL    HW237608   0.731   3.826  12.678 -0.8654 -0.8225  1.4786
 8658SOL     OW37609   4.017   3.029   8.708  0.3492 -0.4302  0.6332
 8658SOL    HW137610   3.984   2.975   8.780 -2.5637 -0.3881 -0.6976
 8658SOL    HW237611   4.000   3.120   8.731  3.0535 -0.4543  2.7409
 8659SOL     OW37612   3.849   1.358  10.673 -0.5280 -0.6358  0.0014
 8659SOL    HW137613   3.863   1.450  10.697 -0.2716 -1.2621  2.2940
 8659SOL    HW237614   3.756   1.352  10.691 -0.8552 -0.1414 -1.5695
 8660SOL     OW37615   4.345   4.268   9.829 -0.2045 -0.1218 -0.6180
 8660SOL    HW137616   4.264   4.316   9.845  0.3797  0.3619  0.8895
 8660SOL    HW237617   4.376   4.324   9.758  0.5979  0.3878  0.1428
 8661SOL     OW37618   1.506   2.231   6.395 -0.5316  0.0589  0.1479
 8661SOL    HW137619   1.500   2.186   6.480 -0.3886  0.9656  0.6421
 8661SOL    HW237620   1.570   2.300   6.413 -0.2187  0.1081 -1.1986
 8662SOL     OW37621   0.645   0.853   3.994  0.0793  0.6156 -0.1273
 8662SOL    HW137622   0.711   0.910   3.955  0.6191 -1.2221 -1.8874
 8662SOL    HW237623   0.673   0.767   3.963 -2.7587 -0.6726  0.8335
 8663SOL     OW37624   0.076   1.896  10.837  0.1122  0.3197 -0.0944
 8663SOL    HW137625   0.123   1.961  10.888  3.1852 -1.5829 -0.4968
 8663SOL    HW237626   0.017   1.946  10.781 -0.4856  0.1323  0.3582
 8664SOL     OW37627   4.624   3.977   6.820  0.0598 -0.0722  0.3374
 8664SOL    HW137628   4.650   3.912   6.885  3.6287  0.7307 -0.3086
 8664SOL    HW237629   4.557   3.932   6.768 -0.4724 -0.2762  1.2090
 8665SOL     OW37630   2.435   4.202  13.413  0.4266  0.3938  0.0472
 8665SOL    HW137631   2.460   4.135  13.349  0.3413  1.7934 -1.4606
 8665SOL    HW237632   2.347   4.230  13.389 -0.2379 -2.5514 -0.9705
 8666SOL     OW37633   3.774   1.104  12.842  0.1666 -0.4606  0.9246
 8666SOL    HW137634   3.735   1.170  12.784 -0.2225  0.1815  1.9128
 8666SOL    HW237635   3.829   1.055  12.781 -0.1324 -0.7555  0.8931
 8667SOL     OW37636   0.336   2.142   6.322  0.2368 -0.3353  0.6930
 8667SOL    HW137637   0.335   2.211   6.255 -1.2959 -0.9901  0.0446
 8667SOL    HW237638   0.272   2.077   6.293  0.0247  0.4991 -0.7214
 8668SOL     OW37639   3.322   3.834   3.389  0.4067 -0.2445 -0.1612
 8668SOL    HW137640   3.249   3.868   3.440 -0.1998  0.1215 -1.2554
 8668SOL    HW237641   3.286   3.794   3.310  3.4054 -3.2038 -0.0157
 8669SOL     OW37642   3.154   0.837   3.627 -0.2904  0.3207 -0.2556
 8669SOL    HW137643   3.098   0.769   3.588 -0.8687  0.7786 -0.2267
 8669SOL    HW237644   3.097   0.866   3.698 -0.4035  0.5305 -0.4315
 8670SOL     OW37645   4.439   3.759   4.807  0.4925 -0.0405 -0.7854
 8670SOL    HW137646   4.499   3.818   4.761  0.4765 -0.4670 -1.3677
 8670SOL    HW237647   4.358   3.809   4.814 -0.0168 -1.1036  0.8911
 8671SOL     OW37648   0.364   4.433  14.991  0.0212  0.0093  0.2113
 8671SOL    HW137649   0.322   4.518  14.995  0.2226  0.1255 -0.1306
 8671SOL    HW237650   0.454   4.452  15.018  0.2419  0.8381 -1.1400
 8672SOL     OW37651   4.458   0.170   8.444  0.5185 -0.9486 -0.0509
 8672SOL    HW137652   4.410   0.180   8.362  0.1954  1.6189  0.4337
 8672SOL    HW237653   4.409   0.098   8.483 -0.9954  0.3109  0.3699
 8673SOL     OW37654   3.633   2.124   3.249 -0.1688 -0.3087  0.2066
 8673SOL    HW137655   3.552   2.155   3.208 -1.0978 -2.5372  0.3565
 8673SOL    HW237656   3.654   2.063   3.179 -0.8212 -0.3587  0.0532
 8674SOL     OW37657   0.472   2.073  11.775 -0.0473  0.0442  0.2801
 8674SOL    HW137658   0.394   2.024  11.797 -1.3655  2.1102  0.2224
 8674SOL    HW237659   0.436   2.161  11.763 -1.1401 -0.7574 -2.2514
 8675SOL     OW37660   3.219   4.717   2.493 -0.4297  0.3570  0.8069
 8675SOL    HW137661   3.277   4.658   2.445 -1.7473  0.7378 -1.2649
 8675SOL    HW237662   3.272   0.059   2.489  2.0855 -1.4645 -1.5801
 8676SOL     OW37663   2.647   3.469  10.683 -0.3602 -0.8184  0.2176
 8676SOL    HW137664   2.705   3.404  10.722  0.2295 -0.2187  0.3493
 8676SOL    HW237665   2.578   3.465  10.749 -0.3494  2.1476  0.4401
 8677SOL     OW37666   0.982   1.710   8.800  0.0280 -0.5929 -0.4758
 8677SOL    HW137667   1.044   1.640   8.820 -0.8185 -1.8444 -2.2030
 8677SOL    HW237668   0.905   1.677   8.847 -0.4233  0.3093 -0.5856
 8678SOL     OW37669   3.394   3.786  16.807  0.1796  0.3015 -0.3440
 8678SOL    HW137670   3.433   3.872  16.820 -0.0445  0.2483  0.7084
 8678SOL    HW237671   3.313   3.802  16.855  0.3253  1.9106 -0.6243
 8679SOL     OW37672   2.162   2.395   3.412 -0.3104 -0.0704 -0.2059
 8679SOL    HW137673   2.170   2.327   3.345  1.8112  0.4383 -0.4879
 8679SOL    HW237674   2.254   2.416   3.428 -0.2984 -0.5020  0.2741
 8680SOL     OW37675   4.465   0.343   7.303 -0.3277 -0.3500  0.2248
 8680SOL    HW137676   4.531   0.391   7.353  0.7073 -1.5573  0.0384
 8680SOL    HW237677   4.488   0.362   7.212 -2.6589 -2.6210 -0.8245
 8681SOL     OW37678   0.886   0.940   5.695  0.3084 -0.1203  0.3804
 8681SOL    HW137679   0.978   0.915   5.696  0.5095  0.5825 -0.5794
 8681SOL    HW237680   0.887   0.999   5.771 -1.0812 -2.8798  2.5189
 8682SOL     OW37681   3.363   1.225   5.534  0.3932  0.5794  0.1662
 8682SOL    HW137682   3.335   1.292   5.472  0.0139 -0.8985 -1.2392
 8682SOL    HW237683   3.444   1.198   5.491 -0.3993 -1.9587  0.3086
 8683SOL     OW37684   1.329   4.733   1.520  0.0406 -0.5326  0.1366
 8683SOL    HW137685   1.404   4.686   1.482 -0.0787  0.0688 -0.8455
 8683SOL    HW237686   1.264   4.667   1.545  0.6807 -0.8765  0.8828
 8684SOL     OW37687   1.666   0.726  15.909  0.1786  0.4024 -0.0861
 8684SOL    HW137688   1.614   0.662  15.860  1.3124  1.0985 -2.2019
 8684SOL    HW237689   1.598   0.790  15.928  1.3848  1.5856  0.2669
 8685SOL     OW37690   2.573   2.101   6.107 -0.1023 -1.1410  0.8369
 8685SOL    HW137691   2.590   2.088   6.013  0.6841  2.3099  0.4767
 8685SOL    HW237692   2.636   2.042   6.148 -1.5147 -3.0985  0.1452
 8686SOL     OW37693   0.027   1.535  13.853 -0.1493  0.2915 -0.6390
 8686SOL    HW137694   4.726   1.453  13.821  0.0489 -0.1252  0.2094
 8686SOL    HW237695   0.039   1.503  13.942 -0.8692 -0.7795 -0.9161
 8687SOL     OW37696   1.220   2.018  15.984 -0.5835 -0.4813 -0.5040
 8687SOL    HW137697   1.163   2.085  15.947  0.8646 -1.4005 -4.3872
 8687SOL    HW237698   1.163   1.992  16.057  0.3412 -1.9523 -0.2952
 8688SOL     OW37699   3.880   1.171  10.901 -0.5737 -0.5525  0.8364
 8688SOL    HW137700   3.905   1.153  10.810 -0.0129  0.7381  0.7275
 8688SOL    HW237701   3.966   1.205  10.928  0.1660  0.1701 -2.3065
 8689SOL     OW37702   4.353   3.009  15.029 -0.8028 -0.4177 -0.0429
 8689SOL    HW137703   4.276   3.007  14.972 -3.4388  0.7732  3.4425
 8689SOL    HW237704   4.412   3.009  14.954  1.3117 -1.3661  1.6346
 8690SOL     OW37705   1.678   3.479  11.165  0.6793  0.3665  0.1509
 8690SOL    HW137706   1.770   3.455  11.177  0.9199  1.0697 -0.3298
 8690SOL    HW237707   1.674   3.549  11.100  2.4105 -1.1909 -1.6370
 8691SOL     OW37708   1.316   3.117   9.052  0.4297  0.3112  0.6138
 8691SOL    HW137709   1.266   3.166   8.986  0.7117  1.0061  0.9122
 8691SOL    HW237710   1.257   3.122   9.127  3.0920 -2.8250  2.8524
 8692SOL     OW37711   3.934   4.432  14.958  0.4011 -0.1995 -0.2150
 8692SOL    HW137712   3.991   4.415  14.883  1.9687  1.0230  0.7018
 8692SOL    HW237713   3.935   4.346  15.002  2.3016  0.4890  1.0989
 8693SOL     OW37714   1.990   4.134   2.138 -0.1377 -0.0165 -0.0372
 8693SOL    HW137715   2.080   4.141   2.171 -0.7117  1.0594  1.3436
 8693SOL    HW237716   1.940   4.147   2.219 -0.0844 -0.9938  0.1471
 8694SOL     OW37717   0.741   1.498   5.649  0.0932  0.3958  0.0798
 8694SOL    HW137718   0.653   1.534   5.644 -0.0187  0.2688  0.9830
 8694SOL    HW237719   0.773   1.568   5.706  0.3128  0.0178  0.4285
 8695SOL     OW37720   0.687   1.629   2.243 -0.7671 -0.8077 -0.5809
 8695SOL    HW137721   0.744   1.669   2.309 -2.6348 -0.9829  1.1299
 8695SOL    HW237722   0.648   1.708   2.205  2.0075  0.4836 -0.7502
 8696SOL     OW37723   0.684   0.040   0.139  0.2391 -0.9200  0.2428
 8696SOL    HW137724   0.615   0.083   0.188  1.2982  0.0763  0.8607
 8696SOL    HW237725   0.716   0.106   0.078  0.8795  0.6939  2.3044
 8697SOL     OW37726   0.545   3.111  13.935  0.5957 -1.0857  0.1840
 8697SOL    HW137727   0.537   3.018  13.911 -0.5633 -0.8351 -0.4438
 8697SOL    HW237728   0.590   3.139  13.855  0.5201 -2.0036 -0.1828
 8698SOL     OW37729   0.752   0.520   6.507  0.0466 -1.4756 -0.0974
 8698SOL    HW137730   0.817   0.452   6.490  1.1650 -0.2065 -0.9391
 8698SOL    HW237731   0.749   0.522   6.603 -0.4779 -2.8401 -0.0881
 8699SOL     OW37732   2.961   1.370   5.716  0.3528 -0.1514 -0.5891
 8699SOL    HW137733   3.020   1.297   5.737  0.5640 -0.2405 -1.4627
 8699SOL    HW237734   2.894   1.383   5.783  2.0752  1.2208  0.8680
 8700SOL     OW37735   0.523   4.020  16.709  0.5256  0.1831  0.0604
 8700SOL    HW137736   0.512   4.019  16.804 -1.7860  0.5422 -0.1892
 8700SOL    HW237737   0.593   4.083  16.696  1.2598 -1.1533 -2.4769
 8701SOL     OW37738   2.258   1.058  17.052 -0.1926 -0.5511 -0.1384
 8701SOL    HW137739   2.270   0.963  17.062  0.5785 -0.4643 -0.2995
 8701SOL    HW237740   2.162   1.062  17.058 -0.0814  1.1483  0.4914
 8702SOL     OW37741   1.811   2.516   9.825 -0.0499 -0.4205 -0.4536
 8702SOL    HW137742   1.792   2.444   9.885  2.1314  0.0852  0.8638
 8702SOL    HW237743   1.730   2.566   9.819  0.4198  0.2969 -0.9718
 8703SOL     OW37744   4.243   0.470   7.432 -0.8519  0.3102  0.3211
 8703SOL    HW137745   4.200   0.394   7.473  0.8822  0.0881  1.7102
 8703SOL    HW237746   4.324   0.423   7.412 -0.0499  1.9224 -0.1881
 8704SOL     OW37747   4.144   2.806   1.385  0.1591  0.7714 -0.2142
 8704SOL    HW137748   4.132   2.891   1.429 -0.7865  1.7922 -2.4076
 8704SOL    HW237749   4.196   2.759   1.450  0.8119  1.2893 -0.3529
 8705SOL     OW37750   3.782   0.612  12.549  0.2470 -1.0421  0.5929
 8705SOL    HW137751   3.731   0.657  12.617  0.7464 -1.6508  1.3795
 8705SOL    HW237752   3.729   0.627  12.471  0.1574 -0.8565  0.6891
 8706SOL     OW37753   3.704   1.740   9.040 -0.2687 -0.5111 -0.2515
 8706SOL    HW137754   3.649   1.695   9.104 -1.8978  0.7895 -0.7342
 8706SOL    HW237755   3.767   1.674   9.011 -0.1384 -0.1812 -0.7232
 8707SOL     OW37756   2.247   1.129  10.391 -0.2641  0.2947 -0.3787
 8707SOL    HW137757   2.197   1.201  10.430  1.7776  1.1973  0.5312
 8707SOL    HW237758   2.332   1.137  10.434 -0.3445  0.1056 -0.1825
 8708SOL     OW37759   1.519   4.121  16.108  0.2681 -0.1833  0.0094
 8708SOL    HW137760   1.482   4.122  16.019  0.2615 -0.1175  0.0129
 8708SOL    HW237761   1.508   4.032  16.140  0.0784 -0.4677 -0.8304
 8709SOL     OW37762   0.982   4.690   0.432  0.1096  1.1871 -0.2248
 8709SOL    HW137763   1.004   4.613   0.381 -0.2747  0.2825  0.9663
 8709SOL    HW237764   1.071   4.726   0.442  0.0424  0.9449  1.2552
 8710SOL     OW37765   2.223   0.813   4.759  0.1534  0.4442  0.0188
 8710SOL    HW137766   2.215   0.780   4.670 -1.2857 -2.2218  1.1169
 8710SOL    HW237767   2.170   0.755   4.814  2.2156  0.5280  2.0946
 8711SOL     OW37768   0.571   4.241   4.544  0.4115 -0.1389  0.2516
 8711SOL    HW137769   0.498   4.286   4.586  0.1520  0.8051 -1.2185
 8711SOL    HW237770   0.597   4.188   4.619  2.0984 -0.8659 -0.8568
 8712SOL     OW37771   1.350   1.155   8.201 -0.4641 -0.4466  0.3211
 8712SOL    HW137772   1.284   1.114   8.257  0.8100 -0.9382  1.4706
 8712SOL    HW237773   1.372   1.075   8.153 -2.9045  1.1826 -3.5088
 8713SOL     OW37774   1.090   3.050  11.314 -0.4804  0.1696 -0.3459
 8713SOL    HW137775   1.106   3.007  11.398  1.6756  1.4953 -0.0818
 8713SOL    HW237776   1.168   3.105  11.307 -0.3291  0.0488  0.3498
 8714SOL     OW37777   3.897   2.510   3.470 -0.4133  0.0270  0.1514
 8714SOL    HW137778   3.971   2.554   3.512 -0.9799  0.2280  0.9520
 8714SOL    HW237779   3.936   2.469   3.393  2.3414  0.5450  1.2702
 8715SOL     OW37780   1.697   0.273  10.652  0.8447 -0.1897 -0.7052
 8715SOL    HW137781   1.624   0.212  10.665  1.0860 -0.1368  0.8798
 8715SOL    HW237782   1.732   0.269  10.741  1.7328 -1.7092 -1.1331
 8716SOL     OW37783   0.782   3.456  16.254 -0.0591 -0.0684 -1.0561
 8716SOL    HW137784   0.720   3.426  16.187 -1.0818 -1.2180  0.3932
 8716SOL    HW237785   0.721   3.489  16.320 -0.0797  1.9186 -2.0905
 8717SOL     OW37786   4.546   3.350   1.861  0.3602 -0.4732 -0.2137
 8717SOL    HW137787   4.531   3.301   1.781  0.4106 -2.7753  1.1830
 8717SOL    HW237788   4.458   3.387   1.871 -0.2126 -2.0920  0.7764
 8718SOL     OW37789   1.370   4.594  15.067  0.0245  0.2177  0.0932
 8718SOL    HW137790   1.313   4.608  14.991 -1.0005 -0.9413  0.6449
 8718SOL    HW237791   1.409   4.676  15.096  2.1566 -0.3070 -1.3269
 8719SOL     OW37792   0.969   2.823  10.040  0.2640 -0.4256 -0.5100
 8719SOL    HW137793   0.972   2.891  10.108 -2.2898 -1.5721  0.7414
 8719SOL    HW237794   1.027   2.758  10.082  0.8016 -0.9069 -2.0132
 8720SOL     OW37795   1.004   1.705   1.110  0.1652 -0.4679  0.2491
 8720SOL    HW137796   0.911   1.728   1.114  0.8985  2.8234 -2.2165
 8720SOL    HW237797   1.010   1.668   1.022 -0.6350  0.7131 -0.3028
 8721SOL     OW37798   1.287   2.412   1.572  0.4460  0.9592 -0.5872
 8721SOL    HW137799   1.236   2.332   1.583  2.6277 -0.0883  2.1073
 8721SOL    HW237800   1.264   2.427   1.480 -3.1724 -1.1235 -0.0054
 8722SOL     OW37801   3.755   1.951   3.984  0.4693 -0.2030  0.5036
 8722SOL    HW137802   3.815   1.959   3.910 -0.0887  1.5320  0.2553
 8722SOL    HW237803   3.793   2.014   4.045 -0.1063  1.2359 -0.6290
 8723SOL     OW37804   1.212   4.720   4.520 -0.6319 -0.3325  0.1401
 8723SOL    HW137805   1.251   4.634   4.535 -0.3936 -0.6650 -2.4736
 8723SOL    HW237806   1.122   4.695   4.497  0.2582 -2.5173 -0.9710
 8724SOL     OW37807   4.460   0.522   8.372  0.0368 -0.0999 -0.1015
 8724SOL    HW137808   4.399   0.560   8.309  0.6997 -0.9226 -1.2545
 8724SOL    HW237809   4.428   0.432   8.361  1.1123 -0.3338 -1.3123
 8725SOL     OW37810   1.662   0.064  17.600  0.7604  0.8217 -0.5293
 8725SOL    HW137811   1.682   0.078  17.692 -0.3358  0.9661 -0.3144
 8725SOL    HW237812   1.567   0.050  17.600  0.3183  3.8153  0.7159
 8726SOL     OW37813   2.047   3.325   6.806 -0.0367  0.6184 -0.6236
 8726SOL    HW137814   2.100   3.371   6.741  1.4425 -0.6814 -0.3493
 8726SOL    HW237815   1.994   3.271   6.747 -0.3221  1.3132 -1.0059
 8727SOL     OW37816   0.761   3.780  15.057 -0.0570 -0.3886 -0.1976
 8727SOL    HW137817   0.676   3.819  15.037 -1.2759 -2.4651  1.0131
 8727SOL    HW237818   0.819   3.834  15.002  0.6252  0.8042  1.7001
 8728SOL     OW37819   1.031   1.396   4.382 -0.1516  0.2279 -0.4127
 8728SOL    HW137820   1.082   1.445   4.317  0.4239 -0.8976 -0.8290
 8728SOL    HW237821   1.049   1.305   4.358 -0.9338  0.6551 -2.6253
 8729SOL     OW37822   1.171   1.532   2.291  0.3750 -0.2216  0.5988
 8729SOL    HW137823   1.172   1.584   2.371 -0.2141  0.0338  0.4396
 8729SOL    HW237824   1.118   1.581   2.228  0.4210 -1.3894 -0.3440
 8730SOL     OW37825   4.654   2.230   2.678  0.3279 -0.7466 -0.3073
 8730SOL    HW137826   4.570   2.276   2.678 -0.2905 -1.8759 -0.7817
 8730SOL    HW237827   4.636   2.150   2.728  0.4786 -0.1150  0.7453
 8731SOL     OW37828   2.287   1.657   3.144  0.1012 -0.3083 -0.3448
 8731SOL    HW137829   2.331   1.632   3.225 -1.6362  1.4725  1.1268
 8731SOL    HW237830   2.260   1.569   3.117 -1.2613  0.6247 -2.0129
 8732SOL     OW37831   4.391   1.502   9.215  0.2307  0.6918 -0.3369
 8732SOL    HW137832   4.385   1.413   9.179  0.2792  0.4259  0.3227
 8732SOL    HW237833   4.478   1.493   9.254 -0.4047 -2.9315  0.1995
 8733SOL     OW37834   0.151   0.298  10.028 -0.3286 -0.0272  0.4708
 8733SOL    HW137835   0.184   0.355   9.959 -1.6652 -3.1327 -2.7133
 8733SOL    HW237836   0.125   0.223   9.975  0.9481 -0.4740  0.4813
 8734SOL     OW37837   0.078   0.113   9.840  0.6504  0.1610 -0.3702
 8734SOL    HW137838   0.020   0.049   9.880 -1.6912  0.4462 -3.3386
 8734SOL    HW237839   0.043   0.125   9.752 -2.0456  0.7485  0.7861
 8735SOL     OW37840   3.416   1.992  14.541 -0.1965  0.0051  0.6230
 8735SOL    HW137841   3.423   1.904  14.577 -0.4660 -1.3010 -2.5423
 8735SOL    HW237842   3.395   1.976  14.449 -0.4646 -1.5139  0.9531
 8736SOL     OW37843   1.590   1.236   9.504  0.2994 -0.2266 -0.0619
 8736SOL    HW137844   1.641   1.176   9.558  1.1784  1.0719  0.5331
 8736SOL    HW237845   1.658   1.297   9.477  0.7476  0.1410  1.9039
 8737SOL     OW37846   3.174   1.039   6.521  0.2191 -0.4481 -0.7386
 8737SOL    HW137847   3.160   1.102   6.592 -0.4023  1.5572 -2.6288
 8737SOL    HW237848   3.188   0.964   6.579 -1.0448  1.0850  1.5477
 8738SOL     OW37849   2.391   3.396   4.174 -0.5459 -0.1154  0.8832
 8738SOL    HW137850   2.405   3.483   4.212  1.9838 -0.3197  0.4186
 8738SOL    HW237851   2.331   3.351   4.233 -1.5679  1.3987  1.0048
 8739SOL     OW37852   0.562   2.580   7.755  0.0494  0.0564  0.2541
 8739SOL    HW137853   0.549   2.485   7.745 -0.1370  0.3041 -1.7322
 8739SOL    HW237854   0.517   2.604   7.836 -2.3212  1.8658 -1.6338
 8740SOL     OW37855   0.566   1.129  12.991 -0.0224  0.2742 -0.0074
 8740SOL    HW137856   0.547   1.080  13.070  0.8115 -0.0434  0.0005
 8740SOL    HW237857   0.486   1.182  12.988 -0.2658 -0.1527 -1.1256
 8741SOL     OW37858   2.190   3.627  10.915  0.2579 -0.2298 -0.7173
 8741SOL    HW137859   2.123   3.597  10.976 -1.4483  2.0732 -1.4544
 8741SOL    HW237860   2.264   3.595  10.967  1.7615  0.3797 -2.4810
 8742SOL     OW37861   2.258   2.668   4.745 -0.5153 -0.1222 -0.1181
 8742SOL    HW137862   2.242   2.579   4.778 -1.4961 -0.2041 -0.8149
 8742SOL    HW237863   2.208   2.726   4.803  0.3786  1.7820 -1.2603
 8743SOL     OW37864   1.472   0.875   5.102  0.4431  0.1823  0.1015
 8743SOL    HW137865   1.500   0.785   5.085  1.2676  0.1735  1.4376
 8743SOL    HW237866   1.477   0.881   5.198  1.1593  2.7832 -0.1145
 8744SOL     OW37867   2.205   1.589   7.424 -0.0489  0.2989  0.2524
 8744SOL    HW137868   2.231   1.517   7.483 -1.5161  1.5009  2.3368
 8744SOL    HW237869   2.269   1.584   7.353 -0.4648  1.0641 -0.1702
 8745SOL     OW37870   4.113   4.100   7.945  0.6565  0.0992  0.3656
 8745SOL    HW137871   4.046   4.099   7.876  1.0520 -1.5583 -0.0017
 8745SOL    HW237872   4.149   4.189   7.941  0.1159  0.3807  2.1199
 8746SOL     OW37873   0.643   3.931   3.319 -0.0551 -0.1905  0.2501
 8746SOL    HW137874   0.737   3.928   3.337 -0.3341 -1.0314  1.5702
 8746SOL    HW237875   0.632   4.012   3.270  0.9292 -1.4372 -2.0472
 8747SOL     OW37876   4.107   2.959  12.319  0.1181 -0.1145  0.0316
 8747SOL    HW137877   4.013   2.948  12.306  0.5898 -1.4929 -2.3279
 8747SOL    HW237878   4.129   2.866  12.324 -1.3672 -0.5730 -1.8909
 8748SOL     OW37879   4.006   1.160   6.577 -0.8578  0.7196  0.7229
 8748SOL    HW137880   4.057   1.234   6.610  0.9613 -1.4779  2.8390
 8748SOL    HW237881   3.922   1.187   6.541 -0.8304 -0.5410 -0.2735
 8749SOL     OW37882   2.398   1.560   6.358 -0.4781 -0.2423 -0.6900
 8749SOL    HW137883   2.439   1.595   6.279 -0.1837 -2.0190 -1.3252
 8749SOL    HW237884   2.408   1.640   6.409 -1.2052  0.2206 -1.2782
 8750SOL     OW37885   4.209   3.075   9.049 -0.1614 -0.7853 -0.1003
 8750SOL    HW137886   4.167   3.158   9.027 -3.1125 -1.7670  1.7414
 8750SOL    HW237887   4.297   3.105   9.070 -0.7440  1.0171 -0.2215
 8751SOL     OW37888   0.043   3.377  10.028  0.5739  0.3311 -0.7295
 8751SOL    HW137889   0.125   3.400  10.073  1.0964  0.0091 -1.5301
 8751SOL    HW237890   4.729   3.457  10.016  0.0535  0.3128  1.3635
 8752SOL     OW37891   1.032   1.720   5.546  0.2340  0.4043 -0.1317
 8752SOL    HW137892   1.008   1.637   5.505 -1.9206  0.4645  0.9723
 8752SOL    HW237893   0.965   1.777   5.509 -2.1635 -1.1109  1.8658
 8753SOL     OW37894   4.071   3.703  12.861  0.1464 -0.5017  0.3574
 8753SOL    HW137895   4.003   3.742  12.807  0.0274  0.3094  1.0810
 8753SOL    HW237896   4.121   3.780  12.888 -1.1837  0.9867 -1.3968
 8754SOL     OW37897   4.106   2.802  10.335 -0.1586 -0.1861 -0.6351
 8754SOL    HW137898   4.132   2.719  10.375  1.2293 -0.9980 -3.2848
 8754SOL    HW237899   4.156   2.863  10.390  0.9908 -0.5729 -1.2580
 8755SOL     OW37900   0.985   1.385  17.665 -0.8051 -0.0421  0.6138
 8755SOL    HW137901   1.039   1.397  17.587 -0.2099 -2.5557  0.6438
 8755SOL    HW237902   0.909   1.336  17.633 -1.8610  1.7653  0.3929
 8756SOL     OW37903   2.726   1.682   0.995 -0.1114  0.2561 -0.5689
 8756SOL    HW137904   2.688   1.602   1.032  0.8702 -0.5839 -1.3904
 8756SOL    HW237905   2.802   1.701   1.050  1.0858 -0.7223 -1.8927
 8757SOL     OW37906   1.839   4.684   5.723  0.4714 -0.6493  0.1764
 8757SOL    HW137907   1.854   0.037   5.750  0.9378 -1.1677  1.6846
 8757SOL    HW237908   1.882   4.641   5.797  1.2976  0.9767  0.6412
 8758SOL     OW37909   3.019   1.411   5.025  0.4309 -0.0049  0.0325
 8758SOL    HW137910   2.982   1.327   5.051  1.1401  0.2099  1.7299
 8758SOL    HW237911   3.095   1.374   4.981  0.7398  0.7970 -0.1137
 8759SOL     OW37912   0.226   3.702   8.459  0.4351  0.9929 -0.2459
 8759SOL    HW137913   0.158   3.725   8.396  0.3248  0.0091 -0.4891
 8759SOL    HW237914   0.249   3.616   8.423 -1.3273  0.6467 -0.5382
 8760SOL     OW37915   0.169   1.413   7.274 -0.1882 -0.1084  0.1293
 8760SOL    HW137916   0.092   1.416   7.217 -0.4999 -0.3705  0.5367
 8760SOL    HW237917   0.164   1.495   7.323 -2.3319  0.4562 -1.0112
 8761SOL     OW37918   2.343   2.339   0.481  0.3301 -0.3957 -0.0919
 8761SOL    HW137919   2.333   2.434   0.476 -0.5076 -0.3402  2.4188
 8761SOL    HW237920   2.438   2.330   0.491 -0.0804 -3.7128  0.6198
 8762SOL     OW37921   3.413   0.441   0.310 -0.3039  0.1656  0.3087
 8762SOL    HW137922   3.440   0.389   0.235  0.8056 -0.2134  0.9640
 8762SOL    HW237923   3.403   0.524   0.263 -0.0551 -0.8191 -1.4774
 8763SOL     OW37924   3.709   0.081   2.562 -0.2117  0.1449 -0.1036
 8763SOL    HW137925   3.803   0.063   2.553 -0.3822 -0.9955  0.3899
 8763SOL    HW237926   3.671   0.002   2.600 -1.9459  1.8806  1.7614
 8764SOL     OW37927   4.354   3.090   9.436 -0.1936  0.6024 -0.1022
 8764SOL    HW137928   4.400   3.122   9.514 -0.1561  0.2096  0.0386
 8764SOL    HW237929   4.403   3.010   9.416 -1.9929 -0.1256 -1.6725
 8765SOL     OW37930   1.845   0.293  14.517  0.3742 -0.3512 -0.2320
 8765SOL    HW137931   1.751   0.287  14.535  0.5832 -1.3206  0.5658
 8765SOL    HW237932   1.833   0.290  14.422  0.3222  0.4064 -0.2428
 8766SOL     OW37933   2.524   0.052   2.344  0.1201  0.9082  0.0329
 8766SOL    HW137934   2.508   4.695   2.351  0.4402  0.8234 -0.3533
 8766SOL    HW237935   2.572   0.052   2.261 -0.9761 -1.7901 -0.5947
 8767SOL     OW37936   4.127   1.373   7.439 -0.1045 -0.3057 -0.0372
 8767SOL    HW137937   4.135   1.279   7.455  3.0494  0.3988  2.4472
 8767SOL    HW237938   4.194   1.397   7.503 -1.4860  0.3753  1.1449
 8768SOL     OW37939   2.422   0.597   1.994 -0.5018  0.1571 -0.2626
 8768SOL    HW137940   2.435   0.685   2.031  1.0235 -0.2982  0.2952
 8768SOL    HW237941   2.327   0.592   2.003 -0.6327 -1.2946 -2.6787
 8769SOL     OW37942   2.607   2.906   2.799 -0.1522 -0.5904  0.1292
 8769SOL    HW137943   2.650   2.833   2.755 -2.5083 -1.4810 -0.7123
 8769SOL    HW237944   2.610   2.881   2.891 -1.3353  1.4643  0.7158
 8770SOL     OW37945   3.692   2.315   3.592  0.1092  0.0311  0.1647
 8770SOL    HW137946   3.734   2.305   3.507 -0.9454 -0.6157 -0.2836
 8770SOL    HW237947   3.757   2.357   3.648 -1.4518  0.0819  1.9162
 8771SOL     OW37948   0.092   2.333   1.186 -0.3454 -0.3400 -0.1544
 8771SOL    HW137949   0.034   2.286   1.126 -0.1437  2.0292 -2.2195
 8771SOL    HW237950   0.179   2.326   1.146 -0.2925 -0.3369 -0.0407
 8772SOL     OW37951   4.305   3.079   4.342  1.2390 -0.4307 -0.2030
 8772SOL    HW137952   4.230   3.034   4.381  0.4467 -0.8319 -2.1878
 8772SOL    HW237953   4.372   3.012   4.355  2.0095  0.0601 -1.6680
 8773SOL     OW37954   1.049   2.365   6.042  0.2395 -0.2252  0.0795
 8773SOL    HW137955   0.963   2.396   6.015  0.5015  2.1743  1.9550
 8773SOL    HW237956   1.028   2.276   6.069 -0.9061 -0.1739 -0.6668
 8774SOL     OW37957   2.671   4.597   7.854  0.5787 -0.3830  0.1602
 8774SOL    HW137958   2.650   4.684   7.889  2.6537 -0.4784  1.6146
 8774SOL    HW237959   2.624   4.533   7.907  1.1578  0.2683  1.4403
 8775SOL     OW37960   4.137   0.871   3.472 -0.3373 -0.1457  0.4145
 8775SOL    HW137961   4.113   0.831   3.556  0.0332 -0.7272  0.2414
 8775SOL    HW237962   4.063   0.931   3.476  0.4283  0.9190 -1.3889
 8776SOL     OW37963   1.002   0.479   4.590 -0.1568  0.1323  0.3511
 8776SOL    HW137964   0.955   0.434   4.660 -0.3874  0.9810  0.7299
 8776SOL    HW237965   0.971   0.433   4.511  2.0298  3.0551 -2.2202
 8777SOL     OW37966   3.043   0.997  10.858  0.2013 -0.5786 -0.0986
 8777SOL    HW137967   3.106   1.016  10.927  0.5215  1.1581 -0.8647
 8777SOL    HW237968   3.001   1.083  10.859  2.0695  0.3442  0.1401
 8778SOL     OW37969   4.082   3.655   3.036  0.1719 -0.4731 -0.1544
 8778SOL    HW137970   4.089   3.744   3.002 -0.5215 -0.7854 -1.1017
 8778SOL    HW237971   4.071   3.600   2.959  3.1230  0.8614 -1.5447
 8779SOL     OW37972   2.036   2.489  13.418 -0.5416  0.3915  0.2804
 8779SOL    HW137973   2.085   2.407  13.419  0.9468  1.2712 -0.6096
 8779SOL    HW237974   2.041   2.506  13.512  0.5903 -4.1239  1.0417
 8780SOL     OW37975   4.452   2.904  11.349 -0.0686  0.2610  0.3523
 8780SOL    HW137976   4.426   2.818  11.384  2.4692 -0.5484  0.2489
 8780SOL    HW237977   4.502   2.935  11.424  0.0535  0.0007  0.3775
 8781SOL     OW37978   2.821   0.320   9.347 -0.0041 -0.4658 -0.2399
 8781SOL    HW137979   2.744   0.319   9.290 -0.7021 -1.4043  0.7207
 8781SOL    HW237980   2.877   0.256   9.303  0.5759 -1.0116  1.2714
 8782SOL     OW37981   1.636   1.596   1.761  0.0320 -0.0885 -0.1367
 8782SOL    HW137982   1.684   1.516   1.782  0.7305  0.5427  0.6325
 8782SOL    HW237983   1.655   1.594   1.667  0.7873  0.1341  0.0159
 8783SOL     OW37984   4.328   1.933  11.614  0.0613 -0.6898 -0.4596
 8783SOL    HW137985   4.362   1.953  11.701 -0.8694 -0.0195 -0.2463
 8783SOL    HW237986   4.403   1.944  11.555  1.6620 -0.0729  1.6945
 8784SOL     OW37987   4.704   0.340   5.904 -0.4275 -0.7963 -0.6727
 8784SOL    HW137988   4.681   0.254   5.867 -0.1295 -0.5249 -1.4802
 8784SOL    HW237989   4.618   0.381   5.911 -0.4064 -0.7340 -0.7876
 8785SOL     OW37990   3.752   0.700   5.561  0.5626  0.1109  0.0631
 8785SOL    HW137991   3.780   0.608   5.560  1.1406  0.3023 -1.3497
 8785SOL    HW237992   3.753   0.718   5.655 -0.1887  0.2467  0.0476
 8786SOL     OW37993   1.762   1.926  12.810 -0.1653  0.5466 -0.1119
 8786SOL    HW137994   1.713   1.957  12.734 -3.2220  2.7562  2.7828
 8786SOL    HW237995   1.785   1.835  12.790  2.2783  1.3165 -0.7649
 8787SOL     OW37996   0.233   2.019  15.368 -0.6415 -0.0771  0.0674
 8787SOL    HW137997   0.233   2.097  15.424 -1.7497  0.2927 -0.4389
 8787SOL    HW237998   0.295   2.048  15.301  2.6611 -1.3932  2.5588
 8788SOL     OW37999   0.967   0.871  13.569 -0.0782  0.4101  0.2476
 8788SOL    HW138000   0.942   0.935  13.502 -0.7587  0.3268  0.4212
 8788SOL    HW238001   1.047   0.912  13.602  0.9193 -0.1365 -1.5140
 8789SOL     OW38002   0.000   1.274   5.261  0.4429 -0.3046  1.0447
 8789SOL    HW138003   0.021   1.343   5.198 -0.8078  0.2543  1.2344
 8789SOL    HW238004   0.021   1.199   5.206 -0.6724  2.7706 -3.6145
 8790SOL     OW38005   1.546   3.894  15.567 -0.5793  0.8155 -0.3145
 8790SOL    HW138006   1.569   3.853  15.650  0.0735  1.0332 -0.3856
 8790SOL    HW238007   1.604   3.840  15.513  0.4204 -0.5775  2.1695
 8791SOL     OW38008   3.310   3.386  12.781  0.7211  0.2265 -0.4692
 8791SOL    HW138009   3.316   3.387  12.685 -1.0364  0.3238 -0.5743
 8791SOL    HW238010   3.274   3.473  12.798 -2.3428 -0.4636 -3.4716
 8792SOL     OW38011   1.556   3.522   7.301 -0.0563  0.1386 -0.4818
 8792SOL    HW138012   1.500   3.600   7.303  1.3185  1.0138  3.5596
 8792SOL    HW238013   1.585   3.531   7.210 -2.1361 -2.0850 -1.3586
 8793SOL     OW38014   0.497   1.105   6.665 -0.7736 -0.1738  0.4031
 8793SOL    HW138015   0.456   1.028   6.626 -1.2791  0.8584 -1.0588
 8793SOL    HW238016   0.432   1.169   6.636  1.1886  1.9185  0.5851
 8794SOL     OW38017   0.248   2.731   7.134 -0.1812  0.0600  0.4509
 8794SOL    HW138018   0.320   2.788   7.158  0.1736 -0.4327  0.5669
 8794SOL    HW238019   0.299   2.652   7.114  0.1430  0.8595 -1.8993
 8795SOL     OW38020   4.192   4.573  14.647  0.0656  0.2758  0.3001
 8795SOL    HW138021   4.156   4.490  14.679  1.4541 -0.5536 -0.3061
 8795SOL    HW238022   4.113   4.605  14.604 -0.4763 -0.5208  0.7130
 8796SOL     OW38023   1.210   3.514   3.354  0.2715  0.0044 -0.3851
 8796SOL    HW138024   1.255   3.460   3.419 -2.3538 -0.3592  1.1240
 8796SOL    HW238025   1.203   3.602   3.391  0.3763  0.1278 -0.6528
 8797SOL     OW38026   2.581   0.436   0.196 -0.5755 -0.3165 -0.1301
 8797SOL    HW138027   2.605   0.345   0.182 -0.9104 -0.5067  0.5939
 8797SOL    HW238028   2.664   0.476   0.167 -1.0177  2.0330  1.8028
 8798SOL     OW38029   0.009   3.135   0.958  0.1483  0.1420 -0.0200
 8798SOL    HW138030   4.665   3.093   0.986  1.1476 -0.7904  1.4478
 8798SOL    HW238031   4.726   3.227   0.974 -0.4891  0.1736 -1.0137
 8799SOL     OW38032   1.481   1.470   6.338  0.1962  0.7143 -0.7728
 8799SOL    HW138033   1.468   1.543   6.277 -0.4816  0.0304 -1.4574
 8799SOL    HW238034   1.552   1.431   6.288 -0.1646 -0.8331 -0.0816
 8800SOL     OW38035   1.913   2.207  13.643 -0.1283 -0.1775  0.4310
 8800SOL    HW138036   1.943   2.142  13.706 -1.6162  0.6690  2.0147
 8800SOL    HW238037   1.994   2.217  13.592 -1.2482  2.6551 -0.8127
 8801SOL     OW38038   2.527   4.461   8.032  0.0503 -0.2925 -0.3199
 8801SOL    HW138039   2.566   4.459   8.119 -1.5770 -1.6505  0.3995
 8801SOL    HW238040   2.434   4.482   8.045  0.3704  0.6517  0.3726
 8802SOL     OW38041   0.106   3.375   7.849  0.3756  0.7270 -0.2683
 8802SOL    HW138042   0.022   3.392   7.807  0.9427  2.9250 -0.5529
 8802SOL    HW238043   0.154   3.337   7.775  1.5122  1.9193 -0.1510
 8803SOL     OW38044   2.686   1.349  17.082  0.2198 -0.6410 -0.0241
 8803SOL    HW138045   2.699   1.414  17.013  1.1023 -1.6336 -0.7812
 8803SOL    HW238046   2.601   1.314  17.054 -0.8491  0.7262  1.4801
 8804SOL     OW38047   1.935   1.615   5.020 -0.1456 -0.0361 -0.0473
 8804SOL    HW138048   1.854   1.655   5.053 -0.4188  0.5686 -1.4370
 8804SOL    HW238049   1.887   1.587   4.942 -0.5433  0.4623  0.0184
 8805SOL     OW38050   3.019   0.289  16.282 -0.0447 -0.2465 -0.2219
 8805SOL    HW138051   3.104   0.320  16.315 -0.2076 -1.1849  1.1087
 8805SOL    HW238052   3.026   0.194  16.298 -2.5798  0.0426  2.7447
 8806SOL     OW38053   4.509   0.370  12.083 -0.3992  0.1678 -0.6960
 8806SOL    HW138054   4.493   0.278  12.104 -2.7850  0.7906  0.2949
 8806SOL    HW238055   4.580   0.359  12.020 -0.0385  0.9554 -0.4133
 8807SOL     OW38056   1.309   3.674   1.962  0.3517  0.0330  0.1996
 8807SOL    HW138057   1.318   3.630   1.877  0.2546  0.5022 -0.0533
 8807SOL    HW238058   1.215   3.675   1.976  0.9053 -0.7997  3.8278
 8808SOL     OW38059   1.483   2.991   5.856 -0.3907 -0.1960 -0.1405
 8808SOL    HW138060   1.388   2.998   5.863 -0.5709 -3.3464  0.3373
 8808SOL    HW238061   1.506   2.943   5.777 -0.6161  0.7471 -0.7840
 8809SOL     OW38062   1.842   4.239  11.205 -0.7578  0.5619  0.8869
 8809SOL    HW138063   1.915   4.177  11.194 -0.5085  0.5154  2.7035
 8809SOL    HW238064   1.840   4.232  11.301 -1.4744 -0.7464  0.7750
 8810SOL     OW38065   2.323   1.842   5.240 -0.2788 -0.1375 -0.1217
 8810SOL    HW138066   2.403   1.862   5.290 -0.9170  1.8071  0.1379
 8810SOL    HW238067   2.285   1.771   5.292 -1.0405 -0.5933 -1.3105
 8811SOL     OW38068   0.783   1.816  15.175 -0.6078  0.6165 -0.1667
 8811SOL    HW138069   0.735   1.744  15.218 -1.5664 -0.1972 -2.6036
 8811SOL    HW238070   0.874   1.799  15.198 -1.0870 -3.4680 -1.2001
 8812SOL     OW38071   3.978   1.686   1.474 -0.0239  0.1093 -0.3959
 8812SOL    HW138072   4.052   1.724   1.521 -0.6646  1.0073 -0.1058
 8812SOL    HW238073   3.903   1.736   1.507 -0.4940 -0.8909  0.0371
 8813SOL     OW38074   2.524   0.804   2.581 -0.5884 -0.5824 -0.1310
 8813SOL    HW138075   2.554   0.884   2.625 -0.1457 -0.3780 -0.8124
 8813SOL    HW238076   2.431   0.800   2.605 -0.5188  1.9872  0.6409
 8814SOL     OW38077   1.122   2.945   7.308 -0.3536 -0.5245 -0.5151
 8814SOL    HW138078   1.215   2.928   7.319 -0.2093  0.6618  0.1246
 8814SOL    HW238079   1.075   2.870   7.343 -1.6137 -0.5874 -2.3341
 8815SOL     OW38080   1.060   2.112   1.964 -0.1665 -0.0479 -0.0616
 8815SOL    HW138081   1.003   2.145   1.895  1.0671 -0.4512 -1.2666
 8815SOL    HW238082   1.127   2.064   1.915 -0.0640  2.8659 -2.7202
 8816SOL     OW38083   0.418   0.015   5.911 -0.2213  0.4047  0.3571
 8816SOL    HW138084   0.363   0.047   5.840 -0.2431 -0.9840 -0.2505
 8816SOL    HW238085   0.467   4.675   5.884  0.2442  1.0871 -0.7541
 8817SOL     OW38086   3.462   3.498   6.755  0.2969 -0.1282 -0.0779
 8817SOL    HW138087   3.442   3.492   6.661  0.2289 -0.7433 -0.0233
 8817SOL    HW238088   3.398   3.436   6.791  0.6522 -0.2034  0.4271
 8818SOL     OW38089   0.414   1.778  13.868  0.2092 -0.3258  0.2422
 8818SOL    HW138090   0.354   1.838  13.913  1.5772 -0.0877  1.7377
 8818SOL    HW238091   0.383   1.797  13.779  1.5513 -0.0133 -0.1489
 8819SOL     OW38092   0.468   0.546   2.339 -0.4835  0.0750 -0.0731
 8819SOL    HW138093   0.457   0.609   2.410 -0.3098  0.8747 -0.7600
 8819SOL    HW238094   0.548   0.576   2.297 -1.0367 -0.7559 -1.7212
 8820SOL     OW38095   0.297   1.119   0.627 -0.3249 -0.5967  0.4285
 8820SOL    HW138096   0.298   1.023   0.624 -0.1086 -0.5745 -0.1460
 8820SOL    HW238097   0.391   1.131   0.615 -0.2182 -2.4551 -0.5592
 8821SOL     OW38098   1.717   3.608   3.838 -0.2228 -0.5170 -0.2965
 8821SOL    HW138099   1.768   3.540   3.793 -0.0159 -1.2673  1.0723
 8821SOL    HW238100   1.777   3.682   3.829  0.3154 -0.8884  0.2685
 8822SOL     OW38101   1.729   1.638   4.527  0.1096 -0.0615 -0.0068
 8822SOL    HW138102   1.687   1.564   4.483 -2.0718  1.7125 -0.8588
 8822SOL    HW238103   1.769   1.692   4.459  0.2744 -0.5745 -0.3204
 8823SOL     OW38104   1.277   4.107   7.648  0.1139 -0.1964  0.1687
 8823SOL    HW138105   1.250   4.198   7.662  0.1766  0.2696 -2.7564
 8823SOL    HW238106   1.301   4.092   7.739 -0.1487 -2.8219 -0.1863
 8824SOL     OW38107   1.906   4.573   6.575  0.1784 -0.1709 -0.4089
 8824SOL    HW138108   2.001   4.589   6.573  0.0711  0.2812 -2.1211
 8824SOL    HW238109   1.869   4.657   6.600  0.4231 -0.0013 -0.6180
 8825SOL     OW38110   4.711   4.153   1.126  0.1989 -0.4360  0.3668
 8825SOL    HW138111   4.663   4.174   1.046  0.5772  4.5506  1.4217
 8825SOL    HW238112   4.721   4.239   1.168 -0.6456 -0.9061  1.5238
 8826SOL     OW38113   3.594   0.020  16.843  0.2048  0.1829  0.2688
 8826SOL    HW138114   3.673   0.074  16.840  1.6588 -1.9091  0.2323
 8826SOL    HW238115   3.537   0.054  16.775  1.5426  0.4788 -0.7088
 8827SOL     OW38116   1.524   2.385  10.754  0.0631 -0.1894 -0.3361
 8827SOL    HW138117   1.619   2.397  10.761 -0.0950  1.5476 -1.1363
 8827SOL    HW238118   1.524   2.290  10.752 -3.2930 -0.2676  3.7516
 8828SOL     OW38119   2.935   0.266   3.857 -0.7847  0.3716  0.2215
 8828SOL    HW138120   2.957   0.358   3.875  0.1150  0.1674  0.1478
 8828SOL    HW238121   2.875   0.241   3.928 -1.3613  0.2238 -0.3157
 8829SOL     OW38122   3.605   1.939  15.792  0.6416 -0.1511  0.9745
 8829SOL    HW138123   3.523   1.980  15.821 -0.3583 -0.5448 -1.3107
 8829SOL    HW238124   3.663   1.938  15.868  0.7137  1.0091  0.9312
 8830SOL     OW38125   1.977   3.053   8.911 -0.5260  0.7410 -0.3842
 8830SOL    HW138126   2.062   3.009   8.921 -2.1628 -2.7217 -1.5608
 8830SOL    HW238127   1.937   3.061   8.998 -0.5836 -0.3137 -0.3064
 8831SOL     OW38128   4.683   2.935   9.196 -0.0852 -0.2045  0.1959
 8831SOL    HW138129   4.677   2.976   9.109  1.2582 -1.3501 -0.4338
 8831SOL    HW238130   0.012   2.988   9.240  0.5260 -1.4808  0.8013
 8832SOL     OW38131   3.762   4.125   2.509  0.4232  0.4267  0.1976
 8832SOL    HW138132   3.801   4.192   2.565  0.8819 -0.3815  0.8531
 8832SOL    HW238133   3.740   4.184   2.437 -1.6294 -0.0578  0.4338
 8833SOL     OW38134   1.298   3.708   3.593 -0.3807 -0.5281  0.3181
 8833SOL    HW138135   1.323   3.656   3.670 -1.7893  0.1724  1.2423
 8833SOL    HW238136   1.373   3.694   3.535  0.8900  2.1439  1.2908
 8834SOL     OW38137   0.868   0.719   0.438  0.5016  0.6530 -0.5670
 8834SOL    HW138138   0.852   0.647   0.377 -0.2080  0.0848  0.2836
 8834SOL    HW238139   0.900   0.687   0.522  0.6734  1.3618 -0.3634
 8835SOL     OW38140   3.247   0.313   7.158 -0.4104 -0.0476  0.6295
 8835SOL    HW138141   3.331   0.335   7.197 -0.6805 -1.5553  2.1063
 8835SOL    HW238142   3.205   0.378   7.102  2.6807  2.1576  0.8783
 8836SOL     OW38143   2.362   2.402   4.903 -0.3355  0.3536  0.2093
 8836SOL    HW138144   2.427   2.472   4.897 -0.9720  0.8713 -0.8401
 8836SOL    HW238145   2.331   2.409   4.993  3.9257 -0.8929  1.7747
 8837SOL     OW38146   0.243   0.155   1.058 -0.2856  0.4270  0.2823
 8837SOL    HW138147   0.256   0.235   1.110  0.3375 -0.0505  0.8688
 8837SOL    HW238148   0.328   0.112   1.059 -1.4846 -1.9089 -0.2112
 8838SOL     OW38149   2.464   2.819   4.148  0.1303  0.1393 -0.3831
 8838SOL    HW138150   2.499   2.908   4.148 -1.9278  0.9554 -0.9750
 8838SOL    HW238151   2.532   2.779   4.203 -0.7745  1.5463  1.7752
 8839SOL     OW38152   4.035   0.907  12.790  0.3062  0.2892  0.3372
 8839SOL    HW138153   3.982   0.829  12.802  0.3612  0.3127  0.7232
 8839SOL    HW238154   4.090   0.906  12.868  0.6170 -2.2992  0.1015
 8840SOL     OW38155   1.191   1.016   3.467  0.0788  0.4908 -0.4631
 8840SOL    HW138156   1.136   1.074   3.414 -0.8005 -0.3687 -0.4830
 8840SOL    HW238157   1.219   0.952   3.402 -0.7995  1.1051 -1.4478
 8841SOL     OW38158   1.730   4.213  12.798 -0.1623  0.0548 -0.2358
 8841SOL    HW138159   1.810   4.244  12.755 -0.7959 -0.2892 -1.6876
 8841SOL    HW238160   1.695   4.159  12.727  1.1721 -0.6362 -0.3621
 8842SOL     OW38161   4.250   1.612  10.535  0.0459 -0.1322  0.0256
 8842SOL    HW138162   4.191   1.538  10.550 -0.0917  0.7590  3.7134
 8842SOL    HW238163   4.302   1.570  10.466 -0.1202 -0.7768  0.2950
 8843SOL     OW38164   0.203   2.162   8.355  0.1641 -0.0268  0.7020
 8843SOL    HW138165   0.202   2.221   8.279  2.2025  0.2221  0.8770
 8843SOL    HW238166   0.213   2.084   8.301  0.3701  0.6116 -0.1968
 8844SOL     OW38167   2.929   3.784   0.151 -0.1195  0.0505  0.7504
 8844SOL    HW138168   2.836   3.801   0.135 -0.3636  1.1899  3.4155
 8844SOL    HW238169   2.929   3.698   0.193 -0.5335  0.4101  1.4795
 8845SOL     OW38170   1.784   1.996  16.623  0.0245  0.2841  0.0050
 8845SOL    HW138171   1.702   2.012  16.575  0.9913  2.2558 -0.9675
 8845SOL    HW238172   1.806   2.083  16.656 -1.2012  1.3084 -1.8567
 8846SOL     OW38173   0.927   2.401   2.551  0.2250  0.2132 -0.1143
 8846SOL    HW138174   0.856   2.437   2.604 -0.4435  0.9230 -1.4882
 8846SOL    HW238175   0.885   2.390   2.466 -2.9803  0.5609  1.4281
 8847SOL     OW38176   3.883   3.250   7.631  0.2429 -0.7258 -0.5584
 8847SOL    HW138177   3.853   3.309   7.701 -1.6857 -0.9514 -1.1896
 8847SOL    HW238178   3.977   3.261   7.644 -0.1513  1.0529  0.8206
 8848SOL     OW38179   1.695   0.167   5.149  0.0147  0.0489  0.1486
 8848SOL    HW138180   1.637   0.102   5.190  1.1760 -0.3404  1.1534
 8848SOL    HW238181   1.650   0.248   5.173  1.2043  0.6560  0.3054
 8849SOL     OW38182   1.911   2.494   3.527  0.0109 -0.5312  0.1580
 8849SOL    HW138183   1.986   2.455   3.482  0.6997  0.0272  0.8295
 8849SOL    HW238184   1.889   2.416   3.577 -1.9476  0.9138  1.5430
 8850SOL     OW38185   4.635   4.679   8.258 -0.6908 -0.1481  0.5404
 8850SOL    HW138186   4.657   4.601   8.309  1.3981 -1.0762 -1.7613
 8850SOL    HW238187   4.625   0.004   8.330 -0.1616 -1.2257  1.5478
 8851SOL     OW38188   3.594   4.329  16.325  0.3429  0.1196 -0.1035
 8851SOL    HW138189   3.665   4.388  16.299  0.8059  0.3719  1.7814
 8851SOL    HW238190   3.599   4.330  16.420  1.1662  0.6166 -0.1510
 8852SOL     OW38191   2.993   3.369  17.689 -0.2794  0.2304 -0.3852
 8852SOL    HW138192   2.947   3.451  17.705 -1.4039 -0.1564 -1.6496
 8852SOL    HW238193   3.079   3.401  17.662  0.1175  1.5552  2.4104
 8853SOL     OW38194   4.590   1.962  10.031 -0.4445 -0.2370 -0.3577
 8853SOL    HW138195   4.666   1.914  10.063 -1.4138 -1.8292 -0.4811
 8853SOL    HW238196   4.585   1.924   9.943 -0.0360  0.8223 -0.8388
 8854SOL     OW38197   0.069   3.825   7.750 -0.3164 -0.2327  0.2661
 8854SOL    HW138198   4.718   3.825   7.713 -0.4787  0.5933  0.6500
 8854SOL    HW238199   0.125   3.836   7.673  0.9089 -1.6113  0.9647
 8855SOL     OW38200   2.384   1.675   9.851  0.0458  0.4944 -0.6885
 8855SOL    HW138201   2.352   1.629   9.773 -0.7661  0.1788 -0.1696
 8855SOL    HW238202   2.391   1.603   9.915  0.5621  2.1640  1.1389
 8856SOL     OW38203   3.890   2.085   7.899  0.1558 -0.3928 -0.1646
 8856SOL    HW138204   3.803   2.080   7.938  0.0852  2.6616  0.1045
 8856SOL    HW238205   3.891   2.018   7.832  2.3247 -1.3531  0.8052
 8857SOL     OW38206   3.883   2.573  10.277 -0.0765 -0.3456 -0.2061
 8857SOL    HW138207   3.852   2.578  10.367 -2.6208  2.8168 -1.2591
 8857SOL    HW238208   3.964   2.528  10.302  0.8589  0.4544 -1.7631
 8858SOL     OW38209   1.036   1.650  17.454 -0.0156  0.4339  0.5603
 8858SOL    HW138210   1.074   1.562  17.447  1.6906  1.2779 -0.8555
 8858SOL    HW238211   1.071   1.698  17.379  2.1802 -2.4588 -0.2971
 8859SOL     OW38212   3.289   0.358   7.978  0.9753  0.5709 -0.4906
 8859SOL    HW138213   3.247   0.444   7.970 -0.2849  0.0330  0.3096
 8859SOL    HW238214   3.230   0.302   8.029  1.8282 -2.1830 -2.5560
 8860SOL     OW38215   3.705   3.555   7.888  0.6439  0.5117 -0.5795
 8860SOL    HW138216   3.782   3.506   7.859 -0.7135 -0.9113 -1.7166
 8860SOL    HW238217   3.719   3.563   7.983  1.4923  1.6541 -0.7863
 8861SOL     OW38218   2.336   3.298   8.092 -0.3189  0.2701  0.2507
 8861SOL    HW138219   2.344   3.379   8.041 -1.8853 -0.5914 -1.3434
 8861SOL    HW238220   2.295   3.327   8.173 -0.2720  2.0671 -0.3617
 8862SOL     OW38221   2.253   2.538   5.406  0.1638 -0.0860 -0.2873
 8862SOL    HW138222   2.267   2.557   5.499  2.3557 -0.1495 -0.6078
 8862SOL    HW238223   2.252   2.628   5.375  1.7880 -0.2989 -0.9813
 8863SOL     OW38224   2.147   1.642   7.720  0.1616 -0.0006 -0.9461
 8863SOL    HW138225   2.126   1.683   7.637 -2.2788  0.7841  0.0408
 8863SOL    HW238226   2.102   1.695   7.786  0.5692  1.6662 -2.0267
 8864SOL     OW38227   0.399   0.927   2.335 -0.4906  0.4195  0.1163
 8864SOL    HW138228   0.463   0.968   2.276  2.4277 -1.0847  2.1973
 8864SOL    HW238229   0.381   1.000   2.394 -0.0556  0.2342  0.4829
 8865SOL     OW38230   4.337   4.545   4.772  0.3229 -0.5058  0.5436
 8865SOL    HW138231   4.406   4.561   4.708 -1.3829  1.8185 -0.7133
 8865SOL    HW238232   4.329   4.633   4.807  2.9323  0.3077 -0.9056
 8866SOL     OW38233   0.821   0.433  11.545 -0.0593 -0.3753 -0.2949
 8866SOL    HW138234   0.819   0.427  11.640  2.3487  0.9438 -0.1656
 8866SOL    HW238235   0.815   0.529  11.536 -0.4124 -0.5588 -2.0484
 8867SOL     OW38236   2.371   0.960   5.386  0.1170  0.7228  0.0686
 8867SOL    HW138237   2.323   0.954   5.303  0.9347 -0.8096 -0.2815
 8867SOL    HW238238   2.420   0.878   5.389 -2.2612 -0.7709 -1.2882
 8868SOL     OW38239   3.320   2.278   8.711  0.1799 -0.0669 -0.5745
 8868SOL    HW138240   3.330   2.372   8.700  0.9025 -0.1466 -0.5832
 8868SOL    HW238241   3.334   2.269   8.806  2.2952 -0.0382 -0.8761
 8869SOL     OW38242   0.434   1.082   5.596  0.4054  0.2408  0.3665
 8869SOL    HW138243   0.378   1.005   5.595 -0.8880  1.1975 -0.7373
 8869SOL    HW238244   0.515   1.036   5.575  0.1576 -0.1012  0.1582
 8870SOL     OW38245   2.074   3.125  12.609  0.7278  0.5681 -0.2748
 8870SOL    HW138246   2.081   3.162  12.697  0.8996 -0.8791  0.3284
 8870SOL    HW238247   1.997   3.069  12.619  0.4436  1.0010 -0.0426
 8871SOL     OW38248   1.324   3.933   6.091  0.2083 -0.3634 -0.2037
 8871SOL    HW138249   1.362   3.897   6.172 -0.3674 -0.3018  0.0947
 8871SOL    HW238250   1.404   3.931   6.039 -0.6281 -0.6669 -1.4569
 8872SOL     OW38251   3.219   1.611   4.633  0.2127 -0.1404 -0.0544
 8872SOL    HW138252   3.303   1.576   4.603  0.1626  0.8071 -1.2869
 8872SOL    HW238253   3.172   1.532   4.659  2.2923 -0.8261  1.6709
 8873SOL     OW38254   0.610   0.417   4.832  0.1376 -0.0241  0.2785
 8873SOL    HW138255   0.686   0.364   4.857  0.0946 -0.8338 -1.3160
 8873SOL    HW238256   0.636   0.495   4.881 -0.5566  0.6332 -0.4013
 8874SOL     OW38257   3.234   2.796   3.928  0.4740  0.2303 -0.4153
 8874SOL    HW138258   3.320   2.756   3.928  0.8469  1.0294 -1.0398
 8874SOL    HW238259   3.223   2.813   4.022 -0.1352  0.4289 -0.5216
 8875SOL     OW38260   4.097   1.012   5.439  0.0262  0.0543 -0.1749
 8875SOL    HW138261   4.077   1.024   5.532  1.9618 -0.4991  0.3124
 8875SOL    HW238262   4.027   0.956   5.406 -0.9133  2.0908 -1.6147
 8876SOL     OW38263   1.834   1.272   1.833  0.4078 -0.0457 -0.1415
 8876SOL    HW138264   1.750   1.262   1.789 -0.0553  0.0411  0.7169
 8876SOL    HW238265   1.824   1.348   1.891  0.6492  1.9610 -2.7572
 8877SOL     OW38266   3.251   3.270   6.833  0.3886  0.4605  0.0144
 8877SOL    HW138267   3.291   3.183   6.835  1.3631  0.9400  1.5611
 8877SOL    HW238268   3.268   3.301   6.922  0.6128  0.2410  0.0471
 8878SOL     OW38269   3.617   1.319   1.620  0.1670 -0.6866  0.0357
 8878SOL    HW138270   3.567   1.243   1.589 -0.5834  0.6157 -1.9676
 8878SOL    HW238271   3.660   1.348   1.539  0.9632 -2.2264 -0.0862
 8879SOL     OW38272   2.916   1.145   9.735  0.3205  0.5548 -0.4368
 8879SOL    HW138273   2.919   1.223   9.791 -0.2277  1.5971 -1.8506
 8879SOL    HW238274   2.932   1.183   9.648 -0.1269  0.3968 -0.5916
 8880SOL     OW38275   0.770   4.671   3.979  0.5222 -0.4390  0.3728
 8880SOL    HW138276   0.837   4.621   3.932 -0.0296  0.4288 -1.3663
 8880SOL    HW238277   0.692   4.659   3.924 -0.1642 -1.6987  1.6422
 8881SOL     OW38278   1.505   4.478  12.011 -0.3657  0.5897 -0.6117
 8881SOL    HW138279   1.495   4.408  11.946  2.3558  0.5748 -1.0307
 8881SOL    HW238280   1.600   4.479  12.024 -0.2493  0.7334 -1.4199
 8882SOL     OW38281   2.466   2.586  10.365 -0.0021 -0.4434  0.0422
 8882SOL    HW138282   2.396   2.591  10.301  0.0309 -2.0227 -0.1155
 8882SOL    HW238283   2.505   2.503  10.337 -1.0174 -1.2692  1.0533
 8883SOL     OW38284   2.816   4.310   8.096 -0.4803  0.2697  0.7136
 8883SOL    HW138285   2.738   4.269   8.134  0.0195 -1.0949  0.2699
 8883SOL    HW238286   2.810   4.401   8.124  1.0992  0.2396  1.1494
 8884SOL     OW38287   4.149   4.637   3.967  0.3142 -0.1419 -0.3885
 8884SOL    HW138288   4.158   4.562   3.908 -0.2458 -1.7039  1.5069
 8884SOL    HW238289   4.138   4.602   4.055  0.7197 -2.3798 -1.2043
 8885SOL     OW38290   4.481   3.379   4.939 -0.0124  0.2866 -0.1378
 8885SOL    HW138291   4.482   3.322   5.015 -0.1156 -0.1118 -0.4363
 8885SOL    HW238292   4.404   3.349   4.890  0.2713  1.6549 -1.4274
 8886SOL     OW38293   4.000   0.897  13.351  0.7146 -0.2796 -0.4272
 8886SOL    HW138294   4.037   0.942  13.276  0.5404  1.6424  0.6435
 8886SOL    HW238295   3.948   0.970  13.387  2.4286  0.0588  1.3810
 8887SOL     OW38296   1.912   1.864   3.651 -0.6691  0.2629 -0.3114
 8887SOL    HW138297   1.860   1.926   3.599 -0.5063  0.7298  0.0780
 8887SOL    HW238298   1.877   1.778   3.627  0.1426 -0.0627 -0.3417
 8888SOL     OW38299   0.588   0.755   2.750 -0.1413 -0.4948  0.2196
 8888SOL    HW138300   0.663   0.708   2.785 -0.3857 -0.3254  0.9579
 8888SOL    HW238301   0.547   0.779   2.833 -0.9554 -0.0932 -0.2990
 8889SOL     OW38302   2.032   1.974   3.865 -0.8276 -0.6371 -0.1303
 8889SOL    HW138303   2.071   1.901   3.913  0.1522 -1.0185 -1.5174
 8889SOL    HW238304   1.981   1.932   3.796  0.7185 -1.1984 -0.9310
 8890SOL     OW38305   1.254   0.459   0.465 -0.4734  0.3103  0.2480
 8890SOL    HW138306   1.290   0.541   0.500 -0.4217 -0.2540  1.5233
 8890SOL    HW238307   1.335   0.407   0.466 -1.0710 -0.6074  0.4444
 8891SOL     OW38308   3.356   0.476  13.139 -0.1978 -0.1845  0.5452
 8891SOL    HW138309   3.398   0.561  13.154 -1.3254  0.5791 -0.5588
 8891SOL    HW238310   3.391   0.478  13.050  1.9908 -1.3486  1.3992
 8892SOL     OW38311   4.682   1.338   9.632 -0.5209 -0.1883 -0.1531
 8892SOL    HW138312   0.040   1.338   9.619 -0.4426  1.1311  0.4155
 8892SOL    HW238313   4.677   1.276   9.705  0.8594  0.2589  0.3171
 8893SOL     OW38314   4.107   0.056   2.859  0.2509 -0.1598 -0.1213
 8893SOL    HW138315   4.112   4.732   2.786 -2.7354  0.3448 -0.7681
 8893SOL    HW238316   4.195   0.057   2.895  0.7593  1.0354 -1.4016
 8894SOL     OW38317   3.139   0.501   8.858  0.1963 -0.1774 -0.5861
 8894SOL    HW138318   3.169   0.525   8.946  0.5103 -2.7882  0.0135
 8894SOL    HW238319   3.218   0.459   8.825  1.5216  2.2784 -0.5681
 8895SOL     OW38320   4.523   1.497   2.349 -0.4987 -0.2050 -0.0305
 8895SOL    HW138321   4.536   1.411   2.389 -1.7025  0.6387  2.2105
 8895SOL    HW238322   4.528   1.539   2.435 -0.2092  0.5398 -0.4130
 8896SOL     OW38323   0.456   1.082  12.084 -0.1031  0.2645  0.5185
 8896SOL    HW138324   0.444   1.094  12.178 -2.3945  0.8921  0.1388
 8896SOL    HW238325   0.398   1.155  12.059 -2.2147 -1.5535  0.0879
 8897SOL     OW38326   3.135   4.101   9.029  0.1934 -0.1394  0.0171
 8897SOL    HW138327   3.149   4.170   9.094 -1.5040  0.6574 -0.4626
 8897SOL    HW238328   3.161   4.020   9.073  2.3821  0.9857  0.7920
 8898SOL     OW38329   4.578   2.197   8.452 -0.5543  0.5788 -0.1300
 8898SOL    HW138330   4.613   2.268   8.506  0.2408 -0.0292  0.1606
 8898SOL    HW238331   4.619   2.117   8.486 -4.1253 -1.5714 -0.8721
 8899SOL     OW38332   3.373   4.112   7.215 -0.3470  0.1736 -0.2484
 8899SOL    HW138333   3.363   4.153   7.301  1.4797  0.8086 -0.3268
 8899SOL    HW238334   3.391   4.020   7.230 -0.3926 -0.1038 -1.9011
 8900SOL     OW38335   3.801   2.153   6.435  1.1554 -0.1875  0.7779
 8900SOL    HW138336   3.778   2.112   6.518 -0.4997  0.1323  0.4744
 8900SOL    HW238337   3.723   2.208   6.430  0.0611 -1.6144  2.2857
 8901SOL     OW38338   2.366   1.734   8.050  0.0384 -0.0532  0.0958
 8901SOL    HW138339   2.428   1.686   7.994  0.2262 -3.2298  3.0269
 8901SOL    HW238340   2.420   1.735   8.129 -0.9610  1.1195  0.7457
 8902SOL     OW38341   0.021   3.797   3.603  0.5001  0.3199  0.0953
 8902SOL    HW138342   0.041   3.824   3.693 -0.1599 -0.9978  0.6322
 8902SOL    HW238343   0.047   3.706   3.614 -0.1756 -0.0963 -1.8064
 8903SOL     OW38344   3.174   1.475  13.029 -0.1395  0.0432 -0.8924
 8903SOL    HW138345   3.100   1.517  13.071 -0.0096 -0.3835 -0.2296
 8903SOL    HW238346   3.138   1.386  13.019  2.4900 -1.0315 -0.9402
 8904SOL     OW38347   1.748   1.834   4.872  0.1914 -0.5645 -0.7029
 8904SOL    HW138348   1.682   1.831   4.803  0.4787  0.7502 -1.0457
 8904SOL    HW238349   1.806   1.905   4.844  0.2942 -0.4998 -0.3175
 8905SOL     OW38350   2.901   1.228   3.450  0.1470  0.4228  0.5274
 8905SOL    HW138351   2.924   1.319   3.469  0.6412  0.4726 -0.2840
 8905SOL    HW238352   2.829   1.211   3.510 -1.1390  0.0398 -1.1362
 8906SOL     OW38353   2.263   1.356   9.320  0.1117 -0.1192 -0.0496
 8906SOL    HW138354   2.249   1.413   9.245 -2.7510 -2.9298 -1.6680
 8906SOL    HW238355   2.176   1.329   9.351 -0.0753 -0.0794 -0.5351
 8907SOL     OW38356   1.192   2.457  15.355 -0.6697  0.1472  0.2698
 8907SOL    HW138357   1.169   2.504  15.436  1.2217 -0.6500  1.2747
 8907SOL    HW238358   1.148   2.505  15.285  0.0261 -2.5809 -2.0351
 8908SOL     OW38359   3.970   4.404   2.829  0.4976  0.1874  0.6819
 8908SOL    HW138360   4.027   4.467   2.785  0.6590  0.7968  1.7515
 8908SOL    HW238361   4.033   4.376   2.895 -0.0551 -1.6109  0.4419
 8909SOL     OW38362   1.895   3.927   9.115  0.0501 -0.3148 -0.1812
 8909SOL    HW138363   1.878   3.865   9.186 -1.1529 -0.3347 -0.4847
 8909SOL    HW238364   1.805   3.958   9.111  0.5375  1.2904  1.6559
 8910SOL     OW38365   3.302   3.254   2.999  0.2402 -0.0424  0.1942
 8910SOL    HW138366   3.308   3.293   2.912  1.7619 -1.2501 -0.2365
 8910SOL    HW238367   3.245   3.325   3.030  0.0511 -1.0004  2.0103
 8911SOL     OW38368   0.434   1.697   0.794 -0.0196 -0.6128  0.7769
 8911SOL    HW138369   0.407   1.727   0.707 -0.2252 -1.5950  0.5092
 8911SOL    HW238370   0.521   1.737   0.804  0.0486 -0.0137 -2.2061
 8912SOL     OW38371   2.003   3.676   7.961  0.0606  0.8897 -0.4563
 8912SOL    HW138372   1.969   3.696   7.874  2.1397  3.6311 -0.6138
 8912SOL    HW238373   2.010   3.582   7.943  0.9280  1.0206 -0.7792
 8913SOL     OW38374   3.919   0.661   2.354  0.0844  0.0389  0.4067
 8913SOL    HW138375   3.996   0.713   2.334  1.8580 -2.5076  0.6224
 8913SOL    HW238376   3.856   0.683   2.285 -0.2514 -1.5425  0.2153
 8914SOL     OW38377   3.324   4.007  15.196  0.2752  0.8634  0.0634
 8914SOL    HW138378   3.294   3.917  15.212 -0.6941  1.3858  1.1452
 8914SOL    HW238379   3.258   4.034  15.132 -0.9662  1.1125  1.4609
 8915SOL     OW38380   3.989   2.986  11.513 -0.1264 -0.5795 -0.3711
 8915SOL    HW138381   4.013   3.069  11.555 -0.7648 -1.5328  1.8887
 8915SOL    HW238382   3.961   3.025  11.430  1.8881 -1.0792 -1.2827
 8916SOL     OW38383   0.939   3.545   8.934  0.2054 -0.5004 -0.2482
 8916SOL    HW138384   0.904   3.571   8.849 -2.4768  1.2324  1.3872
 8916SOL    HW238385   1.030   3.576   8.929 -0.2546  1.3480  2.3638
 8917SOL     OW38386   1.100   2.068  12.352  0.3351  0.0969 -0.1864
 8917SOL    HW138387   1.169   2.003  12.337 -0.9690 -1.0326 -1.3177
 8917SOL    HW238388   1.019   2.035  12.312  1.0793 -0.9776 -0.8030
 8918SOL     OW38389   1.321   2.655   5.832 -0.0244  0.1135 -0.1586
 8918SOL    HW138390   1.372   2.703   5.767  0.2563  0.4283  0.2966
 8918SOL    HW238391   1.234   2.640   5.793  1.1522 -0.5369 -2.5092
 8919SOL     OW38392   2.486   2.001   6.394 -0.1249 -0.4465 -0.3168
 8919SOL    HW138393   2.469   2.039   6.480  0.6180 -0.2492 -0.2496
 8919SOL    HW238394   2.423   2.048   6.340  1.5114  0.1645 -1.6886
 8920SOL     OW38395   0.801   1.466   3.330 -0.7637  1.0895  0.1842
 8920SOL    HW138396   0.812   1.388   3.385 -0.8052  1.3760  0.5928
 8920SOL    HW238397   0.802   1.525   3.405  0.1418  0.6076  0.5559
 8921SOL     OW38398   3.311   1.880   4.598 -0.6131 -0.1154  0.3076
 8921SOL    HW138399   3.273   1.793   4.605  1.0631 -0.6940  2.4112
 8921SOL    HW238400   3.265   1.914   4.522 -1.2674 -2.7893 -0.4519
 8922SOL     OW38401   1.848   0.166   5.901  0.5540  0.0637  0.9538
 8922SOL    HW138402   1.867   0.253   5.864  0.2176 -0.9402 -1.6012
 8922SOL    HW238403   1.915   0.160   5.969 -1.0035  1.0091  2.5820
 8923SOL     OW38404   4.219   3.600   1.569  0.1298 -0.3329  0.2422
 8923SOL    HW138405   4.203   3.637   1.482 -0.3107 -1.6263 -0.2356
 8923SOL    HW238406   4.228   3.677   1.624  0.5668 -0.8171  0.8429
 8924SOL     OW38407   1.039   0.497   5.604 -0.2026  0.5404 -0.1814
 8924SOL    HW138408   1.009   0.439   5.674 -0.5786 -0.0619 -0.8357
 8924SOL    HW238409   0.954   0.503   5.560 -0.3335  0.4203  0.0540
 8925SOL     OW38410   1.855   1.926  14.821 -0.7774  0.4676  0.0481
 8925SOL    HW138411   1.903   2.009  14.824  0.3000 -0.1432 -0.5241
 8925SOL    HW238412   1.767   1.956  14.799 -1.4002 -1.3748  0.0286
 8926SOL     OW38413   2.020   1.149   1.129 -0.3663  0.3677  0.4869
 8926SOL    HW138414   2.077   1.197   1.190  1.0624 -0.8116  0.0725
 8926SOL    HW238415   2.081   1.076   1.119  0.1567  1.0905 -1.6051
 8927SOL     OW38416   2.281   0.907   5.674 -0.2375 -0.1534  0.1313
 8927SOL    HW138417   2.314   0.936   5.589 -1.6996  3.0481  0.6398
 8927SOL    HW238418   2.362   0.913   5.725  0.5935  2.1705 -1.4756
 8928SOL     OW38419   2.064   3.194  14.850 -0.2275  0.2976  0.0970
 8928SOL    HW138420   2.022   3.138  14.916 -1.3419 -0.9195 -1.6551
 8928SOL    HW238421   2.158   3.184  14.866 -0.5229 -0.6449  1.2979
 8929SOL     OW38422   1.852   2.191   7.964  0.6135 -0.3517 -0.2438
 8929SOL    HW138423   1.912   2.151   8.027 -0.3264 -1.0502  0.2188
 8929SOL    HW238424   1.909   2.265   7.943  0.0688  0.4250  1.0534
 8930SOL     OW38425   4.164   1.824   7.279 -0.7723 -0.0027 -0.5756
 8930SOL    HW138426   4.128   1.805   7.192 -0.0997 -0.1536 -0.8147
 8930SOL    HW238427   4.231   1.889   7.259 -0.9345  0.3124 -0.1028
 8931SOL     OW38428   3.687   0.530   1.256 -0.0752 -0.0410 -0.3767
 8931SOL    HW138429   3.637   0.497   1.182 -0.9045 -1.2475  0.7197
 8931SOL    HW238430   3.665   0.472   1.329  2.0535 -0.6147 -0.1995
 8932SOL     OW38431   2.490   4.269   4.530 -0.6544  0.7192  0.1357
 8932SOL    HW138432   2.481   4.177   4.503  1.1158  0.6494 -0.2538
 8932SOL    HW238433   2.405   4.303   4.500 -0.2763  1.2291 -0.3643
 8933SOL     OW38434   0.681   2.285  15.639 -0.2291 -0.2481  0.0364
 8933SOL    HW138435   0.694   2.372  15.601 -3.8478  0.4033  0.3107
 8933SOL    HW238436   0.627   2.239  15.576  2.6177 -1.9011 -1.2011
 8934SOL     OW38437   4.736   2.298  13.721 -0.3868  0.6116  0.3789
 8934SOL    HW138438   0.069   2.247  13.680 -0.2400  1.5523 -0.5487
 8934SOL    HW238439   0.054   2.370  13.751 -2.6266  1.7509  1.7257
 8935SOL     OW38440   4.484   3.685   6.092 -0.1217  0.3986  0.3628
 8935SOL    HW138441   4.465   3.612   6.033 -1.0189 -0.2366  1.4429
 8935SOL    HW238442   4.410   3.738   6.063  1.2307  1.3313 -1.4461
 8936SOL     OW38443   3.688   4.465   4.157 -0.5908  0.5066  0.5772
 8936SOL    HW138444   3.741   4.437   4.082 -2.7372  2.9098 -1.8258
 8936SOL    HW238445   3.664   4.553   4.127 -0.6568 -0.0080 -0.8995
 8937SOL     OW38446   2.782   0.503   3.200  0.3210 -0.5943 -0.5908
 8937SOL    HW138447   2.813   0.578   3.149 -0.0327 -1.0547 -1.4876
 8937SOL    HW238448   2.752   0.555   3.274  1.2432 -0.4868 -0.3001
 8938SOL     OW38449   1.917   0.077  17.502  0.1072  0.2359  0.0864
 8938SOL    HW138450   1.942   0.158  17.458  3.1330  0.0048  1.3646
 8938SOL    HW238451   1.825   0.087  17.528 -0.1070  0.3337 -0.6960
 8939SOL     OW38452   2.433   1.353   8.248  0.4649  0.1439  0.0299
 8939SOL    HW138453   2.347   1.385   8.221 -0.1547 -1.6439 -0.1255
 8939SOL    HW238454   2.446   1.408   8.325 -1.0073  0.8317 -0.2228
 8940SOL     OW38455   3.337   3.916   3.068 -0.4212  0.1197 -0.0687
 8940SOL    HW138456   3.390   3.969   3.009  0.2394 -1.5303 -0.9694
 8940SOL    HW238457   3.272   3.977   3.102 -0.7460  0.4974 -1.3675
 8941SOL     OW38458   3.880   3.120   9.357  1.0807  0.2993  0.0497
 8941SOL    HW138459   3.825   3.055   9.314  0.3749  0.6220  0.4593
 8941SOL    HW238460   3.928   3.058   9.413 -0.1591 -1.4858 -0.8757
 8942SOL     OW38461   0.063   3.945   7.124  0.1131 -0.5428  0.0804
 8942SOL    HW138462   0.083   3.891   7.200 -1.4062 -0.2371  0.6926
 8942SOL    HW238463   0.061   4.031   7.167  0.4128 -1.1464  1.3093
 8943SOL     OW38464   1.802   4.288   8.598 -0.0903  0.0415 -0.0741
 8943SOL    HW138465   1.875   4.349   8.585 -0.8529  1.6231  2.9141
 8943SOL    HW238466   1.782   4.287   8.692  1.6439  0.4593  0.3130
 8944SOL     OW38467   0.101   2.435   6.301  0.6315  0.2506 -0.3857
 8944SOL    HW138468   0.028   2.461   6.358  0.7108  1.5181 -0.8681
 8944SOL    HW238469   0.068   2.351   6.269 -1.1326  0.4888  0.7727
 8945SOL     OW38470   1.381   1.642  12.103  0.0907 -0.3838 -0.0328
 8945SOL    HW138471   1.423   1.557  12.114 -0.7215 -0.7710  0.1132
 8945SOL    HW238472   1.288   1.620  12.091  0.1885 -0.6036 -0.4009
 8946SOL     OW38473   0.379   2.510   6.381 -0.1110  0.3867 -0.3813
 8946SOL    HW138474   0.300   2.466   6.352  0.4551 -3.0867  3.4096
 8946SOL    HW238475   0.341   2.577   6.438  0.4815  1.2521 -0.9961
 8947SOL     OW38476   3.383   3.175   9.596 -0.0195 -0.2267  0.2631
 8947SOL    HW138477   3.311   3.234   9.618 -0.2418 -0.3277 -0.1941
 8947SOL    HW238478   3.347   3.090   9.570 -1.4494  0.4638 -0.0115
 8948SOL     OW38479   1.921   0.550  12.920  0.0099  0.5030 -0.4562
 8948SOL    HW138480   1.922   0.552  13.016  0.7220  1.6264 -0.4867
 8948SOL    HW238481   1.949   0.460  12.904  1.6226  1.0635 -0.8625
 8949SOL     OW38482   4.475   3.261   2.833 -0.4067 -0.0779  0.3706
 8949SOL    HW138483   4.481   3.190   2.896  0.7474 -0.9104 -0.6837
 8949SOL    HW238484   4.415   3.215   2.775  0.3019 -0.2323 -0.2446
 8950SOL     OW38485   0.783   4.034   5.995 -1.1398  0.3467  0.4684
 8950SOL    HW138486   0.862   4.044   5.942 -0.5328  0.8812  1.4886
 8950SOL    HW238487   0.764   3.940   5.993  0.9025 -0.0233 -0.8465
 8951SOL     OW38488   3.870   4.219   9.390 -0.4527 -0.3234  0.0550
 8951SOL    HW138489   3.938   4.258   9.335 -0.6662 -0.9613 -0.6622
 8951SOL    HW238490   3.894   4.127   9.392  0.2475 -0.1160  0.8646
 8952SOL     OW38491   1.120   4.453   5.117 -0.1007  0.0906 -0.0545
 8952SOL    HW138492   1.159   4.372   5.085 -1.0708  0.2168 -1.5822
 8952SOL    HW238493   1.163   4.455   5.202  2.4481 -0.0281 -1.3382
 8953SOL     OW38494   0.594   0.362   5.703 -0.4319 -0.3649  0.3733
 8953SOL    HW138495   0.581   0.442   5.652 -1.9306  0.0602  1.4455
 8953SOL    HW238496   0.621   0.384   5.792  0.7215  2.5789 -0.7088
 8954SOL     OW38497   2.112   1.482  10.843 -0.0910 -0.7470  0.6484
 8954SOL    HW138498   2.023   1.504  10.871  0.4622  2.1079  0.1023
 8954SOL    HW238499   2.167   1.483  10.922 -1.8329 -0.9821  1.8723
 8955SOL     OW38500   2.329   2.609   2.142 -0.3161 -0.0648  0.1395
 8955SOL    HW138501   2.250   2.661   2.160  0.1077  0.5711  0.1439
 8955SOL    HW238502   2.391   2.681   2.154  0.7893 -0.7796 -1.3358
 8956SOL     OW38503   2.061   0.652   2.801 -1.2040 -0.2519 -0.0352
 8956SOL    HW138504   1.984   0.708   2.809 -1.7991 -0.9141 -1.1388
 8956SOL    HW238505   2.021   0.566   2.813 -1.6763  0.2770  2.3322
 8957SOL     OW38506   3.412   1.900  11.048  0.7069  0.2403 -0.5222
 8957SOL    HW138507   3.376   1.907  11.137  0.7636 -0.5521 -0.4389
 8957SOL    HW238508   3.328   1.891  11.002  2.5239 -0.6051 -3.6499
 8958SOL     OW38509   2.675   2.053   1.192 -0.3880 -0.0975 -0.1662
 8958SOL    HW138510   2.627   2.028   1.113 -1.1450  3.7048 -0.9529
 8958SOL    HW238511   2.649   1.988   1.257  0.8879 -1.2285 -0.7860
 8959SOL     OW38512   1.052   2.367   0.054  0.2147  0.1575  0.0514
 8959SOL    HW138513   1.085   2.432  17.740  0.7548  0.3169  0.5085
 8959SOL    HW238514   1.099   2.288   0.025  1.5011  0.7003  0.6784
 8960SOL     OW38515   0.203   0.866   2.028  0.6136  0.4825  0.1735
 8960SOL    HW138516   0.217   0.955   2.059 -1.3454  1.1168 -0.7457
 8960SOL    HW238517   0.179   0.822   2.109  0.7094  0.5521  0.2394
 8961SOL     OW38518   1.882   4.220  15.477  0.0214  0.4125  0.5803
 8961SOL    HW138519   1.920   4.235  15.391 -0.6317  1.7813  0.5212
 8961SOL    HW238520   1.900   4.302  15.524  0.1688  0.7860 -0.1309
 8962SOL     OW38521   4.015   1.425   4.685 -0.4512 -0.7422  0.9363
 8962SOL    HW138522   3.955   1.389   4.620  0.5705 -2.0602  0.7182
 8962SOL    HW238523   3.958   1.452   4.757 -1.1938 -2.7344  1.0851
 8963SOL     OW38524   2.862   0.610   0.591 -1.0490  0.0354  0.3595
 8963SOL    HW138525   2.781   0.617   0.541 -0.7907 -2.2021 -0.3496
 8963SOL    HW238526   2.926   0.620   0.520 -0.0447  1.2944  1.4168
 8964SOL     OW38527   2.008   3.850   2.284 -0.0896 -0.0563  0.2311
 8964SOL    HW138528   1.957   3.892   2.214 -0.2869  0.2838  0.5787
 8964SOL    HW238529   1.937   3.810   2.335  0.2980  1.0370  1.6143
 8965SOL     OW38530   0.304   3.495   2.383 -0.3641  0.1139 -0.1395
 8965SOL    HW138531   0.367   3.552   2.339  0.6768 -0.7499  0.2348
 8965SOL    HW238532   0.290   3.426   2.319  1.4205 -0.6921  0.3239
 8966SOL     OW38533   1.661   2.636   8.227 -0.3449 -0.2874  0.4220
 8966SOL    HW138534   1.641   2.656   8.136  1.1734 -1.2775 -0.1409
 8966SOL    HW238535   1.620   2.556   8.258 -0.9221  0.0348  0.4935
 8967SOL     OW38536   3.384   0.590   2.804  0.2381 -0.1447  0.3819
 8967SOL    HW138537   3.471   0.619   2.777  0.5968 -1.5448  0.0126
 8967SOL    HW238538   3.357   0.526   2.738 -1.1577  0.3030  0.5090
 8968SOL     OW38539   2.061   3.223   3.808 -0.2992 -0.5406 -0.4395
 8968SOL    HW138540   2.130   3.266   3.859 -0.3249 -1.8630  0.7010
 8968SOL    HW238541   2.080   3.129   3.807  3.1148  0.1385  1.7746
 8969SOL     OW38542   1.175   3.582   4.851  0.1092  0.5914 -0.7016
 8969SOL    HW138543   1.104   3.643   4.834 -1.3854 -0.4647  1.6904
 8969SOL    HW238544   1.169   3.557   4.943 -0.3673  0.4247 -0.7784
 8970SOL     OW38545   1.682   4.123   5.415 -0.2763  0.6470  0.3620
 8970SOL    HW138546   1.605   4.154   5.366 -0.0051  1.1210  0.2283
 8970SOL    HW238547   1.713   4.054   5.357 -0.7329 -1.4708  2.6505
 8971SOL     OW38548   4.077   1.935  11.727  0.1069  0.9295 -0.0446
 8971SOL    HW138549   4.156   1.896  11.690  0.5120  2.2330 -0.5580
 8971SOL    HW238550   4.074   2.019  11.682 -1.9443  0.7061 -0.3016
 8972SOL     OW38551   1.617   3.602   7.636  0.3179  0.1770  0.0530
 8972SOL    HW138552   1.602   3.517   7.678  0.8657 -0.1590 -0.4435
 8972SOL    HW238553   1.647   3.572   7.550  0.7153  0.8760 -0.0440
 8973SOL     OW38554   3.693   3.816   1.033 -0.1704  0.2799 -0.2279
 8973SOL    HW138555   3.620   3.803   0.972 -1.0157  1.7640  0.4664
 8973SOL    HW238556   3.769   3.798   0.977 -0.2525  0.5999 -0.4396
 8974SOL     OW38557   3.794   2.632  14.301  0.0684  0.0216  0.0204
 8974SOL    HW138558   3.800   2.579  14.221  0.2949 -0.2659  0.2312
 8974SOL    HW238559   3.701   2.636  14.322  0.5083 -1.9088  2.2500
 8975SOL     OW38560   2.270   1.026  12.090 -0.3430 -0.0376 -0.0971
 8975SOL    HW138561   2.186   1.050  12.049 -0.4992  0.7693  0.6945
 8975SOL    HW238562   2.325   1.103  12.074 -0.1751 -0.3020 -0.8071
 8976SOL     OW38563   2.603   2.558   9.248 -0.6398  0.6395  0.1078
 8976SOL    HW138564   2.514   2.579   9.276 -0.3787 -0.1075  1.4956
 8976SOL    HW238565   2.594   2.521   9.160 -1.7920  1.1110  0.0260
 8977SOL     OW38566   3.627   3.830   4.289  0.1951 -0.1948  0.4574
 8977SOL    HW138567   3.628   3.822   4.194  1.6341 -0.5733  0.5080
 8977SOL    HW238568   3.618   3.743   4.326 -3.1545  0.2840  0.7953
 8978SOL     OW38569   2.353   1.453   5.073  0.4307 -0.4241  0.6384
 8978SOL    HW138570   2.347   1.501   5.156 -0.8212  0.4011  0.0662
 8978SOL    HW238571   2.334   1.524   5.011  1.5143 -1.2513 -0.6268
 8979SOL     OW38572   4.494   0.993   9.593 -0.5886  0.3057  0.3928
 8979SOL    HW138573   4.580   0.984   9.632 -1.0747  0.3457  1.4720
 8979SOL    HW238574   4.439   0.969   9.668  0.4956  0.7225  1.3251
 8980SOL     OW38575   2.662   3.366   2.113 -0.0502  0.6311 -0.2273
 8980SOL    HW138576   2.698   3.302   2.174 -3.9883 -1.1550  0.2125
 8980SOL    HW238577   2.744   3.403   2.081  1.5848 -2.1174  0.8018
 8981SOL     OW38578   1.791   1.652  13.561 -0.0781 -0.4318  0.1310
 8981SOL    HW138579   1.734   1.721  13.527 -0.3100 -1.1613 -0.9766
 8981SOL    HW238580   1.748   1.573  13.529 -0.5882 -0.1038  0.0115
 8982SOL     OW38581   0.104   1.578   5.344 -0.3768  0.0885 -0.0814
 8982SOL    HW138582   0.059   1.652   5.304 -2.4472 -1.9399 -1.4714
 8982SOL    HW238583   0.071   1.522   5.274  3.5644 -0.8681 -1.1702
 8983SOL     OW38584   1.174   2.826   5.288 -0.3100 -0.3381  0.6800
 8983SOL    HW138585   1.176   2.921   5.289 -0.9926 -0.3402  4.6041
 8983SOL    HW238586   1.093   2.819   5.237 -0.3490 -1.2735  0.8733
 8984SOL     OW38587   3.102   0.222   7.380 -0.2733 -0.0186  0.0463
 8984SOL    HW138588   3.106   0.135   7.341 -3.7805  0.2682 -0.9147
 8984SOL    HW238589   3.152   0.275   7.318 -0.2020 -0.3879 -0.2128
 8985SOL     OW38590   3.729   0.567   7.051 -0.5259  0.2116 -0.3892
 8985SOL    HW138591   3.646   0.520   7.047  0.1957 -1.1870  1.2493
 8985SOL    HW238592   3.705   0.659   7.044 -0.1905  0.1857 -1.9494
 8986SOL     OW38593   0.130   0.559   5.464  1.0151  0.0675 -0.3105
 8986SOL    HW138594   0.094   0.561   5.553 -0.0112 -1.8312 -0.6876
 8986SOL    HW238595   0.199   0.495   5.482  0.6471 -0.7895 -1.8887
 8987SOL     OW38596   3.381   3.488   4.703 -0.0401  0.0149 -0.1343
 8987SOL    HW138597   3.467   3.446   4.698 -2.0258 -3.8349 -2.4213
 8987SOL    HW238598   3.358   3.480   4.796 -1.0724 -1.9975 -0.5635
 8988SOL     OW38599   2.203   4.498  15.404 -0.4293 -0.3211  0.5731
 8988SOL    HW138600   2.161   4.528  15.484 -0.9104 -3.6203  1.5426
 8988SOL    HW238601   2.131   4.461  15.353 -0.0064 -0.0839 -0.2009
 8989SOL     OW38602   3.881   1.429   1.765  0.0769 -0.5955 -0.4114
 8989SOL    HW138603   3.861   1.347   1.721 -1.4113  0.2605 -1.3494
 8989SOL    HW238604   3.855   1.408   1.854  1.2077  2.4711  0.6593
 8990SOL     OW38605   2.084   2.705   3.203  0.3318 -0.0848 -0.5419
 8990SOL    HW138606   2.166   2.755   3.202  0.4287 -0.1982  2.8434
 8990SOL    HW238607   2.061   2.727   3.293  4.0596  0.7680  0.1915
 8991SOL     OW38608   1.873   2.955   3.012  0.2056  0.7493 -0.0858
 8991SOL    HW138609   1.857   2.875   3.063  0.6402  1.3834  1.0447
 8991SOL    HW238610   1.816   3.027   3.038  3.1664  2.9711  0.2273
 8992SOL     OW38611   3.393   4.677   9.122 -0.0464  0.2527  0.2807
 8992SOL    HW138612   3.466   4.649   9.177  1.0093 -0.0415 -1.2679
 8992SOL    HW238613   3.345   4.595   9.110 -1.4771  1.2044 -0.5265
 8993SOL     OW38614   2.591   0.305   9.195 -0.5074  0.1446 -0.1376
 8993SOL    HW138615   2.560   0.215   9.203 -1.9275  0.5994 -0.4074
 8993SOL    HW238616   2.519   0.345   9.245  1.3251  0.8168  1.9944
 8994SOL     OW38617   4.180   3.000   7.085  0.3573 -0.3372  0.1522
 8994SOL    HW138618   4.182   3.086   7.042 -0.0084 -0.6362 -0.4753
 8994SOL    HW238619   4.236   2.946   7.029  1.4677  0.9481  0.0298
 8995SOL     OW38620   2.165   3.643   5.111 -0.3523  0.1910  0.2168
 8995SOL    HW138621   2.261   3.647   5.115 -0.1981 -2.7136 -0.4874
 8995SOL    HW238622   2.151   3.592   5.191  0.0970  0.7554  0.6532
 8996SOL     OW38623   2.813   2.279   2.375  0.3041 -0.2730 -0.7358
 8996SOL    HW138624   2.744   2.338   2.402  1.3446  0.5985  0.0298
 8996SOL    HW238625   2.877   2.341   2.340 -0.7899  2.1054  1.4777
 8997SOL     OW38626   0.763   0.996   0.879 -0.5214 -0.2255  0.0223
 8997SOL    HW138627   0.765   0.905   0.909  1.0449  0.0769  0.8269
 8997SOL    HW238628   0.799   1.040   0.956 -1.8686  0.6757  0.1555
 8998SOL     OW38629   1.161   2.123   1.481 -0.0121 -0.3337  0.1484
 8998SOL    HW138630   1.096   2.191   1.467 -0.9319 -1.3973 -0.7937
 8998SOL    HW238631   1.152   2.079   1.396  0.4804 -1.3942  0.6381
 8999SOL     OW38632   2.467   0.228   6.302  0.4188 -0.0530  0.3736
 8999SOL    HW138633   2.422   0.146   6.326  0.7925 -0.7169 -1.1822
 8999SOL    HW238634   2.462   0.284   6.380 -1.2521 -0.3812  0.5027
 9000SOL     OW38635   2.737   0.077   8.058  0.0373 -0.7524 -0.4461
 9000SOL    HW138636   2.674   0.134   8.101 -0.2427 -0.7979 -0.7966
 9000SOL    HW238637   2.770   0.151   8.006  0.4274 -1.5986 -1.3994
 9001SOL     OW38638   3.765   3.238   4.782  0.0970 -0.0005  0.2074
 9001SOL    HW138639   3.808   3.306   4.834 -1.0699 -0.5599  1.8868
 9001SOL    HW238640   3.823   3.232   4.706  0.5417 -4.8777  0.9028
 9002SOL     OW38641   0.927   2.428   5.117 -0.1708 -0.2605 -0.3681
 9002SOL    HW138642   0.997   2.463   5.173  0.6101 -0.1558 -1.4032
 9002SOL    HW238643   0.965   2.406   5.032 -2.1262  0.4313 -1.4222
 9003SOL     OW38644   0.011   1.135   7.097 -0.5743 -0.1161  0.0432
 9003SOL    HW138645   4.673   1.149   7.153 -2.5368 -0.1528 -2.6087
 9003SOL    HW238646   4.720   1.055   7.052 -0.6161 -0.2207  0.2526
 9004SOL     OW38647   1.887   3.892  16.818 -0.0960  0.1097  0.2110
 9004SOL    HW138648   1.906   3.874  16.910 -1.2814 -0.5724  0.3295
 9004SOL    HW238649   1.965   3.869  16.769  0.6431  0.4255  1.2322
 9005SOL     OW38650   4.237   4.005  12.889  0.2791  0.0439  0.2354
 9005SOL    HW138651   4.257   3.991  12.796 -0.0858 -0.4288  0.2289
 9005SOL    HW238652   4.199   4.093  12.897  1.8186  0.7395 -0.1146
 9006SOL     OW38653   3.669   3.068  15.572 -0.4406 -0.7204 -0.6254
 9006SOL    HW138654   3.670   3.119  15.652  3.9784 -0.4878 -0.8613
 9006SOL    HW238655   3.732   3.111  15.514 -0.7804 -0.9703 -1.1867
 9007SOL     OW38656   1.005   3.873  16.987  0.2652  0.0998  0.2778
 9007SOL    HW138657   0.966   3.923  16.916 -0.8190  0.8996  1.4284
 9007SOL    HW238658   1.052   3.801  16.945  0.1653  0.2575 -0.1065
 9008SOL     OW38659   2.667   4.016   0.886  0.6162  0.6805  0.1533
 9008SOL    HW138660   2.746   4.051   0.927 -0.0032 -0.0081  1.9413
 9008SOL    HW238661   2.606   4.078   0.926 -0.0750 -1.1478  1.9387
 9009SOL     OW38662   3.794   0.303   6.624 -0.6533 -0.0462 -0.3897
 9009SOL    HW138663   3.710   0.350   6.622 -2.0877 -2.5411  0.9643
 9009SOL    HW238664   3.782   0.215   6.589  0.7964  0.3568 -1.9183
 9010SOL     OW38665   0.291   3.792   7.551  0.0592 -0.0140 -0.0895
 9010SOL    HW138666   0.321   3.783   7.641 -2.2651  1.1508  0.7877
 9010SOL    HW238667   0.262   3.702   7.535 -3.5019  1.2520 -0.5716
 9011SOL     OW38668   4.666   0.021   4.832 -0.4393 -0.0165 -0.1645
 9011SOL    HW138669   4.711   4.684   4.870  0.2074  1.1947  1.4676
 9011SOL    HW238670   4.730   0.036   4.762  3.5568 -2.9765  2.8714
 9012SOL     OW38671   4.597   3.609   4.618  0.6338  0.5514 -0.1876
 9012SOL    HW138672   4.598   3.590   4.524 -1.4041  2.8268 -0.6678
 9012SOL    HW238673   4.505   3.626   4.641  1.3086  1.1138  2.0199
 9013SOL     OW38674   1.404   0.219   5.790 -0.0591 -0.2078 -0.1831
 9013SOL    HW138675   1.326   0.194   5.841 -0.1893  0.9333  0.1663
 9013SOL    HW238676   1.366   0.294   5.745 -3.3599 -1.3205  0.7299
 9014SOL     OW38677   0.205   4.172   4.910  0.4949 -0.0756 -0.7954
 9014SOL    HW138678   0.127   4.127   4.878  1.2248  0.2148 -3.0123
 9014SOL    HW238679   0.274   4.163   4.844  0.7800 -0.5946 -0.4250
 9015SOL     OW38680   4.526   4.206  16.782 -0.0375  0.1628 -0.1173
 9015SOL    HW138681   4.475   4.168  16.853  1.7576 -1.1681  0.4470
 9015SOL    HW238682   4.477   4.284  16.755 -2.6269 -1.3329  0.2829
 9016SOL     OW38683   3.671   4.276   6.372  0.1648 -0.4926  0.4179
 9016SOL    HW138684   3.649   4.313   6.458  0.0081  1.2668 -0.3782
 9016SOL    HW238685   3.756   4.238   6.398  0.7741  1.2482  0.9707
 9017SOL     OW38686   1.024   1.280   3.672 -0.1701  0.0688  0.3009
 9017SOL    HW138687   1.094   1.229   3.714  0.8527  0.8306 -0.4832
 9017SOL    HW238688   1.058   1.365   3.699  0.7181 -0.1882  0.0111
 9018SOL     OW38689   1.259   2.075   8.453 -0.2958  0.3103  0.6384
 9018SOL    HW138690   1.215   2.017   8.515 -0.3022 -0.2781  0.0887
 9018SOL    HW238691   1.334   2.097   8.507 -0.8937  2.1426  0.7189
 9019SOL     OW38692   0.902   0.048   1.973 -0.2416  0.3878 -0.0282
 9019SOL    HW138693   0.924   4.711   2.029 -0.4057 -2.1067 -3.2296
 9019SOL    HW238694   0.859   0.004   1.899  2.1043  0.7673 -1.6023
 9020SOL     OW38695   0.522   4.113   7.716  0.3023  0.5349  0.1887
 9020SOL    HW138696   0.577   4.040   7.684  1.3105  1.8578 -1.0821
 9020SOL    HW238697   0.589   4.171   7.752  0.1482  1.2205 -0.6515
 9021SOL     OW38698   2.001   0.474   7.596  0.1342  0.2737  0.0309
 9021SOL    HW138699   1.968   0.388   7.574  2.1023 -0.8463  1.3928
 9021SOL    HW238700   1.920   0.524   7.586 -0.8380 -1.5510 -1.1447
 9022SOL     OW38701   2.267   1.677   6.708 -0.1376 -0.2450  0.0996
 9022SOL    HW138702   2.315   1.757   6.729  2.0881 -1.8851  1.3306
 9022SOL    HW238703   2.331   1.620   6.751 -0.7176  0.3549  1.7734
 9023SOL     OW38704   3.134   3.155  10.629 -0.2256  0.4429  0.0865
 9023SOL    HW138705   3.076   3.145  10.554  1.0807  0.5329 -0.9451
 9023SOL    HW238706   3.084   3.137  10.708  1.8206  1.1219  1.5458
 9024SOL     OW38707   3.824   4.665   3.759 -0.2789  0.1193  0.3506
 9024SOL    HW138708   3.792   4.699   3.842 -3.8314 -0.0374 -0.9377
 9024SOL    HW238709   3.741   4.656   3.713  0.3310  0.1733 -0.7639
 9025SOL     OW38710   3.191   3.761  17.220 -0.3625  0.4182 -0.4548
 9025SOL    HW138711   3.193   3.775  17.125 -1.5529 -0.9920 -0.6881
 9025SOL    HW238712   3.145   3.836  17.258 -1.7944 -0.5921 -0.2222
 9026SOL     OW38713   2.054   4.641  14.833 -0.1146 -0.0254  0.2022
 9026SOL    HW138714   1.979   4.608  14.783 -0.3656  2.2972 -0.9604
 9026SOL    HW238715   2.105   4.562  14.850  1.4360  1.1019  0.8632
 9027SOL     OW38716   4.076   3.468  12.516 -0.0835 -0.2712 -0.1881
 9027SOL    HW138717   4.044   3.484  12.428  0.6245 -0.9824 -0.5669
 9027SOL    HW238718   4.168   3.461  12.494 -0.0400  0.4576 -0.2293
 9028SOL     OW38719   0.048   1.050   3.177  0.4363  0.6908 -0.1126
 9028SOL    HW138720   0.076   0.982   3.116 -1.2553  1.5302 -1.7895
 9028SOL    HW238721   4.692   1.034   3.177  0.4876  0.4082 -1.7468
 9029SOL     OW38722   1.683   4.164   7.509 -0.3103 -0.5443 -0.0693
 9029SOL    HW138723   1.628   4.104   7.559 -1.5361 -0.9465 -1.8992
 9029SOL    HW238724   1.628   4.242   7.510  1.0252  0.4470 -3.1895
 9030SOL     OW38725   1.512   2.361   0.354  0.4537 -0.1853 -0.4240
 9030SOL    HW138726   1.426   2.324   0.332 -1.0902  2.7600  0.6904
 9030SOL    HW238727   1.571   2.286   0.358  1.4474  0.6616  0.6369
 9031SOL     OW38728   3.966   4.015   5.715  0.3930 -0.0935  0.0240
 9031SOL    HW138729   3.894   4.065   5.677  2.6613  3.0654 -0.1693
 9031SOL    HW238730   4.010   4.086   5.762  0.6333 -0.4655  0.3692
 9032SOL     OW38731   0.254   4.376  16.491 -0.2578  0.1399 -0.0754
 9032SOL    HW138732   0.269   4.305  16.554  2.3360  0.4540 -0.3141
 9032SOL    HW238733   0.181   4.335  16.446 -0.5632  0.1949  0.3743
 9033SOL     OW38734   3.363   3.233   9.082 -0.4321  0.5349 -0.1725
 9033SOL    HW138735   3.437   3.264   9.134  0.5064 -2.7631  0.4482
 9033SOL    HW238736   3.370   3.287   9.003  0.7721  0.8241  0.1445
 9034SOL     OW38737   3.821   1.005   9.919  0.2020 -0.2616  0.1965
 9034SOL    HW138738   3.869   1.068   9.972 -1.8044  2.4854 -1.2397
 9034SOL    HW238739   3.859   1.023   9.833 -0.9382  0.6489 -0.1061
 9035SOL     OW38740   1.803   2.523   9.005  0.1182 -0.2907  0.4290
 9035SOL    HW138741   1.805   2.511   8.910 -0.8404 -2.1538  0.6436
 9035SOL    HW238742   1.854   2.447   9.032  2.2850  1.1808  0.4405
 9036SOL     OW38743   1.112   3.884   2.464  0.3738  0.3932 -0.9903
 9036SOL    HW138744   1.162   3.805   2.444  2.2370  1.9037 -2.2831
 9036SOL    HW238745   1.134   3.886   2.557 -0.3225 -0.7976 -0.8101
 9037SOL     OW38746   1.976   3.120   4.275  0.0326  0.0557 -0.1141
 9037SOL    HW138747   2.028   3.052   4.232  0.2909  0.1582  0.0421
 9037SOL    HW238748   1.890   3.076   4.278 -1.2831  2.6241 -0.4209
 9038SOL     OW38749   0.837   3.333  11.922 -0.3766 -0.5525  0.0072
 9038SOL    HW138750   0.846   3.256  11.865  0.0821 -0.1951 -0.3965
 9038SOL    HW238751   0.850   3.410  11.867  0.2393  0.1082  1.0835
 9039SOL     OW38752   1.237   1.237  15.937  0.0575 -0.3327  0.2079
 9039SOL    HW138753   1.208   1.309  15.882 -0.1681 -0.3045  0.3638
 9039SOL    HW238754   1.305   1.197  15.882  0.3691  1.1649 -0.4689
 9040SOL     OW38755   4.147   3.204  14.784 -0.0143 -0.1603 -0.4330
 9040SOL    HW138756   4.216   3.242  14.729  0.0791 -1.2897 -1.0811
 9040SOL    HW238757   4.128   3.120  14.743 -1.7376 -0.1149  0.2700
 9041SOL     OW38758   1.137   1.497  15.300  0.2824  0.0681  0.5975
 9041SOL    HW138759   1.221   1.517  15.342  0.1676  0.3118  0.7131
 9041SOL    HW238760   1.170   1.485  15.211  3.3738  0.7462  1.6270
 9042SOL     OW38761   3.301   1.328   9.769  0.0057 -0.0832 -0.0491
 9042SOL    HW138762   3.276   1.310   9.860 -2.5114 -0.0067 -0.7111
 9042SOL    HW238763   3.392   1.300   9.775  0.3948  1.0205 -0.9831
 9043SOL     OW38764   3.354   3.482  11.763 -0.9639  0.0836 -0.2432
 9043SOL    HW138765   3.370   3.403  11.815  0.1867  0.0460 -0.6529
 9043SOL    HW238766   3.447   3.497  11.746 -0.7866 -0.3597  0.3331
 9044SOL     OW38767   1.715   2.474   1.972  0.0167  0.2593  0.3714
 9044SOL    HW138768   1.694   2.567   1.968 -0.4996  0.1205 -0.1656
 9044SOL    HW238769   1.663   2.448   1.896 -0.5535  1.5455  0.3239
 9045SOL     OW38770   0.808   4.117   8.526  0.4065  0.3057 -0.2672
 9045SOL    HW138771   0.887   4.082   8.487  0.4705  1.7697 -1.4342
 9045SOL    HW238772   0.797   4.198   8.476  0.3464 -0.0121 -0.7678
 9046SOL     OW38773   0.511   4.142  13.474 -0.4327  0.0062 -0.3070
 9046SOL    HW138774   0.540   4.055  13.500 -0.4387 -0.1015 -0.6712
 9046SOL    HW238775   0.587   4.194  13.501 -1.5441  1.3693  0.1879
 9047SOL     OW38776   4.221   1.722   9.778  0.3023  0.1535 -0.0914
 9047SOL    HW138777   4.268   1.767   9.708 -1.5802 -2.0203 -2.7335
 9047SOL    HW238778   4.290   1.709   9.843  0.0380 -1.2362 -0.0762
 9048SOL     OW38779   2.942   2.161  16.394 -0.3946  0.5922 -0.0645
 9048SOL    HW138780   2.961   2.122  16.479 -1.8443  0.4558  0.1899
 9048SOL    HW238781   3.010   2.120  16.339 -0.5561 -1.1737  1.0513
 9049SOL     OW38782   0.374   2.091   5.824 -0.0811 -0.1882 -0.6720
 9049SOL    HW138783   0.366   2.105   5.729  1.9498  0.8408 -0.7058
 9049SOL    HW238784   0.284   2.079   5.852 -0.7502  0.9523 -2.3168
 9050SOL     OW38785   3.105   2.865   2.504 -0.3132  0.7424 -0.1924
 9050SOL    HW138786   3.126   2.825   2.420  0.7070 -1.4457  1.1076
 9050SOL    HW238787   3.078   2.783   2.546  2.0143  0.2027  0.2081
 9051SOL     OW38788   1.209   3.121   5.290  0.3660  0.1353  0.2334
 9051SOL    HW138789   1.238   3.106   5.381 -0.7180  1.8208  0.8552
 9051SOL    HW238790   1.153   3.198   5.297  0.5844  0.4292 -1.3074
 9052SOL     OW38791   0.915   0.991   6.150  0.1486 -0.7637  0.3860
 9052SOL    HW138792   0.944   1.046   6.077  1.0178 -2.6375 -0.6761
 9052SOL    HW238793   0.820   0.987   6.134  0.2484 -1.1495 -0.1275
 9053SOL     OW38794   1.581   0.537  13.433 -0.3451 -0.3700  0.0073
 9053SOL    HW138795   1.571   0.450  13.472 -0.9154 -0.5952 -0.6518
 9053SOL    HW238796   1.493   0.573  13.427  0.4827  1.8828  0.9358
 9054SOL     OW38797   0.506   0.550   8.430 -0.5308 -0.6330 -0.2355
 9054SOL    HW138798   0.589   0.577   8.469  0.0204 -1.1867 -1.0102
 9054SOL    HW238799   0.466   0.634   8.412 -1.3741 -0.6121  1.7320
 9055SOL     OW38800   4.496   1.556   3.463  0.1588  0.1062  0.0574
 9055SOL    HW138801   4.456   1.567   3.377 -1.6691 -1.0364  0.7564
 9055SOL    HW238802   4.423   1.512   3.507  0.9206  0.3665  1.6027
 9056SOL     OW38803   4.006   1.198   4.994 -0.9886 -0.3369 -0.4436
 9056SOL    HW138804   4.050   1.216   5.077 -0.3122 -1.9491 -0.4642
 9056SOL    HW238805   3.981   1.106   5.001  0.8454 -1.0226 -2.7445
 9057SOL     OW38806   3.359   4.331   6.501  0.5845 -0.4324  0.3970
 9057SOL    HW138807   3.389   4.285   6.422  1.3982  1.9686 -0.6884
 9057SOL    HW238808   3.385   4.422   6.485  0.1087 -0.3706 -0.0559
 9058SOL     OW38809   0.976   2.400   2.982  0.1487  0.4187 -0.0763
 9058SOL    HW138810   1.023   2.450   3.050  1.2211  0.1288 -0.6033
 9058SOL    HW238811   1.026   2.408   2.901  0.0480 -1.4658 -0.3183
 9059SOL     OW38812   2.756   1.517   6.909  0.6482 -0.1244 -0.1724
 9059SOL    HW138813   2.761   1.439   6.855 -1.4569 -0.8765  0.7113
 9059SOL    HW238814   2.709   1.568   6.843 -0.2498 -0.8694 -0.1010
 9060SOL     OW38815   0.802   2.207   2.859 -0.1808 -0.1012 -0.3474
 9060SOL    HW138816   0.762   2.256   2.787 -1.9571 -1.3783 -0.2411
 9060SOL    HW238817   0.817   2.272   2.927  1.8339  2.2773 -3.0668
 9061SOL     OW38818   4.317   2.457   5.258  0.8415 -0.0349  0.6502
 9061SOL    HW138819   4.225   2.435   5.249  1.0776 -1.0242  0.5791
 9061SOL    HW238820   4.353   2.369   5.267  0.7278 -0.1316  0.1646
 9062SOL     OW38821   2.924   1.311   2.740 -0.1852  0.4772  0.3544
 9062SOL    HW138822   2.904   1.391   2.692 -1.0816 -0.5619 -0.9912
 9062SOL    HW238823   2.936   1.252   2.665  2.6440 -0.4577  1.5287
 9063SOL     OW38824   1.018   1.468   8.236  0.2574 -0.0919  0.1285
 9063SOL    HW138825   1.113   1.463   8.252  0.3238 -0.8308 -0.5003
 9063SOL    HW238826   1.011   1.499   8.146  1.2306  2.0879  0.8052
 9064SOL     OW38827   0.684   1.133   4.480 -0.1355 -0.2098 -0.7813
 9064SOL    HW138828   0.608   1.152   4.534 -0.9334 -2.0507 -1.2692
 9064SOL    HW238829   0.709   1.211   4.430 -0.9068  0.9321  0.6360
 9065SOL     OW38830   2.312   0.540  12.181 -0.1394 -0.3019  0.6684
 9065SOL    HW138831   2.391   0.493  12.153 -0.9985 -0.5460 -1.3158
 9065SOL    HW238832   2.343   0.630  12.178 -1.1844  0.0653  0.9548
 9066SOL     OW38833   0.477   0.872   4.198  0.2237  0.0465  0.1288
 9066SOL    HW138834   0.540   0.869   4.125  1.1420  1.5920  0.8541
 9066SOL    HW238835   0.538   0.870   4.272  0.0810 -0.3137  0.2335
 9067SOL     OW38836   1.407   0.937   2.955 -0.3587  0.4388  0.4298
 9067SOL    HW138837   1.324   0.921   2.911  0.1796  1.6710 -1.0417
 9067SOL    HW238838   1.445   0.849   2.960 -2.3505 -0.4077  0.3962
 9068SOL     OW38839   4.293   2.765   6.928  0.3414 -0.2004  0.3672
 9068SOL    HW138840   4.215   2.739   6.879  0.7270 -1.0404  0.1992
 9068SOL    HW238841   4.296   2.698   6.997 -1.2043  0.5032  1.1215
 9069SOL     OW38842   1.172   1.558   6.051 -0.0909 -0.3810  0.3484
 9069SOL    HW138843   1.266   1.570   6.061 -0.0917 -0.3596  0.3310
 9069SOL    HW238844   1.135   1.636   6.091 -0.2681 -0.8920  1.1784
 9070SOL     OW38845   1.433   2.860   9.244 -0.0880  0.0194  0.1284
 9070SOL    HW138846   1.341   2.881   9.224  0.4187 -0.5461 -2.8822
 9070SOL    HW238847   1.433   2.854   9.339 -1.8161  0.3463  0.1573
 9071SOL     OW38848   3.550   3.215   2.513  0.1998 -0.1841 -0.2004
 9071SOL    HW138849   3.559   3.121   2.524  0.8143 -0.0540  0.4115
 9071SOL    HW238850   3.631   3.236   2.467  0.4490  0.2595  0.4310
 9072SOL     OW38851   1.156   0.800   9.028 -0.0491  0.1260  0.6412
 9072SOL    HW138852   1.184   0.711   9.049 -0.8010 -0.3271 -0.2712
 9072SOL    HW238853   1.224   0.846   9.077 -1.4773  1.1155  1.7077
 9073SOL     OW38854   4.438   0.851   3.803 -0.1907 -1.0092 -0.6089
 9073SOL    HW138855   4.524   0.819   3.830 -0.5191 -0.2485  1.3830
 9073SOL    HW238856   4.398   0.777   3.758 -0.6339 -1.9268  1.2587
 9074SOL     OW38857   1.300   2.637   1.090  0.2036  0.3744 -0.2117
 9074SOL    HW138858   1.261   2.558   1.053  0.8089 -0.0218 -0.0060
 9074SOL    HW238859   1.219   2.681   1.115 -0.9403 -0.1725 -2.9353
 9075SOL     OW38860   1.526   0.003   3.652  1.2579  0.4618 -0.6913
 9075SOL    HW138861   1.590   4.683   3.695  0.4842 -0.3890 -0.6838
 9075SOL    HW238862   1.585   0.064   3.607 -0.1027  1.8875 -0.5263
 9076SOL     OW38863   2.324   2.900  15.777  0.5637  0.2714  0.1478
 9076SOL    HW138864   2.407   2.912  15.731  1.6684 -2.5980  1.3468
 9076SOL    HW238865   2.305   2.813  15.740  0.9974  0.3642 -0.3040
 9077SOL     OW38866   2.284   3.757  17.628 -0.1020  0.3672  0.0440
 9077SOL    HW138867   2.207   3.766  17.684  1.3114  1.6290  1.7635
 9077SOL    HW238868   2.342   3.829  17.652  0.2934  0.6484 -1.7847
 9078SOL     OW38869   2.235   2.487  12.933 -0.7201  0.6211 -0.1551
 9078SOL    HW138870   2.161   2.450  12.982 -0.3910  0.6401  0.3511
 9078SOL    HW238871   2.261   2.569  12.976 -0.8005  0.3807  0.3590
 9079SOL     OW38872   1.434   0.256   0.361  0.0179 -0.5217 -0.4103
 9079SOL    HW138873   1.497   0.325   0.339  1.9789 -1.3543  2.6070
 9079SOL    HW238874   1.413   0.216   0.277 -1.0360 -0.5920 -0.1122
 9080SOL     OW38875   3.491   1.179  16.961 -1.1977 -0.2190 -0.0860
 9080SOL    HW138876   3.469   1.271  16.946  0.6633  0.3429  0.6045
 9080SOL    HW238877   3.423   1.129  16.917 -0.2862 -0.4278 -1.2660
 9081SOL     OW38878   1.067   1.728   6.873  0.4730 -0.2316 -0.0197
 9081SOL    HW138879   1.006   1.719   6.946 -0.0117  0.9444 -0.2756
 9081SOL    HW238880   1.140   1.682   6.914  0.0319 -0.4098  0.5650
 9082SOL     OW38881   2.497   2.295   2.752 -0.2856  0.3006  0.4225
 9082SOL    HW138882   2.498   2.211   2.797 -0.9618 -0.7280 -1.4960
 9082SOL    HW238883   2.478   2.354   2.825 -2.3308 -0.2286  0.3303
 9083SOL     OW38884   3.545   1.606   7.614 -0.2531  0.1523  0.2104
 9083SOL    HW138885   3.501   1.522   7.603 -1.6934  1.2022 -1.8985
 9083SOL    HW238886   3.637   1.582   7.601 -0.0529  2.0157 -1.6432
 9084SOL     OW38887   0.479   1.458   0.936  0.3545  0.0081 -0.2616
 9084SOL    HW138888   0.443   1.539   0.900  0.0888 -0.1303 -0.3096
 9084SOL    HW238889   0.409   1.401   0.903  0.3696  0.2381 -0.6977
 9085SOL     OW38890   0.572   3.047   9.323 -0.2306  0.7142 -0.2164
 9085SOL    HW138891   0.549   3.098   9.400  0.9298  2.1986 -0.8562
 9085SOL    HW238892   0.497   2.989   9.330 -0.3095  0.8600  0.1136
 9086SOL     OW38893   4.670   1.885   5.486  0.2751 -0.5489  0.1149
 9086SOL    HW138894   4.619   1.953   5.531  0.8059  0.2697 -0.5311
 9086SOL    HW238895   4.620   1.808   5.512  2.0833 -1.3027  1.3451
 9087SOL     OW38896   0.813   3.735   9.119  0.0342 -0.0193  0.0820
 9087SOL    HW138897   0.801   3.681   9.041 -0.3261  1.1282 -0.6488
 9087SOL    HW238898   0.719   3.740   9.137  0.3020 -0.1328  1.5205
 9088SOL     OW38899   3.387   2.747   3.164  0.3347 -0.0909  0.5113
 9088SOL    HW138900   3.481   2.752   3.184  0.3270 -0.4012  0.6378
 9088SOL    HW238901   3.370   2.832   3.124  0.5797 -1.0819 -1.6798
 9089SOL     OW38902   0.073   2.640  15.999 -0.4491  0.1608 -0.1394
 9089SOL    HW138903   0.066   2.693  16.079 -2.2354 -0.4036  0.0904
 9089SOL    HW238904   0.144   2.579  16.018 -2.7266 -2.9996 -1.8479
 9090SOL     OW38905   2.589   1.235  13.317  0.1433  0.4401 -0.0834
 9090SOL    HW138906   2.662   1.243  13.255 -0.4376 -0.1841 -0.8594
 9090SOL    HW238907   2.509   1.257  13.269  0.5666  1.0258 -0.5301
 9091SOL     OW38908   3.676   1.025   5.588  0.0110 -0.0392 -0.2607
 9091SOL    HW138909   3.676   0.941   5.634  2.7678 -0.4172 -0.9487
 9091SOL    HW238910   3.736   1.083   5.634  1.1058 -0.5441 -1.0570
 9092SOL     OW38911   0.105   0.358   6.685 -0.1677 -0.3554 -0.0614
 9092SOL    HW138912   0.072   0.268   6.684 -0.7509 -0.1329 -0.8577
 9092SOL    HW238913   0.197   0.335   6.670 -0.4547 -1.1434 -0.5985
 9093SOL     OW38914   1.102   2.539   6.413 -0.3811  0.1240  0.5497
 9093SOL    HW138915   1.098   2.596   6.336 -0.6003 -1.3530 -0.5112
 9093SOL    HW238916   1.198   2.532   6.418 -0.1447  1.8270 -1.5899
 9094SOL     OW38917   2.324   2.401   5.903 -0.0942  0.1863  0.2993
 9094SOL    HW138918   2.246   2.434   5.859  1.6596 -0.1285 -3.0377
 9094SOL    HW238919   2.353   2.325   5.852 -1.5948  1.0095 -1.8031
 9095SOL     OW38920   0.693   1.726   3.891 -0.5226  0.0385  0.6404
 9095SOL    HW138921   0.634   1.731   3.816 -0.8922 -3.3034  0.7039
 9095SOL    HW238922   0.709   1.819   3.908  1.7078 -0.0260 -1.0027
 9096SOL     OW38923   4.282   3.347   1.562  0.2700 -0.2691 -0.5784
 9096SOL    HW138924   4.264   3.307   1.477  0.9449  0.1735 -0.9365
 9096SOL    HW238925   4.285   3.438   1.532  2.7693 -0.1025  0.1443
 9097SOL     OW38926   4.017   2.429   9.446  0.5840 -0.7408 -0.2169
 9097SOL    HW138927   4.072   2.488   9.395 -0.4571  1.3613  1.0538
 9097SOL    HW238928   4.041   2.447   9.537  0.2939  0.1091 -0.3051
 9098SOL     OW38929   2.604   0.778   4.222 -0.4429 -0.2253 -0.1500
 9098SOL    HW138930   2.595   0.848   4.157  1.6076  1.8917  1.8144
 9098SOL    HW238931   2.652   0.817   4.295 -0.3794 -1.8134  0.6509
 9099SOL     OW38932   3.713   3.408   8.824  0.1149  0.3317  0.5813
 9099SOL    HW138933   3.679   3.319   8.815  0.4578  0.0346  2.1489
 9099SOL    HW238934   3.676   3.449   8.746  1.6348  1.2504  0.3362
 9100SOL     OW38935   4.035   1.282   7.079 -0.2956  0.2180  0.2206
 9100SOL    HW138936   3.992   1.356   7.122 -1.6956 -1.4586  1.6827
 9100SOL    HW238937   4.122   1.270   7.118 -0.2892 -1.1997 -0.2412
 9101SOL     OW38938   2.428   3.513   5.862  0.2241 -0.3129  0.2643
 9101SOL    HW138939   2.507   3.474   5.825 -0.0242 -2.2959  1.8350
 9101SOL    HW238940   2.394   3.438   5.911 -0.1930  0.2058  0.7677
 9102SOL     OW38941   4.649   4.210   8.868  0.1585  0.4561  0.1045
 9102SOL    HW138942   4.615   4.296   8.892  0.3631  0.0981  1.6512
 9102SOL    HW238943   4.567   4.162   8.883  0.2964  0.2602  0.2341
 9103SOL     OW38944   3.192   2.660  12.474  0.1680 -0.3047 -0.7220
 9103SOL    HW138945   3.160   2.635  12.561  1.4099  0.9752  0.1061
 9103SOL    HW238946   3.260   2.593  12.472  1.4808  1.0210  0.0145
 9104SOL     OW38947   0.858   1.841   6.697 -0.6555 -0.1047  0.1948
 9104SOL    HW138948   0.907   1.823   6.778 -0.5787  2.7461  0.7821
 9104SOL    HW238949   0.931   1.858   6.637  0.0415 -1.0346  0.7818
 9105SOL     OW38950   3.908   2.619   3.899  0.0719 -0.7665  0.0870
 9105SOL    HW138951   3.850   2.637   3.826 -0.7060 -2.4686  0.2976
 9105SOL    HW238952   3.918   2.702   3.947  1.2470  0.0316 -1.5446
 9106SOL     OW38953   1.933   3.789   3.819  0.4608 -0.2662 -0.2996
 9106SOL    HW138954   2.011   3.753   3.777 -0.6773 -0.9130 -1.8629
 9106SOL    HW238955   1.975   3.848   3.882 -0.5438  1.8410 -1.6274
 9107SOL     OW38956   0.180   1.067   2.813  0.1131  0.2963 -0.1023
 9107SOL    HW138957   0.191   0.983   2.770  1.9025  0.9644 -0.9319
 9107SOL    HW238958   0.088   1.061   2.838 -0.2047 -0.3359 -1.4580
 9108SOL     OW38959   1.940   4.487  15.586 -0.4080  0.3027 -0.5032
 9108SOL    HW138960   1.892   4.569  15.579 -0.7556  0.1425  0.0043
 9108SOL    HW238961   1.904   4.454  15.669 -0.9851  3.0480  0.3262
 9109SOL     OW38962   0.615   4.194   9.683 -0.3685  0.2981  0.3778
 9109SOL    HW138963   0.537   4.248   9.672  0.2912  1.0819 -0.3546
 9109SOL    HW238964   0.684   4.260   9.678 -0.6029  0.4806 -0.3623
 9110SOL     OW38965   4.301   4.262  12.700  0.4377  0.0117 -0.2276
 9110SOL    HW138966   4.293   4.177  12.656 -2.9162 -0.4296  1.2708
 9110SOL    HW238967   4.379   4.296  12.657 -0.1007  0.4032 -0.8863
 9111SOL     OW38968   2.605   2.585  15.582  0.4720 -0.3015 -0.2646
 9111SOL    HW138969   2.577   2.565  15.493 -0.5089 -1.3921  0.2923
 9111SOL    HW238970   2.518   2.595  15.621  2.0131 -0.0260  3.1906
 9112SOL     OW38971   2.691   4.635  16.502 -0.0279 -0.3868 -0.4957
 9112SOL    HW138972   2.687   4.717  16.551  0.4347 -0.4305 -0.3838
 9112SOL    HW238973   2.680   4.566  16.568 -1.4979  0.1563 -0.1748
 9113SOL     OW38974   1.524   2.126   3.270 -0.1276 -0.2625 -0.4060
 9113SOL    HW138975   1.545   2.053   3.212 -2.1481 -1.1075 -0.0704
 9113SOL    HW238976   1.441   2.096   3.307 -1.0571  1.6679 -0.8774
 9114SOL     OW38977   0.804   0.151  11.732 -0.0029  0.0565  0.1930
 9114SOL    HW138978   0.817   0.139  11.826  0.1071  0.7875  0.2740
 9114SOL    HW238979   0.862   0.224  11.713 -1.1706  0.3558 -2.2271
 9115SOL     OW38980   3.935   3.734   9.082 -0.5092 -0.4351  0.5691
 9115SOL    HW138981   4.007   3.681   9.115 -0.5928 -1.2799 -0.6025
 9115SOL    HW238982   3.858   3.677   9.094 -0.0814 -1.1093  0.0977
 9116SOL     OW38983   1.151   0.999   2.625  0.7393  0.2619  0.1502
 9116SOL    HW138984   1.107   1.060   2.684 -0.9789 -0.6800 -0.1538
 9116SOL    HW238985   1.112   1.031   2.544 -1.4621  0.1185  1.1650
 9117SOL     OW38986   2.589   3.690  10.048  0.2430 -0.2155  0.2840
 9117SOL    HW138987   2.516   3.683  10.109 -0.3223  1.9411 -0.1431
 9117SOL    HW238988   2.659   3.684  10.114  1.0326 -0.6883 -0.5947
 9118SOL     OW38989   3.375   4.590   6.971 -0.2900  0.3377 -0.2897
 9118SOL    HW138990   3.301   4.548   7.013  0.3070  0.8254  1.2415
 9118SOL    HW238991   3.349   4.577   6.880  1.6647 -1.0583 -0.6495
 9119SOL     OW38992   4.529   2.005  11.439  0.1216  0.1428 -0.0427
 9119SOL    HW138993   4.517   1.929  11.382  0.0927 -0.0831  0.2711
 9119SOL    HW238994   4.527   2.071  11.369 -3.1821 -1.6848 -1.7051
 9120SOL     OW38995   3.869   1.692   6.374  0.6317  0.4254  0.4495
 9120SOL    HW138996   3.900   1.602   6.360 -0.0925  0.1279  0.7197
 9120SOL    HW238997   3.908   1.724   6.456 -0.4645 -0.0695  1.1803
 9121SOL     OW38998   4.682   3.387   7.544 -0.1660 -0.3508  0.8386
 9121SOL    HW138999   4.672   3.296   7.569  3.2015 -0.9594 -0.0299
 9121SOL    HW239000   4.720   3.377   7.457  0.9394  1.8492  1.0405
 9122SOL     OW39001   0.352   3.751  12.241  0.4762 -0.0266  0.2007
 9122SOL    HW139002   0.286   3.813  12.270  2.0879  1.7273  0.0909
 9122SOL    HW239003   0.378   3.709  12.323 -1.7917 -2.9097 -0.5279
 9123SOL     OW39004   4.314   4.359   2.814  0.7323 -0.4968 -0.7914
 9123SOL    HW139005   4.369   4.410   2.873 -0.5780 -0.3751  0.3207
 9123SOL    HW239006   4.379   4.319   2.756  0.4424 -1.0733 -0.7178
 9124SOL     OW39007   0.818   3.865   2.179 -0.0949 -0.6484 -0.4390
 9124SOL    HW139008   0.750   3.830   2.237  0.2383  2.9961  2.1053
 9124SOL    HW239009   0.833   3.956   2.203  0.7999 -0.9327  0.0658
 9125SOL     OW39010   3.031   0.206   5.989 -0.4534 -0.0738 -0.3055
 9125SOL    HW139011   2.997   0.287   6.028 -0.2382  1.3356 -3.0389
 9125SOL    HW239012   2.945   0.173   5.962 -0.1275 -2.4205  1.6554
 9126SOL     OW39013   4.221   0.738  13.391  0.2973  0.0149 -0.2871
 9126SOL    HW139014   4.206   0.675  13.462 -0.7033 -0.7786 -1.1938
 9126SOL    HW239015   4.138   0.786  13.395  1.1327  1.4232  0.0860
 9127SOL     OW39016   1.468   0.298  12.463 -0.6220  0.4413 -0.1180
 9127SOL    HW139017   1.542   0.358  12.468 -0.1719 -0.1010 -0.3780
 9127SOL    HW239018   1.435   0.317  12.551  3.0435 -1.1633  1.5949
 9128SOL     OW39019   1.281   3.237  11.304  0.0121  0.1563  0.4577
 9128SOL    HW139020   1.312   3.297  11.236  1.5286 -0.0821  0.9222
 9128SOL    HW239021   1.261   3.286  11.384  2.5364 -1.4559  2.0701
 9129SOL     OW39022   4.196   3.011   2.793  0.6870  0.1868 -0.0960
 9129SOL    HW139023   4.199   3.079   2.860  4.6106 -0.5802  0.5051
 9129SOL    HW239024   4.216   3.047   2.707 -2.4432  2.1319 -0.0148
 9130SOL     OW39025   2.745   0.289   4.056  0.4131  0.4362  0.3090
 9130SOL    HW139026   2.694   0.210   4.072  1.3499 -0.1255  0.5071
 9130SOL    HW239027   2.673   0.351   4.042 -0.9666 -1.1949  0.2352
 9131SOL     OW39028   0.245   4.605   0.075  0.0116 -0.1607 -0.2171
 9131SOL    HW139029   0.251   4.611   0.171 -2.4230  0.4756 -0.1078
 9131SOL    HW239030   0.206   4.519   0.059 -2.5978  0.6315  1.7800
 9132SOL     OW39031   2.108   3.966  13.909 -0.0469 -0.3689 -0.3069
 9132SOL    HW139032   2.019   4.003  13.912  0.1046 -0.0942  1.0889
 9132SOL    HW239033   2.089   3.872  13.912 -0.5568 -0.2096  1.6544
 9133SOL     OW39034   1.867   2.994  12.691  0.0697 -0.4591  0.5311
 9133SOL    HW139035   1.787   3.044  12.678 -0.3484 -1.8323 -2.1627
 9133SOL    HW239036   1.836   2.907  12.715 -1.4529 -0.2298 -0.6057
 9134SOL     OW39037   3.939   1.590   2.934  0.1894  0.0566 -0.0856
 9134SOL    HW139038   3.965   1.680   2.914 -0.3516  0.2689  0.1440
 9134SOL    HW239039   3.937   1.594   3.030  2.2370  0.8676 -0.0689
 9135SOL     OW39040   2.471   4.364   6.701  1.1713  0.6596  0.4273
 9135SOL    HW139041   2.512   4.377   6.615  0.5893 -2.4840 -0.3340
 9135SOL    HW239042   2.414   4.439   6.715  2.3995  1.5638  0.6013
 9136SOL     OW39043   2.520   1.511   5.918 -0.2880 -0.1643 -0.6238
 9136SOL    HW139044   2.615   1.513   5.928 -0.4055  1.4004  0.1278
 9136SOL    HW239045   2.503   1.489   5.826 -0.1673  1.4778 -1.0301
 9137SOL     OW39046   1.867   4.258   8.870 -0.1236  0.0043 -0.3311
 9137SOL    HW139047   1.958   4.273   8.845 -0.3736 -0.4701 -1.5463
 9137SOL    HW239048   1.842   4.337   8.917  1.1146  0.3334 -0.2427
 9138SOL     OW39049   2.361   1.047   2.828 -0.1219 -0.1262  0.5082
 9138SOL    HW139050   2.453   1.023   2.835 -0.1366  0.3648  2.2387
 9138SOL    HW239051   2.324   0.962   2.804  1.4471 -0.8611  0.6648
 9139SOL     OW39052   0.719   1.354   2.307  0.1541 -0.0361  0.4242
 9139SOL    HW139053   0.700   1.361   2.400  0.5480 -0.8373  0.5656
 9139SOL    HW239054   0.692   1.442   2.281  0.2483 -0.3962 -0.8833
 9140SOL     OW39055   0.132   4.492   0.991  0.0618 -0.5222 -0.0669
 9140SOL    HW139056   0.060   4.499   1.055 -0.7338 -2.0044 -0.7996
 9140SOL    HW239057   0.156   4.583   0.976  1.7504 -0.7782  1.0749
 9141SOL     OW39058   2.648   0.086   3.808  0.2923 -0.1298  0.1792
 9141SOL    HW139059   2.570   0.124   3.767  1.3579  1.6107 -0.1997
 9141SOL    HW239060   2.648   0.136   3.889  2.5387  1.1506 -0.6298
 9142SOL     OW39061   3.888   2.302  15.201 -0.4109 -0.2462 -0.1140
 9142SOL    HW139062   3.956   2.259  15.149  0.7036  2.2666 -0.7594
 9142SOL    HW239063   3.948   2.363  15.244 -0.3507 -1.3569  1.3554
 9143SOL     OW39064   1.276   1.312  11.296 -0.1915  0.0008 -0.1820
 9143SOL    HW139065   1.211   1.242  11.289  0.1670 -0.4237  0.7663
 9143SOL    HW239066   1.343   1.306  11.227  1.0559 -0.9357  1.1154
 9144SOL     OW39067   0.778   1.357   4.375  0.1119 -0.4223 -0.1622
 9144SOL    HW139068   0.870   1.375   4.395 -0.9364  3.6640  0.9060
 9144SOL    HW239069   0.774   1.375   4.281 -1.5101  1.5396  0.2759
 9145SOL     OW39070   2.230   3.168  13.165  0.3339 -0.5207  0.1059
 9145SOL    HW139071   2.136   3.185  13.164  0.3848 -0.0952  2.6990
 9145SOL    HW239072   2.270   3.238  13.217  2.2464 -1.6115  0.1113
 9146SOL     OW39073   3.702   2.985  13.898 -0.2904  0.1269  0.4431
 9146SOL    HW139074   3.769   2.998  13.832  0.3547 -0.2776  1.0138
 9146SOL    HW239075   3.650   2.911  13.865 -1.1027 -0.2529  2.5683
 9147SOL     OW39076   4.295   1.355   8.614 -0.3660  0.1747 -0.3995
 9147SOL    HW139077   4.327   1.349   8.524  0.4852  2.3624 -0.2489
 9147SOL    HW239078   4.242   1.435   8.610 -0.9922 -0.3213 -1.8288
 9148SOL     OW39079   2.898   2.235   8.170  0.1604  0.0477  0.2391
 9148SOL    HW139080   2.823   2.284   8.205  0.4307  1.0067 -0.5150
 9148SOL    HW239081   2.970   2.271   8.223 -1.3049  1.4110  1.3318
 9149SOL     OW39082   0.512   2.293   7.686  0.3897  0.1828 -0.0488
 9149SOL    HW139083   0.482   2.250   7.766 -0.6045 -0.5339 -0.8029
 9149SOL    HW239084   0.429   2.291   7.637 -0.3201  0.3509  1.1414
 9150SOL     OW39085   4.516   4.273   0.928  0.1530 -0.7747  0.5105
 9150SOL    HW139086   4.470   4.225   0.860  1.6161 -0.4740 -0.6665
 9150SOL    HW239087   4.546   4.348   0.876  0.2375 -1.4266 -0.3609
 9151SOL     OW39088   2.711   2.455   7.523 -0.1227 -0.6046 -0.2244
 9151SOL    HW139089   2.643   2.476   7.459 -0.0143 -0.3948 -0.2737
 9151SOL    HW239090   2.724   2.362   7.506  0.0665 -0.7116  0.5157
 9152SOL     OW39091   3.654   0.976   8.178 -0.1925  0.0381 -0.9073
 9152SOL    HW139092   3.741   0.936   8.182 -1.3274 -2.3636 -0.7305
 9152SOL    HW239093   3.624   0.952   8.265  2.9047 -0.5793 -0.0111
 9153SOL     OW39094   2.749   4.612   4.736 -0.2034 -0.0699 -0.1930
 9153SOL    HW139095   2.736   4.565   4.818 -0.3082 -0.2298 -0.2983
 9153SOL    HW239096   2.780   4.547   4.672  1.2848 -0.2722  0.7479
 9154SOL     OW39097   3.076   1.609  11.715 -0.7104 -0.2791  0.1426
 9154SOL    HW139098   3.146   1.562  11.762  2.2921  2.4343 -1.5721
 9154SOL    HW239099   3.118   1.654  11.641  0.2453  0.4010  1.0968
 9155SOL     OW39100   3.211   3.758   4.010  0.0010  0.1271 -0.3281
 9155SOL    HW139101   3.249   3.843   4.031 -0.6754  0.8093 -1.8591
 9155SOL    HW239102   3.167   3.739   4.093 -1.6195 -0.3231 -1.2860
 9156SOL     OW39103   1.869   3.922  11.089  0.2639  0.3258 -0.0993
 9156SOL    HW139104   1.903   3.929  11.000 -0.0239  0.6229 -0.1857
 9156SOL    HW239105   1.952   3.901  11.131  0.6753  0.1641 -0.9921
 9157SOL     OW39106   1.414   3.472   0.577 -0.3853  0.5171  0.1060
 9157SOL    HW139107   1.376   3.406   0.519  1.5981  0.0886 -0.6965
 9157SOL    HW239108   1.458   3.417   0.642  3.0627  0.0863 -2.5875
 9158SOL     OW39109   3.505   3.095   0.061 -0.3809  0.1141  0.4569
 9158SOL    HW139110   3.504   3.177   0.110  0.6881  1.2608 -1.4750
 9158SOL    HW239111   3.415   3.062   0.057 -0.0493 -0.4056 -2.2912
 9159SOL     OW39112   2.259   3.356  13.975 -0.0521 -0.2102  0.2874
 9159SOL    HW139113   2.277   3.450  13.975  0.9512 -0.4040 -1.0406
 9159SOL    HW239114   2.263   3.331  13.883  1.1872  2.3791 -0.3575
 9160SOL     OW39115   0.576   2.943   6.316 -0.5920 -0.5939 -0.0777
 9160SOL    HW139116   0.487   2.927   6.345 -1.6519 -0.5332 -3.2868
 9160SOL    HW239117   0.620   2.876   6.369  1.6338  0.6567 -0.3180
 9161SOL     OW39118   4.282   3.404   6.414  0.3065 -0.5240 -0.3965
 9161SOL    HW139119   4.317   3.335   6.358 -0.5317 -0.4108 -1.0648
 9161SOL    HW239120   4.190   3.379   6.410  0.0434  0.5347 -1.1490
 9162SOL     OW39121   0.313   4.370   4.216 -0.3927  0.2637 -0.0553
 9162SOL    HW139122   0.407   4.385   4.218 -0.2898 -0.3406 -0.3963
 9162SOL    HW239123   0.321   4.275   4.218 -0.3146  0.2605 -0.5551
 9163SOL     OW39124   4.276   4.609   5.795  0.2533  0.0657  0.4069
 9163SOL    HW139125   4.189   4.598   5.755  0.2787  0.6017  0.2061
 9163SOL    HW239126   4.263   4.563   5.878  1.0088 -0.7066  0.0981
 9164SOL     OW39127   3.764   4.321   5.081  0.1424  0.4561  0.2103
 9164SOL    HW139128   3.781   4.263   5.006 -1.1937 -0.5422  0.6738
 9164SOL    HW239129   3.825   4.394   5.075  1.1323 -0.5392 -1.9964
 9165SOL     OW39130   3.730   3.896  13.304 -0.4129 -0.2370  0.1057
 9165SOL    HW139131   3.664   3.938  13.248 -0.2107 -0.7798 -0.5389
 9165SOL    HW239132   3.677   3.825  13.340  0.2013 -0.6012  0.2882
 9166SOL     OW39133   4.129   4.574   7.946 -0.2862 -0.3622 -0.0312
 9166SOL    HW139134   4.048   4.621   7.968 -0.4526  0.6854 -2.9213
 9166SOL    HW239135   4.125   4.490   7.990  0.7046 -0.5445 -0.2897
 9167SOL     OW39136   4.149   1.962   6.436  0.2468 -0.0166 -0.1390
 9167SOL    HW139137   4.092   1.940   6.510  0.3488 -0.8449 -0.3000
 9167SOL    HW239138   4.174   1.874   6.408 -1.8375 -1.3968  2.3019
 9168SOL     OW39139   1.598   1.484  13.426  0.3338 -0.0027  0.4489
 9168SOL    HW139140   1.515   1.469  13.472 -0.6180 -1.1380 -1.6218
 9168SOL    HW239141   1.587   1.563  13.373  2.7985  0.1112  0.1178
 9169SOL     OW39142   4.248   4.045  11.638  0.7414 -0.4905  0.2205
 9169SOL    HW139143   4.336   4.012  11.618  0.4094 -0.5416 -1.1626
 9169SOL    HW239144   4.204   3.965  11.667  0.1264 -0.5819 -0.9568
 9170SOL     OW39145   2.557   2.941   3.763  0.0035 -0.6310 -0.1935
 9170SOL    HW139146   2.533   2.866   3.818 -2.5600  0.9787  0.8755
 9170SOL    HW239147   2.568   2.893   3.681 -1.2349  1.3331 -1.5011
 9171SOL     OW39148   4.009   3.597  16.568 -0.2882 -0.4401 -0.4322
 9171SOL    HW139149   4.093   3.560  16.597 -0.5486  0.1247  1.0288
 9171SOL    HW239150   3.994   3.666  16.633  0.6446  2.3173 -3.1684
 9172SOL     OW39151   4.015   4.377  13.290 -0.2918  0.6238  0.1703
 9172SOL    HW139152   3.939   4.319  13.294 -0.4359  0.7322 -1.0586
 9172SOL    HW239153   4.063   4.355  13.370 -0.4330 -1.3655 -0.2977
 9173SOL     OW39154   1.055   2.061   3.005  0.2878  0.4477 -0.1005
 9173SOL    HW139155   1.056   2.067   3.101  0.1799  1.1238 -0.1389
 9173SOL    HW239156   1.046   2.156   2.996 -2.4117  0.2263  0.3563
 9174SOL     OW39157   1.937   1.800   0.635  0.1913 -0.1670 -0.0926
 9174SOL    HW139158   1.852   1.776   0.599  0.8792 -1.3481 -0.9365
 9174SOL    HW239159   1.955   1.723   0.690 -0.7618  0.6477  1.3577
 9175SOL     OW39160   2.966   4.304  16.951 -0.4202 -0.8219  0.0924
 9175SOL    HW139161   3.019   4.224  16.960  0.7679 -0.0971 -0.5238
 9175SOL    HW239162   2.947   4.302  16.857  1.6507 -0.6029 -0.3241
 9176SOL     OW39163   1.821   3.864   2.025  0.1777 -0.5928 -0.2472
 9176SOL    HW139164   1.828   3.772   2.051 -1.5256 -0.2622  1.4100
 9176SOL    HW239165   1.766   3.850   1.948  0.2945  0.2360 -0.4864
 9177SOL     OW39166   1.275   0.599   1.522  0.3288  0.4021  0.5302
 9177SOL    HW139167   1.183   0.592   1.546  0.0390 -2.1787 -1.3897
 9177SOL    HW239168   1.312   0.616   1.609  0.1608 -2.3672  1.1365
 9178SOL     OW39169   3.929   3.482  17.100 -0.3761 -0.5169 -0.5909
 9178SOL    HW139170   3.930   3.553  17.164 -3.6696 -0.5104 -0.5140
 9178SOL    HW239171   3.948   3.408  17.157 -0.9659 -0.6085 -0.5122
 9179SOL     OW39172   2.835   0.089  15.161 -0.2895 -0.0426 -0.4548
 9179SOL    HW139173   2.774   0.158  15.185  0.0618  0.0368  0.1798
 9179SOL    HW239174   2.819   0.066  15.069 -0.1459  1.7936 -0.9275
 9180SOL     OW39175   1.575   4.033   4.768  0.1834  0.2275  0.2794
 9180SOL    HW139176   1.540   3.951   4.804 -1.4516  0.7045 -0.2139
 9180SOL    HW239177   1.601   3.997   4.683  0.2787  0.6284  0.1394
 9181SOL     OW39178   3.946   1.098   3.421  0.8227 -0.5980  0.1105
 9181SOL    HW139179   3.909   1.144   3.345  1.5896 -3.7587 -2.1416
 9181SOL    HW239180   3.965   1.169   3.482  0.3141 -1.3981  1.1977
 9182SOL     OW39181   4.206   1.911   4.411  0.9951 -0.3519 -0.5161
 9182SOL    HW139182   4.203   1.857   4.332 -0.5373 -0.5030 -0.3725
 9182SOL    HW239183   4.144   1.857   4.461  0.0509 -1.1453 -2.5638
 9183SOL     OW39184   3.250   1.399   4.404 -0.1848  0.2628 -0.0418
 9183SOL    HW139185   3.232   1.375   4.314  2.1997  0.6854 -0.6289
 9183SOL    HW239186   3.332   1.350   4.412  0.1257  0.3205 -3.2543
 9184SOL     OW39187   2.715   3.364   9.315  0.1267  1.0673  0.4144
 9184SOL    HW139188   2.735   3.328   9.402  0.5418  1.2090  0.3779
 9184SOL    HW239189   2.800   3.347   9.275  0.0745  0.0484  0.7232
 9185SOL     OW39190   4.497   1.938   7.928 -0.1627  0.2238 -0.1019
 9185SOL    HW139191   4.523   1.888   8.005 -0.9883 -0.7615 -0.4615
 9185SOL    HW239192   4.491   2.020   7.976 -1.1922 -0.6333  1.2309
 9186SOL     OW39193   1.542   0.836  12.250  0.1025 -0.4759 -0.2452
 9186SOL    HW139194   1.493   0.906  12.207 -1.2160 -1.2608  0.0105
 9186SOL    HW239195   1.511   0.761  12.200  0.2698 -1.4279  1.0513
 9187SOL     OW39196   4.473   2.596  15.752 -0.6001  0.1338  0.0556
 9187SOL    HW139197   4.543   2.552  15.800 -0.3843 -0.9609 -1.2583
 9187SOL    HW239198   4.466   2.674  15.807  1.5647  0.2562  0.1761
 9188SOL     OW39199   0.312   1.759   9.338  0.4287  0.2520 -0.1785
 9188SOL    HW139200   0.262   1.837   9.363  0.4082  0.1540  0.0841
 9188SOL    HW239201   0.384   1.757   9.401  0.0551 -0.7428  0.2219
 9189SOL     OW39202   2.139   3.899  11.160 -0.5525  0.6062  0.4382
 9189SOL    HW139203   2.142   3.994  11.150 -0.9688  0.4764 -0.9637
 9189SOL    HW239204   2.174   3.870  11.076 -0.1460 -1.4462  1.3267
 9190SOL     OW39205   2.783   0.268  14.090  0.3837 -0.1290 -0.3355
 9190SOL    HW139206   2.790   0.329  14.164 -0.1525 -1.3857  0.7541
 9190SOL    HW239207   2.706   0.307  14.049 -0.3931  0.3336  1.5449
 9191SOL     OW39208   3.677   2.842  11.439 -0.5126  0.2684  0.2123
 9191SOL    HW139209   3.726   2.795  11.372  2.1601  2.4803  0.6284
 9191SOL    HW239210   3.590   2.802  11.434  0.6908 -2.2981 -0.4263
 9192SOL     OW39211   0.517   0.693   0.874  0.0633 -0.5255  0.2863
 9192SOL    HW139212   0.542   0.711   0.783 -0.6592 -0.5776  0.0793
 9192SOL    HW239213   0.442   0.638   0.853 -1.1158  0.9415  0.6415
 9193SOL     OW39214   4.620   0.363   4.646  0.0998  0.1943  0.4561
 9193SOL    HW139215   4.617   0.455   4.621  0.3878  0.0620 -0.0492
 9193SOL    HW239216   4.598   0.309   4.571  0.7259  0.2420  0.2441
 9194SOL     OW39217   4.113   2.410   7.558  0.3109  0.5936  0.4427
 9194SOL    HW139218   4.133   2.385   7.648  0.6833 -0.6595  0.0096
 9194SOL    HW239219   4.033   2.360   7.544 -0.5505  2.4121 -1.2285
 9195SOL     OW39220   3.184   4.361   6.024 -0.2166 -0.1438 -0.4468
 9195SOL    HW139221   3.168   4.386   6.115 -0.3231 -0.6833 -0.3144
 9195SOL    HW239222   3.273   4.392   6.009 -0.1297 -0.0272  0.3098
 9196SOL     OW39223   1.341   2.946   9.760  0.1866  0.0151  0.0636
 9196SOL    HW139224   1.257   2.919   9.799  0.5964 -2.5130 -0.7785
 9196SOL    HW239225   1.313   3.035   9.740  0.2511 -0.3256 -1.5475
 9197SOL     OW39226   3.570   1.976   9.075  0.7976  0.0642 -0.0244
 9197SOL    HW139227   3.571   1.990   9.169  2.1684  0.1539 -0.0530
 9197SOL    HW239228   3.616   1.892   9.065 -0.2350 -0.7303  1.9906
 9198SOL     OW39229   1.916   1.328   4.126 -0.2597 -0.0155 -0.7486
 9198SOL    HW139230   1.979   1.369   4.186 -0.3318 -2.7947  1.2419
 9198SOL    HW239231   1.846   1.393   4.123  0.1892  0.5418  1.0096
 9199SOL     OW39232   3.298   2.986   3.014 -0.4491  0.0964  0.1707
 9199SOL    HW139233   3.301   3.073   2.976 -1.9215 -0.4273 -1.1312
 9199SOL    HW239234   3.216   2.949   2.982  0.8914 -3.5717  0.8680
 9200SOL     OW39235   1.497   1.013  14.126 -0.2805  0.2620  0.3460
 9200SOL    HW139236   1.553   0.965  14.187 -0.7382  1.9302  2.0457
 9200SOL    HW239237   1.451   1.072  14.185  2.4007  0.4855  2.2122
 9201SOL     OW39238   3.815   2.814   6.581  0.1097  0.1672  0.1797
 9201SOL    HW139239   3.791   2.865   6.659 -2.2837 -3.2531  1.6379
 9201SOL    HW239240   3.904   2.843   6.560  0.3065  1.1128  2.2403
 9202SOL     OW39241   4.257   3.980  12.632 -0.0294 -0.4330  0.0658
 9202SOL    HW139242   4.180   3.989  12.576 -0.0543  0.6155  0.2657
 9202SOL    HW239243   4.318   3.937  12.573  0.0461 -1.7330  1.0712
 9203SOL     OW39244   0.315   2.166   5.538  0.5048  0.1747  0.6532
 9203SOL    HW139245   0.359   2.228   5.480  2.6710 -1.1021  0.9165
 9203SOL    HW239246   0.356   2.083   5.515  1.9242  0.6101  1.6489
 9204SOL     OW39247   1.018   3.765  17.271  0.0154  0.3646 -0.1949
 9204SOL    HW139248   0.952   3.700  17.245  1.6909 -1.0034 -1.0267
 9204SOL    HW239249   1.015   3.822  17.194 -0.3293  1.1298  0.3785
 9205SOL     OW39250   3.342   3.293   8.827 -0.3132  0.8106  0.3260
 9205SOL    HW139251   3.319   3.332   8.743 -0.9447 -1.2031 -0.4199
 9205SOL    HW239252   3.267   3.235   8.836  1.3010 -1.5251 -1.5642
 9206SOL     OW39253   3.451   1.424   5.725 -0.3426 -0.4603 -0.3463
 9206SOL    HW139254   3.415   1.342   5.693 -2.8014  0.5845 -0.2762
 9206SOL    HW239255   3.499   1.391   5.801  2.1512  1.7420 -0.9554
 9207SOL     OW39256   4.056   3.408   9.961 -0.2527  0.2104  0.1011
 9207SOL    HW139257   4.135   3.456   9.935 -0.4798  1.4197  1.6797
 9207SOL    HW239258   4.046   3.450  10.046  3.5361  1.0632  0.1479
 9208SOL     OW39259   1.872   2.228   3.676  0.4111 -0.0175  0.1103
 9208SOL    HW139260   1.795   2.174   3.656  1.0886 -1.2762  0.9093
 9208SOL    HW239261   1.937   2.187   3.619 -3.1460 -0.1004 -3.8761
 9209SOL     OW39262   3.410   3.051   8.032  0.1352  0.2374  0.2136
 9209SOL    HW139263   3.381   3.010   7.951  0.0026 -0.1653  0.4620
 9209SOL    HW239264   3.375   3.139   8.021 -0.6588 -0.1598 -0.3869
 9210SOL     OW39265   1.435   0.884  15.905 -0.1885 -0.0024  0.0022
 9210SOL    HW139266   1.377   0.872  15.829 -1.4076 -1.0656  1.0973
 9210SOL    HW239267   1.443   0.978  15.915  1.3033  0.0772 -1.9758
 9211SOL     OW39268   3.942   0.672  11.440 -0.2186 -0.2487  0.1346
 9211SOL    HW139269   3.857   0.669  11.397 -0.3977  2.2047  0.3609
 9211SOL    HW239270   3.928   0.627  11.524 -3.1594 -1.2464 -0.9186
 9212SOL     OW39271   2.090   0.491   6.005 -0.5680  0.5081 -0.1385
 9212SOL    HW139272   2.109   0.573   5.959 -0.6236  0.3545 -0.4332
 9212SOL    HW239273   1.996   0.488   5.991 -0.8119  0.0132  1.5726
 9213SOL     OW39274   4.431   2.265   4.020 -0.0322  0.6417 -0.3320
 9213SOL    HW139275   4.352   2.220   4.052  0.0756 -0.5601 -1.7928
 9213SOL    HW239276   4.398   2.355   4.028 -1.8725 -0.1530  1.3066
 9214SOL     OW39277   3.112   3.088   4.608 -0.3416  0.9021 -0.0699
 9214SOL    HW139278   3.159   3.157   4.561  0.9665 -0.1284 -0.2761
 9214SOL    HW239279   3.023   3.122   4.617 -0.8279 -1.2079  3.0544
 9215SOL     OW39280   1.651   2.716   5.409  0.3093 -0.3386  0.0193
 9215SOL    HW139281   1.696   2.639   5.376 -1.8646 -1.6252  0.0415
 9215SOL    HW239282   1.586   2.728   5.339  0.3104 -0.6619 -0.0344
 9216SOL     OW39283   3.525   2.393  12.807 -0.4096 -0.0846  0.2162
 9216SOL    HW139284   3.566   2.321  12.760  0.8678  0.2414  0.7967
 9216SOL    HW239285   3.605   2.443  12.825 -0.3939  1.1458 -3.2066
 9217SOL     OW39286   2.803   2.720   6.758 -0.1678 -0.2445 -0.4009
 9217SOL    HW139287   2.892   2.696   6.785  0.5724 -1.4408 -3.9033
 9217SOL    HW239288   2.765   2.637   6.729 -0.0768 -0.4060 -0.0503
 9218SOL     OW39289   3.072   2.215   5.002  0.3040 -0.1724  0.7080
 9218SOL    HW139290   3.036   2.144   4.949  2.1253  0.0069 -0.7894
 9218SOL    HW239291   3.164   2.194   5.016  0.3184 -0.2669  0.4714
 9219SOL     OW39292   3.740   2.086   5.607 -0.0559  0.1179  0.4250
 9219SOL    HW139293   3.744   2.016   5.542  0.2877  0.6214 -0.0986
 9219SOL    HW239294   3.684   2.159   5.580  2.7224  2.0476 -0.0444
 9220SOL     OW39295   3.632   3.412   3.418 -0.4902  0.3243 -0.1509
 9220SOL    HW139296   3.708   3.355   3.405 -0.6341 -0.6416  3.1594
 9220SOL    HW239297   3.572   3.373   3.355  0.5903 -2.0834  0.2873
 9221SOL     OW39298   2.566   3.311   8.842  0.2626  0.3039 -0.1082
 9221SOL    HW139299   2.652   3.297   8.881 -0.8277  1.6040  2.8136
 9221SOL    HW239300   2.545   3.402   8.864  0.1770  0.1601  0.4145
 9222SOL     OW39301   2.879   1.469  13.436 -0.0080  0.2664 -0.1637
 9222SOL    HW139302   2.938   1.394  13.431 -0.3022  0.0018  0.2382
 9222SOL    HW239303   2.947   1.528  13.470  0.8353 -0.0658 -1.3160
 9223SOL     OW39304   0.617   0.162   3.196 -0.1201 -0.2029 -0.0820
 9223SOL    HW139305   0.691   0.211   3.232 -0.6119 -0.6083  1.5085
 9223SOL    HW239306   0.589   0.222   3.128 -0.8785 -0.5133 -0.0449
 9224SOL     OW39307   0.116   1.723   9.598  0.0011 -0.0723 -0.4804
 9224SOL    HW139308   0.023   1.706   9.583  0.3409 -1.1327 -1.3822
 9224SOL    HW239309   0.125   1.789   9.529 -1.7411  0.8414  0.1800
 9225SOL     OW39310   3.517   2.886   9.848  0.5818 -0.1104  0.0949
 9225SOL    HW139311   3.549   2.829   9.778 -0.0409  0.4041 -0.6067
 9225SOL    HW239312   3.487   2.822   9.914  1.2536  1.6588  2.1031
 9226SOL     OW39313   3.549   2.608   5.291  0.5973  0.6012 -0.9068
 9226SOL    HW139314   3.504   2.688   5.264 -1.0102 -0.9753 -2.9020
 9226SOL    HW239315   3.579   2.631   5.379  0.9189  0.3941 -0.9637
 9227SOL     OW39316   2.904   2.384  13.761 -0.5359  0.4836 -0.4695
 9227SOL    HW139317   2.849   2.309  13.784  1.9923 -0.3710  2.8015
 9227SOL    HW239318   2.975   2.347  13.708  0.2704 -0.3068  1.1536
 9228SOL     OW39319   3.592   3.093   6.157 -0.1498 -0.0533  0.0176
 9228SOL    HW139320   3.555   3.180   6.174 -0.0383 -0.0287  0.1369
 9228SOL    HW239321   3.601   3.056   6.245 -1.1523  1.7743  0.8906
 9229SOL     OW39322   4.440   0.864  14.551  0.0234 -0.4053 -0.0700
 9229SOL    HW139323   4.465   0.836  14.463 -2.0534 -1.4984 -0.3228
 9229SOL    HW239324   4.476   0.952  14.548 -1.1035  0.0751  0.1592
 9230SOL     OW39325   4.250   3.953   8.932 -0.3256 -0.0066 -0.3664
 9230SOL    HW139326   4.285   3.983   8.848 -0.1229 -2.2316 -1.0807
 9230SOL    HW239327   4.329   3.974   8.982 -1.1485  1.6997  0.2132
 9231SOL     OW39328   3.425   3.781   4.746 -0.0714  0.2324 -0.8452
 9231SOL    HW139329   3.391   3.743   4.827  0.2920  0.8847 -0.3831
 9231SOL    HW239330   3.441   3.696   4.704 -0.1803 -0.5910  0.7952
 9232SOL     OW39331   3.699   3.840   4.017  0.6563 -0.5925 -0.5197
 9232SOL    HW139332   3.786   3.876   4.036  0.3082  0.5967 -1.1911
 9232SOL    HW239333   3.708   3.785   3.940 -1.9467  0.3578 -1.4832
 9233SOL     OW39334   0.908   1.782  16.619 -0.4039 -0.5282  0.7483
 9233SOL    HW139335   0.905   1.703  16.565 -1.0036 -0.5127  0.7591
 9233SOL    HW239336   0.988   1.765  16.669  0.3515  2.6713  0.6071
 9234SOL     OW39337   2.847   2.419   9.012  0.2770  0.1740 -0.3748
 9234SOL    HW139338   2.881   2.504   9.040  0.9068 -0.7710  1.7359
 9234SOL    HW239339   2.910   2.364   9.060  1.2439  0.6999 -1.0377
 9235SOL     OW39340   1.768   0.989   7.492  0.4407  0.1079  0.2386
 9235SOL    HW139341   1.846   0.949   7.454  0.7613 -0.5559  1.6207
 9235SOL    HW239342   1.796   1.065   7.542  1.4442  0.2628 -0.5701
 9236SOL     OW39343   4.208   3.177   1.721 -0.1504 -0.2245 -0.6263
 9236SOL    HW139344   4.248   3.249   1.674  0.7167 -0.5954 -0.4663
 9236SOL    HW239345   4.127   3.200   1.766  0.0760 -0.1337 -0.2632
 9237SOL     OW39346   3.349   1.588   6.013 -0.6987 -0.2586  0.6397
 9237SOL    HW139347   3.441   1.613   6.006 -0.4837 -0.9080  1.1124
 9237SOL    HW239348   3.346   1.512   5.955  0.5378  0.3937 -0.2607
 9238SOL     OW39349   0.990   3.669   1.698 -0.2550 -0.0946 -0.1569
 9238SOL    HW139350   1.040   3.746   1.726  2.5925 -1.7637 -0.6143
 9238SOL    HW239351   0.955   3.627   1.776 -3.1381  0.3155 -1.2164
 9239SOL     OW39352   2.832   1.765   9.587 -0.0763  0.4425 -0.2426
 9239SOL    HW139353   2.768   1.735   9.523  1.3820 -0.3290 -1.3394
 9239SOL    HW239354   2.775   1.812   9.648 -1.6840  0.8150 -2.0210
 9240SOL     OW39355   1.310   0.843   4.872  0.0422  0.2454  0.3857
 9240SOL    HW139356   1.390   0.842   4.821 -0.3644  0.2752 -0.2472
 9240SOL    HW239357   1.336   0.877   4.958  1.5145 -0.1771  0.1020
 9241SOL     OW39358   4.627   0.275   8.072 -0.1113 -0.0808  0.4928
 9241SOL    HW139359   4.633   0.368   8.048  1.9227  0.4011  2.8231
 9241SOL    HW239360   4.568   0.282   8.147 -0.6312 -0.5662  0.1271
 9242SOL     OW39361   0.610   2.087   6.043  0.2476 -0.5109 -0.4190
 9242SOL    HW139362   0.573   2.015   6.094 -0.0041 -0.1270 -0.0605
 9242SOL    HW239363   0.592   2.055   5.955  1.4261 -0.8707 -0.5281
 9243SOL     OW39364   4.094   1.066  13.164 -0.5485  0.5199  0.4518
 9243SOL    HW139365   4.075   1.135  13.101  3.5638 -0.4098 -1.8171
 9243SOL    HW239366   4.149   1.011  13.108  0.6389  1.1528  0.9840
 9244SOL     OW39367   2.098   4.715   4.615 -0.0704  0.0050 -0.5564
 9244SOL    HW139368   2.147   0.040   4.668  1.6653 -0.0526 -2.0866
 9244SOL    HW239369   2.087   4.651   4.686  1.8962 -0.1399 -0.3870
 9245SOL     OW39370   2.911   2.705   8.629 -0.5971  0.1368 -0.5402
 9245SOL    HW139371   2.905   2.753   8.547 -1.1908  0.5572 -0.2539
 9245SOL    HW239372   2.908   2.616   8.594 -0.8788  0.2404 -0.7781
 9246SOL     OW39373   3.547   1.179  15.989  0.2639  0.1294 -0.6454
 9246SOL    HW139374   3.501   1.098  15.966  2.5125 -1.3017 -0.1816
 9246SOL    HW239375   3.617   1.149  16.048  0.2007  2.1092  0.4616
 9247SOL     OW39376   0.128   3.144   8.791  0.0269  0.3159 -0.2758
 9247SOL    HW139377   0.135   3.238   8.774 -0.4860  0.8021  2.2966
 9247SOL    HW239378   0.137   3.118   8.699  0.4743  0.3067 -0.2323
 9248SOL     OW39379   0.425   4.138  11.083  0.3488  0.0698  0.1017
 9248SOL    HW139380   0.334   4.166  11.096  0.2651 -0.4715  0.6598
 9248SOL    HW239381   0.405   4.047  11.104  0.7255 -0.2654 -0.9539
 9249SOL     OW39382   2.554   0.217   1.011  0.2939  0.5283  0.6431
 9249SOL    HW139383   2.469   0.261   1.015 -2.1738 -3.8290 -3.6139
 9249SOL    HW239384   2.609   0.286   0.974 -1.0897  0.2929 -1.9103
 9250SOL     OW39385   4.339   1.555  14.869  0.0736  0.2248 -0.0235
 9250SOL    HW139386   4.405   1.570  14.937 -0.4483 -3.2872  1.2694
 9250SOL    HW239387   4.384   1.598  14.796 -1.0890  1.0683 -0.2329
 9251SOL     OW39388   4.128   3.865   4.669  0.4279  0.2233  0.5289
 9251SOL    HW139389   4.150   3.958   4.680  3.0819 -0.6618  2.6521
 9251SOL    HW239390   4.105   3.842   4.759 -0.2490  1.5694  0.7016
 9252SOL     OW39391   2.611   1.589  10.191 -1.0008  0.4542  0.3114
 9252SOL    HW139392   2.663   1.614  10.115 -2.1673 -0.9716 -0.9349
 9252SOL    HW239393   2.553   1.530  10.144 -1.2743  1.9620 -1.2403
 9253SOL     OW39394   3.889   0.690   3.064  0.0708  0.0298 -0.2563
 9253SOL    HW139395   3.939   0.767   3.093  1.8795 -1.2162 -0.1122
 9253SOL    HW239396   3.909   0.638   3.141  3.6251  2.0043  0.1540
 9254SOL     OW39397   1.250   0.107   5.507  0.0708 -0.3533 -0.5774
 9254SOL    HW139398   1.295   0.156   5.438  0.8610  0.1882  0.3387
 9254SOL    HW239399   1.318   0.091   5.572 -1.4799 -0.1490  1.1111
 9255SOL     OW39400   2.915   1.087  17.428 -0.0971 -0.0057 -0.4989
 9255SOL    HW139401   2.853   1.063  17.496 -1.5997  2.1405 -1.1305
 9255SOL    HW239402   2.867   1.160  17.391  1.5813  1.6702  0.6315
 9256SOL     OW39403   0.615   0.924  16.710 -0.8787  0.0873 -0.3563
 9256SOL    HW139404   0.660   0.909  16.793 -0.4387  2.0856 -0.2269
 9256SOL    HW239405   0.635   1.018  16.702  1.0690 -0.4584 -1.9315
 9257SOL     OW39406   1.912   0.574  17.648  0.2433 -0.2602  0.5734
 9257SOL    HW139407   1.966   0.643  17.609 -1.1897  0.1104 -0.7220
 9257SOL    HW239408   1.824   0.608  17.632  0.5841  0.5204  0.3253
 9258SOL     OW39409   3.760   2.063  15.255 -0.2024 -0.0206  0.3607
 9258SOL    HW139410   3.792   2.153  15.262 -1.5439  0.5586 -1.0712
 9258SOL    HW239411   3.817   2.014  15.315 -0.3300 -2.0887 -1.2044
 9259SOL     OW39412   1.526   2.371   5.548  0.2990  0.2758  1.0878
 9259SOL    HW139413   1.452   2.431   5.557 -0.3359 -0.5077  1.0203
 9259SOL    HW239414   1.521   2.359   5.453 -0.1425  3.1516  0.7621
 9260SOL     OW39415   4.628   2.280  16.248  0.0752  0.8545 -0.1361
 9260SOL    HW139416   4.538   2.287  16.215 -0.1114 -1.2837 -0.0993
 9260SOL    HW239417   4.614   2.234  16.330  1.9775  0.5498 -0.0026
 9261SOL     OW39418   0.771   4.080   4.703 -0.1000 -0.4406 -0.1899
 9261SOL    HW139419   0.817   4.163   4.703  0.6520 -0.8608 -1.4419
 9261SOL    HW239420   0.782   4.038   4.618 -0.2998 -0.8050 -0.0385
 9262SOL     OW39421   4.000   1.769   5.500  0.7309  0.1581 -0.2929
 9262SOL    HW139422   4.039   1.730   5.578  2.3381 -1.5155 -1.9699
 9262SOL    HW239423   4.075   1.782   5.441 -1.0050  0.7406 -2.3788
 9263SOL     OW39424   3.289   0.036   4.956 -0.3578  0.0679 -0.0402
 9263SOL    HW139425   3.357   4.711   4.981 -1.9501 -0.0169  4.0578
 9263SOL    HW239426   3.295   0.030   4.860 -1.8654  1.9373 -0.2577
 9264SOL     OW39427   2.920   2.388  12.470  0.1875  0.2554  0.1275
 9264SOL    HW139428   2.971   2.426  12.399  0.5277  1.4035  0.9942
 9264SOL    HW239429   2.983   2.331  12.513  0.1884  0.5524  0.5171
 9265SOL     OW39430   3.541   0.370   4.472 -0.1823  0.2490  0.0088
 9265SOL    HW139431   3.582   0.427   4.538  2.8582  2.0395 -3.4237
 9265SOL    HW239432   3.611   0.348   4.411  0.3534 -1.3874  1.2119
 9266SOL     OW39433   0.947   2.713   7.319 -0.4878 -0.8229 -0.2824
 9266SOL    HW139434   0.874   2.665   7.358 -1.3785 -0.1926 -1.1848
 9266SOL    HW239435   1.018   2.659   7.354  0.5026  1.4190  1.1491
 9267SOL     OW39436   3.267   1.305   3.644  0.1033 -0.4628 -0.3359
 9267SOL    HW139437   3.306   1.385   3.609  0.3271 -0.5128 -0.1970
 9267SOL    HW239438   3.328   1.248   3.597 -0.6601 -2.5429  1.2158
 9268SOL     OW39439   1.448   4.219   0.222 -0.0392 -0.9893  0.0730
 9268SOL    HW139440   1.542   4.213   0.241 -0.3664 -3.1965  0.9571
 9268SOL    HW239441   1.439   4.310   0.194  0.2578 -1.3436 -1.1958
 9269SOL     OW39442   3.118   1.273   7.648  0.6999  0.1630 -0.3520
 9269SOL    HW139443   3.197   1.288   7.700  1.0382  0.3455 -0.9164
 9269SOL    HW239444   3.113   1.178   7.653 -1.1241  0.2468 -0.6543
 9270SOL     OW39445   3.607   3.961   9.800  0.1979 -0.1079 -0.2928
 9270SOL    HW139446   3.628   3.998   9.715  2.0599  0.0970  0.2432
 9270SOL    HW239447   3.537   4.021   9.825 -0.5562 -0.1221 -2.3804
 9271SOL     OW39448   2.038   4.197   8.442  0.4041  0.2371 -0.2558
 9271SOL    HW139449   1.979   4.263   8.407 -0.4444  0.0631  0.8249
 9271SOL    HW239450   1.968   4.136   8.466 -2.0310  1.9522 -3.0671
 9272SOL     OW39451   4.046   4.494  10.812 -0.4557  0.5946 -0.6588
 9272SOL    HW139452   4.043   4.416  10.869 -0.2464  0.8702 -0.2738
 9272SOL    HW239453   3.954   4.506  10.789 -0.3229  2.6066 -0.1369
 9273SOL     OW39454   4.541   3.237   3.525  0.0220 -0.0306  0.0669
 9273SOL    HW139455   4.583   3.172   3.468 -0.2980 -0.7118  0.6101
 9273SOL    HW239456   4.611   3.303   3.530 -0.0628  0.2208 -2.1970
 9274SOL     OW39457   0.620   4.426  13.938 -0.3185 -0.0801  0.5295
 9274SOL    HW139458   0.593   4.339  13.908  1.0803 -0.0906 -0.7232
 9274SOL    HW239459   0.620   4.407  14.032 -1.8777  1.3530  0.8130
 9275SOL     OW39460   1.948   3.185   5.080 -0.2062  0.2382  0.3992
 9275SOL    HW139461   1.964   3.278   5.061  0.5223 -0.4486 -2.3116
 9275SOL    HW239462   1.937   3.152   4.991 -1.1057  0.1382  0.5466
 9276SOL     OW39463   3.253   1.055  13.282 -0.0569 -0.6845 -0.2723
 9276SOL    HW139464   3.326   0.996  13.267  0.2744 -0.5364  0.7580
 9276SOL    HW239465   3.225   1.023  13.368 -0.6684 -2.6119 -1.1773
 9277SOL     OW39466   4.262   3.728   5.624  0.6253 -0.3963  0.1026
 9277SOL    HW139467   4.199   3.734   5.552  0.5161  0.1677  0.2460
 9277SOL    HW239468   4.226   3.658   5.679 -1.7749 -1.1528 -2.4061
 9278SOL     OW39469   0.728   0.764   0.158  0.1188 -0.1389  0.5713
 9278SOL    HW139470   0.802   0.798   0.108  0.1872 -1.8416 -0.4701
 9278SOL    HW239471   0.682   0.846   0.178  0.5741 -0.1380  1.6459
 9279SOL     OW39472   4.078   3.290  16.854 -0.4492  0.0764 -0.3867
 9279SOL    HW139473   4.005   3.330  16.902 -0.9723  0.3879 -1.4377
 9279SOL    HW239474   4.076   3.197  16.878  2.7489  0.1980  0.2822
 9280SOL     OW39475   4.313   1.078   8.684  0.1197 -0.3497  0.1020
 9280SOL    HW139476   4.367   1.000   8.667  1.7502  0.5265  1.2484
 9280SOL    HW239477   4.378   1.148   8.693  0.9231 -0.9412 -1.0304
 9281SOL     OW39478   1.608   1.325   6.111  0.4479  0.2378 -0.3506
 9281SOL    HW139479   1.517   1.339   6.085  0.9255  1.7869 -1.1641
 9281SOL    HW239480   1.641   1.378   6.039 -0.2895 -0.3790 -1.1403
 9282SOL     OW39481   2.880   1.210   4.358  0.7928  0.0442  0.3525
 9282SOL    HW139482   2.796   1.252   4.378  2.0155  2.5200  0.3147
 9282SOL    HW239483   2.844   1.124   4.335  1.2804 -0.7775  2.6420
 9283SOL     OW39484   2.327   3.112  14.939 -0.2693  0.2785 -0.1200
 9283SOL    HW139485   2.387   3.041  14.915 -0.4315  0.0779  0.0612
 9283SOL    HW239486   2.366   3.138  15.023 -1.8450  1.0237  0.3792
 9284SOL     OW39487   1.765   3.998   3.761  0.1659 -0.1416  0.2410
 9284SOL    HW139488   1.819   3.930   3.800 -0.3388 -0.2089  0.8191
 9284SOL    HW239489   1.813   4.010   3.679  3.6011  0.3757  2.3115
 9285SOL     OW39490   0.860   4.393  11.250  0.0252 -0.2740  0.1585
 9285SOL    HW139491   0.834   4.484  11.260  3.9230  0.8230  0.6017
 9285SOL    HW239492   0.788   4.360  11.196  0.4379  2.5711 -2.1451
 9286SOL     OW39493   1.142   3.100  15.001 -0.0153 -0.4761 -0.1618
 9286SOL    HW139494   1.166   3.020  14.954  0.6501 -0.1259 -0.4148
 9286SOL    HW239495   1.070   3.122  14.941 -0.3607 -0.1539  0.3791
 9287SOL     OW39496   4.294   2.757   5.213 -0.3331  0.3423 -0.2121
 9287SOL    HW139497   4.346   2.757   5.132  0.4581 -0.2030  0.2941
 9287SOL    HW239498   4.283   2.662   5.222  1.8265  0.3607  2.4953
 9288SOL     OW39499   4.289   3.227  10.548 -0.0181 -1.1081 -0.1019
 9288SOL    HW139500   4.216   3.202  10.604  0.3033 -1.2290  0.2669
 9288SOL    HW239501   4.260   3.295  10.488  0.4051  0.2920  1.2650
 9289SOL     OW39502   0.550   4.416  14.547 -0.0090 -0.1214  0.1501
 9289SOL    HW139503   0.632   4.425  14.499  2.3016 -2.1401  3.7029
 9289SOL    HW239504   0.516   4.505  14.536  0.8080  0.7987  4.8040
 9290SOL     OW39505   3.004   3.896   2.883 -0.3769 -0.3731 -0.2902
 9290SOL    HW139506   2.977   3.838   2.811 -0.0940 -1.6266  0.6179
 9290SOL    HW239507   3.084   3.930   2.843 -0.9206  0.6231 -0.5124
 9291SOL     OW39508   0.861   2.300   1.095 -0.4267 -0.2360 -0.8708
 9291SOL    HW139509   0.897   2.326   1.010 -0.0554 -1.6509 -1.1503
 9291SOL    HW239510   0.884   2.208   1.104  0.8132 -0.0276 -1.7616
 9292SOL     OW39511   0.782   4.213   5.679 -0.0191  0.3293 -0.0100
 9292SOL    HW139512   0.792   4.215   5.584 -0.5480  0.3110 -0.0654
 9292SOL    HW239513   0.855   4.153   5.694 -1.8783 -1.5314  1.6287
 9293SOL     OW39514   1.521   0.117   7.285  0.2632 -0.3610  0.1422
 9293SOL    HW139515   1.452   0.120   7.352 -0.2911  0.7111 -0.4827
 9293SOL    HW239516   1.558   0.032   7.312  0.8013 -1.3482 -3.7754
 9294SOL     OW39517   0.077   3.321  12.595 -0.0571  0.6301 -0.4378
 9294SOL    HW139518   0.052   3.235  12.562  2.0845 -0.2923  0.3014
 9294SOL    HW239519   4.737   3.349  12.643  0.1123  0.7588 -0.2350
 9295SOL     OW39520   4.546   1.908   5.003 -0.0411 -0.9349 -0.1576
 9295SOL    HW139521   4.579   1.818   5.008  1.0293 -0.4911  0.7192
 9295SOL    HW239522   4.490   1.905   4.925  1.2642  1.2136 -1.1855
 9296SOL     OW39523   3.669   3.359  15.144 -0.0909 -0.0793  0.3964
 9296SOL    HW139524   3.659   3.452  15.123  1.9050 -0.0841 -0.5798
 9296SOL    HW239525   3.741   3.368  15.207 -1.0008  1.2268  1.2581
 9297SOL     OW39526   2.112   3.692   4.729 -0.4042  0.1354  0.1594
 9297SOL    HW139527   2.085   3.782   4.749  1.9731  0.4658  1.9064
 9297SOL    HW239528   2.046   3.663   4.666 -1.3947  1.3834  0.6067
 9298SOL     OW39529   3.254   3.875   9.128  0.0494  0.5496 -0.8455
 9298SOL    HW139530   3.242   3.789   9.089  0.6979 -0.6657  1.6253
 9298SOL    HW239531   3.285   3.848   9.214 -0.1876  3.1257  0.0581
 9299SOL     OW39532   4.646   0.415   0.102  0.1491  0.5261 -0.1633
 9299SOL    HW139533   4.718   0.430   0.163  1.2503 -0.7065 -1.1918
 9299SOL    HW239534   4.683   0.388   0.018  0.9268  1.7216 -0.2074
 9300SOL     OW39535   3.694   0.054  12.579 -0.2152 -0.1671  0.0903
 9300SOL    HW139536   3.631   4.725  12.552 -0.9215  0.0596  1.2091
 9300SOL    HW239537   3.764   0.047  12.514 -1.9713 -2.2677 -1.5397
 9301SOL     OW39538   1.322   1.077  16.167  0.0075 -0.6684  0.3175
 9301SOL    HW139539   1.308   1.159  16.120 -1.7394 -0.6306  0.8972
 9301SOL    HW239540   1.238   1.034  16.151 -1.0133  2.0537 -1.4721
 9302SOL     OW39541   3.592   3.621   9.364  0.0806 -0.3072  0.0065
 9302SOL    HW139542   3.682   3.649   9.380 -0.3558  0.2921  1.4862
 9302SOL    HW239543   3.596   3.541   9.416 -2.2977  0.3112  1.1389
 9303SOL     OW39544   4.118   4.709   6.686 -0.3800 -0.9034 -0.0844
 9303SOL    HW139545   4.147   4.674   6.602  0.7022 -0.8194  0.2528
 9303SOL    HW239546   4.193   0.028   6.704 -0.0981 -0.9662 -1.0880
 9304SOL     OW39547   2.150   2.637  13.870  0.0520  0.7902  0.4476
 9304SOL    HW139548   2.112   2.563  13.822  1.0557 -0.9188  2.2643
 9304SOL    HW239549   2.127   2.619  13.962 -2.3959  1.9095  0.0511
 9305SOL     OW39550   2.374   1.065  13.871 -0.2019 -0.5774 -0.5080
 9305SOL    HW139551   2.451   1.032  13.825  1.8906  1.3065  1.6520
 9305SOL    HW239552   2.308   1.013  13.825 -0.2140 -2.1387  1.2681
 9306SOL     OW39553   0.929   3.942   1.004 -0.2784 -1.1944  0.3520
 9306SOL    HW139554   1.017   3.981   0.995 -0.4787 -0.4973  1.4548
 9306SOL    HW239555   0.934   3.865   0.947 -1.7947 -1.9913  1.3087
 9307SOL     OW39556   2.891   4.141   4.564 -0.1235 -0.6564 -0.5226
 9307SOL    HW139557   2.831   4.072   4.536  2.2427 -2.5437 -0.9919
 9307SOL    HW239558   2.977   4.099   4.553  0.9118  1.0773  1.0709
 9308SOL     OW39559   2.805   3.129   3.661 -0.0837 -0.5335 -0.2054
 9308SOL    HW139560   2.729   3.073   3.641 -0.8269 -0.2432  1.7555
 9308SOL    HW239561   2.847   3.071   3.725  1.5865  1.3570  0.4040
 9309SOL     OW39562   0.231   3.584   3.187 -0.1794 -0.1070 -0.2286
 9309SOL    HW139563   0.219   3.489   3.179 -0.9115  0.0890 -1.5730
 9309SOL    HW239564   0.303   3.599   3.126 -1.0211  1.5158 -0.8408
 9310SOL     OW39565   3.732   3.933   1.944  0.2149 -0.2157  0.1567
 9310SOL    HW139566   3.696   3.856   1.899  3.0116 -1.3228 -0.2193
 9310SOL    HW239567   3.647   3.972   1.961 -0.2854 -1.6197  0.9248
 9311SOL     OW39568   1.620   4.512   3.767  0.2081 -0.1445 -0.0206
 9311SOL    HW139569   1.607   4.419   3.787 -1.3614 -0.4896 -2.7061
 9311SOL    HW239570   1.674   4.537   3.842 -3.2439  2.7763  1.4801
 9312SOL     OW39571   2.155   3.200   7.444 -0.0517 -0.2733 -0.1494
 9312SOL    HW139572   2.197   3.271   7.396 -0.9059  0.8477  0.7550
 9312SOL    HW239573   2.092   3.252   7.493 -0.7700 -0.7073 -0.6189
 9313SOL     OW39574   2.028   0.026   7.625  0.8104 -0.5985  0.0302
 9313SOL    HW139575   2.104   0.084   7.622  0.8876 -0.7443 -0.8310
 9313SOL    HW239576   2.082   4.693   7.589  2.8778  0.0541  1.8695
 9314SOL     OW39577   4.415   4.597   6.779  0.2200  0.0747 -0.2458
 9314SOL    HW139578   4.481   4.531   6.756  0.6587 -0.1005  1.5279
 9314SOL    HW239579   4.451   4.609   6.867 -0.6605 -1.2917  0.2957
 9315SOL     OW39580   1.714   3.331   2.204  0.5585  0.3917  0.0740
 9315SOL    HW139581   1.673   3.385   2.271  0.3428 -0.2502  0.4624
 9315SOL    HW239582   1.640   3.297   2.154  0.1999  2.5106 -0.8226
 9316SOL     OW39583   1.186   0.854   4.370  0.3944  0.9219 -0.4903
 9316SOL    HW139584   1.268   0.806   4.366 -0.3189 -0.2699 -0.7591
 9316SOL    HW239585   1.133   0.807   4.434  0.4983 -1.4030 -2.1278
 9317SOL     OW39586   4.043   0.677   8.375 -0.2743 -0.2570  0.0193
 9317SOL    HW139587   3.973   0.625   8.414  1.0207 -1.5292  0.6671
 9317SOL    HW239588   4.046   0.753   8.433  0.9773  0.2264 -0.6654
 9318SOL     OW39589   4.368   0.073   2.726  0.2818 -0.6672  0.4642
 9318SOL    HW139590   4.359   0.151   2.781 -2.9472  0.3249 -1.4987
 9318SOL    HW239591   4.332   0.108   2.645  0.4729 -0.7394  0.3488
 9319SOL     OW39592   0.910   0.932   3.857  0.3977  0.8525  0.3997
 9319SOL    HW139593   0.936   0.933   3.765  1.2725 -2.3864  0.6329
 9319SOL    HW239594   0.959   1.008   3.890 -0.0314  1.0939  0.4748
 9320SOL     OW39595   0.465   0.608   0.402  0.0725 -0.5403  0.5420
 9320SOL    HW139596   0.416   0.607   0.320 -1.4948 -0.2354  1.4657
 9320SOL    HW239597   0.552   0.583   0.370 -1.0655 -1.6360 -1.6720
 9321SOL     OW39598   1.418   2.586  12.403 -0.3714 -0.5497 -0.4274
 9321SOL    HW139599   1.510   2.566  12.384  0.2078  1.2730  0.4627
 9321SOL    HW239600   1.395   2.494  12.409 -0.2670 -0.4822  1.0467
 9322SOL     OW39601   3.988   3.571   8.067  0.5106 -0.4066  0.6023
 9322SOL    HW139602   3.968   3.654   8.025 -0.7628 -0.6075  0.8258
 9322SOL    HW239603   3.903   3.544   8.102  0.8932  1.1234  2.6860
 9323SOL     OW39604   0.965   1.618   7.390 -0.0469 -0.7057 -0.4178
 9323SOL    HW139605   0.930   1.642   7.475 -2.4531  0.9974 -1.8830
 9323SOL    HW239606   1.041   1.673   7.373 -0.6025 -0.4349 -2.0179
 9324SOL     OW39607   3.763   0.169   1.349 -0.0909  0.3660  0.4191
 9324SOL    HW139608   3.741   0.261   1.364 -0.8717  0.0827  1.0351
 9324SOL    HW239609   3.679   0.125   1.362  1.7519 -3.6490 -1.0450
 9325SOL     OW39610   2.408   2.689   6.390 -0.0776 -0.1763 -0.5342
 9325SOL    HW139611   2.410   2.631   6.314  1.8957  0.5288 -1.0190
 9325SOL    HW239612   2.338   2.750   6.369 -0.3484 -1.1086 -2.2816
 9326SOL     OW39613   3.671   3.440   1.738 -0.5796 -0.4213  0.0978
 9326SOL    HW139614   3.616   3.361   1.743 -0.6851 -0.3415  0.2400
 9326SOL    HW239615   3.612   3.496   1.687 -0.6602 -0.6879 -0.0974
 9327SOL     OW39616   4.273   1.855  16.405 -0.1868  0.2674 -0.5652
 9327SOL    HW139617   4.337   1.807  16.352 -1.4754 -0.8661 -1.0959
 9327SOL    HW239618   4.324   1.912  16.462 -0.7554 -0.0290  0.2439
 9328SOL     OW39619   1.336   1.274   1.713 -0.6949 -0.3511  0.1663
 9328SOL    HW139620   1.349   1.323   1.632 -3.0096 -2.4109 -1.4405
 9328SOL    HW239621   1.253   1.309   1.745 -0.1553  1.3261 -0.2671
 9329SOL     OW39622   3.698   2.527   1.972 -0.3436 -0.2330  1.3185
 9329SOL    HW139623   3.607   2.547   1.996 -1.0500  0.0404 -1.5764
 9329SOL    HW239624   3.688   2.452   1.912  0.0112  0.4283  0.4436
 9330SOL     OW39625   4.225   3.034   8.109 -0.3277  0.1785 -0.6358
 9330SOL    HW139626   4.199   3.055   8.198  1.0208  0.1808 -0.2373
 9330SOL    HW239627   4.142   3.022   8.063 -0.4520  0.0516 -0.3787
 9331SOL     OW39628   3.316   0.635   3.411  0.1117  0.1273 -0.2602
 9331SOL    HW139629   3.336   0.718   3.368  1.6306 -0.2609 -0.3063
 9331SOL    HW239630   3.234   0.604   3.373 -0.6396  1.1775  0.4930
 9332SOL     OW39631   2.920   4.335  16.416 -0.2176  0.0120  0.2308
 9332SOL    HW139632   2.919   4.252  16.368 -1.1852  1.1047 -1.6246
 9332SOL    HW239633   2.962   4.398  16.359  0.0131  1.8888  2.4567
 9333SOL     OW39634   3.253   2.576   5.690  0.0525  0.4553  0.1493
 9333SOL    HW139635   3.162   2.605   5.682 -0.6673 -2.3010 -2.0974
 9333SOL    HW239636   3.283   2.591   5.779  1.0597 -1.6727  0.1660
 9334SOL     OW39637   2.108   1.784   8.167 -0.3311 -0.8395 -0.3225
 9334SOL    HW139638   2.190   1.777   8.119 -0.4369 -1.6513 -0.3877
 9334SOL    HW239639   2.088   1.691   8.174 -0.9268 -0.7057 -0.2724
 9335SOL     OW39640   2.433   4.697   6.535 -0.9039  0.4393  0.1215
 9335SOL    HW139641   2.465   4.699   6.626 -2.4357 -0.6875  0.6799
 9335SOL    HW239642   2.497   4.643   6.489 -1.5475 -1.3271  1.2888
 9336SOL     OW39643   1.592   1.394   4.460  0.3206 -0.3091 -0.2191
 9336SOL    HW139644   1.509   1.369   4.501  0.5806  0.2514  0.6510
 9336SOL    HW239645   1.565   1.455   4.391  1.6783 -0.8781 -1.2354
 9337SOL     OW39646   3.415   1.222   8.732  0.7172 -0.2924 -0.1583
 9337SOL    HW139647   3.420   1.245   8.824 -0.7655 -0.0005 -0.1502
 9337SOL    HW239648   3.320   1.212   8.718  0.5444  0.3316  0.5887
 9338SOL     OW39649   0.311   1.278   6.046 -0.0550  0.5997 -0.0456
 9338SOL    HW139650   0.248   1.342   6.013  1.4596  1.9573 -0.2905
 9338SOL    HW239651   0.312   1.300   6.139  0.8323  1.0918 -0.1702
 9339SOL     OW39652   3.820   0.855   7.242  0.2158  0.3886  0.0980
 9339SOL    HW139653   3.871   0.919   7.291  1.2326 -0.2062 -0.1870
 9339SOL    HW239654   3.803   0.780   7.298  2.7974 -0.4404 -0.2302
 9340SOL     OW39655   3.348   3.866   4.432  0.3568  0.4180 -0.1638
 9340SOL    HW139656   3.361   3.903   4.520 -1.7624  2.5491 -0.7575
 9340SOL    HW239657   3.432   3.883   4.390  1.5645 -1.3034  1.5163
 9341SOL     OW39658   3.190   3.496   4.305  0.3069  0.0711  0.0209
 9341SOL    HW139659   3.199   3.591   4.292 -0.0712  0.2408  1.0140
 9341SOL    HW239660   3.181   3.476   4.211  0.8128  1.3626 -0.3058
 9342SOL     OW39661   1.778   2.592   2.285 -0.1639  0.5061  0.5347
 9342SOL    HW139662   1.763   2.674   2.332  1.7032  1.5932 -0.7149
 9342SOL    HW239663   1.708   2.601   2.220 -0.0642  1.4043  0.5402
 9343SOL     OW39664   3.735   0.254   7.554 -0.0836 -0.3955 -0.8324
 9343SOL    HW139665   3.652   0.297   7.576 -0.9370 -1.3662 -2.2153
 9343SOL    HW239666   3.711   0.170   7.593 -3.3300 -0.8749 -3.8985
 9344SOL     OW39667   3.720   4.569   8.837 -0.1709  0.0320  0.0599
 9344SOL    HW139668   3.806   4.554   8.799 -0.4316 -0.4554 -0.3415
 9344SOL    HW239669   3.711   4.662   8.819 -2.1548  0.3706  2.6490
 9345SOL     OW39670   4.423   1.634   9.950 -0.2692 -0.4277 -0.0555
 9345SOL    HW139671   4.394   1.561   9.897  0.8603 -0.6856 -0.3101
 9345SOL    HW239672   4.486   1.587  10.004  2.6094  2.3854 -0.9426
 9346SOL     OW39673   1.689   2.774   3.999  0.5962 -0.4837 -0.2868
 9346SOL    HW139674   1.767   2.735   3.959 -0.1651 -2.6773  0.3896
 9346SOL    HW239675   1.633   2.759   3.923  0.3409  1.6469 -0.5180
 9347SOL     OW39676   0.057   3.765   0.247  0.1014  0.0458  0.0037
 9347SOL    HW139677   0.136   3.817   0.236  0.8769 -1.0112  0.6545
 9347SOL    HW239678   0.019   3.811   0.322 -1.9074 -1.7161  0.0723
 9348SOL     OW39679   1.695   0.585   2.657 -0.3076  0.3286  0.1926
 9348SOL    HW139680   1.736   0.540   2.583  4.0572  1.4178  1.9243
 9348SOL    HW239681   1.692   0.675   2.624  1.1392  0.0279 -0.7527
 9349SOL     OW39682   2.059   1.772   4.273 -0.4068 -0.2572  0.4990
 9349SOL    HW139683   2.121   1.834   4.311  2.0746 -1.4232 -1.7170
 9349SOL    HW239684   2.085   1.764   4.182  0.8891 -1.6246  0.9884
 9350SOL     OW39685   3.680   2.019   3.630 -0.6474  1.3535 -0.3741
 9350SOL    HW139686   3.756   2.007   3.686 -0.7633  0.2956 -0.4491
 9350SOL    HW239687   3.668   2.111   3.654  1.1799  0.5184  3.7836
 9351SOL     OW39688   1.646   0.151   5.672  0.0231 -0.3065 -0.2669
 9351SOL    HW139689   1.657   0.057   5.659  0.3644 -0.3303  0.1965
 9351SOL    HW239690   1.570   0.159   5.730 -0.3386 -1.7514 -0.5421
 9352SOL     OW39691   3.231   4.420   9.587 -0.5504  1.1122 -0.4315
 9352SOL    HW139692   3.215   4.492   9.525 -0.5147  1.9101  0.4936
 9352SOL    HW239693   3.323   4.395   9.578 -0.8863  0.5584 -2.4251
 9353SOL     OW39694   3.477   1.035   3.878 -0.0436 -0.1494 -0.7294
 9353SOL    HW139695   3.462   1.010   3.787  0.3812  2.1095 -1.4156
 9353SOL    HW239696   3.573   1.035   3.880 -0.0825 -0.5813  1.5645
 9354SOL     OW39697   0.569   3.185   6.854  0.1056  0.1562 -0.2989
 9354SOL    HW139698   0.603   3.099   6.880  0.9119  0.2438 -1.0695
 9354SOL    HW239699   0.554   3.180   6.760  0.5120 -0.1306 -0.3464
 9355SOL     OW39700   0.222   3.488   8.260  0.1743  0.3605  0.0012
 9355SOL    HW139701   0.150   3.435   8.226 -1.5636  2.4697  0.4100
 9355SOL    HW239702   0.244   3.537   8.181 -1.0626 -0.6295 -0.9741
 9356SOL     OW39703   4.715   2.258   9.278 -0.0523 -0.0745 -0.1971
 9356SOL    HW139704   4.671   2.343   9.282 -2.0248 -1.0945  0.0119
 9356SOL    HW239705   4.658   2.206   9.221  1.0985 -1.9753  0.3672
 9357SOL     OW39706   1.240   3.737   9.425  0.2520  0.1032  0.6761
 9357SOL    HW139707   1.288   3.673   9.478  0.9501  1.5722  1.8116
 9357SOL    HW239708   1.226   3.810   9.486 -1.8278  1.2276 -1.1705
 9358SOL     OW39709   0.601   0.569  14.467 -0.5443 -0.1029 -0.0756
 9358SOL    HW139710   0.522   0.569  14.413  0.0956  0.1079 -0.9946
 9358SOL    HW239711   0.578   0.500  14.529  0.6195  0.3887  0.9154
 9359SOL     OW39712   3.378   4.626   6.443 -0.1610  0.1181 -0.5882
 9359SOL    HW139713   3.325   4.705   6.445 -1.6863 -0.8946 -0.9872
 9359SOL    HW239714   3.417   4.638   6.356  0.5983 -3.4438 -0.7531
 9360SOL     OW39715   2.214   4.439   5.981 -0.7361  0.8009  0.0951
 9360SOL    HW139716   2.281   4.501   5.955 -0.5339  0.6122  0.1698
 9360SOL    HW239717   2.243   4.355   5.945  1.8450  1.7739 -0.0773
 9361SOL     OW39718   0.332   3.607   4.561 -0.1250 -0.2237 -0.7548
 9361SOL    HW139719   0.370   3.617   4.648 -0.1328 -0.9030 -0.6726
 9361SOL    HW239720   0.410   3.624   4.509  0.2502 -1.3265 -0.5390
 9362SOL     OW39721   0.257   1.122  15.786 -0.3696  0.4899  0.2348
 9362SOL    HW139722   0.328   1.155  15.840 -0.9104 -1.5789  2.1993
 9362SOL    HW239723   0.258   1.174  15.706  0.6134  0.8150  0.4642
 9363SOL     OW39724   4.314   2.576  16.174  0.4404  0.0223 -0.1827
 9363SOL    HW139725   4.313   2.637  16.100 -0.4040  1.1437  0.7515
 9363SOL    HW239726   4.398   2.594  16.216  0.2065 -0.4068  0.4619
 9364SOL     OW39727   3.702   3.447   0.998  0.1592  0.2143  0.3939
 9364SOL    HW139728   3.758   3.487   1.065 -0.8430  0.1007  1.2955
 9364SOL    HW239729   3.737   3.486   0.918  1.3118 -0.4862  0.5618
 9365SOL     OW39730   3.961   1.710   8.741  0.4450 -0.1823 -0.2468
 9365SOL    HW139731   3.876   1.750   8.725  0.6193 -0.0175 -0.7386
 9365SOL    HW239732   4.017   1.787   8.749  2.1676 -1.1585 -3.1118
 9366SOL     OW39733   4.433   3.768  17.205  0.1810 -0.1016  0.6754
 9366SOL    HW139734   4.413   3.710  17.278  0.8155 -1.8591 -0.5480
 9366SOL    HW239735   4.348   3.806  17.181 -0.5066 -0.9633  1.7499
 9367SOL     OW39736   1.873   3.738   9.290  0.0450  0.0443 -0.1274
 9367SOL    HW139737   1.838   3.649   9.282  0.0186 -0.0334  0.7999
 9367SOL    HW239738   1.883   3.754   9.384  2.4466 -0.6625 -0.2539
 9368SOL     OW39739   1.823   4.048   7.277  0.2086  0.5167 -0.3046
 9368SOL    HW139740   1.800   4.113   7.344 -0.0318  0.4625 -0.3338
 9368SOL    HW239741   1.752   3.984   7.283 -0.0453  0.7666 -0.6700
 9369SOL     OW39742   4.710   0.631   8.652  0.6354 -0.4390  0.0113
 9369SOL    HW139743   0.041   0.576   8.688  0.3901 -0.7323  0.0293
 9369SOL    HW239744   4.736   0.718   8.684 -0.0673 -0.4363  0.5844
 9370SOL     OW39745   3.174   1.121   4.397  0.1377 -0.1208  0.0815
 9370SOL    HW139746   3.174   1.193   4.460 -0.7265 -0.9362  0.9961
 9370SOL    HW239747   3.086   1.135   4.363 -0.4348  0.9294  1.9961
 9371SOL     OW39748   2.784   0.480   6.623  0.2265  0.4037  0.2100
 9371SOL    HW139749   2.787   0.567   6.663  0.2423  0.4996 -0.0021
 9371SOL    HW239750   2.878   0.466   6.631 -0.0410 -1.4052  0.0498
 9372SOL     OW39751   4.464   4.382   5.595  0.2685 -0.1680 -0.0143
 9372SOL    HW139752   4.406   4.421   5.661 -1.3629 -0.3363 -1.3653
 9372SOL    HW239753   4.400   4.375   5.525  0.2740 -0.7125  0.0376
 9373SOL     OW39754   3.289   1.701   1.242  0.1322  0.0842  0.2546
 9373SOL    HW139755   3.272   1.719   1.150 -0.6990  0.2884  0.4555
 9373SOL    HW239756   3.225   1.760   1.282 -1.1922 -1.4152  0.3435
 9374SOL     OW39757   4.542   0.951   6.671 -0.1678  0.1886 -0.1994
 9374SOL    HW139758   4.588   0.870   6.692  1.1908  0.2731 -2.7549
 9374SOL    HW239759   4.519   0.981   6.758  0.1117  0.3851 -0.1918
 9375SOL     OW39760   1.009   3.719   8.103  0.0563  0.3809  0.4329
 9375SOL    HW139761   0.944   3.671   8.154  0.1943 -0.3365 -0.0690
 9375SOL    HW239762   0.971   3.747   8.020  1.8099 -0.1452 -0.5581
 9376SOL     OW39763   3.936   0.519   3.260  0.2710 -0.2920  0.2029
 9376SOL    HW139764   3.994   0.498   3.333  0.7983 -0.5287 -0.2808
 9376SOL    HW239765   3.945   0.443   3.201 -1.0870 -0.7888  0.6219
 9377SOL     OW39766   2.710   4.681   0.044  0.0567 -0.1642  0.3914
 9377SOL    HW139767   2.734   4.616  17.727  2.0542  0.1214  0.8573
 9377SOL    HW239768   2.631   4.651   0.089 -0.0612 -3.4865 -2.0761
 9378SOL     OW39769   0.121   1.843   5.685 -0.9788 -0.4272  0.3597
 9378SOL    HW139770   0.048   1.861   5.626  0.6693  0.7696 -1.3291
 9378SOL    HW239771   0.161   1.762   5.652 -0.3556  0.7012 -1.5978
 9379SOL     OW39772   3.564   0.195   6.141  0.0945  0.0373 -0.6967
 9379SOL    HW139773   3.639   0.253   6.152 -1.1409  1.6411 -0.7576
 9379SOL    HW239774   3.495   0.259   6.125 -1.1849 -0.9633  0.7335
 9380SOL     OW39775   3.046   3.476   7.063  0.3263 -0.7787 -0.6003
 9380SOL    HW139776   2.968   3.430   7.032  0.8134 -1.1964 -1.2118
 9380SOL    HW239777   3.038   3.562   7.022  2.2389 -0.7449 -0.9016
 9381SOL     OW39778   2.637   1.352   4.335 -0.0375 -0.1082 -0.7589
 9381SOL    HW139779   2.652   1.348   4.240 -1.8789  0.1635 -1.0671
 9381SOL    HW239780   2.612   1.443   4.346  1.1525  0.5521 -3.4861
 9382SOL     OW39781   2.490   0.990  17.438  0.0137 -0.0172  0.3415
 9382SOL    HW139782   2.535   1.000  17.354 -0.3491 -0.4490  0.0974
 9382SOL    HW239783   2.552   1.030  17.499 -2.1432  3.5369  0.1958
 9383SOL     OW39784   1.868   3.773   9.880  0.0548  0.1792 -0.0845
 9383SOL    HW139785   1.817   3.813   9.950 -0.5347 -1.3138  0.3387
 9383SOL    HW239786   1.945   3.829   9.884  0.2672 -0.2124  1.3850
 9384SOL     OW39787   1.328   1.957   7.849  0.9204  0.5415 -0.2589
 9384SOL    HW139788   1.360   1.874   7.813 -0.3093  0.5450 -1.3461
 9384SOL    HW239789   1.282   1.990   7.772 -2.6586 -2.9673  0.3760
 9385SOL     OW39790   0.488   0.342   2.549 -0.0729  0.1339 -0.1556
 9385SOL    HW139791   0.481   0.413   2.486  0.2543 -0.3397 -0.7291
 9385SOL    HW239792   0.516   0.265   2.499 -0.0237  0.0883 -0.0579
 9386SOL     OW39793   0.076   3.236  11.614 -0.3614 -0.4242  0.1517
 9386SOL    HW139794   0.141   3.241  11.683  0.7701  0.9530 -1.0087
 9386SOL    HW239795   0.006   3.287  11.656 -1.0017 -0.4335 -0.8840
 9387SOL     OW39796   0.635   2.802  12.465  0.1921 -0.1675 -0.4102
 9387SOL    HW139797   0.666   2.776  12.552 -1.9268  0.2448  0.4634
 9387SOL    HW239798   0.555   2.852  12.480 -0.0531 -1.4084  2.4783
 9388SOL     OW39799   2.550   4.705   4.342 -0.2514  0.0973 -0.3632
 9388SOL    HW139800   2.522   4.650   4.414  2.8471 -0.6454  0.2748
 9388SOL    HW239801   2.644   4.687   4.338  0.0929  2.0809 -1.0926
 9389SOL     OW39802   0.047   3.321   8.107  0.1964 -0.6187 -0.3206
 9389SOL    HW139803   0.067   3.366   8.025  1.1928  2.7208  1.7218
 9389SOL    HW239804   0.024   3.231   8.084 -2.2530  0.6843 -2.9026
 9390SOL     OW39805   3.096   1.220   0.507 -0.3958  0.0505  0.0619
 9390SOL    HW139806   3.147   1.140   0.520  0.9730  0.6199 -1.6848
 9390SOL    HW239807   3.163   1.254   0.448  0.6059 -2.5232 -0.3179
 9391SOL     OW39808   4.312   3.664   3.202 -0.4644 -0.1603  0.2899
 9391SOL    HW139809   4.263   3.652   3.121  1.7568  0.0533 -1.0836
 9391SOL    HW239810   4.368   3.586   3.205 -1.9270 -1.2764 -1.4937
 9392SOL     OW39811   1.058   0.288   5.334 -0.3737  0.2206  0.4941
 9392SOL    HW139812   1.152   0.307   5.341  0.0679 -2.0945  0.8310
 9392SOL    HW239813   1.030   0.283   5.425 -1.3973 -1.6365  0.0866
 9393SOL     OW39814   1.379   1.555  12.464  0.2903  0.0109 -0.6203
 9393SOL    HW139815   1.443   1.578  12.532  0.4265  1.5383 -1.2779
 9393SOL    HW239816   1.439   1.563  12.390 -0.8847 -1.0157 -1.6868
 9394SOL     OW39817   3.298   4.099   7.777 -0.1183 -0.2599  0.0693
 9394SOL    HW139818   3.326   4.098   7.686  0.8350  0.1406  0.3630
 9394SOL    HW239819   3.232   4.167   7.784 -0.3412 -0.4928  0.2629
 9395SOL     OW39820   4.697   4.549   9.104  0.8680  0.1533 -0.0434
 9395SOL    HW139821   0.037   4.547   9.048 -0.3396 -3.0386 -1.5986
 9395SOL    HW239822   0.002   4.577   9.185  0.2795 -1.0766  0.6934
 9396SOL     OW39823   1.719   3.362   9.580  0.4376 -0.0296  0.5934
 9396SOL    HW139824   1.794   3.422   9.589  0.2761  0.2037  0.4101
 9396SOL    HW239825   1.762   3.277   9.577  0.6142  0.0205  1.7266
 9397SOL     OW39826   2.318   0.068  15.134 -0.3532 -0.3200  0.5824
 9397SOL    HW139827   2.284   0.054  15.046  0.6158  1.0847 -0.0041
 9397SOL    HW239828   2.240   0.101  15.180  0.2522 -1.6963  2.5862
 9398SOL     OW39829   0.074   0.717   9.710 -0.6881  0.3259  0.3201
 9398SOL    HW139830   0.099   0.666   9.633 -1.7128  0.3549 -0.0424
 9398SOL    HW239831   0.006   0.660   9.746  1.3134 -0.8441  2.2125
 9399SOL     OW39832   2.054   3.875   5.002 -0.4162  0.1759  0.0791
 9399SOL    HW139833   2.089   3.789   5.023 -1.9834 -0.2805  0.8235
 9399SOL    HW239834   2.005   3.894   5.082  0.5696 -1.0656  0.9679
 9400SOL     OW39835   4.035   2.268  10.153  0.5870 -0.0250  0.2336
 9400SOL    HW139836   4.029   2.225  10.238 -0.3278  0.2374  0.2986
 9400SOL    HW239837   4.075   2.348  10.186 -0.4587  0.1742  1.0437
 9401SOL     OW39838   4.434   2.646   4.729  0.3907  0.2522  0.5446
 9401SOL    HW139839   4.433   2.577   4.662  1.6698  0.6266  0.1421
 9401SOL    HW239840   4.340   2.666   4.727  0.2029 -0.6213  0.3603
 9402SOL     OW39841   3.050   4.437   2.063  0.3206 -0.4178  0.4350
 9402SOL    HW139842   3.033   4.370   1.996 -0.4713 -1.5477  1.7795
 9402SOL    HW239843   3.123   4.399   2.112  0.4570 -1.4699 -0.5759
 9403SOL     OW39844   2.299   4.107   0.657 -0.4307  1.1221  0.0611
 9403SOL    HW139845   2.370   4.154   0.700  1.4541 -1.0320 -0.6629
 9403SOL    HW239846   2.285   4.162   0.580  0.6402 -0.0964 -1.0095
 9404SOL     OW39847   1.414   0.841  11.636 -0.0328 -0.0263 -0.2424
 9404SOL    HW139848   1.362   0.921  11.638  0.0484  0.0539 -1.2356
 9404SOL    HW239849   1.474   0.849  11.711 -0.6694 -1.2207  0.3911
 9405SOL     OW39850   2.263   1.935   4.704 -0.4396  0.3298  0.1626
 9405SOL    HW139851   2.241   1.908   4.615 -1.8581 -0.6107  0.7900
 9405SOL    HW239852   2.238   1.849   4.740 -2.0812  0.7031 -0.0548
 9406SOL     OW39853   3.986   2.381   2.491 -0.7908 -0.1631  0.0280
 9406SOL    HW139854   4.022   2.325   2.423  0.2738 -1.4448  1.6550
 9406SOL    HW239855   4.026   2.347   2.571  2.4359 -0.0650 -1.5534
 9407SOL     OW39856   3.279   3.845   1.580 -0.4048  0.7140  0.5208
 9407SOL    HW139857   3.221   3.814   1.510 -0.7840  2.9836 -0.1961
 9407SOL    HW239858   3.225   3.917   1.614 -1.9699 -0.2038 -0.0071
 9408SOL     OW39859   3.434   0.705   0.183  0.1463 -0.1625  0.4281
 9408SOL    HW139860   3.361   0.728   0.126 -0.8745 -2.7701  0.6647
 9408SOL    HW239861   3.421   0.751   0.266  0.6218  0.0243  0.4001
 9409SOL     OW39862   0.674   2.666   4.916  0.4946  0.6028 -0.0317
 9409SOL    HW139863   0.768   2.678   4.928  0.6727  0.7790 -1.6285
 9409SOL    HW239864   0.674   2.713   4.833  0.4173  0.9063  0.1407
 9410SOL     OW39865   2.871   3.501   3.548  0.2563  0.0525  0.0129
 9410SOL    HW139866   2.923   3.421   3.550  0.8704  0.4284 -0.7115
 9410SOL    HW239867   2.936   3.557   3.504 -0.6080  1.2567  0.2506
 9411SOL     OW39868   4.238   2.604   6.163  0.2954  0.0601 -0.1016
 9411SOL    HW139869   4.197   2.609   6.250 -3.1664 -0.4369 -1.7218
 9411SOL    HW239870   4.214   2.690   6.127  1.7901 -0.9345 -3.4625
 9412SOL     OW39871   4.189   2.544  16.420  0.0003 -0.6345  0.1252
 9412SOL    HW139872   4.114   2.603  16.429  1.3610  1.0795  0.4196
 9412SOL    HW239873   4.223   2.591  16.343  2.7319 -2.3749  0.3017
 9413SOL     OW39874   1.574   0.449  16.478  0.5387 -0.4583  0.5333
 9413SOL    HW139875   1.518   0.505  16.531 -3.0548 -0.8029 -2.8406
 9413SOL    HW239876   1.509   0.407  16.420  0.3822  0.2626  0.1861
 9414SOL     OW39877   2.494   1.205  12.245 -0.5688 -0.1354 -0.2414
 9414SOL    HW139878   2.515   1.226  12.336 -1.3522 -1.4558  0.2319
 9414SOL    HW239879   2.566   1.151  12.212 -0.8736  0.2045 -1.4891
 9415SOL     OW39880   1.163   0.988   5.496  0.7535  0.4149  0.1395
 9415SOL    HW139881   1.096   0.933   5.455  2.3403 -0.8500 -0.7699
 9415SOL    HW239882   1.167   0.949   5.583 -1.0651 -2.1733 -0.9174
 9416SOL     OW39883   1.874   0.987   9.544  0.5042 -0.1741 -0.1110
 9416SOL    HW139884   1.935   0.956   9.611  0.6796 -0.1737 -0.2683
 9416SOL    HW239885   1.809   1.013   9.609 -0.7532 -2.2516 -0.5561
 9417SOL     OW39886   2.135   0.690   1.901 -0.0826 -0.3189 -0.5886
 9417SOL    HW139887   2.062   0.649   1.854  0.6948 -0.0328 -2.0626
 9417SOL    HW239888   2.132   0.777   1.860  0.7036 -0.1399 -0.2549
 9418SOL     OW39889   4.598   4.597   2.691  0.3576 -0.1679 -0.0186
 9418SOL    HW139890   4.667   4.659   2.714 -1.2893  1.5239  0.4041
 9418SOL    HW239891   4.535   4.652   2.644 -1.7824 -2.0097  0.6654
 9419SOL     OW39892   0.390   0.791   2.994 -0.3355  0.3523  0.0735
 9419SOL    HW139893   0.336   0.722   2.955  1.9694 -0.6461 -1.3793
 9419SOL    HW239894   0.326   0.846   3.039  0.8942  0.7883  1.2910
 9420SOL     OW39895   2.562   0.833   3.568  0.4175 -0.6436 -0.0057
 9420SOL    HW139896   2.505   0.910   3.560 -2.1600 -2.7256 -1.8088
 9420SOL    HW239897   2.645   0.874   3.543  0.0297 -0.3982 -0.9136
 9421SOL     OW39898   1.311   3.185   3.293 -0.4463  0.4442  0.6764
 9421SOL    HW139899   1.389   3.151   3.336 -0.3064 -0.3665 -0.2210
 9421SOL    HW239900   1.243   3.158   3.355  0.8222 -0.7508  1.5634
 9422SOL     OW39901   3.159   2.287  17.564 -0.1135 -0.0855 -0.3586
 9422SOL    HW139902   3.154   2.199  17.526 -3.4576 -0.1326  0.1901
 9422SOL    HW239903   3.149   2.275  17.659  2.9619  1.2696  0.1290
 9423SOL     OW39904   2.448   2.153   4.988 -0.7450  0.2399  0.1781
 9423SOL    HW139905   2.373   2.098   5.010  0.4716 -2.1071 -1.5602
 9423SOL    HW239906   2.416   2.243   4.990  1.6729  1.0872  1.0080
 9424SOL     OW39907   3.329   3.693   2.941 -1.0956 -0.0589 -0.2128
 9424SOL    HW139908   3.409   3.695   2.888  0.1595 -0.2736  1.6695
 9424SOL    HW239909   3.337   3.780   2.979 -1.4386 -0.2828  0.3577
 9425SOL     OW39910   4.562   2.934   7.351 -0.3374  0.3315 -0.0279
 9425SOL    HW139911   4.606   2.953   7.268 -2.0784 -1.1753 -1.3064
 9425SOL    HW239912   4.598   2.847   7.368  1.1477  1.0745  0.5942
 9426SOL     OW39913   0.993   3.130   4.629 -0.2656  0.0346  0.1043
 9426SOL    HW139914   0.986   3.155   4.537 -2.0342  1.1814  0.5422
 9426SOL    HW239915   0.905   3.099   4.651 -0.3081  0.5175  0.6297
 9427SOL     OW39916   0.302   1.305   0.820  0.8597 -0.1678 -0.3519
 9427SOL    HW139917   0.212   1.337   0.821  0.6202 -0.9375  5.7151
 9427SOL    HW239918   0.301   1.231   0.759  0.4255 -0.4231 -0.0370
 9428SOL     OW39919   0.481   1.957   2.220 -0.0291  0.2086  0.5061
 9428SOL    HW139920   0.396   1.925   2.190  0.1003  0.9454 -0.6762
 9428SOL    HW239921   0.451   2.014   2.291  1.4440 -0.7578  1.9027
 9429SOL     OW39922   2.275   4.468   0.770 -0.4372 -0.1275 -0.6027
 9429SOL    HW139923   2.179   4.467   0.780 -0.3133 -0.6137  0.5469
 9429SOL    HW239924   2.310   4.404   0.832 -0.8310 -0.6109 -0.8796
 9430SOL     OW39925   0.246   3.551   9.487 -0.2349  0.3599  0.0967
 9430SOL    HW139926   0.236   3.465   9.530 -3.7046  0.4322 -0.6262
 9430SOL    HW239927   0.323   3.530   9.433  0.7403 -1.1127  2.0466
 9431SOL     OW39928   0.534   3.347  11.771  0.1845 -0.1461 -0.0225
 9431SOL    HW139929   0.600   3.306  11.826 -2.0299 -1.3986  1.6854
 9431SOL    HW239930   0.583   3.405  11.712 -0.0078  0.3105  0.2702
 9432SOL     OW39931   1.829   3.870   2.845 -0.2759 -0.4360  0.6392
 9432SOL    HW139932   1.735   3.890   2.842 -0.1249  0.1632 -0.3892
 9432SOL    HW239933   1.859   3.896   2.757 -1.6529 -0.3490  0.1900
 9433SOL     OW39934   0.949   0.731  11.203 -0.3140 -0.4555 -0.7603
 9433SOL    HW139935   0.970   0.803  11.144  2.7252 -0.5146  0.2221
 9433SOL    HW239936   0.991   0.754  11.286 -3.5202 -0.1203  0.7793
 9434SOL     OW39937   3.803   0.328   6.304 -0.6901 -0.3998 -0.4360
 9434SOL    HW139938   3.760   0.345   6.388 -2.2523  2.3359 -1.7958
 9434SOL    HW239939   3.895   0.318   6.329 -1.0631  0.0158  1.1110
 9435SOL     OW39940   4.495   2.261   9.538  0.4843  0.4778 -0.0891
 9435SOL    HW139941   4.411   2.217   9.548  1.2985 -1.5403 -2.1410
 9435SOL    HW239942   4.533   2.232   9.455 -1.9971 -1.1670 -0.6441
 9436SOL     OW39943   1.654   0.315  17.481  0.1667 -0.6146  0.0626
 9436SOL    HW139944   1.656   0.228  17.521  1.4105 -1.6707 -2.3272
 9436SOL    HW239945   1.598   0.359  17.545  0.8517 -0.1122  0.3101
 9437SOL     OW39946   0.391   2.352   1.897 -0.3526 -0.1511 -0.2740
 9437SOL    HW139947   0.425   2.390   1.816  0.1128  1.8377  0.8535
 9437SOL    HW239948   0.372   2.263   1.869  0.5728 -0.3621 -0.2258
 9438SOL     OW39949   0.348   0.043  12.434  0.1207  0.3258 -0.4541
 9438SOL    HW139950   0.420   0.105  12.431  0.6772 -0.3261 -0.4650
 9438SOL    HW239951   0.387   4.707  12.481 -0.7369 -1.8462 -3.0832
 9439SOL     OW39952   3.792   2.160   2.420  0.1991 -0.3439 -0.6683
 9439SOL    HW139953   3.766   2.237   2.472  0.7405  0.6763 -1.9176
 9439SOL    HW239954   3.709   2.134   2.381 -0.5242  0.3901  0.3739
 9440SOL     OW39955   2.709   2.546   7.786 -0.1852 -0.8049  0.2320
 9440SOL    HW139956   2.713   2.529   7.692 -0.2466  0.6419 -0.0203
 9440SOL    HW239957   2.761   2.471   7.817  1.9046  1.1734  1.5997
 9441SOL     OW39958   3.805   4.355   3.099 -0.0680 -0.0031  0.2100
 9441SOL    HW139959   3.809   4.372   3.193 -1.2532 -0.6940  0.3871
 9441SOL    HW239960   3.868   4.419   3.066 -0.9175  1.2486  1.0217
 9442SOL     OW39961   0.137   3.550   3.661 -0.2853  0.6636 -0.4724
 9442SOL    HW139962   0.073   3.508   3.718  1.6667  1.1765  2.1014
 9442SOL    HW239963   0.127   3.488   3.588 -1.6051  0.6144 -0.2411
 9443SOL     OW39964   0.986   4.690   5.114 -0.3682  0.1358  0.0983
 9443SOL    HW139965   0.985   4.694   5.210 -0.5149  0.3955  0.0859
 9443SOL    HW239966   1.031   4.605   5.111  1.1023  0.8435  1.4584
 9444SOL     OW39967   1.887   4.367  13.163 -0.0898  0.1516 -0.1709
 9444SOL    HW139968   1.838   4.419  13.099  0.7688  0.2770 -0.7212
 9444SOL    HW239969   1.974   4.396  13.139  0.5936 -3.7562 -2.4420
 9445SOL     OW39970   3.183   4.096   4.568  0.4049 -0.3614  0.1236
 9445SOL    HW139971   3.276   4.077   4.587  1.1878  1.7153 -1.6934
 9445SOL    HW239972   3.147   4.017   4.609 -1.2618 -0.5868 -1.8444
 9446SOL     OW39973   4.693   4.585  13.451 -0.1652 -0.4194  0.1064
 9446SOL    HW139974   4.643   4.574  13.370 -1.2893  2.1639  0.4512
 9446SOL    HW239975   0.040   4.545  13.427  0.1141 -0.3423  0.9630
 9447SOL     OW39976   2.335   1.119   4.796  0.1318  0.3344 -0.7020
 9447SOL    HW139977   2.241   1.106   4.811  0.4527  0.5785  1.6404
 9447SOL    HW239978   2.363   1.133   4.887  0.7739  0.7675 -0.9658
 9448SOL     OW39979   1.595   3.429   7.890 -0.0775 -0.3389 -0.7229
 9448SOL    HW139980   1.588   3.343   7.932 -3.3873 -1.0867 -2.8570
 9448SOL    HW239981   1.598   3.496   7.959  0.6969  0.4560 -1.5247
 9449SOL     OW39982   0.337   0.389   8.063  0.1454 -0.3098 -0.2334
 9449SOL    HW139983   0.329   0.318   8.127  1.8999 -1.8276 -1.6811
 9449SOL    HW239984   0.432   0.401   8.057  0.3102 -0.4755  2.0411
 9450SOL     OW39985   2.103   1.208  11.988  0.2339  0.7035 -0.1879
 9450SOL    HW139986   2.123   1.282  12.044  0.1419  1.1886 -0.7952
 9450SOL    HW239987   2.040   1.243  11.925 -0.4091 -1.0611 -0.5293
 9451SOL     OW39988   0.832   3.190   3.216  0.2441  0.1668 -0.3395
 9451SOL    HW139989   0.801   3.106   3.251  0.8996  0.3432  0.6848
 9451SOL    HW239990   0.904   3.163   3.159  1.1570  1.4240  0.2185
 9452SOL     OW39991   2.916   3.089   4.295 -0.2188 -0.6563  0.3765
 9452SOL    HW139992   2.833   3.065   4.254 -0.6990  4.5353 -1.6792
 9452SOL    HW239993   2.900   3.181   4.315  0.2576 -0.4044 -0.3762
 9453SOL     OW39994   4.015   0.465   8.781  0.1802  0.2154  0.1412
 9453SOL    HW139995   3.929   0.499   8.758  0.8908  0.5605 -2.0010
 9453SOL    HW239996   4.020   0.402   8.709  1.8516  1.3250 -0.7151
 9454SOL     OW39997   2.050   1.848   7.002  0.3324 -0.2789  0.0880
 9454SOL    HW139998   1.969   1.887   7.033  0.5333  0.4375 -0.3018
 9454SOL    HW239999   2.114   1.918   7.013 -0.6431  0.5197  0.5568
 9455SOL     OW40000   1.501   1.368   9.049 -0.0838  0.3754 -0.2037
 9455SOL    HW140001   1.485   1.281   9.086  0.5191  0.5411  0.4537
 9455SOL    HW240002   1.432   1.419   9.092 -0.6886  1.6002 -2.6176
 9456SOL     OW40003   0.330   0.855   8.536  0.1774 -0.3758 -0.3329
 9456SOL    HW140004   0.250   0.907   8.533 -0.4788 -1.1538  3.8039
 9456SOL    HW240005   0.403   0.904   8.498  1.0934 -1.3671  0.1481
 9457SOL     OW40006   2.674   0.402   8.613 -0.5212  0.0867  0.5310
 9457SOL    HW140007   2.631   0.474   8.659  2.3914  0.8984  1.9508
 9457SOL    HW240008   2.598   0.361   8.571 -0.1305 -0.0181 -0.0686
 9458SOL     OW40009   2.515   0.174   5.230  0.3692 -0.2997 -0.0063
 9458SOL    HW140010   2.598   0.165   5.278 -0.4768 -2.7472  1.0109
 9458SOL    HW240011   2.549   0.167   5.141 -0.3023 -1.7054 -0.1494
 9459SOL     OW40012   1.704   1.591   9.064 -0.0050 -0.5053  0.8655
 9459SOL    HW140013   1.647   1.514   9.065 -1.7594  0.8010  1.1914
 9459SOL    HW240014   1.671   1.637   9.142  1.5050  1.0545  0.5859
 9460SOL     OW40015   2.816   1.722   5.356  0.0664  0.0461  0.1597
 9460SOL    HW140016   2.741   1.674   5.391 -1.5849  2.4528 -0.1138
 9460SOL    HW240017   2.886   1.710   5.420 -1.9092 -0.0108  2.3042
 9461SOL     OW40018   3.680   1.175   7.083 -0.0598  0.1538  0.4468
 9461SOL    HW140019   3.654   1.171   7.174 -0.5189  1.8098  0.4001
 9461SOL    HW240020   3.771   1.200   7.100  0.1116 -0.7268  0.7903
 9462SOL     OW40021   1.861   2.294   2.452 -0.0423 -0.6665 -0.0769
 9462SOL    HW140022   1.791   2.353   2.481  1.8826  2.6911 -2.2859
 9462SOL    HW240023   1.837   2.206   2.480 -1.0189 -0.7570 -1.1914
 9463SOL     OW40024   3.113   4.135   2.747  0.4378 -0.5327  0.1238
 9463SOL    HW140025   3.129   4.204   2.811  0.8514 -1.1382  0.6791
 9463SOL    HW240026   3.203   4.121   2.718  0.0061 -1.0830 -0.9607
 9464SOL     OW40027   2.884   1.864   4.501  0.1189  0.2652  0.0853
 9464SOL    HW140028   2.952   1.806   4.537 -1.1900 -0.3177  1.6328
 9464SOL    HW240029   2.921   1.951   4.515 -1.7351  0.6502  2.6758
 9465SOL     OW40030   3.719   1.881   5.120  0.1859  0.6961 -0.3841
 9465SOL    HW140031   3.687   1.968   5.096 -1.0773 -0.0730 -1.4869
 9465SOL    HW240032   3.764   1.851   5.040 -0.8388  1.8000 -1.3750
 9466SOL     OW40033   0.446   4.220   6.539  0.2711  0.1197 -0.4149
 9466SOL    HW140034   0.521   4.161   6.543  0.6621  0.5976 -0.7158
 9466SOL    HW240035   0.390   4.169   6.598  0.2797 -0.2055 -0.6881
 9467SOL     OW40036   3.995   1.168   5.887  0.3017  0.3540  0.3025
 9467SOL    HW140037   3.932   1.119   5.940  1.8989 -1.1732  0.7849
 9467SOL    HW240038   4.023   1.229   5.957  1.3924  1.1929 -0.8682
 9468SOL     OW40039   0.215   2.222   7.267  0.1071 -0.1929  0.1851
 9468SOL    HW140040   0.245   2.147   7.216  1.1209  0.9945 -0.9554
 9468SOL    HW240041   0.169   2.269   7.197  4.3445  2.0230 -1.0754
 9469SOL     OW40042   1.145   3.256   8.908  0.1884  0.2599  0.1213
 9469SOL    HW140043   1.082   3.226   8.842 -0.1386 -0.0752  0.5862
 9469SOL    HW240044   1.197   3.315   8.853  1.9400  0.4587  2.0146
 9470SOL     OW40045   4.154   2.571   4.337  0.5688 -0.5450  0.3859
 9470SOL    HW140046   4.084   2.530   4.286  2.6892  1.1335 -3.8148
 9470SOL    HW240047   4.118   2.659   4.351 -0.6571 -1.0632  0.5142
 9471SOL     OW40048   1.765   4.331  12.428 -0.3984 -0.3152  0.3617
 9471SOL    HW140049   1.773   4.416  12.471  2.3804 -0.1869 -0.4651
 9471SOL    HW240050   1.855   4.303  12.413 -0.6922 -1.3258  0.4533
 9472SOL     OW40051   0.453   3.998   6.293  0.3747  0.4725 -0.5564
 9472SOL    HW140052   0.509   3.937   6.340  0.8488  2.0932  1.0023
 9472SOL    HW240053   0.411   4.055   6.358 -1.2025 -1.1748 -0.1313
 9473SOL     OW40054   4.675   0.665   3.187 -0.2173  0.0479 -0.2812
 9473SOL    HW140055   4.651   0.614   3.110  0.8598 -0.1262 -0.4962
 9473SOL    HW240056   4.620   0.616   3.249 -0.2574  0.2215 -0.1772
 9474SOL     OW40057   3.303   4.038   0.717 -0.0906 -0.5332  0.4240
 9474SOL    HW140058   3.345   3.971   0.771 -0.9952 -0.1199  1.6310
 9474SOL    HW240059   3.288   3.992   0.635 -1.9733 -0.0959  0.5353
 9475SOL     OW40060   1.645   0.987   9.302  0.2371  0.1192  0.1944
 9475SOL    HW140061   1.570   0.929   9.311 -1.1838  1.9970  0.6060
 9475SOL    HW240062   1.666   0.993   9.395 -1.5305  0.6337  0.5744
 9476SOL     OW40063   1.982   4.325   3.006 -0.0398  0.1087  0.8473
 9476SOL    HW140064   1.987   4.397   3.068  1.7437 -0.3815  1.2644
 9476SOL    HW240065   1.941   4.368   2.931 -0.5392 -2.2322 -0.2356
 9477SOL     OW40066   3.000   0.239   3.344  0.1603  0.3513  0.2133
 9477SOL    HW140067   3.065   0.307   3.361  0.9327  0.6493 -3.9073
 9477SOL    HW240068   2.965   0.226   3.432 -1.4852  1.5672 -0.2528
 9478SOL     OW40069   3.760   4.389  16.009 -0.1464 -0.7406 -0.0221
 9478SOL    HW140070   3.746   4.313  15.954  2.1374  0.2862 -2.0489
 9478SOL    HW240071   3.856   4.392  16.016 -0.2668  1.1080  1.0676
 9479SOL     OW40072   0.235   4.348   8.891 -0.1747 -0.1463  0.1981
 9479SOL    HW140073   0.236   4.436   8.929 -1.6636  0.5051 -1.2607
 9479SOL    HW240074   0.210   4.294   8.967  2.1394  0.7656  1.6109
 9480SOL     OW40075   2.711   3.399   7.048 -0.5592  0.0543  0.1118
 9480SOL    HW140076   2.707   3.435   6.959 -0.5841 -2.8193 -1.0684
 9480SOL    HW240077   2.780   3.333   7.037  0.8542  1.5037  0.4046
 9481SOL     OW40078   0.803   0.554   8.705  0.4281  0.0890  0.5483
 9481SOL    HW140079   0.757   0.637   8.711 -1.0695 -0.5591 -2.0780
 9481SOL    HW240080   0.895   0.580   8.711  0.2987  0.1174  2.4143
 9482SOL     OW40081   1.951   2.706   7.610 -0.0039  0.3757 -0.2525
 9482SOL    HW140082   1.996   2.652   7.674  0.2698 -3.3545 -3.6285
 9482SOL    HW240083   1.896   2.640   7.567 -0.4490  0.0046  0.8968
 9483SOL     OW40084   2.338   2.159   8.735  0.7845 -0.3191 -0.0188
 9483SOL    HW140085   2.269   2.220   8.711 -0.3728 -1.6570 -0.0944
 9483SOL    HW240086   2.411   2.206   8.693  1.6839  0.1566  2.1048
 9484SOL     OW40087   0.308   3.811   3.389  0.1258  0.0803  0.5411
 9484SOL    HW140088   0.379   3.748   3.405 -0.1765 -0.1057  1.1560
 9484SOL    HW240089   0.265   3.770   3.314 -0.7703  0.8710  0.6306
 9485SOL     OW40090   2.832   2.442   3.785  0.0374  0.3147  0.1883
 9485SOL    HW140091   2.906   2.499   3.766 -0.0390  0.1889 -0.4895
 9485SOL    HW240092   2.806   2.461   3.875  1.7266 -0.5134  0.8441
 9486SOL     OW40093   0.027   3.283   1.664 -0.2809  0.0129 -0.8146
 9486SOL    HW140094   4.674   3.252   1.666 -0.2363 -0.0887 -0.2158
 9486SOL    HW240095   0.078   3.214   1.623 -0.3274  1.2395 -2.9120
 9487SOL     OW40096   3.502   3.107  12.145 -0.6950 -0.1684 -0.9145
 9487SOL    HW140097   3.552   3.057  12.210 -1.8802  0.4907  0.5230
 9487SOL    HW240098   3.516   3.057  12.065 -1.0352 -1.3482 -0.2570
 9488SOL     OW40099   1.596   2.386   3.337  0.4152  0.0543 -0.0880
 9488SOL    HW140100   1.665   2.354   3.279 -0.0412  1.4373 -1.4058
 9488SOL    HW240101   1.542   2.307   3.333 -1.2531  1.2281 -1.1964
 9489SOL     OW40102   0.973   4.371   3.084 -0.4579  0.5625  0.1763
 9489SOL    HW140103   0.919   4.292   3.076  0.6663 -0.1634 -0.1752
 9489SOL    HW240104   0.980   4.374   3.179 -0.7330  0.9646  0.1859
 9490SOL     OW40105   4.100   1.007   8.812  0.5566  0.5497  0.3570
 9490SOL    HW140106   4.074   1.098   8.797 -0.5253  0.2727  0.5304
 9490SOL    HW240107   4.184   1.011   8.766 -0.6657  0.7780 -1.8402
 9491SOL     OW40108   2.567   0.941   6.170  0.3882 -0.2415 -0.4398
 9491SOL    HW140109   2.550   1.035   6.168  1.4508 -0.0922 -2.3568
 9491SOL    HW240110   2.488   0.916   6.122  0.1237 -0.5180  0.1327
 9492SOL     OW40111   1.178   4.361  13.322 -0.0991  0.1034  0.0865
 9492SOL    HW140112   1.149   4.360  13.231 -0.5348  0.1244  0.2247
 9492SOL    HW240113   1.273   4.369  13.325 -0.0757  0.1743 -0.9771
 9493SOL     OW40114   3.079   3.852   2.199  0.2948  0.1012  0.3175
 9493SOL    HW140115   3.081   3.837   2.293 -0.3190 -1.2085  0.1189
 9493SOL    HW240116   2.996   3.816   2.169 -0.4097  2.3934 -0.4737
 9494SOL     OW40117   3.843   0.550   4.851  0.3359 -0.3607  0.2710
 9494SOL    HW140118   3.857   0.638   4.816 -0.2822  0.1483  1.3126
 9494SOL    HW240119   3.932   0.520   4.832 -0.0732 -1.0512 -0.5885
 9495SOL     OW40120   0.029   0.979   9.700  0.1683 -0.2156 -0.4978
 9495SOL    HW140121   0.053   0.895   9.738  1.2547  0.5033  0.4053
 9495SOL    HW240122   0.063   0.974   9.611  0.9321  3.4743 -0.4396
 9496SOL     OW40123   3.501   4.453   5.058 -0.1569  0.4797  0.2730
 9496SOL    HW140124   3.464   4.424   4.975  0.4408  1.0423 -0.1864
 9496SOL    HW240125   3.584   4.406   5.053 -1.2986 -1.7004  1.6992
 9497SOL     OW40126   2.922   3.527   0.265  0.9111  0.2105 -0.1376
 9497SOL    HW140127   2.915   3.529   0.360  0.3977  0.5165 -0.1804
 9497SOL    HW240128   2.866   3.453   0.241 -0.0456  1.2635 -1.1461
 9498SOL     OW40129   1.659   2.699   0.739  0.1129 -0.7511 -0.2702
 9498SOL    HW140130   1.654   2.787   0.701 -2.6755 -0.9581 -0.3614
 9498SOL    HW240131   1.648   2.645   0.660  1.5442 -0.2603 -0.8138
 9499SOL     OW40132   2.556   0.096   4.107 -0.4117 -0.0075  0.0272
 9499SOL    HW140133   2.564   0.057   4.194  2.3595 -0.4372 -0.4041
 9499SOL    HW240134   2.525   0.024   4.053  2.0550  0.4593 -2.0061
 9500SOL     OW40135   0.289   0.521   2.631  0.3411 -0.1424 -0.7301
 9500SOL    HW140136   0.348   0.450   2.607 -1.8205 -1.1696 -2.9676
 9500SOL    HW240137   0.340   0.598   2.607  0.7497  0.0434  0.7574
 9501SOL     OW40138   4.171   1.074   9.868  0.3532 -0.2828  0.0502
 9501SOL    HW140139   4.259   1.112   9.867 -0.1956  1.0012 -0.7068
 9501SOL    HW240140   4.131   1.112   9.946 -0.2938  1.9450 -1.3497
 9502SOL     OW40141   0.721   1.096   5.521 -0.2898 -0.2191  0.0170
 9502SOL    HW140142   0.774   1.101   5.441  1.0288  0.5211  0.9311
 9502SOL    HW240143   0.780   1.042   5.574 -0.6592 -1.2887 -0.6537
 9503SOL     OW40144   0.861   0.301   0.203 -0.3948  0.0811  0.0203
 9503SOL    HW140145   0.953   0.273   0.203 -0.7663 -1.1124 -1.2896
 9503SOL    HW240146   0.837   0.271   0.116 -0.4160 -1.7752  0.6542
 9504SOL     OW40147   1.825   1.285  15.453 -0.3527 -0.0773  0.0556
 9504SOL    HW140148   1.898   1.281  15.514  1.6694 -0.1645 -2.3556
 9504SOL    HW240149   1.861   1.229  15.384  0.0910  0.0068  0.2198
 9505SOL     OW40150   2.757   1.837   8.206 -0.0478  0.6022 -0.1373
 9505SOL    HW140151   2.712   1.873   8.130  2.5216  1.5434 -1.2385
 9505SOL    HW240152   2.810   1.766   8.169 -0.5763 -1.5657  3.2847
 9506SOL     OW40153   3.826   1.913   5.795  0.1476  0.5655  0.4329
 9506SOL    HW140154   3.783   1.991   5.761  1.2457 -0.1847 -2.7479
 9506SOL    HW240155   3.779   1.893   5.875 -1.3898  2.0811 -0.0941
 9507SOL     OW40156   3.383   2.192   1.438 -0.6771  0.0516  0.2399
 9507SOL    HW140157   3.357   2.102   1.454 -0.6436 -0.5177 -2.8998
 9507SOL    HW240158   3.376   2.201   1.343  0.2241  1.0851  0.2592
 9508SOL     OW40159   3.251   3.025   7.254  0.2844 -0.2181  0.1477
 9508SOL    HW140160   3.158   3.030   7.234  0.0697 -0.8743  0.9432
 9508SOL    HW240161   3.251   2.954   7.319 -0.8181 -0.6917 -0.3625
 9509SOL     OW40162   3.433   0.599   8.236 -0.3691  0.0663  0.2452
 9509SOL    HW140163   3.366   0.653   8.195 -0.7684  0.0102  0.8128
 9509SOL    HW240164   3.410   0.618   8.327  1.6683 -0.0232  0.7732
 9510SOL     OW40165   1.433   1.027   0.249 -0.1085  0.0539  0.1357
 9510SOL    HW140166   1.472   1.113   0.265  0.1874 -0.0684  0.0867
 9510SOL    HW240167   1.344   1.057   0.266 -0.0856  1.2876 -1.9179
 9511SOL     OW40168   1.570   3.764   1.272 -0.0772  0.1409 -0.4686
 9511SOL    HW140169   1.639   3.742   1.334 -0.4249  3.6006  1.1253
 9511SOL    HW240170   1.493   3.742   1.324 -0.7681  1.2523 -1.0258
 9512SOL     OW40171   4.232   1.801   1.531 -0.3220  0.1430 -0.2071
 9512SOL    HW140172   4.206   1.884   1.573  0.8964  0.1681  0.4805
 9512SOL    HW240173   4.310   1.772   1.578  0.1697  2.3795  0.3515
 9513SOL     OW40174   3.829   4.545   6.466 -0.3824 -0.3975  0.8276
 9513SOL    HW140175   3.833   4.523   6.373 -1.7961 -1.1392  0.9395
 9513SOL    HW240176   3.913   4.521   6.504  1.6799  3.4307 -1.2744
 9514SOL     OW40177   2.107   1.509   8.736 -0.3380 -0.5676 -0.4610
 9514SOL    HW140178   2.117   1.579   8.670  1.5952 -1.1752 -0.8088
 9514SOL    HW240179   2.016   1.520   8.762 -0.1294 -1.6480  0.7271
 9515SOL     OW40180   0.911   2.908  14.575 -0.0875 -0.4111 -0.5688
 9515SOL    HW140181   0.917   2.984  14.633 -0.9363  0.0560 -1.0735
 9515SOL    HW240182   0.827   2.918  14.530 -1.8861 -0.4186  2.7760
 9516SOL     OW40183   4.641   0.291   8.591 -0.5343  0.3970 -0.2839
 9516SOL    HW140184   4.599   0.375   8.611 -0.0024  1.0493 -1.8731
 9516SOL    HW240185   4.581   0.245   8.532 -1.8900 -1.4001  2.4754
 9517SOL     OW40186   2.677   1.401   1.112 -0.2753 -0.0591 -1.0057
 9517SOL    HW140187   2.752   1.352   1.078  1.4599  1.7571  0.2215
 9517SOL    HW240188   2.617   1.333   1.082 -0.1264 -1.5381  2.0745
 9518SOL     OW40189   1.995   0.392  15.464  0.6786 -0.1547  0.2682
 9518SOL    HW140190   1.935   0.410  15.536 -0.9203  0.0398 -1.1248
 9518SOL    HW240191   2.061   0.461  15.467 -1.3085  1.7179  0.1259
 9519SOL     OW40192   1.524   0.375  16.824  0.8330  0.1340  0.5413
 9519SOL    HW140193   1.464   0.309  16.790 -0.4146  1.1491  0.7817
 9519SOL    HW240194   1.608   0.331  16.835  0.2873 -1.3245 -1.1096
 9520SOL     OW40195   1.031   4.562  11.872  0.2069 -0.4028  0.0699
 9520SOL    HW140196   1.037   4.614  11.792 -2.5859 -1.1396 -0.6073
 9520SOL    HW240197   1.053   4.478  11.832 -1.1632 -1.2326  1.0707
 9521SOL     OW40198   1.432   2.446   8.088  0.2950 -0.3447 -0.5869
 9521SOL    HW140199   1.420   2.384   8.160  1.5756  0.4255  0.2873
 9521SOL    HW240200   1.345   2.441   8.049  1.3164 -1.2141 -2.7088
 9522SOL     OW40201   3.718   3.398   6.884  0.1729  1.2942 -0.0798
 9522SOL    HW140202   3.664   3.420   6.959 -0.6920  0.5915 -0.4993
 9522SOL    HW240203   3.657   3.412   6.812  0.2704 -2.1889 -0.8616
 9523SOL     OW40204   3.098   4.206   5.698 -0.1170  0.0268  0.4531
 9523SOL    HW140205   3.183   4.167   5.717 -0.4194 -1.3993 -1.1804
 9523SOL    HW240206   3.127   4.284   5.649  1.3385  0.0017  1.2548
 9524SOL     OW40207   4.269   3.369  15.158  0.0150  0.2828 -0.4269
 9524SOL    HW140208   4.322   3.294  15.131  1.0031  0.7474  0.2214
 9524SOL    HW240209   4.208   3.356  15.085 -1.6480  1.7230  0.7104
 9525SOL     OW40210   3.476   2.132  12.672  0.3965  0.5360  0.5061
 9525SOL    HW140211   3.474   2.050  12.623  0.8299  1.6756 -1.4145
 9525SOL    HW240212   3.515   2.102  12.755 -1.4125  0.3098  1.2852
 9526SOL     OW40213   0.377   4.036   6.748  0.0175 -0.0308 -0.2834
 9526SOL    HW140214   0.394   4.089   6.826  1.0577  0.8730 -1.1381
 9526SOL    HW240215   0.311   3.979   6.789  0.0173  1.6535  2.0894
 9527SOL     OW40216   2.594   1.932   2.767  0.3009 -0.4880 -0.1348
 9527SOL    HW140217   2.538   1.874   2.818 -0.0788  0.7074  0.8143
 9527SOL    HW240218   2.659   1.869   2.738  0.0663 -1.0389  0.5294
 9528SOL     OW40219   3.718   4.161  15.888  0.4066  0.0264 -0.5157
 9528SOL    HW140220   3.743   4.071  15.910 -0.3857  0.2949  1.4583
 9528SOL    HW240221   3.638   4.167  15.941 -0.6009 -0.1329 -2.0005
 9529SOL     OW40222   2.439   1.482  12.439  0.3786 -0.5631  0.2852
 9529SOL    HW140223   2.354   1.440  12.449  0.2852 -0.6768 -0.9913
 9529SOL    HW240224   2.451   1.481  12.344 -0.6201 -1.8934  0.1714
 9530SOL     OW40225   1.518   4.674   4.111  0.8851  0.0387  0.0815
 9530SOL    HW140226   1.536   4.658   4.204 -0.5057  1.9317  0.6564
 9530SOL    HW240227   1.601   4.701   4.071  1.5250  1.4360  2.3516
 9531SOL     OW40228   2.424   4.587   3.936  0.1661 -0.5512 -0.0949
 9531SOL    HW140229   2.438   4.614   3.845  0.1959 -2.4411 -0.6393
 9531SOL    HW240230   2.474   4.506   3.946  0.0317 -0.4200  1.7240
 9532SOL     OW40231   1.537   4.650  14.170 -0.2995 -0.5545 -0.1815
 9532SOL    HW140232   1.618   4.602  14.152 -0.4785 -0.2372 -1.9046
 9532SOL    HW240233   1.552   4.729  14.119 -0.6857 -0.0980  0.4172
 9533SOL     OW40234   3.355   0.293   8.766  0.0524 -0.1847 -0.2127
 9533SOL    HW140235   3.408   0.224   8.807 -0.7519 -1.8225 -1.9233
 9533SOL    HW240236   3.302   0.237   8.708  0.9458  0.4343 -1.6143
 9534SOL     OW40237   2.746   2.206   3.693  0.7225  0.3913 -0.0346
 9534SOL    HW140238   2.765   2.292   3.730 -3.6687  1.0847  0.5833
 9534SOL    HW240239   2.813   2.196   3.625  1.0519  0.2052  0.3205
 9535SOL     OW40240   1.631   2.143   5.200 -0.3899  0.3350  0.3070
 9535SOL    HW140241   1.719   2.175   5.181  0.4751 -1.2856  1.5484
 9535SOL    HW240242   1.633   2.121   5.293  0.5175  0.4109  0.3031
 9536SOL     OW40243   0.018   3.896  11.138 -0.2038  0.2058 -0.3719
 9536SOL    HW140244   0.017   3.945  11.056 -0.8587  0.3345 -0.2878
 9536SOL    HW240245   0.095   3.935  11.179 -0.0563  0.7411 -1.1532
 9537SOL     OW40246   4.006   3.089  17.108 -0.0125 -0.1904 -0.1513
 9537SOL    HW140247   3.966   3.008  17.138  1.2432 -0.3566  1.0916
 9537SOL    HW240248   4.048   3.061  17.027  2.0507 -0.6061  1.0485
 9538SOL     OW40249   1.986   4.207   7.957 -0.7476 -0.1278 -0.4398
 9538SOL    HW140250   2.008   4.114   7.966 -3.4707 -0.6124  0.9285
 9538SOL    HW240251   2.034   4.230   7.877  1.4056 -1.3266  0.5066
 9539SOL     OW40252   3.737   1.851   3.395 -0.5708 -0.3695 -0.7241
 9539SOL    HW140253   3.646   1.823   3.402 -1.1971  1.5199 -1.3981
 9539SOL    HW240254   3.744   1.894   3.480 -0.0428 -3.4454  0.7869
 9540SOL     OW40255   1.287   0.275   1.593 -0.3064 -0.6060  0.5554
 9540SOL    HW140256   1.252   0.324   1.519  1.5632 -1.6348 -1.0140
 9540SOL    HW240257   1.287   0.185   1.562 -0.9269 -0.6221  0.6119
 9541SOL     OW40258   3.123   1.531   9.345  0.1412 -0.3060 -0.4813
 9541SOL    HW140259   3.032   1.502   9.351 -0.2289  1.3798  2.2544
 9541SOL    HW240260   3.107   1.625   9.349  2.8981  0.1846 -0.9956
 9542SOL     OW40261   4.527   1.959   9.434  0.2794 -0.1677 -0.2464
 9542SOL    HW140262   4.622   1.952   9.441  0.2271 -1.5892 -0.9704
 9542SOL    HW240263   4.514   1.949   9.339 -2.3903  1.6870 -0.0747
 9543SOL     OW40264   4.512   2.160   9.107 -0.1520  0.0730 -0.0242
 9543SOL    HW140265   4.465   2.086   9.069 -1.0856  0.7562 -0.2177
 9543SOL    HW240266   4.560   2.187   9.029 -0.3890  1.0450  0.1626
 9544SOL     OW40267   3.853   2.972   6.817 -0.3076  0.2325 -0.1090
 9544SOL    HW140268   3.782   3.030   6.845  1.1671  0.8527  2.3142
 9544SOL    HW240269   3.881   2.936   6.901 -2.3264 -0.5588  0.2048
 9545SOL     OW40270   0.805   3.302   6.962 -1.1599  0.0790 -0.6205
 9545SOL    HW140271   0.789   3.256   7.044  0.7536  0.2658 -0.1475
 9545SOL    HW240272   0.725   3.268   6.921 -2.3623 -0.0976  1.8773
 9546SOL     OW40273   3.765   0.899  14.149  0.1431  0.8267  0.4641
 9546SOL    HW140274   3.767   0.827  14.212 -0.9391 -0.0602 -0.5241
 9546SOL    HW240275   3.687   0.945  14.180  1.3692  1.2593  2.9165
 9547SOL     OW40276   0.142   1.488   5.091  0.4709  0.0836 -0.1250
 9547SOL    HW140277   0.150   1.513   4.999 -3.3807 -2.9573 -1.2999
 9547SOL    HW240278   0.224   1.441   5.101 -1.1631 -2.8414 -0.5782
 9548SOL     OW40279   3.197   4.643   0.366  0.1194  0.3446  0.1492
 9548SOL    HW140280   3.284   4.604   0.359 -0.9062 -1.9570  0.5911
 9548SOL    HW240281   3.217   4.714   0.427  2.9445 -1.7281  1.6328
 9549SOL     OW40282   3.972   3.304   8.737 -0.3517  0.3670  0.1304
 9549SOL    HW140283   4.017   3.332   8.816  2.3721  0.5105 -1.4403
 9549SOL    HW240284   3.884   3.341   8.745 -0.4257  0.4497 -1.0488
 9550SOL     OW40285   4.167   4.564   2.697 -0.0019  0.3138  0.0018
 9550SOL    HW140286   4.212   4.492   2.741 -0.3087  1.0563  1.5547
 9550SOL    HW240287   4.205   4.558   2.609 -0.9838 -2.6718 -0.2041
 9551SOL     OW40288   1.570   2.973   2.825  0.3730  0.2633  0.0629
 9551SOL    HW140289   1.574   2.955   2.918  2.2612  0.1641 -0.0392
 9551SOL    HW240290   1.490   3.025   2.816 -0.5440 -1.1553  0.2154
 9552SOL     OW40291   0.479   3.238   9.745 -0.0834 -0.3068  0.2967
 9552SOL    HW140292   0.516   3.318   9.781 -0.6010  0.4099 -0.7474
 9552SOL    HW240293   0.532   3.230   9.665  0.8046 -0.2847  0.8889
 9553SOL     OW40294   3.059   2.689   7.078 -0.3941 -0.3693 -0.4148
 9553SOL    HW140295   2.992   2.625   7.054 -0.9349  0.3680 -0.8680
 9553SOL    HW240296   3.066   2.734   6.994 -1.7727  1.2077  0.2957
 9554SOL     OW40297   0.342   1.613  15.054 -0.2536 -0.2440 -0.1248
 9554SOL    HW140298   0.396   1.605  14.975 -1.0269 -1.1835 -0.5528
 9554SOL    HW240299   0.286   1.681  15.017  0.8526  0.5317 -0.3855
 9555SOL     OW40300   2.033   1.330   2.398 -0.2285 -0.0066 -0.0028
 9555SOL    HW140301   1.999   1.288   2.477  0.3866 -0.2216  0.1489
 9555SOL    HW240302   1.950   1.338   2.352  0.6167 -1.2832 -1.7444
 9556SOL     OW40303   3.674   3.106   4.123 -0.4482  0.1496  0.2421
 9556SOL    HW140304   3.581   3.126   4.111 -0.6449 -0.7961  0.2228
 9556SOL    HW240305   3.710   3.133   4.038  2.5156 -2.0798  0.8109
 9557SOL     OW40306   1.032   3.172   6.136 -0.5025 -0.1813 -0.2544
 9557SOL    HW140307   1.055   3.204   6.223  0.3858 -0.6997 -0.3024
 9557SOL    HW240308   1.010   3.079   6.146  1.8039 -0.5840  0.9758
 9558SOL     OW40309   3.733   2.926   3.356  0.0352 -0.4162 -0.7319
 9558SOL    HW140310   3.681   2.932   3.436  0.5164 -0.1081 -0.4426
 9558SOL    HW240311   3.823   2.948   3.377 -0.6966  0.2493  1.6901
 9559SOL     OW40312   2.727   4.648   0.364  0.2320 -0.7489 -0.1233
 9559SOL    HW140313   2.673   4.616   0.291  1.8656 -2.8318 -0.4294
 9559SOL    HW240314   2.673   4.710   0.413  2.4069 -0.3003  1.6551
 9560SOL     OW40315   2.940   2.495   3.418 -0.0785  0.7970  0.5197
 9560SOL    HW140316   2.995   2.461   3.488  0.6028  0.2268 -0.2984
 9560SOL    HW240317   2.998   2.562   3.384 -0.1727  0.3523 -0.5150
 9561SOL     OW40318   2.526   3.669   5.464  0.2342  0.0407  0.3037
 9561SOL    HW140319   2.617   3.673   5.435  0.4496 -1.9591  0.6844
 9561SOL    HW240320   2.517   3.730   5.537  2.2148 -1.4816  1.8217
 9562SOL     OW40321   3.541   4.131   0.296  0.5625 -0.5756 -0.8810
 9562SOL    HW140322   3.532   4.226   0.304  1.0401 -0.8133  2.3086
 9562SOL    HW240323   3.454   4.104   0.324  0.6408  1.8339  1.6789
 9563SOL     OW40324   1.851   0.866   5.081 -0.0111  0.2285  0.4849
 9563SOL    HW140325   1.826   0.928   5.012  3.0281  0.5000 -0.3927
 9563SOL    HW240326   1.842   0.923   5.157  2.0020  1.3267 -0.1133
 9564SOL     OW40327   1.144   2.093   0.075  0.0744 -0.3963  0.2244
 9564SOL    HW140328   1.171   2.009   0.112  1.1918 -0.1124  0.0698
 9564SOL    HW240329   1.207   2.107   0.004  3.1054  1.9996  3.3985
 9565SOL     OW40330   4.408   2.224   3.694 -0.2647  0.7261 -0.5190
 9565SOL    HW140331   4.344   2.184   3.635  0.4942 -1.4040  0.0864
 9565SOL    HW240332   4.428   2.161   3.763  0.4894 -0.9772 -2.2765
 9566SOL     OW40333   4.298   4.308   7.872 -0.2721 -0.2336 -0.1525
 9566SOL    HW140334   4.367   4.270   7.926  1.0361  1.0673 -0.8929
 9566SOL    HW240335   4.339   4.394   7.858 -0.6943  0.1457  0.9275
 9567SOL     OW40336   1.903   2.737  11.090  0.0076  0.0015  0.1321
 9567SOL    HW140337   1.977   2.705  11.142 -0.3706  1.7887  1.7595
 9567SOL    HW240338   1.907   2.832  11.099  1.8285 -0.0885  0.1839
 9568SOL     OW40339   1.200   2.897  15.757  0.0640 -0.1720 -0.2189
 9568SOL    HW140340   1.171   2.842  15.830  1.0366  0.2222  0.4576
 9568SOL    HW240341   1.226   2.827  15.697  1.3098 -0.1924  0.3474
 9569SOL     OW40342   1.118   0.166   1.370  0.5170 -0.1666  0.1149
 9569SOL    HW140343   1.039   0.118   1.395 -0.0459 -0.5684 -2.4826
 9569SOL    HW240344   1.184   0.097   1.373  2.7435  2.0173  2.3315
   4.73744   4.73744  17.74800
