Membrane in water
40344
    1TMC1    C1    1   1.748   0.312  11.678 -0.3972 -0.3414 -0.4848
    1TMC1    C2    2   1.861   0.256  11.633  0.6595 -0.2733  0.2954
    1TMC1    C3    3   1.978   0.318  11.665 -0.2428 -0.2867 -0.4330
    1TMC1    C4    4   1.746   0.426  11.751  0.0705  0.5761  0.1803
    1TMC1    C5    5   1.862   0.480  11.779 -0.0310 -0.1873 -0.3204
    1TMC1    C6    6   1.988   0.435  11.738 -0.5094  0.1960 -0.4015
    1TMC1     C    7   1.625   0.239  11.667  0.1456 -0.2221  0.3830
    1TMC1     O    8   1.524   0.281  11.718 -0.3755 -0.2515 -0.2222
    1TMC1     H    9   1.871   0.174  11.563 -1.7583 -1.2967  1.1490
    1TMC1    H1   10   1.653   0.470  11.787  0.2031  0.9659  0.0536
    1TMC1    H2   11   2.077   0.471  11.787 -0.8954 -1.4579  1.5437
    1TMC1    C7   12   1.867   0.595  11.872 -0.1376 -0.0037 -0.4084
    1TMC1    C8   13   2.090   0.267  11.592 -0.0204 -0.4980 -0.3950
    1TMC1    O1   14   1.969   0.614  11.936 -0.5380  0.1158 -0.7728
    1TMC1    O2   15   2.098   0.145  11.570  0.2822 -0.3778  0.4649
    1TMC1    O3   16   1.776   0.681  11.818 -0.2822  0.4632  0.3076
    1TMC1    H3   17   1.740   0.654  11.731  0.3615 -1.9650  0.7797
    1TMC1    O5   18   2.090   0.368  11.502  0.4393 -0.2856  0.4357
    1TMC1    H5   19   2.043   0.450  11.526 -0.1945 -0.4898 -0.1083
    2MPD2     C   20   1.372   4.532  11.587  0.1880  0.2981 -0.3242
    2MPD2    C1   21   1.333   4.650  11.638  0.0154  0.4735 -0.3038
    2MPD2    C2   22   1.414   0.029  11.642  0.0955  0.2034  0.6262
    2MPD2    C3   23   1.542   0.019  11.589 -0.5039 -0.3840  0.2656
    2MPD2    C4   24   1.564   4.638  11.525  0.3603 -0.0609  0.0092
    2MPD2    C5   25   1.495   4.528  11.533 -0.2095 -0.3133  0.4097
    2MPD2     H   26   1.376   0.118  11.691  1.6018  1.0955  0.1783
    2MPD2    H1   27   1.656   4.638  11.468 -0.9794 -2.8943 -2.1424
    2MPD2    H2   28   1.308   4.445  11.580  1.4380 -0.6206 -0.2568
    2MPD2    H3   29   1.519   4.432  11.488 -1.1352 -1.6657  2.7667
    2MPD2     N   30   1.634   0.122  11.593 -0.3557 -1.5476 -0.1213
    2MPD2    H5   31   1.721   0.101  11.547  0.2879 -1.0699  0.8809
    2MPD2    N1   32   1.208   4.668  11.689  0.5152 -0.4352  0.3177
    2MPD2    H7   33   1.190   0.027  11.721  1.7829 -0.3294  0.7047
    3TMC1    C1   34   0.706   1.224  10.830  0.5214 -0.3109  0.3026
    3TMC1    C2   35   0.818   1.146  10.821 -0.5401 -0.4146 -0.0510
    3TMC1    C3   36   0.935   1.198  10.762 -0.1583 -0.7447  0.1190
    3TMC1    C4   37   0.708   1.355  10.789 -0.2238  0.2206  0.6524
    3TMC1    C5   38   0.829   1.406  10.736 -0.4899  0.2178 -1.0075
    3TMC1    C6   39   0.942   1.331  10.729  0.1389 -0.1495  0.1196
    3TMC1     C   40   0.597   1.177  10.917  0.0685 -0.1744  0.8164
    3TMC1     O   41   0.633   1.104  11.011  0.1424 -0.5242  0.2902
    3TMC1     H   42   0.821   1.042  10.853  0.9723 -0.3570  0.0303
    3TMC1    H1   43   0.630   1.427  10.812 -1.3507 -1.0615  0.7847
    3TMC1    H2   44   1.022   1.380  10.675  2.0988 -1.3358  1.9292
    3TMC1    C7   45   0.844   1.532  10.676 -0.2967 -0.3283  0.0965
    3TMC1    C8   46   1.055   1.126  10.782 -0.0555 -0.5744 -0.0274
    3TMC1    O1   47   0.914   1.556  10.581 -0.5073  0.3472 -0.1865
    3TMC1    O2   48   1.065   1.010  10.823  0.0600  0.1969 -0.1913
    3TMC1    O3   49   0.747   1.609  10.724 -0.2853  0.2173  0.0101
    3TMC1    H3   50   0.720   1.603  10.818  1.1149 -0.0518  0.3953
    3TMC1    O5   51   1.151   1.222  10.797 -0.7668  0.1480  0.9412
    3TMC1    H5   52   1.125   1.316  10.791  2.1802  0.8899 -0.0652
    4MPD2     C   53   0.122   1.219  11.112 -0.1683  0.4281 -0.3347
    4MPD2    C1   54   0.129   1.304  10.999  0.0725 -0.1501 -0.5138
    4MPD2    C2   55   0.252   1.295  10.932 -0.0054 -0.2684  0.1449
    4MPD2    C3   56   0.357   1.218  10.967  0.1077  0.2664  0.4098
    4MPD2    C4   57   0.346   1.141  11.080  0.9311 -0.2091  0.1105
    4MPD2    C5   58   0.232   1.154  11.161 -0.4844  0.0492  0.4686
    4MPD2     H   59   0.258   1.352  10.840  0.4315  0.8044  0.8424
    4MPD2    H1   60   0.432   1.084  11.114 -0.3890 -1.9130  0.5686
    4MPD2    H2   61   0.037   1.207  11.179 -0.1100 -3.0793 -0.8685
    4MPD2    H3   62   0.228   1.129  11.267 -1.8366 -0.8214  0.2161
    4MPD2     N   63   0.473   1.221  10.881  0.2148  0.0926 -0.3067
    4MPD2    H5   64   0.465   1.279  10.798 -0.6995 -0.1644 -0.4027
    4MPD2    N1   65   0.031   1.391  10.948 -0.1366 -0.3509 -0.1732
    4MPD2    H7   66   0.051   1.436  10.859  2.3602  0.4041  0.7696
    5TCq1    O1   67   1.902   2.436  11.686 -0.0765  0.0219 -0.1745
    5TCq1    C1   68   1.824   2.341  11.640 -0.6891 -0.1117 -0.0877
    5TCq1    O2   69   1.873   2.253  11.571 -0.0940 -0.0189  0.0137
    5TCq1    C2   70   1.698   2.400  11.617  0.3370 -0.1667  0.1324
    5TCq1    C3   71   1.659   2.499  11.706 -0.2200  1.3459  0.1216
    5TCq1    C4   72   1.552   2.576  11.658 -0.5702  0.3980  0.6531
    5TCq1    C5   73   1.496   2.570  11.532  0.2991 -0.3830 -0.1641
    5TCq1    C6   74   1.539   2.470  11.446  0.0406 -0.4844 -0.1341
    5TCq1    C7   75   1.634   2.381  11.498 -0.5455  0.1014  0.1187
    5TCq1    C8   76   1.539   2.488  11.301  0.1647 -0.2200 -0.6568
    5TCq1    O4   77   1.577   2.392  11.238 -0.6475 -0.3862 -0.1218
    5TCq1    C9   78   1.493   2.677  11.742 -0.2190  0.1029 -0.1497
    5TCq1    O5   79   1.516   2.671  11.866  0.4510 -0.3770  0.4631
    5TCq1    O6   80   1.415   2.756  11.688 -0.4208  0.2073 -0.3362
    5TCq1    H1   81   1.850   2.518  11.705 -2.0658 -1.3605  0.3873
    5TCq1    H2   82   1.689   2.502  11.810  0.4107 -0.8601  0.0097
    5TCq1    H3   83   1.399   2.614  11.514 -1.1375 -3.2683  0.5522
    5TCq1    H4   84   1.671   2.307  11.428  2.7789  1.6544  0.2506
    6MPD2     C   85   1.447   2.785  11.111  0.0696 -0.4251 -0.4705
    6MPD2    C1   86   1.460   2.653  11.135  0.2585  0.0809 -0.2184
    6MPD2    C2   87   1.438   2.565  11.035 -0.2767 -0.3613  0.4372
    6MPD2    C3   88   1.410   2.609  10.909 -0.3788  1.4339  0.0435
    6MPD2    C4   89   1.406   2.741  10.876  0.5623 -0.6704  0.7271
    6MPD2    C5   90   1.414   2.829  10.985  0.0507  0.3655 -0.0616
    6MPD2     H   91   1.443   2.460  11.061  0.7815 -0.6911 -1.1283
    6MPD2    H1   92   1.388   2.777  10.775  1.2065 -3.0770 -0.2368
    6MPD2    H2   93   1.458   2.858  11.190  1.2481 -0.2082 -0.8410
    6MPD2    H3   94   1.412   2.935  10.960 -0.1644  0.0454 -1.3739
    6MPD2     N   95   1.381   2.505  10.820  0.0826 -0.2362  0.4621
    6MPD2    H5   96   1.360   2.418  10.869 -1.9113  0.4184  0.7662
    6MPD2    N1   97   1.494   2.616  11.263  0.0044 -0.3847 -0.4786
    6MPD2    H7   98   1.491   2.693  11.329  0.4009  0.2290 -1.1788
    7TCq1    O1   99   3.409   2.944  12.611 -0.2780  0.4949 -0.4983
    7TCq1    C1  100   3.533   2.907  12.643 -0.2575 -0.1958 -0.0425
    7TCq1    O2  101   3.629   2.980  12.658  0.0139  0.1563  0.2430
    7TCq1    C2  102   3.533   2.765  12.657 -0.0371  0.2869 -0.2701
    7TCq1    C3  103   3.459   2.696  12.559  0.7433 -0.0665 -0.0983
    7TCq1    C4  104   3.469   2.555  12.565  0.4685 -0.2199 -0.1147
    7TCq1    C5  105   3.548   2.486  12.644 -0.4998  0.0240  0.1675
    7TCq1    C6  106   3.625   2.562  12.737 -0.2179 -0.2326  0.4814
    7TCq1    C7  107   3.626   2.700  12.739 -0.2854 -0.8320 -0.8167
    7TCq1    C8  108   3.671   2.486  12.853 -0.6604 -0.3566 -0.8244
    7TCq1    O4  109   3.694   2.367  12.836 -0.1542 -0.1364 -0.1854
    7TCq1    C9  110   3.381   2.479  12.479 -0.1064  0.8235  0.0909
    7TCq1    O5  111   3.342   2.364  12.520  0.3156  0.6513  0.1823
    7TCq1    O6  112   3.324   2.552  12.392 -0.0117  0.5175  0.3344
    7TCq1    H1  113   3.350   2.865  12.611 -1.0964  1.1125 -0.9546
    7TCq1    H2  114   3.392   2.738  12.484 -1.9915 -0.6473  2.0138
    7TCq1    H3  115   3.550   2.378  12.653 -0.1520  0.1901  2.2249
    7TCq1    H4  116   3.691   2.764  12.797 -0.9407 -1.1720  0.2776
    8MPD2     C  117   3.742   2.428  13.353 -0.1167  0.2417  0.2513
    8MPD2    C1  118   3.723   2.327  13.257  0.2087 -0.0540  0.3076
    8MPD2    C2  119   3.705   2.371  13.128  0.0797 -0.3584 -0.3450
    8MPD2    C3  120   3.699   2.511  13.098 -0.2512  1.2666 -0.0214
    8MPD2    C4  121   3.707   2.604  13.195  0.1665  0.5604  0.2611
    8MPD2    C5  122   3.733   2.563  13.323 -0.2541  0.0800 -0.2409
    8MPD2     H  123   3.679   2.303  13.049 -0.3017 -0.4508 -0.1381
    8MPD2    H1  124   3.723   2.709  13.174  0.6434 -0.2323 -3.2770
    8MPD2    H2  125   3.762   2.400  13.456 -2.4096 -0.4030  0.5108
    8MPD2    H3  126   3.767   2.642  13.389  1.9043 -0.1153 -1.1198
    8MPD2     N  127   3.681   2.564  12.966 -0.1490  0.9350  0.3989
    8MPD2    H5  128   3.667   2.665  12.959 -2.3624  0.6528  0.8545
    8MPD2    N1  129   3.705   2.192  13.300  0.3931  0.1909 -0.0096
    8MPD2    H7  130   3.688   2.182  13.399  0.5953  0.6111  0.0666
    9TMC1    C1  131   1.120   1.744  11.066 -0.3817 -0.5432  0.3339
    9TMC1    C2  132   1.186   1.651  10.985 -0.0540 -0.0612 -0.7951
    9TMC1    C3  133   1.161   1.671  10.855 -0.1575 -0.1563 -0.2239
    9TMC1    C4  134   1.044   1.851  11.024  0.4102 -0.8169 -1.0914
    9TMC1    C5  135   1.021   1.852  10.888 -0.6414  0.4331 -0.1187
    9TMC1    C6  136   1.082   1.765  10.805  0.2322 -0.0668  0.2391
    9TMC1     C  137   1.150   1.741  11.207  0.0550 -0.0595  0.4000
    9TMC1     O  138   1.178   1.851  11.254  0.1208 -0.3653 -0.3573
    9TMC1     H  139   1.238   1.566  11.028  0.4049  0.4788 -0.2773
    9TMC1    H1  140   1.004   1.923  11.094  1.6799 -0.3918 -0.8049
    9TMC1    H2  141   1.048   1.764  10.702  1.6919 -0.8349 -0.2370
    9TMC1    C7  142   0.935   1.945  10.815  0.6401  0.3961  0.9852
    9TMC1    C8  143   1.241   1.591  10.770 -0.5016  0.8416 -0.2906
    9TMC1    O1  144   0.926   1.949  10.692  0.1104  0.2263  0.1712
    9TMC1    O2  145   1.218   1.472  10.779  0.2658  0.4946 -0.4179
    9TMC1    O3  146   0.879   2.016  10.912 -0.4265 -0.2656 -0.1217
    9TMC1    H3  147   0.868   1.968  10.997  3.1382 -0.9673 -0.0315
    9TMC1    O5  148   1.276   1.659  10.654  0.3371  0.1534  0.2574
    9TMC1    H5  149   1.279   1.753  10.681 -0.5123 -0.5403  2.7742
   10MPD2     C  150   1.219   1.676  11.478  0.0268  0.2786  0.2645
   10MPD2    C1  151   1.134   1.599  11.403  0.0903 -0.2005 -0.0326
   10MPD2    C2  152   1.070   1.488  11.446 -0.4841 -0.0053 -0.3165
   10MPD2    C3  153   1.091   1.450  11.577 -0.5998  0.5400 -0.2988
   10MPD2    C4  154   1.182   1.530  11.654  0.7367 -0.0578 -0.1558
   10MPD2    C5  155   1.251   1.635  11.604  0.7203  0.0253 -0.4345
   10MPD2     H  156   0.999   1.446  11.377  1.1998 -2.0914 -0.7676
   10MPD2    H1  157   1.187   1.518  11.762 -0.3154  2.4954  0.1842
   10MPD2    H2  158   1.268   1.767  11.447  0.0717 -0.0157 -0.5246
   10MPD2    H3  159   1.332   1.682  11.659  1.4263 -1.2137 -0.3954
   10MPD2     N  160   1.025   1.348  11.645  0.4378 -0.5463 -0.0631
   10MPD2    H5  161   1.049   1.333  11.742  0.4090 -1.1373 -0.1467
   10MPD2    N1  162   1.104   1.629  11.270 -0.0531 -0.4394 -0.0880
   10MPD2    H7  163   1.041   1.570  11.217  0.3134 -2.0484  1.2611
   11TCq1    O1  164   1.072   2.020  13.872  0.5849 -0.4990 -0.0421
   11TCq1    C1  165   1.120   1.974  13.997  0.2814  0.2596  0.5340
   11TCq1    O2  166   1.216   2.021  14.054  0.4652  0.4472  0.0227
   11TCq1    C2  167   1.100   1.831  14.006  0.4114 -0.0517 -0.3133
   11TCq1    C3  168   1.165   1.773  14.108  0.3987 -0.1365 -0.4742
   11TCq1    C4  169   1.163   1.633  14.109 -0.2878 -0.4584 -0.6019
   11TCq1    C5  170   1.111   1.558  14.014  0.0215 -0.4688 -0.8208
   11TCq1    C6  171   1.047   1.623  13.912 -0.1024  0.5010  0.0685
   11TCq1    C7  172   1.042   1.761  13.899 -0.3822  0.6353  0.4330
   11TCq1    C8  173   0.956   1.554  13.819 -0.4934 -0.0708  0.5213
   11TCq1    O4  174   0.870   1.622  13.759  0.4749 -0.3891  0.0144
   11TCq1    C9  175   1.233   1.580  14.218  0.1911  0.9245 -0.4256
   11TCq1    O5  176   1.209   1.460  14.241 -0.5744  0.0809 -0.4327
   11TCq1    O6  177   1.328   1.646  14.265  0.1923  0.1608 -0.3804
   11TCq1    H1  178   0.983   1.998  13.836  0.6338  1.0790 -1.1134
   11TCq1    H2  179   1.203   1.828  14.193  0.4774 -1.6067  0.4393
   11TCq1    H3  180   1.111   1.451  14.029  0.1509 -0.2417  0.7994
   11TCq1    H4  181   0.995   1.799  13.809 -0.1877  0.2593  0.1710
   12MPD2     C  182   0.865   1.361  13.593  1.0813 -0.0322  0.4652
   12MPD2    C1  183   0.967   1.329  13.692 -0.4742 -0.3164 -0.1663
   12MPD2    C2  184   1.027   1.203  13.689  1.1179 -0.3198  0.3644
   12MPD2    C3  185   0.977   1.099  13.610  0.2766  0.4137 -0.6560
   12MPD2    C4  186   0.886   1.137  13.520  0.2034  0.5214  0.5877
   12MPD2    C5  187   0.834   1.264  13.501  0.4877 -0.1913 -0.2557
   12MPD2     H  188   1.095   1.169  13.767  2.1935  0.2600 -0.3128
   12MPD2    H1  189   0.848   1.061  13.452 -0.0587  0.6380  0.6009
   12MPD2    H2  190   0.801   1.448  13.591  2.2888  0.8719  1.7499
   12MPD2    H3  191   0.752   1.272  13.430  0.9817  1.0210 -0.6941
   12MPD2     N  192   1.003   0.962  13.639 -0.4541 -0.3730 -0.9830
   12MPD2    H5  193   0.961   0.896  13.574 -2.1900  1.5322 -1.8331
   12MPD2    N1  194   1.009   1.425  13.796  0.1528 -0.0209 -0.2203
   12MPD2    H7  195   1.086   1.404  13.859 -0.9108 -0.3367  0.9611
   13TCq1    O1  196   1.182   0.702  11.883  0.3484 -0.4996 -0.3178
   13TCq1    C1  197   1.309   0.738  11.855 -0.1859  0.3062  0.0099
   13TCq1    O2  198   1.403   0.763  11.938  0.1735  0.1257  0.3472
   13TCq1    C2  199   1.326   0.713  11.716  0.0510 -0.0689 -0.3156
   13TCq1    C3  200   1.457   0.679  11.676 -0.1570 -0.2237  0.1962
   13TCq1    C4  201   1.485   0.688  11.538 -0.1695 -0.0563 -0.0154
   13TCq1    C5  202   1.400   0.752  11.457 -0.0125  0.9167  0.4977
   13TCq1    C6  203   1.273   0.784  11.499 -0.3356 -0.7817 -0.7006
   13TCq1    C7  204   1.231   0.761  11.629  0.2417  0.3259  0.1376
   13TCq1    C8  205   1.200   0.878  11.422  1.0336 -0.0755 -0.2289
   13TCq1    O4  206   1.081   0.892  11.451 -0.3026 -0.7982  0.2939
   13TCq1    C9  207   1.617   0.659  11.489 -0.0652 -0.4838 -0.4830
   13TCq1    O5  208   1.639   0.670  11.365  0.4854 -0.4859  0.2916
   13TCq1    O6  209   1.706   0.669  11.578 -0.2822  0.1278 -0.0956
   13TCq1    H1  210   1.131   0.655  11.813 -2.6813 -0.5297  1.8946
   13TCq1    H2  211   1.522   0.648  11.758  0.0579 -1.9297 -0.6187
   13TCq1    H3  212   1.434   0.758  11.355 -1.8284 -0.0095 -0.1688
   13TCq1    H4  213   1.150   0.820  11.672 -0.4221 -0.4695 -0.0269
   14MPD2     C  214   1.349   1.110  11.174  0.4526 -0.1542 -0.1761
   14MPD2    C1  215   1.253   1.062  11.262  0.3165 -0.4775 -0.3709
   14MPD2    C2  216   1.129   1.115  11.278  0.1668 -0.5089  0.5456
   14MPD2    C3  217   1.096   1.218  11.197 -0.2981 -0.6506  0.8096
   14MPD2    C4  218   1.190   1.271  11.111  0.2131 -0.2784 -0.5663
   14MPD2    C5  219   1.314   1.217  11.099 -0.1192 -0.1371  0.0872
   14MPD2     H  220   1.049   1.080  11.341 -1.9682 -0.7205 -2.2848
   14MPD2    H1  221   1.165   1.348  11.039  0.4771 -0.8166 -1.2348
   14MPD2    H2  222   1.449   1.072  11.159  0.3226 -0.6837  0.3152
   14MPD2    H3  223   1.388   1.267  11.037 -1.9318 -0.1660 -2.0990
   14MPD2     N  224   0.965   1.269  11.206 -0.4380  0.2902 -0.1292
   14MPD2    H5  225   0.909   1.229  11.281  0.4029  0.3169  0.5082
   14MPD2    N1  226   1.286   0.949  11.340  0.3646  0.1788 -0.3519
   14MPD2    H7  227   1.386   0.932  11.336  0.5441  0.8385  1.6087
   15TCq1    O1  228   2.931   0.429   1.903 -0.3865 -0.5190 -0.5275
   15TCq1    C1  229   3.026   0.505   1.842 -0.5555 -0.1966  0.4595
   15TCq1    O2  230   3.017   0.617   1.798  0.4808 -0.2098 -0.0626
   15TCq1    C2  231   3.153   0.431   1.848  0.1112  0.4721 -0.4476
   15TCq1    C3  232   3.182   0.372   1.972  0.1981 -0.4334 -0.0262
   15TCq1    C4  233   3.286   0.286   1.977  0.2055  0.1579 -0.1802
   15TCq1    C5  234   3.360   0.265   1.862 -0.2173  0.4712  0.0845
   15TCq1    C6  235   3.333   0.329   1.746  0.2243  0.4838  0.3741
   15TCq1    C7  236   3.229   0.412   1.739  0.3251  0.0545  0.1842
   15TCq1    C8  237   3.409   0.286   1.630  0.2277  0.1571  0.3654
   15TCq1    O4  238   3.519   0.240   1.644 -0.5659  0.2532  0.6277
   15TCq1    C9  239   3.327   0.223   2.102 -0.6582 -1.1235 -0.3565
   15TCq1    O5  240   3.420   0.137   2.098 -0.1828 -0.1783 -0.4228
   15TCq1    O6  241   3.258   0.257   2.200  0.2061 -0.6223 -0.0552
   15TCq1    H1  242   2.971   0.347   1.939 -0.0976  1.1831  2.9975
   15TCq1    H2  243   3.140   0.399   2.069  0.3403  0.1345 -0.1203
   15TCq1    H3  244   3.449   0.203   1.873 -0.2078  0.2903 -1.0792
   15TCq1    H4  245   3.202   0.465   1.649  2.0823  0.6563  0.0245
   16MPD2     C  246   3.317   0.366   1.293  0.0339  0.0930 -0.4040
   16MPD2    C1  247   3.390   0.300   1.391 -0.1287 -0.0743 -0.0270
   16MPD2    C2  248   3.497   0.217   1.356 -0.6737  1.0614  0.1755
   16MPD2    C3  249   3.513   0.181   1.223  0.6500 -0.0457  0.0372
   16MPD2    C4  250   3.433   0.240   1.128 -0.2812  0.1861 -0.2211
   16MPD2    C5  251   3.346   0.342   1.160 -0.8380  0.8069 -0.4250
   16MPD2     H  252   3.552   0.167   1.435 -0.6948 -0.3953 -0.7525
   16MPD2    H1  253   3.434   0.226   1.021 -0.6332 -0.0921 -0.1861
   16MPD2    H2  254   3.231   0.428   1.315 -1.8435 -1.4194 -3.3427
   16MPD2    H3  255   3.287   0.390   1.084 -0.5934  1.6073 -0.1078
   16MPD2     N  256   3.614   0.081   1.187 -1.0018  0.1213 -0.8907
   16MPD2    H5  257   3.671   0.038   1.258 -1.0983  2.3113  0.5344
   16MPD2    N1  258   3.346   0.329   1.519  0.4983  0.1945  0.1780
   16MPD2    H7  259   3.258   0.377   1.530 -0.1158 -0.3826 -2.3312
   17TMC1    C1  260   0.494   4.617  10.678 -0.4210  0.5008 -0.0917
   17TMC1    C2  261   0.423   4.500  10.673 -0.7613 -0.4187  0.4408
   17TMC1    C3  262   0.302   4.488  10.618  0.3522  0.0683  0.3251
   17TMC1    C4  263   0.435   4.732  10.640 -0.1275  0.4112 -0.0955
   17TMC1    C5  264   0.307   4.718  10.587 -0.6558  0.2062 -0.1169
   17TMC1    C6  265   0.237   4.603  10.581 -0.3131 -1.1751  0.1291
   17TMC1     C  266   0.611   4.617  10.761 -0.0590  1.1976  0.1654
   17TMC1     O  267   0.610   4.546  10.857  0.6578 -0.1954  0.1383
   17TMC1     H  268   0.469   4.407  10.706  0.8715 -0.0120 -0.6903
   17TMC1    H1  269   0.482   0.093  10.657  0.1309  0.0546  1.1605
   17TMC1    H2  270   0.141   4.588  10.534  0.0191  2.4085 -1.6838
   17TMC1    C7  271   0.254   0.121  10.552  0.0889  0.1580  0.2232
   17TMC1    C8  272   0.228   4.367  10.603  0.1863 -0.6721 -0.4988
   17TMC1    O1  273   0.337   0.190  10.492  0.2167  0.0102  0.5898
   17TMC1    O2  274   0.105   4.367  10.611  0.2192 -0.0593  0.0643
   17TMC1    O3  275   0.125   0.102  10.516 -0.1908 -0.4657  0.8904
   17TMC1    H3  276   0.079   0.044  10.581 -0.2334 -0.1829  1.1085
   17TMC1    O5  277   0.305   4.258  10.576  0.2521  0.1958 -0.2943
   17TMC1    H5  278   0.400   4.278  10.561  0.1880  2.0569  1.8090
   18MPD2     C  279   0.879   4.647  10.888  0.1625  0.3621 -0.0357
   18MPD2    C1  280   0.840   4.726  10.782 -0.6861 -0.0446 -0.3571
   18MPD2    C2  281   0.924   0.092  10.734  0.5144 -0.5836  0.0648
   18MPD2    C3  282   1.050   0.099  10.785 -0.5966  0.7346 -0.3089
   18MPD2    C4  283   1.088   0.013  10.892  0.4571 -0.2875  0.7245
   18MPD2    C5  284   1.000   4.662  10.941 -0.7013 -0.0919  0.7203
   18MPD2     H  285   0.884   0.158  10.658  1.5279  1.7225  1.5281
   18MPD2    H1  286   1.190   0.021  10.927  0.1214 -1.2004  1.8951
   18MPD2    H2  287   0.812   4.580  10.941  0.8065 -1.3807 -1.4409
   18MPD2    H3  288   1.033   4.610  11.030 -0.5477 -1.0462  0.0992
   18MPD2     N  289   1.157   0.180  10.731  0.2870  0.0408  0.2065
   18MPD2    H5  290   1.252   0.166  10.765  0.5077  1.5199  0.2045
   18MPD2    N1  291   0.710   4.705  10.720 -0.3523  0.2687 -0.2455
   18MPD2    H7  292   0.697   0.006  10.626  0.7322 -2.4564 -1.4341
   19TMC2    C1  293   2.461   1.202  13.641  0.6273 -0.2471  0.0439
   19TMC2    C2  294   2.415   1.160  13.517  0.0671  0.0143 -0.2414
   19TMC2    C3  295   2.302   1.087  13.523 -0.1021 -0.2170  0.2052
   19TMC2    C4  296   2.401   1.178  13.763  0.5094  0.2602  0.0593
   19TMC2    C5  297   2.280   1.111  13.760 -0.8192  0.7038 -0.4859
   19TMC2    C6  298   2.231   1.063  13.637  0.5954  0.2849  0.5658
   19TMC2     C  299   2.578   1.284  13.633 -0.5218  0.5800  1.1403
   19TMC2     O  300   2.602   1.323  13.521 -0.1737  0.1084  0.0928
   19TMC2     H  301   2.462   1.173  13.420 -0.3196 -2.5227 -0.7764
   19TMC2    H1  302   2.446   1.222  13.851  0.3237  1.1572 -0.2994
   19TMC2    H2  303   2.131   1.024  13.628  1.4405 -1.6525 -0.5288
   19TMC2    C7  304   2.222   1.040  13.873 -0.4862 -0.9306 -0.0309
   19TMC2    C8  305   2.226   1.089  13.400 -0.5514 -0.0426 -0.2891
   19TMC2    O1  306   2.136   0.960  13.840 -0.0952  0.2731 -0.0555
   19TMC2    O2  307   2.256   1.154  13.299  0.2455 -0.2102  0.2735
   19TMC2    O5  308   2.163   0.973  13.399 -0.3097  0.2853 -0.0575
   19TMC2    H5  309   2.184   0.905  13.467  0.3429  0.1554 -0.3902
   20MPD2     C  310   2.827   1.450  13.687  0.2939  0.2855  0.2883
   20MPD2    C1  311   2.785   1.338  13.759 -0.0040 -0.6353 -0.7020
   20MPD2    C2  312   2.868   1.300  13.865 -0.4755  0.3362  1.1649
   20MPD2    C3  313   2.989   1.365  13.889  0.7091 -0.2222 -0.0607
   20MPD2    C4  314   3.023   1.474  13.811  0.2769  0.8016  0.0047
   20MPD2    C5  315   2.948   1.509  13.706 -0.5011  0.1643  0.3351
   20MPD2     H  316   2.831   1.223  13.931 -0.7620 -1.3665 -0.9546
   20MPD2    H1  317   3.124   1.510  13.821  0.0914  0.7080  2.1583
   20MPD2    H2  318   2.786   1.467  13.588  0.4967 -0.0636  0.1450
   20MPD2    H3  319   2.986   1.581  13.635 -2.8342 -0.0723 -1.1732
   20MPD2     N  320   3.083   1.304  13.971  0.5269  0.1836  0.3933
   20MPD2    H5  321   3.176   1.344  13.967  1.2610 -1.5438 -0.0925
   20MPD2    N1  322   2.663   1.272  13.739  0.0126 -0.3349  0.1570
   20MPD2    H7  323   2.646   1.200  13.809 -2.8917 -0.6633 -0.9004
   21TMC2    C1  324   0.305   1.751  14.177  0.4371  0.2529  0.9469
   21TMC2    C2  325   0.278   1.705  14.051  0.9907 -0.1731  0.1653
   21TMC2    C3  326   0.226   1.799  13.964 -0.5362 -0.4309  0.2467
   21TMC2    C4  327   0.286   1.877  14.222 -0.0195  0.0606  0.0166
   21TMC2    C5  328   0.228   1.961  14.130 -0.9898  0.5480  0.1024
   21TMC2    C6  329   0.197   1.928  14.000 -0.3276 -0.3295 -0.2662
   21TMC2     C  330   0.327   1.645  14.273 -0.2132  0.1858 -0.0246
   21TMC2     O  331   0.394   1.545  14.239 -0.0953 -0.8642  0.2653
   21TMC2     H  332   0.305   1.603  14.025 -0.2169 -0.3845 -0.2923
   21TMC2    H1  333   0.321   1.916  14.317 -3.3373  3.2523 -0.0812
   21TMC2    H2  334   0.146   1.984  13.923 -1.1063  1.3037  1.4539
   21TMC2    C7  335   0.132   2.052  14.190  0.0777  0.8243 -0.6220
   21TMC2    C8  336   0.205   1.756  13.824  0.0904  0.0061 -0.4623
   21TMC2    O1  337   0.160   2.083  14.307 -0.4986  0.0370 -0.7011
   21TMC2    O2  338   0.262   1.808  13.730  1.2192  0.2437 -0.1966
   21TMC2    O5  339   0.181   1.628  13.830 -0.2760 -0.1539 -0.3268
   21TMC2    H5  340   0.116   1.608  13.901 -0.7693  0.3025 -0.6551
   22MPD2     C  341   0.196   1.400  14.704 -0.1041 -0.0136  0.5890
   22MPD2    C1  342   0.284   1.359  14.604 -0.1459  0.0098  0.7194
   22MPD2    C2  343   0.298   1.443  14.492  0.4190  0.0889  0.3032
   22MPD2    C3  344   0.242   1.571  14.496 -0.2235 -0.1250 -0.2168
   22MPD2    C4  345   0.166   1.611  14.604  0.2439 -0.3228  0.1450
   22MPD2    C5  346   0.146   1.527  14.705 -0.2113 -0.5148  0.1219
   22MPD2     H  347   0.357   1.406  14.409 -2.3797 -1.9377 -0.7699
   22MPD2    H1  348   0.128   1.712  14.617  0.5127 -0.2189  0.1313
   22MPD2    H2  349   0.164   1.332  14.783  0.2873 -0.3244  0.4828
   22MPD2    H3  350   0.079   1.557  14.785  0.8744  0.6675  0.5901
   22MPD2     N  351   0.261   1.663  14.394 -0.8362 -0.5502  0.2945
   22MPD2    H5  352   0.205   1.748  14.401 -1.5775 -1.0845  0.8504
   22MPD2    N1  353   0.334   1.230  14.616  0.3297 -0.6811  0.0819
   22MPD2    H7  354   0.292   1.167  14.684  0.4282  0.0512  0.8145
   23TMC2    C1  355   1.349   2.545  14.783 -0.3457 -0.2303 -0.3255
   23TMC2    C2  356   1.302   2.670  14.812  0.3968 -0.1066  1.1541
   23TMC2    C3  357   1.174   2.694  14.779  0.3123 -1.2243 -0.6693
   23TMC2    C4  358   1.276   2.447  14.725 -0.5294 -0.2105  0.3916
   23TMC2    C5  359   1.153   2.486  14.678 -0.2092 -0.1052  0.2658
   23TMC2    C6  360   1.102   2.612  14.697  0.0837  0.3610  0.1244
   23TMC2     C  361   1.465   2.507  14.860 -0.3996 -0.1802  0.3374
   23TMC2     O  362   1.490   2.552  14.974  0.1344 -0.4593 -0.0818
   23TMC2     H  363   1.366   2.740  14.864 -0.8076  1.2726  0.7767
   23TMC2    H1  364   1.324   2.353  14.701 -2.2424 -1.2089  0.9004
   23TMC2    H2  365   1.012   2.646  14.646  1.0101  0.5634 -1.3626
   23TMC2    C7  366   1.077   2.393  14.599 -0.0875  0.0196  0.1975
   23TMC2    C8  367   1.121   2.828  14.766  0.5811 -0.8689 -0.7077
   23TMC2    O1  368   1.128   2.286  14.583  0.2109  0.0038 -0.4795
   23TMC2    O2  369   1.004   2.859  14.784 -0.3087  0.1638  0.1736
   23TMC2    O5  370   1.205   2.894  14.684  0.1309  0.0002 -0.4676
   23TMC2    H5  371   1.297   2.861  14.679  0.7320  1.3677  1.7513
   24MPD2     C  372   1.877   2.217  14.916 -0.1891 -0.0982 -0.3337
   24MPD2    C1  373   1.804   2.275  15.012  0.0424 -0.2900  0.6691
   24MPD2    C2  374   1.692   2.347  14.971  0.2840  0.0063 -0.2520
   24MPD2    C3  375   1.661   2.359  14.833  0.0570  0.6146  0.0532
   24MPD2    C4  376   1.759   2.321  14.740 -0.8409  0.1816  0.5023
   24MPD2    C5  377   1.864   2.247  14.784  0.1959 -0.3010 -0.3579
   24MPD2     H  378   1.630   2.396  15.045  0.0725  0.7671 -0.9362
   24MPD2    H1  379   1.760   2.327  14.632  3.3019  0.6106  0.5609
   24MPD2    H2  380   1.971   2.168  14.940  0.1478  2.2889  3.2645
   24MPD2    H3  381   1.936   2.212  14.712  1.6241 -0.6546  1.2513
   24MPD2     N  382   1.543   2.431  14.786 -0.2544  0.2277 -0.2605
   24MPD2    H5  383   1.516   2.424  14.688  1.1329 -1.0338 -0.5556
   24MPD2    N1  384   1.845   2.258  15.143  0.7219  0.1642 -0.1197
   24MPD2    H7  385   1.917   2.188  15.159  0.3127 -0.1945  0.1593
   25TMC2    C1  386   0.414   3.999  11.273 -0.3606  0.0316  0.2100
   25TMC2    C2  387   0.279   4.003  11.273 -0.0752 -0.1050 -0.7667
   25TMC2    C3  388   0.213   4.112  11.322 -0.0756  0.1083 -0.2415
   25TMC2    C4  389   0.486   4.112  11.306 -0.7404 -0.5141  0.4821
   25TMC2    C5  390   0.410   4.219  11.348 -0.1459 -0.0215  0.0630
   25TMC2    C6  391   0.278   4.226  11.355 -0.0983 -0.1217  0.0707
   25TMC2     C  392   0.493   3.894  11.212  0.1455  0.1059 -0.2101
   25TMC2     O  393   0.599   3.942  11.170  0.0280  0.1076 -0.2142
   25TMC2     H  394   0.227   3.910  11.257  0.4689 -0.6249  0.5078
   25TMC2    H1  395   0.594   4.118  11.307 -0.7807  0.1814  0.6559
   25TMC2    H2  396   0.217   4.312  11.379  0.1409  0.8025 -2.6016
   25TMC2    C7  397   0.487   4.339  11.378  0.9709  0.1788  0.1480
   25TMC2    C8  398   0.073   4.130  11.291 -0.3755 -0.5950  0.8142
   25TMC2    O1  399   0.606   4.346  11.343 -0.4739  0.1724 -0.2364
   25TMC2    O2  400   4.734   4.214  11.343 -0.2570  0.1558  0.3331
   25TMC2    O5  401   0.048   4.061  11.181 -0.1148  0.1408 -0.8220
   25TMC2    H5  402   0.113   3.993  11.152 -0.8551 -1.4809  1.3483
   26MPD2     C  403   0.475   3.506  10.885  0.6734 -0.2535  0.5032
   26MPD2    C1  404   0.399   3.473  10.991 -0.4708 -0.3138  0.0022
   26MPD2    C2  405   0.389   3.559  11.100  0.0683  0.6884  0.2533
   26MPD2    C3  406   0.450   3.683  11.101 -0.2826 -0.2457  0.1261
   26MPD2    C4  407   0.517   3.720  10.987 -0.1158  0.7689 -0.8636
   26MPD2    C5  408   0.527   3.630  10.883  0.3815  0.3142 -0.4437
   26MPD2     H  409   0.332   3.528  11.187  1.2545 -1.4914  0.2596
   26MPD2    H1  410   0.568   3.815  10.977  0.4680  0.3754 -1.7003
   26MPD2    H2  411   0.500   3.440  10.803 -0.0364  0.5163 -0.3411
   26MPD2    H3  412   0.581   3.666  10.796  0.5071 -1.4145 -1.0800
   26MPD2     N  413   0.433   3.772  11.210  0.3629  0.3147 -0.3599
   26MPD2    H5  414   0.381   3.736  11.289  2.7871 -3.2574 -0.3912
   26MPD2    N1  415   0.331   3.344  10.982 -0.0972 -0.2256  0.0774
   26MPD2    H7  416   0.325   3.307  10.888  4.3977  0.0408 -0.3340
   27TMC2    C1  417   4.204   2.012  11.383  0.3614 -0.2271 -0.2445
   27TMC2    C2  418   4.218   2.051  11.254 -0.2185  0.1649  0.2828
   27TMC2    C3  419   4.285   2.172  11.238 -0.1382 -0.7197 -0.0930
   27TMC2    C4  420   4.243   2.088  11.486  0.2721 -0.0000 -0.3889
   27TMC2    C5  421   4.314   2.204  11.469  0.5100 -0.1368  0.2696
   27TMC2    C6  422   4.327   2.249  11.340 -0.7649  0.3614 -0.0982
   27TMC2     C  423   4.106   1.906  11.414 -0.0702  0.0334  0.5892
   27TMC2     O  424   4.085   1.814  11.337  0.0599  0.2793 -0.6708
   27TMC2     H  425   4.178   1.993  11.172 -0.1908  0.2247  0.2264
   27TMC2    H1  426   4.240   2.051  11.588 -1.1259 -1.5733 -1.0069
   27TMC2    H2  427   4.385   2.340  11.335  0.2036 -0.2229  0.3943
   27TMC2    C7  428   4.388   2.263  11.582 -0.0312  0.1067  0.2926
   27TMC2    C8  429   4.289   2.229  11.107 -0.2676  0.6304 -0.2031
   27TMC2    O1  430   4.370   2.199  11.687 -0.0008 -0.3577 -0.5430
   27TMC2    O2  431   4.215   2.176  11.020 -0.0294 -0.3020 -0.8166
   27TMC2    O5  432   4.417   2.277  11.091  0.0487 -0.2192 -0.4056
   27TMC2    H5  433   4.480   2.282  11.166  0.6012  0.9034 -0.9299
   28MPD2     C  434   3.732   1.736  11.709  0.3112 -0.3090 -0.0550
   28MPD2    C1  435   3.785   1.845  11.770 -0.5815 -0.2974  0.6676
   28MPD2    C2  436   3.888   1.906  11.708  0.4011  0.7622 -0.2924
   28MPD2    C3  437   3.927   1.868  11.588  0.4797  0.3004 -0.6900
   28MPD2    C4  438   3.859   1.765  11.521  0.2166  0.5582  0.2351
   28MPD2    C5  439   3.766   1.691  11.584 -0.0100  0.2488  0.0508
   28MPD2     H  440   3.951   1.981  11.754  1.6835 -0.9020  0.6441
   28MPD2    H1  441   3.880   1.730  11.420 -0.0563 -0.7775  0.6412
   28MPD2    H2  442   3.655   1.681  11.763 -2.2124  2.0585 -1.2163
   28MPD2    H3  443   3.725   1.599  11.545  0.1436  0.5532 -0.8251
   28MPD2     N  444   4.038   1.946  11.529  0.3748  0.1385  0.1882
   28MPD2    H5  445   4.071   2.023  11.587 -2.4708  0.8929  0.8390
   28MPD2    N1  446   3.742   1.888  11.900 -0.3856 -0.3336  0.4261
   28MPD2    H7  447   3.663   1.835  11.935  0.2008 -1.7962 -0.4738
   29TMC2    C1  448   3.700   4.493  14.171 -0.5966  0.5685  0.3438
   29TMC2    C2  449   3.726   4.523  14.298 -0.0511 -0.1165 -0.3565
   29TMC2    C3  450   3.794   4.639  14.325 -0.5140  1.0631 -0.2073
   29TMC2    C4  451   3.700   4.591  14.073  0.1758 -0.2337  0.3006
   29TMC2    C5  452   3.780   4.693  14.100  0.2148 -0.2078  0.1657
   29TMC2    C6  453   3.826   4.725  14.228  0.2180  0.2954  0.1811
   29TMC2     C  454   3.686   4.355  14.136  0.2721  0.1797  0.0582
   29TMC2     O  455   3.717   4.269  14.217  0.4184 -0.4613 -0.0329
   29TMC2     H  456   3.709   4.455  14.381 -0.4175  1.5257  0.9059
   29TMC2    H1  457   3.681   4.567  13.969  0.6457  3.3536 -0.6287
   29TMC2    H2  458   3.882   0.077  14.260  2.0098 -0.4911 -0.8391
   29TMC2    C7  459   3.812   0.050  13.999 -0.3208 -0.8623 -0.7085
   29TMC2    C8  460   3.869   4.646  14.447 -0.9518  0.2249 -0.1979
   29TMC2    O1  461   3.745   0.037  13.897  0.4268 -0.4217 -1.0033
   29TMC2    O2  462   3.979   4.700  14.444  0.4546 -0.0413 -0.0884
   29TMC2    O5  463   3.793   4.630  14.554 -0.4803  0.0851 -0.4779
   29TMC2    H5  464   3.703   4.596  14.538 -0.3401 -1.0076  1.1315
   30MPD2     C  465   3.459   3.988  13.860  0.4467  0.3322 -0.3510
   30MPD2    C1  466   3.544   3.981  13.965  0.4118  0.1908  0.1993
   30MPD2    C2  467   3.589   4.094  14.032  0.8008  0.0191  0.4302
   30MPD2    C3  468   3.555   4.221  13.977  0.5878 -0.7388  0.5590
   30MPD2    C4  469   3.479   4.224  13.861  0.6005 -0.6135  0.4356
   30MPD2    C5  470   3.430   4.110  13.806 -0.1371  0.0734  0.1008
   30MPD2     H  471   3.652   4.078  14.119  0.1642 -1.3723  0.6388
   30MPD2    H1  472   3.462   4.306  13.793 -0.4999 -1.8684 -0.7965
   30MPD2    H2  473   3.423   3.906  13.798 -1.0923 -0.4421  1.5567
   30MPD2    H3  474   3.371   4.126  13.716 -2.4070  0.5500  1.6778
   30MPD2     N  475   3.623   4.342  14.014 -0.2578 -0.0843  0.2573
   30MPD2    H5  476   3.608   4.424  13.955  2.3681 -0.7520 -1.2892
   30MPD2    N1  477   3.581   3.863  14.025 -0.1758  0.2344 -0.5537
   30MPD2    H7  478   3.661   3.865  14.087  0.8623 -0.6505 -1.8543
   31TMC2    C1  479   1.418   3.302  15.398  0.4225 -0.9523  0.0462
   31TMC2    C2  480   1.283   3.338  15.401  0.1914 -0.4565 -0.1548
   31TMC2    C3  481   1.210   3.294  15.505 -0.2027 -0.1144  0.7516
   31TMC2    C4  482   1.470   3.215  15.488  0.0114 -0.2243 -0.0185
   31TMC2    C5  483   1.385   3.160  15.577  0.5997  0.3102 -0.1745
   31TMC2    C6  484   1.252   3.197  15.588 -0.6630  0.0212  0.2461
   31TMC2     C  485   1.500   3.371  15.300 -0.4701  0.4840 -0.4798
   31TMC2     O  486   1.446   3.448  15.221 -0.3376 -0.5245  0.2188
   31TMC2     H  487   1.245   3.418  15.338 -2.6913 -1.2881  0.5058
   31TMC2    H1  488   1.573   3.181  15.489  1.4514  4.1193  0.3610
   31TMC2    H2  489   1.186   3.166  15.669 -0.5761 -3.3694 -0.9629
   31TMC2    C7  490   1.446   3.090  15.681  0.4759  0.0776 -0.0357
   31TMC2    C8  491   1.067   3.292  15.486  0.3623 -0.1915  0.2411
   31TMC2    O1  492   1.553   3.029  15.659  0.9021 -0.1571 -0.3544
   31TMC2    O2  493   0.989   3.252  15.573  0.5951  0.5217 -0.5004
   31TMC2    O5  494   1.055   3.257  15.357  0.0553  0.2166  0.1526
   31TMC2    H5  495   1.142   3.271  15.314  0.9226  1.1129  2.1896
   32MPD2     C  496   1.928   3.461  15.019  0.8892  0.0568  0.6374
   32MPD2    C1  497   1.807   3.522  15.012  0.1275  0.3319  0.0066
   32MPD2    C2  498   1.705   3.483  15.100 -0.2516  0.5417  0.6238
   32MPD2    C3  499   1.728   3.382  15.200 -0.1422  0.7308  0.0567
   32MPD2    C4  500   1.850   3.321  15.198 -0.0188 -0.6567 -0.3954
   32MPD2    C5  501   1.950   3.363  15.112  0.0035 -0.0534  0.4775
   32MPD2     H  502   1.614   3.541  15.099 -0.9802 -0.5707  2.8063
   32MPD2    H1  503   1.863   3.244  15.273 -1.7497  1.2517  1.8642
   32MPD2    H2  504   2.007   3.479  14.947 -1.7348  0.8321 -2.0221
   32MPD2    H3  505   2.051   3.325  15.119  0.1768  0.5630  1.3123
   32MPD2     N  506   1.634   3.335  15.299 -0.0512 -0.4816 -0.3808
   32MPD2    H5  507   1.663   3.253  15.353 -0.8104 -1.7891 -1.9752
   32MPD2    N1  508   1.785   3.611  14.904  0.2558  0.3056  0.2034
   32MPD2    H7  509   1.867   3.626  14.846 -1.1931  3.9456 -0.9006
   33TMC2    C1  510   1.073   1.087  10.068 -1.1043  0.3702  0.8236
   33TMC2    C2  511   0.942   1.058  10.049 -0.0347  0.3612 -0.0275
   33TMC2    C3  512   0.863   1.165  10.019 -0.5421  0.2756  0.2619
   33TMC2    C4  513   1.130   1.207  10.042 -0.5429  0.2299 -0.3961
   33TMC2    C5  514   1.043   1.313  10.014  0.3839  0.3783  0.1803
   33TMC2    C6  515   0.904   1.296  10.000 -0.3260  0.4960  0.2877
   33TMC2     C  516   1.153   0.973  10.108 -0.0226  1.1171  0.1458
   33TMC2     O  517   1.088   0.882  10.171  0.4263  0.5199  0.4677
   33TMC2     H  518   0.891   0.971  10.089  3.8855 -2.5065 -1.1856
   33TMC2    H1  519   1.237   1.219  10.056 -0.4306 -0.1363 -0.9701
   33TMC2    H2  520   0.831   1.370   9.967 -2.6162 -0.2831  3.5176
   33TMC2    C7  521   1.099   1.446   9.996 -0.1842 -0.1601 -0.8557
   33TMC2    C8  522   0.723   1.151  10.034 -0.4305  0.4878  0.6305
   33TMC2    O1  523   1.218   1.441   9.966 -0.5161  0.4258 -0.2016
   33TMC2    O2  524   0.648   1.242  10.052  0.2395 -0.1273  0.2725
   33TMC2    O5  525   0.692   1.051   9.948 -0.4555 -0.0129  0.0796
   33TMC2    H5  526   0.772   0.998   9.930  1.2222  1.8591  1.9796
   34MPD2     C  527   1.592   0.683  10.100  0.7970 -0.2685 -0.5751
   34MPD2    C1  528   1.466   0.662  10.153  0.3310  0.0313  0.4177
   34MPD2    C2  529   1.367   0.764  10.148 -0.2029  0.1468  0.0461
   34MPD2    C3  530   1.386   0.883  10.079  0.7386  0.6854 -0.0440
   34MPD2    C4  531   1.511   0.910  10.036 -0.0425  0.9073 -0.0720
   34MPD2    C5  532   1.613   0.809  10.046 -0.6595  0.0284  0.0280
   34MPD2     H  533   1.269   0.739  10.188 -0.7842  0.9347 -0.8838
   34MPD2    H1  534   1.556   1.000   9.994 -1.5116  1.4113 -0.5405
   34MPD2    H2  535   1.677   0.616  10.099  1.9091  1.1616 -2.8785
   34MPD2    H3  536   1.711   0.834  10.009 -0.0513 -2.6969 -0.1783
   34MPD2     N  537   1.287   0.979  10.070  0.3567 -0.2376  0.3599
   34MPD2    H5  538   1.313   1.070  10.032  0.6547 -0.5977 -0.2971
   34MPD2    N1  539   1.451   0.532  10.215  0.0238  0.0536  0.4141
   34MPD2    H7  540   1.527   0.471  10.245  0.0225 -0.9640 -1.7043
   35TMC2    C1  541   2.511   2.407  11.134 -0.4643 -0.0342  0.4690
   35TMC2    C2  542   2.470   2.419  11.007 -0.3855  0.2384  0.5106
   35TMC2    C3  543   2.401   2.312  10.957  0.0255  0.3625  0.4272
   35TMC2    C4  544   2.467   2.299  11.217 -0.0730  0.2726  0.3392
   35TMC2    C5  545   2.402   2.197  11.154  0.6524  0.0485  0.1077
   35TMC2    C6  546   2.364   2.200  11.026  0.4864 -0.4724  0.1126
   35TMC2     C  547   2.580   2.517  11.198 -0.6736  0.4382  0.1174
   35TMC2     O  548   2.558   2.630  11.158 -0.6509  0.1521  0.0853
   35TMC2     H  549   2.494   2.508  10.950  0.4147 -0.9087 -0.9496
   35TMC2    H1  550   2.496   2.299  11.322  1.7121  0.6837 -0.1547
   35TMC2    H2  551   2.309   2.123  10.973  1.6469 -2.2461  1.4766
   35TMC2    C7  552   2.363   2.075  11.221 -0.3145 -0.4074  0.2693
   35TMC2    C8  553   2.421   2.301  10.813 -1.4256  0.9361 -0.5275
   35TMC2    O1  554   2.284   2.009  11.156  0.0554 -0.7597 -0.7062
   35TMC2    O2  555   2.460   2.400  10.746  0.2850 -0.1914  0.0249
   35TMC2    O5  556   2.453   2.169  10.789  0.2758 -0.4204  0.3150
   35TMC2    H5  557   2.446   2.097  10.855 -1.0885 -1.0215 -0.4959
   36MPD2     C  558   2.897   2.701  11.566 -0.4293 -0.0156  0.2529
   36MPD2    C1  559   2.889   2.565  11.573  0.4179  0.7846  0.0273
   36MPD2    C2  560   2.811   2.489  11.487 -0.1679 -0.0331 -0.2490
   36MPD2    C3  561   2.744   2.552  11.384 -0.3499 -0.0327  0.1450
   36MPD2    C4  562   2.759   2.687  11.378 -0.1458 -0.0514  0.2114
   36MPD2    C5  563   2.835   2.762  11.462  0.0277  0.6639  0.1868
   36MPD2     H  564   2.799   2.382  11.498 -0.9848  0.1782  0.9541
   36MPD2    H1  565   2.705   2.735  11.296  0.7674  1.0745  0.2750
   36MPD2    H2  566   2.949   2.764  11.636 -0.9899 -1.2593  1.7785
   36MPD2    H3  567   2.858   2.866  11.443 -0.2259  1.1244  2.4412
   36MPD2     N  568   2.661   2.473  11.300  0.2844  0.4840  0.7285
   36MPD2    H5  569   2.665   2.373  11.319 -0.5429  0.2571 -0.2920
   36MPD2    N1  570   2.956   2.515  11.685 -0.1444  0.5703  0.2995
   36MPD2    H7  571   2.995   2.583  11.749  0.6346  0.6316 -0.2396
   37TMC2    C1  572   0.685   2.423  11.452  0.6399  0.6382  0.0522
   37TMC2    C2  573   0.752   2.306  11.450 -0.0685 -0.1330  0.6252
   37TMC2    C3  574   0.800   2.273  11.328 -0.2702  0.7616  0.3564
   37TMC2    C4  575   0.666   2.508  11.347  0.7645 -0.0721  0.6855
   37TMC2    C5  576   0.743   2.481  11.235  0.0420  0.6983 -0.0448
   37TMC2    C6  577   0.802   2.360  11.220  0.1554 -0.6494 -0.4194
   37TMC2     C  578   0.630   2.470  11.573 -0.1694  0.1521  0.4509
   37TMC2     O  579   0.530   2.539  11.569  0.1333  0.4186  0.2579
   37TMC2     H  580   0.750   2.235  11.532 -0.3108 -1.4173 -0.4903
   37TMC2    H1  581   0.622   2.607  11.355 -1.4122 -1.1075  1.5431
   37TMC2    H2  582   0.858   2.325  11.134  1.2452  0.1750 -0.0445
   37TMC2    C7  583   0.771   2.590  11.146  0.4271  0.0608  0.0889
   37TMC2    C8  584   0.867   2.149  11.311 -0.1839 -0.5302  0.2944
   37TMC2    O1  585   0.720   2.694  11.181 -0.4887 -0.1610 -0.1835
   37TMC2    O2  586   0.900   2.115  11.198 -0.2343  0.2734 -0.0482
   37TMC2    O5  587   0.951   2.140  11.415  0.3509  0.0363 -0.3091
   37TMC2    H5  588   0.932   2.194  11.495 -0.9196 -0.2077 -0.4393
   38MPD2     C  589   0.685   2.571  12.083  0.0398  0.0607  0.1912
   38MPD2    C1  590   0.780   2.483  12.046 -0.0485  0.1690  0.2313
   38MPD2    C2  591   0.793   2.447  11.911 -0.5421  0.2735 -0.8314
   38MPD2    C3  592   0.695   2.476  11.814 -0.1861  0.4126 -0.1332
   38MPD2    C4  593   0.593   2.556  11.861  0.5953 -0.4242  0.6434
   38MPD2    C5  594   0.591   2.603  11.986  0.3917  0.3740 -1.0892
   38MPD2     H  595   0.879   2.383  11.894 -1.7890 -2.0251  1.3462
   38MPD2    H1  596   0.516   2.594  11.795  0.7955  0.7867  1.1081
   38MPD2    H2  597   0.692   2.620  12.179 -0.5628  0.6606 -0.0787
   38MPD2    H3  598   0.513   2.674  12.012 -1.7295 -1.7668 -1.5320
   38MPD2     N  599   0.707   2.423  11.680  0.1693  0.9205  0.0993
   38MPD2    H5  600   0.787   2.365  11.655  0.9394  1.4225  1.4158
   38MPD2    N1  601   0.883   2.456  12.132  0.1281  0.6452 -0.0630
   38MPD2    H7  602   0.966   2.419  12.087 -0.2647  1.8658 -1.7883
   39TMC2    C1  603   3.584   4.439   2.254  0.0622  0.0313 -0.6106
   39TMC2    C2  604   3.527   4.465   2.380 -0.4512 -0.4501 -1.1385
   39TMC2    C3  605   3.621   4.461   2.480  0.2037 -0.9155 -0.6666
   39TMC2    C4  606   3.717   4.424   2.236  0.5186 -0.3307 -0.6869
   39TMC2    C5  607   3.803   4.429   2.340  0.0841 -0.0949 -0.0953
   39TMC2    C6  608   3.753   4.447   2.463  0.3764  0.7993 -0.1838
   39TMC2     C  609   3.492   4.424   2.145 -0.4068 -0.2787 -0.4669
   39TMC2     O  610   3.374   4.436   2.173 -0.0218 -0.8206  0.2394
   39TMC2     H  611   3.425   4.485   2.412  0.4791  1.3162  0.7842
   39TMC2    H1  612   3.758   4.386   2.143  0.3745 -2.5126  0.1439
   39TMC2    H2  613   3.820   4.459   2.548  1.1058 -1.9685 -0.3453
   39TMC2    C7  614   3.949   4.424   2.326  0.4554  0.6686  0.1023
   39TMC2    C8  615   3.581   4.486   2.622 -0.3246  0.4244  0.1732
   39TMC2    O1  616   4.007   4.385   2.429 -0.3239  0.2861  0.4658
   39TMC2    O2  617   3.491   4.561   2.658  0.1468  0.4130  0.1772
   39TMC2    O5  618   3.654   4.414   2.703 -0.0221  0.3649 -0.1714
   39TMC2    H5  619   3.675   4.336   2.648  1.8638 -0.3455  1.5680
   40MPD2     C  620   3.587   4.403   1.792  0.1581 -0.1237 -0.1513
   40MPD2    C1  621   3.500   4.426   1.899  0.2430 -0.2305  0.3896
   40MPD2    C2  622   3.369   4.427   1.876  0.2796  0.1965 -0.4013
   40MPD2    C3  623   3.314   4.411   1.747 -0.2554 -0.1334  0.9336
   40MPD2    C4  624   3.399   4.414   1.638  0.3721  0.4228  0.0302
   40MPD2    C5  625   3.535   4.397   1.665  0.3586 -0.0166  0.3291
   40MPD2     H  626   3.303   4.442   1.960  1.3804  0.3123  0.4399
   40MPD2    H1  627   3.367   4.388   1.538 -0.9494  0.4927  0.4373
   40MPD2    H2  628   3.694   4.385   1.795  0.4869  1.6525 -1.3701
   40MPD2    H3  629   3.608   4.383   1.585 -0.6056  2.1695 -0.9475
   40MPD2     N  630   3.175   4.396   1.713  0.1787 -0.1203  0.5732
   40MPD2    H5  631   3.167   4.380   1.613 -2.3972  3.2214  0.2363
   40MPD2    N1  632   3.560   4.427   2.027 -1.1503 -0.0110  0.2244
   40MPD2    H7  633   3.662   4.427   2.028 -1.1454 -3.0286  0.0782
   41TMC2    C1  634   2.738   2.387  13.536  0.2062  0.1726  0.2169
   41TMC2    C2  635   2.806   2.350  13.649  0.2587  0.1215 -0.6021
   41TMC2    C3  636   2.936   2.332  13.641  0.0970 -1.2217 -0.0241
   41TMC2    C4  637   2.796   2.397  13.417  0.0768 -0.1320  0.4456
   41TMC2    C5  638   2.931   2.382  13.409 -0.2449 -0.5046 -0.0105
   41TMC2    C6  639   3.003   2.354  13.526 -0.1225  0.0717 -0.2126
   41TMC2     C  640   2.591   2.375  13.530  0.5355 -0.0316  0.0245
   41TMC2     O  641   2.532   2.354  13.419 -0.0375  0.1480  0.2026
   41TMC2     H  642   2.757   2.335  13.745  0.4624 -0.5718 -0.6094
   41TMC2    H1  643   2.741   2.432  13.330  2.1179  0.0493 -0.7548
   41TMC2    H2  644   3.111   2.355  13.529 -0.1663  0.6929  1.3758
   41TMC2    C7  645   3.000   2.464  13.315  0.3001  0.1108  0.2104
   41TMC2    C8  646   3.017   2.316  13.757  0.0035  0.4472 -0.0252
   41TMC2    O1  647   3.092   2.538  13.348  0.2244  0.5187 -0.0680
   41TMC2    O2  648   3.133   2.341  13.763  0.7992  0.1871 -0.1458
   41TMC2    O5  649   2.963   2.217  13.834  0.2529 -0.4086  0.4790
   41TMC2    H5  650   2.873   2.190  13.805  0.4086  2.2078 -2.3803
   42MPD2     C  651   2.318   2.279  13.623 -0.0186  0.4965  0.3529
   42MPD2    C1  652   2.405   2.358  13.697 -0.4048 -0.0769  0.0013
   42MPD2    C2  653   2.361   2.407  13.822 -0.6078 -0.1661  0.0689
   42MPD2    C3  654   2.242   2.358  13.872  0.1026  1.0035 -1.3194
   42MPD2    C4  655   2.159   2.270  13.802 -0.0443  0.4549 -0.4885
   42MPD2    C5  656   2.201   2.232  13.678  0.2248  0.3245 -0.7813
   42MPD2     H  657   2.425   2.479  13.873 -0.3901 -0.1058 -0.2862
   42MPD2    H1  658   2.064   2.234  13.839  0.3768 -0.5278 -0.3676
   42MPD2    H2  659   2.354   2.247  13.526  1.2642  0.9563  0.6797
   42MPD2    H3  660   2.140   2.164  13.620 -1.4587  0.9633  0.2414
   42MPD2     N  661   2.196   2.394  13.996 -0.0266  0.0781  0.6659
   42MPD2    H5  662   2.099   2.376  14.022 -0.8025  1.2361 -1.3822
   42MPD2    N1  663   2.539   2.384  13.654  0.5980 -0.0957 -0.5007
   42MPD2    H7  664   2.596   2.416  13.732 -0.7732  0.8236  0.1239
   43TMC2    C1  665   4.266   0.533   1.052  0.3337  0.1959 -1.0342
   43TMC2    C2  666   4.155   0.619   1.050 -0.2934  0.0658  0.3246
   43TMC2    C3  667   4.088   0.650   1.168 -0.3066 -0.2031 -0.5312
   43TMC2    C4  668   4.301   0.476   1.175 -0.6356 -0.0191  0.5482
   43TMC2    C5  669   4.226   0.496   1.284 -0.1224  0.2400  0.3062
   43TMC2    C6  670   4.119   0.577   1.283  0.1525  0.0432 -0.0657
   43TMC2     C  671   4.361   0.522   0.943 -0.5387  0.0748  0.1795
   43TMC2     O  672   4.444   0.433   0.945  0.1516 -0.2861 -0.2477
   43TMC2     H  673   4.113   0.642   0.953  3.3046  2.5802 -0.6540
   43TMC2    H1  674   4.392   0.417   1.170 -1.0527 -0.5627 -0.6346
   43TMC2    H2  675   4.062   0.596   1.373  3.3991  0.8583  1.8347
   43TMC2    C7  676   4.269   0.424   1.406  0.0450 -0.3856 -0.7288
   43TMC2    C8  677   3.978   0.737   1.163 -0.5003 -0.3124 -0.1486
   43TMC2    O1  678   4.373   0.357   1.385 -0.2494 -0.3046 -0.5885
   43TMC2    O2  679   3.898   0.746   1.257  0.0025 -0.0894  0.1405
   43TMC2    O5  680   4.006   0.850   1.088 -0.1919  0.3307  0.1529
   43TMC2    H5  681   4.092   0.849   1.040  0.9245 -0.0068  2.1730
   44MPD2     C  682   4.562   0.691   0.502 -0.2744 -0.6315 -0.1900
   44MPD2    C1  683   4.577   0.570   0.565  0.2113 -0.0983  0.3290
   44MPD2    C2  684   4.504   0.548   0.681  0.6198 -0.4498  0.4519
   44MPD2    C3  685   4.410   0.636   0.734  0.1047  0.2432  0.2104
   44MPD2    C4  686   4.386   0.747   0.661  0.5278  0.8787  0.0023
   44MPD2    C5  687   4.460   0.777   0.547 -0.8347 -0.5822  0.5445
   44MPD2     H  688   4.520   0.452   0.729 -1.5832 -1.3527 -0.6030
   44MPD2    H1  689   4.318   0.826   0.693 -0.4533  0.0049  0.0607
   44MPD2    H2  690   4.625   0.721   0.418 -1.0811 -1.0327 -0.9338
   44MPD2    H3  691   4.458   0.872   0.496 -0.4320 -2.0331 -2.2022
   44MPD2     N  692   4.348   0.631   0.859  0.0572 -0.0667 -0.2983
   44MPD2    H5  693   4.279   0.701   0.885 -0.8207 -0.4379 -1.6328
   44MPD2    N1  694   4.669   0.470   0.523  0.2827 -0.6590 -0.0424
   44MPD2    H7  695   4.686   0.388   0.580  0.6928 -0.9972 -0.6497
   45TMC2    C1  696   4.216   1.446   9.322  0.0382  0.8383  0.7373
   45TMC2    C2  697   4.317   1.364   9.279  0.5492  0.4369 -0.4702
   45TMC2    C3  698   4.443   1.390   9.324  0.8871  0.0065  0.2217
   45TMC2    C4  699   4.229   1.560   9.401  0.2482  0.5723 -0.3401
   45TMC2    C5  700   4.364   1.581   9.432  0.3794  0.0016  0.0475
   45TMC2    C6  701   4.469   1.505   9.393 -0.8872  0.3402  0.6181
   45TMC2     C  702   4.075   1.402   9.305 -0.1726 -0.5205  0.4021
   45TMC2     O  703   4.058   1.282   9.300  0.1595  0.1686 -0.5850
   45TMC2     H  704   4.295   1.288   9.204 -1.1302  1.8013 -1.3803
   45TMC2    H1  705   4.145   1.619   9.437  1.0773  0.7258  1.3236
   45TMC2    H2  706   4.575   1.514   9.416 -0.5033  2.3058 -1.7847
   45TMC2    C7  707   4.385   1.701   9.501 -0.7514 -0.6842 -0.3927
   45TMC2    C8  708   4.563   1.335   9.265 -0.2782  0.6129  0.6198
   45TMC2    O1  709   4.298   1.761   9.566 -0.2779 -0.5202 -0.4388
   45TMC2    O2  710   4.661   1.408   9.247  0.1724  0.0200  0.1474
   45TMC2    O5  711   4.547   1.200   9.265 -0.0164 -0.2323 -0.6723
   45TMC2    H5  712   4.465   1.172   9.311  0.0523  0.9184  0.1520
   46MPD2     C  713   3.771   1.375   9.255 -0.4689  0.2440 -0.4695
   46MPD2    C1  714   3.840   1.495   9.279 -0.4814 -0.3347  0.7698
   46MPD2    C2  715   3.761   1.604   9.308 -0.4736 -0.2292  0.4774
   46MPD2    C3  716   3.621   1.595   9.301  0.2867  0.7098 -0.4167
   46MPD2    C4  717   3.556   1.479   9.256  0.0983  0.0664  0.2082
   46MPD2    C5  718   3.638   1.369   9.232 -0.0932  0.7731 -0.2031
   46MPD2     H  719   3.798   1.706   9.311 -2.1389  0.3510  1.1676
   46MPD2    H1  720   3.450   1.470   9.236 -0.3747  0.4614  2.5738
   46MPD2    H2  721   3.831   1.287   9.235  1.9117  1.5295  1.0020
   46MPD2    H3  722   3.600   1.272   9.202 -1.1403  1.1569 -0.1284
   46MPD2     N  723   3.552   1.710   9.328 -0.0878  0.0968  0.1053
   46MPD2    H5  724   3.602   1.797   9.347 -0.4947  0.6481 -1.3701
   46MPD2    N1  725   3.982   1.510   9.300 -0.0257  0.6148  0.0180
   46MPD2    H7  726   4.005   1.605   9.327 -2.1024  0.6081  1.8118
   47TMC2    C1  727   2.212   2.933   8.582 -0.5973 -0.1662  0.0632
   47TMC2    C2  728   2.210   2.942   8.445  0.2642  0.2010 -0.1133
   47TMC2    C3  729   2.091   2.929   8.380 -0.0513  0.3077  0.2298
   47TMC2    C4  730   2.098   2.937   8.660  0.5162  0.2630  0.2272
   47TMC2    C5  731   1.984   2.911   8.592 -0.4362 -0.1813  0.5748
   47TMC2    C6  732   1.979   2.896   8.457 -0.5145  0.7784 -0.2528
   47TMC2     C  733   2.337   2.947   8.641 -0.6358  0.4036 -0.0474
   47TMC2     O  734   2.425   3.003   8.576  0.3215 -0.0615 -0.9518
   47TMC2     H  735   2.301   2.945   8.387  0.9601  2.6868  1.1195
   47TMC2    H1  736   2.103   2.952   8.767 -0.5829  2.0290  0.0312
   47TMC2    H2  737   1.893   2.862   8.400  0.8940  1.6700 -2.9347
   47TMC2    C7  738   1.856   2.874   8.651 -0.1806 -0.0750  0.1180
   47TMC2    C8  739   2.085   2.906   8.232  0.1196 -0.9157 -0.8570
   47TMC2    O1  740   1.767   2.847   8.572  0.0407  0.2915 -0.5505
   47TMC2    O2  741   2.004   2.827   8.187 -0.2993 -0.3270 -0.0929
   47TMC2    O5  742   2.126   3.022   8.169 -0.1003  0.2433  0.5189
   47TMC2    H5  743   2.187   3.080   8.219  1.1047 -0.5966  0.0307
   48MPD2     C  744   2.575   2.959   8.831 -0.1438  0.2148  0.1049
   48MPD2    C1  745   2.457   2.884   8.848  0.1886  0.3064 -0.5809
   48MPD2    C2  746   2.449   2.801   8.960 -0.1316  0.4678  0.8516
   48MPD2    C3  747   2.551   2.786   9.047  0.4169 -0.8834 -0.1062
   48MPD2    C4  748   2.672   2.851   9.021 -0.2510  0.4068 -0.0218
   48MPD2    C5  749   2.684   2.938   8.916  0.3562 -0.2347  0.0935
   48MPD2     H  750   2.357   2.746   8.978  0.2768 -0.8378 -1.1038
   48MPD2    H1  751   2.760   2.839   9.084  1.6371 -1.9626 -3.1461
   48MPD2    H2  752   2.584   3.027   8.747  4.8280  1.2804  1.4867
   48MPD2    H3  753   2.773   3.000   8.912  1.4259 -1.6562  2.0083
   48MPD2     N  754   2.529   2.709   9.157 -0.8571 -0.0088 -0.6706
   48MPD2    H5  755   2.435   2.672   9.171 -0.8633  1.0524  2.0473
   48MPD2    N1  756   2.342   2.889   8.767 -0.2950 -0.3193 -0.6839
   48MPD2    H7  757   2.270   2.827   8.804  1.0628 -1.0076  0.7923
   49TMC2    C1  758   0.211   0.754  11.646  0.0667  0.5984  0.4171
   49TMC2    C2  759   0.286   0.835  11.567 -0.0194 -0.5295 -0.1497
   49TMC2    C3  760   0.301   0.797  11.433  0.4017  0.0209 -0.1282
   49TMC2    C4  761   0.156   0.641  11.593  0.3034  0.1461 -0.1519
   49TMC2    C5  762   0.176   0.601  11.458  0.3130  0.2427 -0.3391
   49TMC2    C6  763   0.261   0.679  11.376  0.0604 -0.1504  0.8177
   49TMC2     C  764   0.188   0.808  11.777 -0.2635  0.2757  0.2842
   49TMC2     O  765   0.270   0.894  11.814 -0.6642  0.2249 -0.0017
   49TMC2     H  766   0.338   0.925  11.597 -2.2888  0.9044 -0.4956
   49TMC2    H1  767   0.112   0.570  11.663 -2.0381  1.0111 -0.7473
   49TMC2    H2  768   0.272   0.653  11.272  0.4077  0.6549  0.6569
   49TMC2    C7  769   0.113   0.483  11.408  0.2045 -0.7704  0.0860
   49TMC2    C8  770   0.405   0.860  11.356  0.4253  0.0391  0.7879
   49TMC2    O1  771   0.132   0.441  11.295  0.4049  0.5192  0.1870
   49TMC2    O2  772   0.406   0.866  11.238 -0.3824  0.3388  0.0943
   49TMC2    O5  773   0.519   0.822  11.416  0.4307 -0.2577 -0.0285
   49TMC2    H5  774   0.513   0.829  11.513  1.5159 -0.9392  0.0821
   50MPD2     C  775   0.137   0.873  12.062  0.1005  0.0774 -0.7563
   50MPD2    C1  776   0.072   0.772  11.991  0.0440 -0.5908 -0.2050
   50MPD2    C2  777   4.715   0.694  12.059  0.3602 -0.3052 -0.1025
   50MPD2    C3  778   4.680   0.710  12.190 -0.0966  0.1122 -0.4248
   50MPD2    C4  779   0.007   0.811  12.257 -0.8502 -0.2012 -0.3352
   50MPD2    C5  780   0.103   0.890  12.197 -0.7467 -0.3446  0.1465
   50MPD2     H  781   4.668   0.617  11.999  0.4159 -0.3788 -0.0513
   50MPD2    H1  782   4.731   0.828  12.363 -0.7643  1.5915 -0.6059
   50MPD2    H2  783   0.222   0.928  12.022 -1.5412  2.3461 -1.1369
   50MPD2    H3  784   0.153   0.962  12.261  0.1903  1.3739 -2.4652
   50MPD2     N  785   4.584   0.636  12.258  0.3886  0.1144 -0.1186
   50MPD2    H5  786   4.535   0.692  12.327 -0.4083 -2.4685  1.4044
   50MPD2    N1  787   0.089   0.752  11.850 -0.1534 -0.4467 -0.0066
   50MPD2    H7  788   0.022   0.696  11.799  1.7117 -1.2356 -1.5916
   51TMC2    C1  789   0.628   0.256   1.332 -0.1225 -0.3530  0.2473
   51TMC2    C2  790   0.544   0.307   1.233 -1.7333  0.7180  0.4158
   51TMC2    C3  791   0.604   0.395   1.143 -0.0919 -0.3128  0.7334
   51TMC2    C4  792   0.755   0.307   1.342 -0.6977  0.4576  0.5186
   51TMC2    C5  793   0.807   0.389   1.250  0.1934  0.4198  0.0387
   51TMC2    C6  794   0.729   0.440   1.147 -0.6651 -0.4146 -0.3214
   51TMC2     C  795   0.607   0.126   1.395 -0.6589  0.1248 -0.0221
   51TMC2     O  796   0.707   0.066   1.426  0.9015  0.0175  0.1818
   51TMC2     H  797   0.450   0.259   1.209 -0.1845 -3.5560  2.8607
   51TMC2    H1  798   0.808   0.275   1.432  0.8740 -0.0224 -0.5787
   51TMC2    H2  799   0.764   0.489   1.057 -1.3156  0.9952  0.1973
   51TMC2    C7  800   0.945   0.408   1.248 -0.9335 -0.0779  0.2289
   51TMC2    C8  801   0.523   0.451   1.030 -0.6525  0.5503 -0.4838
   51TMC2    O1  802   1.009   0.327   1.313 -0.2885  0.1341 -0.2379
   51TMC2    O2  803   0.567   0.476   0.920 -0.0020  0.3168 -0.4376
   51TMC2    O5  804   0.408   0.504   1.072 -0.0206  0.1959  0.7141
   51TMC2    H5  805   0.392   0.483   1.166  1.4039 -0.3152  0.8449
   52MPD2     C  806   0.313   4.447   1.512  0.2286 -0.1114 -0.1115
   52MPD2    C1  807   0.454   4.458   1.489  0.6967 -0.0592  0.0883
   52MPD2    C2  808   0.502   4.585   1.466 -0.4751  0.0663 -0.1571
   52MPD2    C3  809   0.428   4.699   1.456 -0.9346 -0.0583  0.3096
   52MPD2    C4  810   0.296   4.687   1.480 -0.2739 -0.1041  0.5017
   52MPD2    C5  811   0.243   4.567   1.516 -0.0643  0.1936 -0.0904
   52MPD2     H  812   0.608   4.587   1.443 -1.0556  0.5665 -2.8361
   52MPD2    H1  813   0.225   0.034   1.480  1.7593  1.6535 -1.0367
   52MPD2    H2  814   0.261   4.354   1.529  0.5286 -0.3853 -0.6714
   52MPD2    H3  815   0.135   4.563   1.520 -0.0738  1.6323  1.0174
   52MPD2     N  816   0.473   0.092   1.407 -0.1186 -0.2453 -0.4792
   52MPD2    H5  817   0.399   0.160   1.392  1.8087  1.8541 -0.3805
   52MPD2    N1  818   0.545   4.347   1.489 -0.5899  0.0212 -0.2075
   52MPD2    H7  819   0.642   4.367   1.471 -0.0464 -2.7464 -0.3848
   53TMC2    C1  820   0.974   3.256  10.951 -0.0938 -0.2064 -0.2730
   53TMC2    C2  821   0.957   3.362  10.863  0.0533 -0.7669  0.6670
   53TMC2    C3  822   0.909   3.472  10.920  0.2834 -0.2501  0.4037
   53TMC2    C4  823   0.937   3.257  11.082 -0.5551  0.8081  0.9533
   53TMC2    C5  824   0.882   3.364  11.133  0.3747  0.2802 -0.0318
   53TMC2    C6  825   0.867   3.472  11.053  0.4074 -0.3100 -0.6405
   53TMC2     C  826   1.017   3.133  10.887  0.6631  0.1666  0.3497
   53TMC2     O  827   1.111   3.137  10.812 -0.2232  0.5890  0.2289
   53TMC2     H  828   1.001   3.353  10.764 -0.9042 -0.1022  0.1790
   53TMC2    H1  829   0.940   3.167  11.143 -0.0963 -0.1641 -0.4994
   53TMC2    H2  830   0.816   3.558  11.094 -0.2366  0.4983 -3.1151
   53TMC2    C7  831   0.821   3.362  11.270  0.6947  0.4429 -0.7074
   53TMC2    C8  832   0.879   3.583  10.835  0.4980  0.3240 -0.8094
   53TMC2    O1  833   0.723   3.430  11.283  0.3692 -0.1643 -0.0566
   53TMC2    O2  834   0.906   3.584  10.715  0.9048  0.1223  0.1151
   53TMC2    O5  835   0.834   3.692  10.896  0.4461  0.2967  0.1248
   53TMC2    H5  836   0.834   3.684  10.994  2.7451 -1.1303  0.0069
   54MPD2     C  837   1.055   2.842  10.806 -0.3956  0.5596 -0.1483
   54MPD2    C1  838   0.956   2.895  10.893 -0.1007 -0.2227 -0.2612
   54MPD2    C2  839   0.893   2.797  10.972 -0.5569 -0.1212  0.2564
   54MPD2    C3  840   0.909   2.661  10.951 -0.4579  0.3438  0.0421
   54MPD2    C4  841   0.994   2.612  10.859 -0.4963  0.3000 -0.2748
   54MPD2    C5  842   1.076   2.700  10.793  0.6665  0.6587 -0.1804
   54MPD2     H  843   0.816   2.838  11.036  3.0223  3.0212  2.5241
   54MPD2    H1  844   1.011   2.507  10.839 -0.1696  0.3748 -0.3889
   54MPD2    H2  845   1.130   2.897  10.750  1.2297 -0.7278  0.7600
   54MPD2    H3  846   1.151   2.663  10.725 -0.7887 -0.9482 -0.9146
   54MPD2     N  847   0.853   2.564  11.045 -0.0358 -0.4820  0.1936
   54MPD2    H5  848   0.868   2.466  11.023  1.7557 -0.1258 -0.1291
   54MPD2    N1  849   0.930   3.030  10.922 -0.2082 -0.2277  0.6594
   54MPD2    H7  850   0.872   3.059  11.000  0.7999  2.6236  0.3560
   55TMC2    C1  851   2.377   1.193   0.172 -0.0539  0.4398 -0.1189
   55TMC2    C2  852   2.453   1.202   0.055 -0.2749  0.5728  0.4601
   55TMC2    C3  853   2.556   1.108   0.050 -0.6427  0.4099  0.4375
   55TMC2    C4  854   2.409   1.118   0.279  0.2016  0.5169 -0.6136
   55TMC2    C5  855   2.511   1.030   0.264  0.2034 -0.8125  0.1283
   55TMC2    C6  856   2.584   1.020   0.152  1.3414  0.2162 -0.5870
   55TMC2     C  857   2.242   1.255   0.174 -0.0533  0.8024 -0.2386
   55TMC2     O  858   2.183   1.240   0.279  0.2657  0.3024  0.5905
   55TMC2     H  859   2.442   1.278  17.718  0.5879  0.1898 -0.0488
   55TMC2    H1  860   2.340   1.101   0.361  1.8032 -2.6213  0.0497
   55TMC2    H2  861   2.657   0.940   0.141  0.9197 -0.3957  1.0592
   55TMC2    C7  862   2.497   0.903   0.336  0.0742 -0.1993 -0.7603
   55TMC2    C8  863   2.666   1.146  17.698  0.3476  0.0428  0.3899
   55TMC2    O1  864   2.534   0.806   0.267  0.3508  0.5812 -0.4208
   55TMC2    O2  865   2.650   1.242  17.623 -0.1203  0.3985  0.2451
   55TMC2    O5  866   2.785   1.092  17.735 -0.6278 -0.1208  0.4570
   55TMC2    H5  867   2.797   1.031   0.071  1.2722 -2.0036 -1.3860
   56MPD2     C  868   2.050   1.395  17.623  0.1065  0.0715  0.2161
   56MPD2    C1  869   2.067   1.339   0.011  0.4935 -0.5759 -0.3843
   56MPD2    C2  870   1.959   1.333   0.099 -0.6261  0.0544  0.0741
   56MPD2    C3  871   1.834   1.383   0.047  0.0621  0.6615 -0.1011
   56MPD2    C4  872   1.826   1.440  17.658 -0.1105  0.0700 -0.3529
   56MPD2    C5  873   1.935   1.445  17.575  0.2824 -0.0803 -0.3769
   56MPD2     H  874   1.965   1.287   0.197  1.8932 -0.5649 -0.3768
   56MPD2    H1  875   1.736   1.491  17.625  1.1336  1.0200 -2.2641
   56MPD2    H2  876   2.136   1.410  17.558 -0.2725  1.4368  0.0290
   56MPD2    H3  877   1.910   1.476  17.474 -1.3603  2.8985  0.9400
   56MPD2     N  878   1.737   1.383   0.140 -0.2033  0.1306  0.0470
   56MPD2    H5  879   1.761   1.346   0.231 -2.2750 -0.6530  0.2696
   56MPD2    N1  880   2.197   1.292   0.047  0.2234 -0.7808  0.2589
   56MPD2    H7  881   2.270   1.288  17.716  1.0605 -0.5183  1.1171
   57TMC2    C1  882   0.604   1.392  13.882  0.0543  0.5729 -0.1225
   57TMC2    C2  883   0.706   1.337  13.956 -0.5267 -0.0331 -0.0246
   57TMC2    C3  884   0.736   1.211  13.917  0.9275 -0.0197  0.5193
   57TMC2    C4  885   0.532   1.316  13.790 -0.2320 -0.0405 -1.0737
   57TMC2    C5  886   0.563   1.185  13.765  0.1256 -0.3432 -0.6439
   57TMC2    C6  887   0.679   1.138  13.820  0.0403 -0.2331 -0.3920
   57TMC2     C  888   0.563   1.527  13.901 -0.2733 -0.3333 -0.4087
   57TMC2     O  889   0.482   1.565  13.816  0.1257  0.0692  0.1135
   57TMC2     H  890   0.773   1.389  14.024 -3.5187  1.9950  1.4106
   57TMC2    H1  891   0.441   1.359  13.749 -0.1728  0.2745 -0.8768
   57TMC2    H2  892   0.717   1.040  13.794 -0.5361 -0.7052  0.5530
   57TMC2    C7  893   0.506   1.122  13.649 -0.0743 -0.1764  0.3151
   57TMC2    C8  894   0.821   1.135  14.006  0.4855 -0.2245  1.0325
   57TMC2    O1  895   0.392   1.156  13.616  0.3000 -0.3884  0.5040
   57TMC2    O2  896   0.864   1.027  13.964  0.6210  0.1354 -0.5749
   57TMC2    O5  897   0.762   1.152  14.124  0.0969 -0.0705 -0.7326
   57TMC2    H5  898   0.690   1.218  14.121  2.5370  2.6544  0.4858
   58MPD2     C  899   0.616   2.019  14.021 -1.1125 -0.2014 -0.3052
   58MPD2    C1  900   0.559   1.956  13.911 -0.4781  0.3145 -0.3338
   58MPD2    C2  901   0.562   1.820  13.909  0.9776  0.8982  0.2814
   58MPD2    C3  902   0.611   1.739  14.012 -0.1342 -0.3357 -0.6356
   58MPD2    C4  903   0.679   1.801  14.113  0.1655  0.2816  0.5798
   58MPD2    C5  904   0.676   1.941  14.114 -0.1622 -0.1369 -0.2789
   58MPD2     H  905   0.524   1.778  13.817  0.8937 -0.1213  0.7793
   58MPD2    H1  906   0.721   1.743  14.194  1.5241  0.1322 -0.2398
   58MPD2    H2  907   0.610   2.127  14.032 -0.4205 -0.1988  0.0246
   58MPD2    H3  908   0.724   1.980  14.202 -1.1716 -1.6059  0.9131
   58MPD2     N  909   0.610   1.597  14.004 -0.0028  0.2989 -0.0827
   58MPD2    H5  910   0.654   1.549  14.082  1.2468  0.9655 -0.3685
   58MPD2    N1  911   0.492   2.013  13.802  0.4012  0.3151 -0.2602
   58MPD2    H7  912   0.439   1.956  13.737 -0.2311  0.3543  0.2144
   59TMC2    C1  913   3.675   1.461  12.224  0.2293  0.5585 -0.0312
   59TMC2    C2  914   3.681   1.367  12.320 -0.0235 -0.7655  0.1147
   59TMC2    C3  915   3.560   1.309  12.353  0.5258 -0.7655 -0.2906
   59TMC2    C4  916   3.555   1.485  12.157  0.9095  0.1988  0.1827
   59TMC2    C5  917   3.438   1.425  12.202 -0.7650 -0.1823 -0.2594
   59TMC2    C6  918   3.435   1.342  12.309  0.3407  0.1007 -1.1948
   59TMC2     C  919   3.778   1.569  12.233  0.2339  0.1140  0.4749
   59TMC2     O  920   3.795   1.624  12.123 -0.3949 -0.6858 -0.4988
   59TMC2     H  921   3.776   1.346  12.369 -0.3217  2.2855  1.9515
   59TMC2    H1  922   3.553   1.558  12.076 -0.3345 -0.5426 -0.4575
   59TMC2    H2  923   3.345   1.297  12.348 -0.6844  0.1842 -3.4378
   59TMC2    C7  924   3.304   1.453  12.146 -0.0039 -0.7647  0.7366
   59TMC2    C8  925   3.565   1.193  12.439  0.0427  0.0692 -0.0575
   59TMC2    O1  926   3.223   1.363  12.148  0.2992 -0.4317 -0.1294
   59TMC2    O2  927   3.482   1.157  12.528  0.3023  0.0373 -0.2396
   59TMC2    O5  928   3.657   1.114  12.375 -0.5186 -0.1609  0.3640
   59TMC2    H5  929   3.693   1.156  12.294 -0.0442 -2.7974 -0.8117
   60MPD2     C  930   3.946   1.799  12.293  0.0062  0.2680  0.2062
   60MPD2    C1  931   3.880   1.726  12.391  0.0433  0.0296  0.7031
   60MPD2    C2  932   3.868   1.779  12.521 -0.2301  0.3197 -0.2606
   60MPD2    C3  933   3.928   1.898  12.553 -0.2507 -0.4679  0.4514
   60MPD2    C4  934   3.987   1.972  12.450  1.0608 -0.2698  0.9162
   60MPD2    C5  935   4.000   1.921  12.322 -0.0067  0.2523  0.8457
   60MPD2     H  936   3.809   1.721  12.590 -1.3735 -0.2782 -1.7363
   60MPD2    H1  937   4.021   2.072  12.473  1.2210  0.0410 -0.6682
   60MPD2    H2  938   3.972   1.763  12.195  0.6788  0.6745  0.2309
   60MPD2    H3  939   4.058   1.985  12.256 -0.2353 -0.4423 -0.0232
   60MPD2     N  940   3.926   1.960  12.679  0.3481 -0.2023  0.7837
   60MPD2    H5  941   3.955   2.057  12.690  0.7262 -0.1037 -0.9846
   60MPD2    N1  942   3.815   1.603  12.362 -0.5451 -0.0338 -0.6262
   60MPD2    H7  943   3.777   1.548  12.438 -0.3628  0.5640 -0.1071
   61TMC2    C1  944   2.805   2.819  15.382  0.1646  0.6358 -0.0235
   61TMC2    C2  945   2.772   2.783  15.511  0.2858 -0.0207 -0.8823
   61TMC2    C3  946   2.702   2.873  15.585 -0.0076  0.4713  0.5606
   61TMC2    C4  947   2.757   2.930  15.317 -0.5280  0.5007  0.3799
   61TMC2    C5  948   2.703   3.029  15.406 -0.3739 -0.1729 -0.5877
   61TMC2    C6  949   2.677   2.998  15.534 -0.1883 -0.2903 -0.0210
   61TMC2     C  950   2.894   2.727  15.309 -0.2656  0.2199  0.4121
   61TMC2     O  951   2.892   2.607  15.344 -0.0267  0.3498  0.3324
   61TMC2     H  952   2.815   2.693  15.554  2.2222  0.7456 -1.2481
   61TMC2    H1  953   2.778   2.948  15.212 -0.6195  0.7151  0.3992
   61TMC2    H2  954   2.634   3.070  15.603  3.0287  0.3422  1.2839
   61TMC2    C7  955   2.702   3.165  15.358  0.1964  0.1517 -0.0963
   61TMC2    C8  956   2.709   2.871  15.731  0.4859  0.0662 -0.3510
   61TMC2    O1  957   2.750   3.177  15.245 -0.0759 -0.0743  0.0174
   61TMC2    O2  958   2.718   2.964  15.806 -0.3201  0.3645  0.4032
   61TMC2    O5  959   2.714   2.737  15.775 -0.6472  0.2401  0.3863
   61TMC2    H5  960   2.700   2.670  15.705  1.9028 -0.1324  0.2217
   62MPD2     C  961   3.072   2.592  15.097  0.7443  0.2503  0.3516
   62MPD2    C1  962   3.021   2.725  15.095 -0.3202  0.8671  0.0626
   62MPD2    C2  963   3.046   2.807  14.983  0.3147  0.7588 -0.0833
   62MPD2    C3  964   3.112   2.755  14.871 -0.2276 -0.7344  0.2402
   62MPD2    C4  965   3.159   2.630  14.880  0.6792 -0.4207 -0.0741
   62MPD2    C5  966   3.137   2.554  14.987 -0.0753 -0.4614 -0.2197
   62MPD2     H  967   3.007   2.908  14.979  0.6207  0.9037  0.6377
   62MPD2    H1  968   3.207   2.582  14.795  0.3838  2.0527 -1.6132
   62MPD2    H2  969   3.061   2.524  15.181 -0.5565  1.3011  1.0233
   62MPD2    H3  970   3.174   2.453  14.986  2.4889  0.4940 -0.9234
   62MPD2     N  971   3.102   2.825  14.752 -0.1083 -0.3094 -0.5498
   62MPD2    H5  972   3.041   2.906  14.747  2.1318  1.4417  0.0288
   62MPD2    N1  973   2.945   2.784  15.193  0.1908 -0.3459 -0.3485
   62MPD2    H7  974   2.923   2.883  15.185  1.5966  0.2047  2.8227
   63TMC2    C1  975   1.765   2.575  10.690 -1.1850  1.2568 -0.1598
   63TMC2    C2  976   1.746   2.613  10.822  1.0059  0.2019  0.8267
   63TMC2    C3  977   1.813   2.722  10.864  0.2983  0.2582  0.0479
   63TMC2    C4  978   1.850   2.647  10.611 -0.4570 -0.7090  0.0399
   63TMC2    C5  979   1.913   2.757  10.663 -0.4567 -0.2889 -0.2133
   63TMC2    C6  980   1.893   2.801  10.788  0.5471  0.3041 -0.0656
   63TMC2     C  981   1.699   2.452  10.646 -0.3175 -0.1099  0.0169
   63TMC2     O  982   1.667   2.376  10.736 -0.1950 -0.2584  0.1238
   63TMC2     H  983   1.661   2.568  10.873 -0.1674  0.8216 -0.5640
   63TMC2    H1  984   1.879   2.605  10.515  2.7197  2.1919 -0.2411
   63TMC2    H2  985   1.945   2.880  10.840  3.0130  0.3648 -2.6325
   63TMC2    C7  986   1.992   2.848  10.586 -0.0107 -0.1789  0.3952
   63TMC2    C8  987   1.776   2.780  10.993 -0.3013  0.8505 -0.7678
   63TMC2    O1  988   1.975   2.856  10.470 -0.4240  0.4872 -0.2895
   63TMC2    O2  989   1.760   2.902  10.999 -0.1788  0.3437 -0.2727
   63TMC2    O5  990   1.808   2.694  11.096 -0.2818 -0.0074  0.1164
   63TMC2    H5  991   1.822   2.601  11.070 -1.1975  0.3370 -1.6011
   64MPD2     C  992   1.485   2.127  10.322 -0.7461  0.2315 -0.1231
   64MPD2    C1  993   1.564   2.098  10.436 -0.4465 -0.2013  0.1767
   64MPD2    C2  994   1.629   2.209  10.491  0.4755 -0.4318  0.2930
   64MPD2    C3  995   1.611   2.341  10.448  0.4434 -0.5039 -0.1466
   64MPD2    C4  996   1.535   2.362  10.336 -0.1027  0.0035  0.2190
   64MPD2    C5  997   1.476   2.254  10.274 -0.1685 -0.2886 -0.3848
   64MPD2     H  998   1.688   2.183  10.578 -0.3630  2.1900  1.6770
   64MPD2    H1  999   1.507   2.460  10.299 -1.3821 -0.7361 -0.7830
   64MPD2    H2 1000   1.430   2.049  10.270 -2.6430  0.9040  0.8893
   64MPD2    H3 1001   1.418   2.258  10.183 -0.3235 -2.4321 -0.3630
   64MPD2     N 1002   1.664   2.456  10.516 -0.1070 -0.6789 -0.3119
   64MPD2    H5 1003   1.661   2.543  10.464 -2.2405  0.2188  1.3476
   64MPD2    N1 1004   1.589   1.970  10.477 -0.1355  0.0727 -0.7085
   64MPD2    H7 1005   1.659   1.968  10.550 -2.0571 -0.4538  1.1044
   65TMC2    C1 1006   3.773   2.658  15.390  0.7240 -0.2902 -0.6642
   65TMC2    C2 1007   3.839   2.603  15.284  0.7953 -0.3191 -0.5076
   65TMC2    C3 1008   3.865   2.690  15.189 -0.5341 -0.2579  0.0667
   65TMC2    C4 1009   3.740   2.792  15.400  0.5386  0.4957 -1.1464
   65TMC2    C5 1010   3.786   2.878  15.306 -0.8189  0.2678  0.0965
   65TMC2    C6 1011   3.839   2.829  15.193 -0.3157 -0.5599  0.6685
   65TMC2     C 1012   3.696   2.566  15.468 -0.3498 -0.7372 -0.0213
   65TMC2     O 1013   3.638   2.609  15.567 -0.0566 -0.4742  0.5187
   65TMC2     H 1014   3.876   2.501  15.293  1.8764  0.1262  0.1391
   65TMC2    H1 1015   3.683   2.824  15.486  2.2906  0.2707  0.0833
   65TMC2    H2 1016   3.860   2.893  15.109 -1.4634  0.4664  1.1544
   65TMC2    C7 1017   3.692   2.992  15.272  0.5179  1.0594 -0.1072
   65TMC2    C8 1018   3.948   2.639  15.082 -0.2598  0.3910 -0.0122
   65TMC2    O1 1019   3.683   3.040  15.157 -0.0930  0.4939  0.4081
   65TMC2    O2 1020   4.029   2.709  15.017 -0.0566  0.0081  0.2577
   65TMC2    O5 1021   3.866   2.550  15.031  0.5041 -0.1719 -0.2264
   65TMC2    H5 1022   3.805   2.512  15.098 -0.6377  3.0141  0.5226
   66MPD2     C 1023   3.569   2.323  15.570 -0.4493  0.2859 -0.0328
   66MPD2    C1 1024   3.598   2.337  15.441 -0.2827  0.1370  0.2388
   66MPD2    C2 1025   3.549   2.241  15.356 -0.1337  0.8960  0.8628
   66MPD2    C3 1026   3.478   2.132  15.403  0.6046 -0.4850 -0.2480
   66MPD2    C4 1027   3.473   2.107  15.537  0.3402 -0.2757 -0.0273
   66MPD2    C5 1028   3.519   2.206  15.618 -0.1589  0.1775 -0.9659
   66MPD2     H 1029   3.546   2.259  15.249  0.9062 -3.1143  0.1642
   66MPD2    H1 1030   3.409   2.030  15.579  0.3371 -1.2417 -1.7927
   66MPD2    H2 1031   3.608   2.397  15.639  0.1441  2.3066 -2.4929
   66MPD2    H3 1032   3.507   2.193  15.725  1.2242  2.1330 -0.5682
   66MPD2     N 1033   3.405   2.042  15.319  0.2464  0.0237 -0.7114
   66MPD2    H5 1034   3.351   1.968  15.363  1.8012 -0.7488 -0.0997
   66MPD2    N1 1035   3.664   2.452  15.391 -0.3781  0.5528  0.3830
   66MPD2    H7 1036   3.687   2.438  15.293 -2.2405  3.6493 -0.5104
   67TMC2    C1 1037   2.962   1.275  14.530 -0.5656 -0.2924 -0.1050
   67TMC2    C2 1038   2.908   1.211  14.644  0.1318 -0.1772 -0.6158
   67TMC2    C3 1039   2.991   1.158  14.737  0.4197 -0.4309 -0.0517
   67TMC2    C4 1040   3.099   1.289  14.509 -0.1507 -0.5590 -0.0547
   67TMC2    C5 1041   3.177   1.235  14.605  0.2454 -0.5404 -0.2986
   67TMC2    C6 1042   3.128   1.181  14.723  0.3538  0.1784  0.2280
   67TMC2     C 1043   2.872   1.324  14.421 -0.4575 -0.4581  0.8254
   67TMC2     O 1044   2.758   1.291  14.425  0.1212 -0.2898 -0.1033
   67TMC2     H 1045   2.800   1.204  14.654  0.2835 -2.9837 -0.8579
   67TMC2    H1 1046   3.144   1.312  14.414 -0.3158 -0.0061 -0.0008
   67TMC2    H2 1047   3.193   1.129  14.793 -0.5961  1.2957  1.9393
   67TMC2    C7 1048   3.306   1.300  14.604 -0.1728 -0.9841 -0.0965
   67TMC2    C8 1049   2.942   1.073  14.838  0.1204  0.1281 -0.5487
   67TMC2    O1 1050   3.353   1.326  14.498  0.1630  0.3126 -0.2823
   67TMC2    O2 1051   2.821   1.072  14.867 -0.2100 -0.0060  1.0988
   67TMC2    O5 1052   3.032   0.972  14.844 -0.0027  0.5394  0.5838
   67TMC2    H5 1053   3.118   0.989  14.800 -1.7955  2.9311 -2.0720
   68MPD2     C 1054   2.771   1.449  14.166  0.2313 -0.1273 -0.1424
   68MPD2    C1 1055   2.889   1.482  14.230 -0.0295 -0.1514 -0.2654
   68MPD2    C2 1056   2.957   1.590  14.187  0.5009 -0.4108 -0.2473
   68MPD2    C3 1057   2.914   1.669  14.079  0.0702 -0.1770 -0.4198
   68MPD2    C4 1058   2.797   1.637  14.019  0.5222 -0.1934  0.1698
   68MPD2    C5 1059   2.725   1.526  14.063 -0.1163  0.1031 -1.2091
   68MPD2     H 1060   3.042   1.626  14.244 -0.4281 -2.4360  2.3862
   68MPD2    H1 1061   2.760   1.682  13.927 -0.3141 -0.2168  0.4920
   68MPD2    H2 1062   2.718   1.357  14.188  0.4987  0.0702  1.3519
   68MPD2    H3 1063   2.637   1.500  14.005  0.8998 -2.1684 -1.7148
   68MPD2     N 1064   2.992   1.774  14.024  0.1013  0.1578 -0.2669
   68MPD2    H5 1065   2.960   1.817  13.938  1.7702 -0.9939 -1.4536
   68MPD2    N1 1066   2.939   1.415  14.347  0.3569  0.0290 -0.0240
   68MPD2    H7 1067   3.022   1.449  14.393  0.1419  0.8666 -0.2483
   69TMC2    C1 1068   0.756   2.883  11.890 -0.5334 -0.0602  0.2927
   69TMC2    C2 1069   0.633   2.900  11.824  0.1903  0.1769 -0.2949
   69TMC2    C3 1070   0.629   2.862  11.688  0.2776  0.2400 -0.8820
   69TMC2    C4 1071   0.855   2.801  11.841 -0.2722  0.6059 -0.0602
   69TMC2    C5 1072   0.843   2.744  11.715 -0.6022  0.0311  0.1131
   69TMC2    C6 1073   0.735   2.790  11.633  0.2168  0.2084 -0.2055
   69TMC2     C 1074   0.759   2.922  12.031  0.5776 -0.3527 -0.1734
   69TMC2     O 1075   0.658   2.920  12.096 -0.5712  0.4813  0.5041
   69TMC2     H 1076   0.546   2.952  11.862  0.3237  0.6928 -0.6893
   69TMC2    H1 1077   0.938   2.767  11.901  0.5043  1.4968 -0.6275
   69TMC2    H2 1078   0.713   2.748  11.536 -2.4545 -0.0311  0.4904
   69TMC2    C7 1079   0.937   2.643  11.671 -0.1245  0.5151  0.3179
   69TMC2    C8 1080   0.554   2.938  11.596  0.2871 -0.2301  0.9896
   69TMC2    O1 1081   1.016   2.600  11.757 -0.7289 -0.2020  0.2829
   69TMC2    O2 1082   0.604   2.971  11.491 -0.1144 -0.2902  0.4517
   69TMC2    O5 1083   0.440   2.981  11.652  0.1003  0.1499  0.1343
   69TMC2    H5 1084   0.403   2.921  11.719  1.5081  1.6802  2.2718
   70MPD2     C 1085   1.064   3.049  12.216  0.5696  1.1889  0.4750
   70MPD2    C1 1086   0.931   2.995  12.202  0.7188  0.4075  0.2352
   70MPD2    C2 1087   0.851   2.980  12.314  0.2374 -0.5166  0.3507
   70MPD2    C3 1088   0.898   3.019  12.440  1.0240 -0.4691 -0.5660
   70MPD2    C4 1089   1.019   3.083  12.451  0.0272 -0.4852 -0.2975
   70MPD2    C5 1090   1.104   3.088  12.342 -0.4063 -0.3461 -0.3702
   70MPD2     H 1091   0.750   2.941  12.306  0.7255 -1.7135  0.0098
   70MPD2    H1 1092   1.044   3.134  12.543 -1.3919 -2.3242  1.0936
   70MPD2    H2 1093   1.129   3.057  12.130  0.6260 -0.5125  0.3567
   70MPD2    H3 1094   1.207   3.123  12.350 -0.5923  0.6890 -2.3029
   70MPD2     N 1095   0.839   2.998  12.568 -0.1039 -0.1653 -0.3372
   70MPD2    H5 1096   0.901   3.009  12.647  0.0253  1.5390 -0.6781
   70MPD2    N1 1097   0.890   2.951  12.073  0.3793  0.5559  0.6656
   70MPD2    H7 1098   0.959   2.956  11.999 -0.5356  2.1682 -0.0817
   71TMC2    C1 1099   4.564   3.431   0.556 -1.7485 -0.1951 -0.1460
   71TMC2    C2 1100   4.613   3.304   0.533 -0.8763 -0.0882  0.5533
   71TMC2    C3 1101   4.729   3.270   0.602  1.2059  0.5754 -0.3447
   71TMC2    C4 1102   4.628   3.518   0.634  0.2209 -0.6369  0.2374
   71TMC2    C5 1103   4.735   3.474   0.704 -0.0257 -0.0806  0.3802
   71TMC2    C6 1104   0.060   3.353   0.680 -0.4226  0.3116 -0.2102
   71TMC2     C 1105   4.427   3.457   0.521 -0.5106 -0.0345  0.3714
   71TMC2     O 1106   4.375   3.553   0.581 -0.5089 -0.6043  0.1865
   71TMC2     H 1107   4.565   3.224   0.477  0.3174 -0.1278 -0.4208
   71TMC2    H1 1108   4.588   3.619   0.636 -2.4294 -1.6863 -0.0687
   71TMC2    H2 1109   0.144   3.313   0.735 -2.1781  0.0467  2.3101
   71TMC2    C7 1110   0.006   3.517   0.837  0.3041 -0.6996 -0.0453
   71TMC2    C8 1111   0.059   3.154   0.544  0.1232  0.5379 -1.0484
   71TMC2    O1 1112   0.098   3.482   0.905 -0.1137 -0.1764  0.1979
   71TMC2    O2 1113   4.734   3.075   0.476  0.2620  0.1717  0.5543
   71TMC2    O5 1114   0.178   3.208   0.507 -0.3194 -0.2056  0.0902
   71TMC2    H5 1115   0.217   3.297   0.525  0.5368 -0.6311  0.3433
   72MPD2     C 1116   3.936   3.346   0.377 -0.8981 -0.2249  0.0807
   72MPD2    C1 1117   3.993   3.464   0.419 -0.0790  0.4054 -0.1971
   72MPD2    C2 1118   4.133   3.473   0.446  0.1286 -0.8916 -0.2210
   72MPD2    C3 1119   4.219   3.371   0.417  0.0149  0.3327  0.5063
   72MPD2    C4 1120   4.163   3.252   0.368 -0.3721 -0.5201  0.1787
   72MPD2    C5 1121   4.028   3.243   0.363 -0.6313  0.5525 -1.3125
   72MPD2     H 1122   4.172   3.568   0.479  1.1313 -1.7053  0.9608
   72MPD2    H1 1123   4.234   3.173   0.350  0.0528 -0.6895  2.6810
   72MPD2    H2 1124   3.833   3.331   0.350 -0.5683 -0.3673 -1.0668
   72MPD2    H3 1125   3.980   3.158   0.317  0.0717 -0.1168 -0.7957
   72MPD2     N 1126   4.360   3.369   0.442  0.4669 -0.2611 -0.3721
   72MPD2    H5 1127   4.408   3.290   0.400  1.2285  0.7320 -1.3597
   72MPD2    N1 1128   3.918   3.582   0.429 -0.2766  0.3118 -0.9562
   72MPD2    H7 1129   3.959   3.666   0.470 -0.5942 -0.4626  0.9689
   73TMC2    C1 1130   2.687   0.664  14.091  0.8819  0.6927  0.3768
   73TMC2    C2 1131   2.641   0.536  14.060 -0.5364  0.0043 -0.1019
   73TMC2    C3 1132   2.700   0.427  14.109 -0.5144 -0.0870  0.2692
   73TMC2    C4 1133   2.792   0.672  14.180 -0.3679 -1.1676  0.0118
   73TMC2    C5 1134   2.861   0.567  14.218  0.0055 -0.3525  0.5451
   73TMC2    C6 1135   2.809   0.437  14.194 -0.1459  0.5307 -0.6075
   73TMC2     C 1136   2.711   0.758  13.983  0.6198 -0.7747 -0.1050
   73TMC2     O 1137   2.813   0.823  13.996 -0.3257 -0.5365  0.5460
   73TMC2     H 1138   2.565   0.512  13.987 -0.0378 -3.4936  0.5529
   73TMC2    H1 1139   2.809   0.773  14.215 -2.1465 -0.1544 -2.0048
   73TMC2    H2 1140   2.870   0.357  14.234 -1.1213  0.8138  1.4916
   73TMC2    C7 1141   3.000   0.569  14.196 -0.5824  0.1155 -1.0108
   73TMC2    C8 1142   2.654   0.298  14.064 -0.0877 -0.1938 -0.0955
   73TMC2    O1 1143   3.066   0.471  14.213  0.1367  0.1402  0.4178
   73TMC2    O2 1144   2.625   0.288  13.943  0.3268  0.5930 -0.1576
   73TMC2    O5 1145   2.715   0.209  14.139  0.3563 -0.1094 -0.3736
   73TMC2    H5 1146   2.729   0.228  14.234  0.6910 -0.6692 -0.3143
   74MPD2     C 1147   2.663   0.929  13.509 -0.1738  0.3611 -0.8583
   74MPD2    C1 1148   2.761   0.954  13.604  0.2916 -0.0815  0.3853
   74MPD2    C2 1149   2.743   0.908  13.734 -0.1586 -0.2165  0.0419
   74MPD2    C3 1150   2.634   0.826  13.764  1.4463  0.4697  0.8284
   74MPD2    C4 1151   2.546   0.798  13.664  0.6373  0.6479 -0.3726
   74MPD2    C5 1152   2.560   0.852  13.540 -0.3402 -0.7374  0.6113
   74MPD2     H 1153   2.818   0.930  13.810 -1.0897  0.4056  0.7771
   74MPD2    H1 1154   2.460   0.742  13.698 -0.3672  1.9476 -0.7692
   74MPD2    H2 1155   2.672   0.974  13.411  0.7256  1.1961 -0.3928
   74MPD2    H3 1156   2.485   0.837  13.464  0.3439  1.4049 -0.4752
   74MPD2     N 1157   2.619   0.762  13.887  0.0826  0.4396  0.3878
   74MPD2    H5 1158   2.535   0.706  13.899  0.4612  0.1925  1.8744
   74MPD2    N1 1159   2.881   1.025  13.559  0.0597  0.2163  0.3690
   74MPD2    H7 1160   2.878   1.074  13.471 -2.1251 -0.2663  0.1700
   75TMC2    C1 1161   3.169   1.932  14.009  0.3359 -0.2661  0.6185
   75TMC2    C2 1162   3.242   2.024  14.079  0.0559 -0.6018  0.3144
   75TMC2    C3 1163   3.320   2.113  14.009 -0.0675  0.3963 -1.4647
   75TMC2    C4 1164   3.168   1.922  13.873  0.5140  0.5739 -0.1091
   75TMC2    C5 1165   3.248   2.019  13.808  0.2318 -0.1313  0.2485
   75TMC2    C6 1166   3.326   2.115  13.873  0.2605  0.7249  0.1398
   75TMC2     C 1167   3.103   1.833  14.086 -0.0532 -0.4065 -0.3067
   75TMC2     O 1168   3.164   1.798  14.185 -0.1133 -0.0811  0.2985
   75TMC2     H 1169   3.232   2.021  14.187  2.0715  0.3996  0.5438
   75TMC2    H1 1170   3.108   1.847  13.822  1.4796 -1.1447  1.2749
   75TMC2    H2 1171   3.379   2.199  13.829  1.7782 -1.0471 -1.4082
   75TMC2    C7 1172   3.217   2.026  13.669  0.4610  0.7253 -0.1980
   75TMC2    C8 1173   3.368   2.236  14.068  0.2558 -0.5769 -0.0039
   75TMC2    O1 1174   3.128   1.954  13.626  0.0922 -0.0766  0.3346
   75TMC2    O2 1175   3.456   2.304  14.022  0.5002 -0.1293  0.0192
   75TMC2    O5 1176   3.283   2.273  14.165  0.2731  0.3883 -0.2278
   75TMC2    H5 1177   3.202   2.219  14.153  1.6163 -1.7588  0.3495
   76TMC2    C1 1178   2.083   1.536  12.253  0.5615  0.1811 -0.4402
   76TMC2    C2 1179   2.023   1.438  12.323 -0.9046 -1.1034 -0.0278
   76TMC2    C3 1180   2.094   1.329  12.361 -0.5665 -0.4829 -0.0349
   76TMC2    C4 1181   2.213   1.517  12.200  0.3990 -0.2922 -0.4485
   76TMC2    C5 1182   2.278   1.407  12.245 -0.4845  0.7379  0.3228
   76TMC2    C6 1183   2.218   1.310  12.320 -0.2902 -0.5035  0.6268
   76TMC2     C 1184   2.002   1.644  12.199  0.9554  0.2301 -0.6988
   76TMC2     O 1185   1.879   1.632  12.197 -0.4361  0.1701 -0.0351
   76TMC2     H 1186   1.919   1.448  12.354 -0.8741 -4.0878  0.9957
   76TMC2    H1 1187   2.262   1.580  12.127 -1.2412  1.5369  0.0355
   76TMC2    H2 1188   2.280   1.222  12.340  1.0560  0.6065  1.3951
   76TMC2    C7 1189   2.415   1.383  12.224 -0.6497  0.0426 -0.2119
   76TMC2    C8 1190   2.023   1.215  12.402 -0.3157  0.4007 -1.1067
   76TMC2    O1 1191   2.459   1.267  12.245 -0.3149 -0.0117 -0.1940
   76TMC2    O2 1192   1.903   1.200  12.402  0.3762  0.5257  0.0476
   76TMC2    O5 1193   2.111   1.141  12.479 -0.1587 -0.3342  0.0132
   76TMC2    H5 1194   2.205   1.171  12.484  0.0815 -1.0629 -0.0711
   77MPD2     C 1195   1.943   2.072  11.927 -0.0810  0.1082  0.0190
   77MPD2    C1 1196   1.853   1.965  11.937 -0.0273  0.5094 -0.3726
   77MPD2    C2 1197   1.906   1.856  11.999 -0.5241 -0.0680 -0.0633
   77MPD2    C3 1198   2.029   1.850  12.064  0.5538  0.0983  0.0841
   77MPD2    C4 1199   2.114   1.957  12.053 -0.3619 -0.2518 -0.1320
   77MPD2    C5 1200   2.073   2.063  11.980 -0.4694  0.4934 -0.3851
   77MPD2     H 1201   1.837   1.773  11.992 -1.1791  0.5372 -0.8525
   77MPD2    H1 1202   2.208   1.962  12.107 -0.1055 -2.4604 -0.3743
   77MPD2    H2 1203   1.921   2.160  11.869 -0.5112 -1.2934 -1.9338
   77MPD2    H3 1204   2.146   2.143  11.976 -0.3599  0.5336  2.0842
   77MPD2     N 1205   2.074   1.751  12.147 -0.3889  0.5093  0.4725
   77MPD2    H5 1206   2.175   1.750  12.157 -0.2794  0.6151 -0.6273
   77MPD2    N1 1207   1.732   1.965  11.864 -0.8805 -0.7930 -0.9861
   77MPD2    H7 1208   1.695   1.876  11.833 -1.4623 -1.2244  0.9630
   78TMC2    C1 1209   3.383   3.306   1.443 -0.4735  0.3767 -0.2364
   78TMC2    C2 1210   3.356   3.198   1.361  0.7356 -0.1777 -0.0907
   78TMC2    C3 1211   3.450   3.158   1.276  0.1601 -0.3208  0.5119
   78TMC2    C4 1212   3.499   3.376   1.436  0.3578 -0.4897 -0.0646
   78TMC2    C5 1213   3.591   3.320   1.347 -0.3599  0.0976  1.0152
   78TMC2    C6 1214   3.572   3.214   1.267 -0.3429 -0.2985 -0.0566
   78TMC2     C 1215   3.274   3.385   1.494  0.1924 -0.0252  0.1662
   78TMC2     O 1216   3.308   3.457   1.589  0.4473  0.2518  0.8466
   78TMC2     H 1217   3.268   3.135   1.366  1.0650 -0.6514 -0.1839
   78TMC2    H1 1218   3.522   3.472   1.481 -2.2221  0.7011 -1.2950
   78TMC2    H2 1219   3.656   3.171   1.214 -0.7185 -0.5644 -0.4306
   78TMC2    C7 1220   3.727   3.372   1.346  0.3908  0.3537 -0.0277
   78TMC2    C8 1221   3.416   3.027   1.222  0.5268 -0.7948  0.0839
   78TMC2    O1 1222   3.799   3.326   1.256  0.1624 -0.0384  0.1177
   78TMC2    O2 1223   3.357   2.943   1.281  0.0785  0.0687 -0.0806
   78TMC2    O5 1224   3.498   3.008   1.121 -0.6112 -0.2097 -0.0722
   78TMC2    H5 1225   3.507   3.089   1.067  2.2297  0.2748  1.0925
   79MPD1     C 1226   2.756   3.424   1.590 -0.0802 -0.8559  0.0838
   79MPD1    C1 1227   2.866   3.490   1.652  0.5027  0.4388  0.1984
   79MPD1    C2 1228   3.000   3.465   1.604  0.4325 -0.4004 -0.2535
   79MPD1    C3 1229   3.021   3.389   1.491  0.3426 -0.6791 -0.2390
   79MPD1    C4 1230   2.913   3.332   1.432 -0.4669 -0.1945 -0.5675
   79MPD1    C5 1231   2.782   3.351   1.474 -0.3969  0.6660  0.0169
   79MPD1     H 1232   3.089   3.508   1.647  2.4044 -1.1907 -3.4976
   79MPD1    H1 1233   2.930   3.272   1.343  2.9423  0.6577 -0.4928
   79MPD1    H2 1234   2.653   3.428   1.623 -0.7155 -1.0546 -1.8381
   79MPD1    H3 1235   2.693   3.310   1.427 -1.0180  0.4218  1.4071
   79MPD1     N 1236   3.147   3.350   1.448  0.2149  0.3683 -0.4361
   79MPD1    H5 1237   3.140   3.297   1.362  1.0683 -1.0361  0.3562
   79MPD1    N1 1238   2.852   3.561   1.769 -0.2404 -0.5429  0.9616
   79MPD1    H6 1239   2.756   3.594   1.773  0.2268  1.1033 -1.6528
   79MPD1    H7 1240   2.918   3.638   1.777  0.5668 -0.8135 -3.1159
   80TMC2    C1 1241   0.887   1.760  11.766 -0.3482 -0.1032 -0.0447
   80TMC2    C2 1242   0.834   1.807  11.638  0.2003  0.1657 -0.1946
   80TMC2    C3 1243   0.756   1.717  11.567 -0.2816 -0.3915  0.2135
   80TMC2    C4 1244   0.856   1.638  11.815 -0.0152 -0.4372  0.2411
   80TMC2    C5 1245   0.772   1.560  11.739 -0.2114  0.2099 -0.9629
   80TMC2    C6 1246   0.722   1.596  11.617 -0.4817  0.1726 -0.4606
   80TMC2     C 1247   0.967   1.858  11.835  0.1831  0.4004  0.1763
   80TMC2     O 1248   0.953   1.977  11.809  0.0214 -0.1622  0.6569
   80TMC2     H 1249   0.839   1.909  11.603  1.0436  0.1856 -0.0189
   80TMC2    H1 1250   0.871   1.612  11.919  0.5434 -0.5923  0.1264
   80TMC2    H2 1251   0.663   1.524  11.562 -0.4378  0.1041 -0.4183
   80TMC2    C7 1252   0.713   1.444  11.797  0.4682  0.0517 -0.0370
   80TMC2    C8 1253   0.664   1.785  11.475  0.3089 -0.1137  0.2154
   80TMC2    O1 1254   0.636   1.374  11.730  0.1851 -0.0251 -0.3720
   80TMC2    O2 1255   0.694   1.863  11.386  0.2569 -0.1636 -0.0870
   80TMC2    O5 1256   0.536   1.743  11.490 -0.2128 -0.0722  0.4379
   80TMC2    H5 1257   0.506   1.728  11.582 -0.4227 -1.1802  0.1905
   81MPD2     C 1258   1.257   1.749  12.046  0.1983  0.3956  0.1620
   81MPD2    C1 1259   1.168   1.842  11.988 -0.1887 -0.2694  0.5734
   81MPD2    C2 1260   1.177   1.975  12.019  0.9373 -0.4965  0.1162
   81MPD2    C3 1261   1.275   2.020  12.103 -0.4026 -0.4761 -1.1232
   81MPD2    C4 1262   1.370   1.930  12.151  0.2011  0.3654  0.5292
   81MPD2    C5 1263   1.364   1.799  12.113  0.2254 -0.8552 -0.1612
   81MPD2     H 1264   1.102   2.046  11.985 -0.9160 -1.4374  2.2567
   81MPD2    H1 1265   1.458   1.973  12.196  0.7368 -1.0795  0.8770
   81MPD2    H2 1266   1.245   1.644  12.025 -0.7275  0.8279 -1.4910
   81MPD2    H3 1267   1.445   1.740  12.155 -0.4862 -1.6258  0.1149
   81MPD2     N 1268   1.289   2.153  12.153 -1.1327 -0.6210  0.1700
   81MPD2    H5 1269   1.364   2.171  12.219 -0.7092  0.8086 -0.6955
   81MPD2    N1 1270   1.059   1.788  11.913 -0.2317  0.6936  0.0867
   81MPD2    H7 1271   1.050   1.689  11.891 -0.7677  0.3921  1.6591
   82TMC2    C1 1272   3.740   0.920  10.572 -0.4134 -0.9671  0.0365
   82TMC2    C2 1273   3.865   0.967  10.602  0.0264  0.5442  0.2857
   82TMC2    C3 1274   3.928   0.929  10.718  0.0738 -0.5223 -0.1453
   82TMC2    C4 1275   3.677   0.842  10.663 -0.0617 -0.5610  0.2676
   82TMC2    C5 1276   3.748   0.801  10.772 -0.0846  0.1870 -0.6971
   82TMC2    C6 1277   3.870   0.851  10.806 -0.2404  0.1170  0.3812
   82TMC2     C 1278   3.655   1.008  10.497  0.4993  0.1870  0.0172
   82TMC2     O 1279   3.534   0.991  10.504  0.7775 -0.3107 -0.7519
   82TMC2     H 1280   3.916   1.026  10.527 -0.0949  1.1149  0.6507
   82TMC2    H1 1281   3.572   0.821  10.653  0.0138 -1.3487  1.0987
   82TMC2    H2 1282   3.926   0.801  10.884 -3.3379 -0.6184  2.1708
   82TMC2    C7 1283   3.678   0.718  10.868  0.5523  0.2353 -0.1837
   82TMC2    C8 1284   4.054   0.975  10.750 -0.0439 -0.0628  1.0021
   82TMC2    O1 1285   3.717   0.737  10.985 -0.6334  0.4708  0.5935
   82TMC2    O2 1286   4.134   1.022  10.668  0.4354 -0.5426  0.0393
   82TMC2    O5 1287   4.058   0.996  10.885  0.4199  0.6329 -0.0598
   82TMC2    H5 1288   3.980   0.972  10.940  1.9926 -0.9140  1.5147
   83MPD2     C 1289   3.541   1.448  10.269  0.1584 -0.1012 -0.8116
   83MPD2    C1 1290   3.472   1.331  10.268 -0.4085  0.2503 -0.5273
   83MPD2    C2 1291   3.538   1.218  10.332 -0.0705 -0.3832 -0.1385
   83MPD2    C3 1292   3.657   1.234  10.402  0.1143 -0.1480 -0.1227
   83MPD2    C4 1293   3.719   1.356  10.402  0.0580  0.8267 -0.0777
   83MPD2    C5 1294   3.659   1.467  10.338 -0.9285  0.2680 -0.0432
   83MPD2     H 1295   3.486   1.124  10.333  2.1279 -1.5465  3.8199
   83MPD2    H1 1296   3.810   1.385  10.454  0.7128  0.2583 -0.9037
   83MPD2    H2 1297   3.493   1.536  10.229  0.0940  0.9859  1.6470
   83MPD2    H3 1298   3.714   1.560  10.336  0.9829 -0.8820 -0.7576
   83MPD2     N 1299   3.714   1.127  10.481 -0.5832  0.4257  0.4057
   83MPD2    H5 1300   3.808   1.138  10.517 -0.8359  0.2107  1.1421
   83MPD2    N1 1301   3.340   1.326  10.212  0.0919  0.2864  0.1411
   83MPD2    H7 1302   3.308   1.415  10.175  1.6132  1.3618  1.3917
   84TMC2    C1 1303   4.164   0.466  12.214  0.2775 -0.6225  0.0610
   84TMC2    C2 1304   4.133   0.467  12.342  0.1924  0.2061 -0.6228
   84TMC2    C3 1305   4.238   0.475  12.430 -0.0199  0.1233 -0.3071
   84TMC2    C4 1306   4.299   0.478  12.175 -0.1274  0.5665  0.8241
   84TMC2    C5 1307   4.393   0.496  12.271 -0.3253 -0.5265  0.3633
   84TMC2    C6 1308   4.366   0.497  12.403 -0.1935  1.1013  0.4682
   84TMC2     C 1309   4.054   0.445  12.120  0.3019 -0.1830  0.8964
   84TMC2     O 1310   3.938   0.428  12.162  0.6137 -0.0151  0.0914
   84TMC2     H 1311   4.033   0.444  12.378  0.4569 -2.0861 -1.3755
   84TMC2    H1 1312   4.331   0.473  12.072 -3.4492  0.2467 -0.1927
   84TMC2    H2 1313   4.450   0.492  12.470  0.3364  2.0414 -0.1204
   84TMC2    C7 1314   4.519   0.528  12.206  0.4243  0.5806  0.1227
   84TMC2    C8 1315   4.219   0.442  12.572 -0.1578  0.2696  0.2387
   84TMC2    O1 1316   4.561   0.456  12.115  0.0999  0.0456 -0.4849
   84TMC2    O2 1317   4.298   0.371  12.631  0.1671 -0.3787 -0.6571
   84TMC2    O5 1318   4.087   0.442  12.607 -0.5681  0.4482  0.4005
   84TMC2    H5 1319   4.021   0.494  12.557  0.6217  0.3757 -1.2664
   85TMC2    C1 1320   1.309   3.736  16.518 -0.0446  0.0041 -0.1946
   85TMC2    C2 1321   1.182   3.772  16.522  0.5308 -0.4255 -0.3502
   85TMC2    C3 1322   1.151   3.902  16.486 -0.0306 -0.7809 -0.6214
   85TMC2    C4 1323   1.406   3.825  16.482 -0.0642  0.1599  0.7050
   85TMC2    C5 1324   1.369   3.948  16.429  0.3433  0.1833  0.3048
   85TMC2    C6 1325   1.240   3.993  16.434  0.0977 -0.3527  1.0648
   85TMC2     C 1326   1.345   3.611  16.570 -0.0719  0.2883 -0.0758
   85TMC2     O 1327   1.458   3.602  16.613 -0.3269  0.5660  0.5492
   85TMC2     H 1328   1.102   3.704  16.548  0.5944  0.4381  2.0616
   85TMC2    H1 1329   1.502   3.780  16.458  0.2649 -0.0606  2.4601
   85TMC2    H2 1330   1.196   4.090  16.417  3.7200  1.5829  2.7403
   85TMC2    C7 1331   1.447   3.985  16.310 -0.6067 -0.0035  0.1837
   85TMC2    C8 1332   1.014   3.960  16.500 -0.3540 -0.5939  0.0999
   85TMC2    O1 1333   1.550   3.920  16.292 -0.5098  0.4636  0.2151
   85TMC2    O2 1334   0.956   4.019  16.411  0.3509 -0.4060 -0.2117
   85TMC2    O5 1335   0.949   3.875  16.584  0.3987  0.2008 -0.4927
   85TMC2    H5 1336   1.005   3.863  16.665 -1.7440  0.4287  1.0185
   86MPD2     C 1337   1.315   3.101  16.540 -0.1788 -0.4225 -0.4395
   86MPD2    C1 1338   1.202   3.159  16.481  0.3625  0.0130 -0.2098
   86MPD2    C2 1339   1.191   3.297  16.468  0.6211  0.3271  0.8931
   86MPD2    C3 1340   1.286   3.376  16.533 -0.1415  0.2016  0.2703
   86MPD2    C4 1341   1.394   3.317  16.595  0.1603 -0.0589 -0.0086
   86MPD2    C5 1342   1.405   3.180  16.596  0.4522  0.6493 -0.2093
   86MPD2     H 1343   1.112   3.350  16.416 -0.1895  0.4380  2.2298
   86MPD2    H1 1344   1.477   3.378  16.628  1.6302 -1.4574 -1.0991
   86MPD2    H2 1345   1.325   2.993  16.545  0.5740 -0.2858  0.9409
   86MPD2    H3 1346   1.497   3.137  16.635 -1.5478 -1.7734  1.7962
   86MPD2     N 1347   1.268   3.513  16.527  0.1067 -0.2017 -0.2998
   86MPD2    H5 1348   1.185   3.544  16.477 -0.3057 -1.6844 -0.5315
   86MPD2    N1 1349   1.086   3.077  16.453 -0.0171 -0.4989 -0.6471
   86MPD2    H7 1350   1.002   3.122  16.418  1.0262  0.7805 -1.5140
   87TMC2    C1 1351   3.833   2.091   1.032 -0.0578 -0.0056  0.0768
   87TMC2    C2 1352   3.947   2.158   1.010 -0.4315 -0.0834 -0.2761
   87TMC2    C3 1353   3.939   2.291   1.021 -0.0837 -0.3699  0.2835
   87TMC2    C4 1354   3.714   2.144   1.070 -0.9246  0.0901 -0.2332
   87TMC2    C5 1355   3.711   2.284   1.083  0.2554  0.2596 -0.3244
   87TMC2    C6 1356   3.829   2.360   1.063 -0.3853  0.0861  0.5666
   87TMC2     C 1357   3.817   1.963   0.968  0.0438  0.7000 -0.3074
   87TMC2     O 1358   3.712   1.940   0.911 -0.1248  0.4754  1.0132
   87TMC2     H 1359   4.039   2.113   0.975 -1.6093 -1.3046 -1.7940
   87TMC2    H1 1360   3.628   2.077   1.066 -0.2381 -0.8186  0.2982
   87TMC2    H2 1361   3.836   2.465   1.091  0.4952 -0.6190  3.0116
   87TMC2    C7 1362   3.593   2.358   1.105  0.5257  0.2644 -0.0668
   87TMC2    C8 1363   4.043   2.368   0.950  0.1207 -0.5386  0.4539
   87TMC2    O1 1364   3.598   2.479   1.088  0.7448  0.2257  0.5666
   87TMC2    O2 1365   4.073   2.483   0.979 -0.6133  0.0830 -0.3710
   87TMC2    O5 1366   4.035   2.326   0.818  0.0373 -0.2149 -0.5168
   87TMC2    H5 1367   4.003   2.236   0.796 -0.8594  0.0730 -0.3964
   88MPD2     C 1368   3.269   2.245   1.216  0.1015 -0.1010  1.0554
   88MPD2    C1 1369   3.356   2.329   1.162 -0.3775 -0.0330  0.6656
   88MPD2    C2 1370   3.308   2.450   1.114  0.2299  0.5328  0.0812
   88MPD2    C3 1371   3.172   2.477   1.131 -0.3259 -1.1051 -0.4340
   88MPD2    C4 1372   3.088   2.392   1.198 -0.0630  0.0672  0.3841
   88MPD2    C5 1373   3.137   2.279   1.247  0.1506  0.2846 -0.9258
   88MPD2     H 1374   3.376   2.526   1.077  0.6979  1.2896  2.4633
   88MPD2    H1 1375   2.983   2.413   1.212  0.3112  1.0752  1.6834
   88MPD2    H2 1376   3.303   2.149   1.255 -1.3521 -1.6190 -1.4532
   88MPD2    H3 1377   3.075   2.205   1.295  0.5624 -0.0999 -0.9765
   88MPD2     N 1378   3.112   2.597   1.088 -0.7686  0.4576  0.2818
   88MPD2    H5 1379   3.016   2.609   1.119 -1.2391 -2.6522  0.0165
   88MPD2    N1 1380   3.489   2.285   1.156  0.2281 -0.1524  0.0963
   88MPD2    H7 1381   3.500   2.191   1.191 -1.0018 -0.7098 -1.0230
   89TMC2    C1 1382   4.406   4.642   1.659  0.2327  0.0501 -0.1592
   89TMC2    C2 1383   4.282   4.674   1.612 -0.4088  0.3495 -0.0636
   89TMC2    C3 1384   4.272   0.025   1.503 -0.5824  0.6276  0.3806
   89TMC2    C4 1385   4.524   4.674   1.591  0.4116  0.1933 -0.6469
   89TMC2    C5 1386   4.503   0.017   1.484 -0.0842  0.4552  0.3076
   89TMC2    C6 1387   4.384   0.060   1.426 -0.4086  0.7576 -0.1557
   89TMC2     C 1388   4.417   4.578   1.784  0.1377  0.4244  0.2062
   89TMC2     O 1389   4.533   4.540   1.813 -0.4333 -0.1850  0.3175
   89TMC2     H 1390   4.189   4.662   1.665 -0.6211  0.3377 -0.4352
   89TMC2    H1 1391   4.615   4.661   1.648 -1.2873 -0.1981  2.0167
   89TMC2    H2 1392   4.378   0.124   1.339 -1.2479 -0.0477 -0.6854
   89TMC2    C7 1393   4.622   0.060   1.418  0.5276 -0.4929 -0.2756
   89TMC2    C8 1394   4.145   0.062   1.462 -0.6084  0.8554 -0.2594
   89TMC2    O1 1395   4.729   0.003   1.440  0.3984  0.0915 -0.0364
   89TMC2    O2 1396   4.053   0.053   1.540 -0.1725 -0.6077 -0.2221
   89TMC2    O5 1397   4.138   0.069   1.331  0.3958 -0.7308 -0.2526
   89TMC2    H5 1398   4.224   0.053   1.287  0.0924  1.4928 -1.6307
   90MPD2     C 1399   4.224   4.420   2.233 -0.8370  0.4796 -0.0476
   90MPD2    C1 1400   4.117   4.465   2.156  0.5128 -0.0363 -0.4091
   90MPD2    C2 1401   4.142   4.513   2.026  0.2575  1.2149 -0.1998
   90MPD2    C3 1402   4.274   4.520   1.978 -0.7574  0.1538  0.4653
   90MPD2    C4 1403   4.378   4.477   2.060  0.3905  0.4227 -0.1870
   90MPD2    C5 1404   4.353   4.430   2.187  0.0293 -0.3641 -0.0648
   90MPD2     H 1405   4.056   4.553   1.973 -1.8664 -0.5212  1.9178
   90MPD2    H1 1406   4.484   4.489   2.038 -0.1547  1.1153 -2.3350
   90MPD2    H2 1407   4.219   4.377   2.332  1.5671 -0.1149 -0.1868
   90MPD2    H3 1408   4.430   4.391   2.252 -0.2478  0.2859  0.6498
   90MPD2     N 1409   4.300   4.578   1.854 -0.4758  0.4493 -0.0179
   90MPD2    H5 1410   4.224   4.628   1.809 -0.9715  0.1550  0.4938
   90MPD2    N1 1411   3.988   4.459   2.204  0.3080  0.2204  0.3121
   90MPD2    H7 1412   3.917   4.490   2.137  1.4952 -0.9944 -1.5162
   91TMC2    C1 1413   0.745   4.469  16.160 -0.5036  0.0096  0.6995
   91TMC2    C2 1414   0.823   4.475  16.267  0.0212 -0.8700  0.2673
   91TMC2    C3 1415   0.813   4.380  16.367 -0.0309  0.8489  0.4548
   91TMC2    C4 1416   0.656   4.370  16.143 -0.1664  0.5517  0.0559
   91TMC2    C5 1417   0.637   4.285  16.250 -0.2226 -0.3755 -0.4180
   91TMC2    C6 1418   0.723   4.282  16.359 -0.2444  0.4758  0.1512
   91TMC2     C 1419   0.812   4.505  16.035 -0.5816 -0.3204  1.1314
   91TMC2     O 1420   0.743   4.495  15.934 -0.6980 -1.0319 -0.1007
   91TMC2     H 1421   0.897   4.552  16.289 -1.1916  0.1347  0.8436
   91TMC2    H1 1422   0.601   4.352  16.051  1.4071  0.9103 -0.9447
   91TMC2    H2 1423   0.729   4.192  16.419 -0.2751  1.4485  1.6095
   91TMC2    C7 1424   0.550   4.170  16.243  0.1454 -0.5700 -0.4395
   91TMC2    C8 1425   0.938   4.357  16.435 -0.4479  0.0051  0.1271
   91TMC2    O1 1426   0.557   4.088  16.336  0.3444 -0.4494  0.3649
   91TMC2    O2 1427   1.038   4.425  16.404 -0.3158 -0.5160 -0.4329
   91TMC2    O5 1428   0.910   4.308  16.558 -0.1530 -0.1768 -0.1300
   91TMC2    H5 1429   0.817   4.320  16.587 -0.7350 -1.0014 -1.6701
   92MPD2     C 1430   1.001   4.552  15.816  0.4034 -0.7825 -0.1867
   92MPD2    C1 1431   1.033   4.539  15.944  0.0836 -0.7004  0.0555
   92MPD2    C2 1432   1.165   4.550  15.984  0.2406 -0.6317 -0.5822
   92MPD2    C3 1433   1.271   4.566  15.899  0.6456  0.6300  1.0098
   92MPD2    C4 1434   1.236   4.568  15.765  1.0687 -0.3374  0.7191
   92MPD2    C5 1435   1.104   4.572  15.734  0.0426  0.0574 -0.0650
   92MPD2     H 1436   1.187   4.516  16.084  0.0106  1.2828  0.1286
   92MPD2    H1 1437   1.307   4.580  15.683  1.7168  1.3638  1.5240
   92MPD2    H2 1438   0.898   4.553  15.781  0.3238 -2.1773  0.0069
   92MPD2    H3 1439   1.088   4.576  15.626 -0.1588 -4.2885 -0.1774
   92MPD2     N 1440   1.403   4.559  15.942  0.7072  0.8845  0.4565
   92MPD2    H5 1441   1.418   4.562  16.042  0.2320 -2.7991  0.6402
   92MPD2    N1 1442   0.940   4.527  16.050 -0.8007  0.1068  0.0942
   92MPD2    H7 1443   0.978   4.518  16.143 -2.0018  1.8567  0.7444
   93TMC2    C1 1444   2.621   4.294  13.288  0.4555  0.0284  0.3016
   93TMC2    C2 1445   2.604   4.181  13.370  0.4497  0.3071 -0.2014
   93TMC2    C3 1446   2.715   4.125  13.421 -0.2318  0.3396  0.4683
   93TMC2    C4 1447   2.739   4.354  13.265 -0.6293  0.0608 -1.1090
   93TMC2    C5 1448   2.846   4.299  13.312  0.2249  0.0016  0.3235
   93TMC2    C6 1449   2.837   4.191  13.396 -0.0745 -0.9037 -0.5737
   93TMC2     C 1450   2.514   4.330  13.199  0.0593 -0.6598 -0.0145
   93TMC2     O 1451   2.534   4.389  13.091 -0.3294  0.0411 -0.8738
   93TMC2     H 1452   2.513   4.126  13.390  0.9868  0.0076  1.4147
   93TMC2    H1 1453   2.742   4.439  13.198  0.0948 -0.0505 -1.2207
   93TMC2    H2 1454   2.924   4.166  13.455  1.4292 -1.6531 -3.0836
   93TMC2    C7 1455   2.964   4.377  13.329 -0.1842  0.2862  0.4811
   93TMC2    C8 1456   2.699   4.039  13.535  0.1625  0.2101 -0.0977
   93TMC2    O1 1457   3.067   4.317  13.308  0.1533 -0.4563 -0.0463
   93TMC2    O2 1458   2.607   4.053  13.615 -0.4505  0.2154  0.2173
   93TMC2    O5 1459   2.811   3.963  13.539  0.2041  0.4177  0.4471
   93TMC2    H5 1460   2.860   3.966  13.454  0.9381  0.5224  0.8781
   94MPD2     C 1461   2.250   4.436  13.117 -0.6379  0.0864 -0.4400
   94MPD2    C1 1462   2.269   4.362  13.232 -0.0065 -0.3055  0.4929
   94MPD2    C2 1463   2.162   4.346  13.323 -0.3563  0.3585 -0.6040
   94MPD2    C3 1464   2.037   4.401  13.291 -0.1120 -0.8936 -1.3566
   94MPD2    C4 1465   2.021   4.466  13.171  0.3644 -0.1720  0.7475
   94MPD2    C5 1466   2.132   4.489  13.087 -0.0750 -0.6532 -0.2463
   94MPD2     H 1467   2.183   4.295  13.416  2.1139  1.7084 -0.4159
   94MPD2    H1 1468   1.927   4.507  13.136 -0.2159  0.4643  3.0963
   94MPD2    H2 1469   2.315   4.435  13.030  1.0808 -1.4225  0.8602
   94MPD2    H3 1470   2.124   4.532  12.988 -3.1834  1.5228  0.9152
   94MPD2     N 1471   1.925   4.411  13.369  0.0826 -0.1104 -0.3128
   94MPD2    H5 1472   1.841   4.455  13.333  0.8352  2.1665  0.7517
   94MPD2    N1 1473   2.395   4.305  13.264  0.0083 -0.5087  0.3028
   94MPD2    H7 1474   2.397   4.267  13.358 -1.7978  1.1760  1.0192
   95TMC2    C1 1475   2.492   1.742  15.617 -0.0443  0.1461 -0.2846
   95TMC2    C2 1476   2.483   1.870  15.664 -0.1086  0.7382  0.4878
   95TMC2    C3 1477   2.360   1.915  15.705  0.4844 -0.7508  0.6764
   95TMC2    C4 1478   2.387   1.659  15.628  0.1505 -0.2899  0.5766
   95TMC2    C5 1479   2.271   1.708  15.670  0.8002 -0.2930 -0.1320
   95TMC2    C6 1480   2.253   1.836  15.714  0.1039  0.7373 -0.2630
   95TMC2     C 1481   2.610   1.711  15.531 -0.4236  0.6144 -0.0333
   95TMC2     O 1482   2.675   1.806  15.493  0.0687  0.1120 -0.2626
   95TMC2     H 1483   2.566   1.936  15.646  2.3842 -1.6497  3.2243
   95TMC2    H1 1484   2.393   1.558  15.589  0.1032 -0.0305 -0.1043
   95TMC2    H2 1485   2.165   1.882  15.757 -0.0929 -0.7412  0.8926
   95TMC2    C7 1486   2.174   1.607  15.692  0.3633  0.5924  0.0426
   95TMC2    C8 1487   2.325   2.056  15.719  0.7895 -0.5662  0.2983
   95TMC2    O1 1488   2.212   1.492  15.705 -0.3167 -0.1393  0.1642
   95TMC2    O2 1489   2.207   2.100  15.712 -0.0775  0.0917  0.5115
   95TMC2    O5 1490   2.433   2.113  15.768  0.0960 -0.2634  0.4986
   95TMC2    H5 1491   2.503   2.045  15.777 -0.6105 -1.0365  0.1599
   96MPD2     C 1492   2.830   1.446  15.153 -0.6339  0.2690  0.1154
   96MPD2    C1 1493   2.873   1.556  15.221 -1.1317  0.5034  0.0846
   96MPD2    C2 1494   2.799   1.601  15.329  0.2669 -0.0802 -0.6653
   96MPD2    C3 1495   2.681   1.542  15.368 -0.8262  0.0816 -0.3733
   96MPD2    C4 1496   2.641   1.425  15.310  0.0009  0.1249  0.1390
   96MPD2    C5 1497   2.718   1.380  15.199  0.1560 -0.0367  0.0373
   96MPD2     H 1498   2.824   1.696  15.372  1.9405 -0.0780 -1.6526
   96MPD2    H1 1499   2.550   1.372  15.335  0.2337 -0.1940  0.3174
   96MPD2    H2 1500   2.883   1.408  15.067 -1.0612 -0.9294  0.3809
   96MPD2    H3 1501   2.682   1.303  15.132  1.6347  0.6260 -1.5276
   96MPD2     N 1502   2.598   1.589  15.474  0.3516  0.5546  0.2035
   96MPD2    H5 1503   2.533   1.520  15.508 -1.9125  3.0802  0.9888
   96MPD2    N1 1504   2.988   1.619  15.166  0.2611 -0.3383  0.5026
   96MPD2    H7 1505   3.015   1.592  15.072 -2.1653 -1.2462  0.0575
   97TMC2    C1 1506   1.428   4.047   0.327  1.0401 -0.1987 -0.0707
   97TMC2    C2 1507   1.562   4.049   0.327  0.3633  0.2342 -0.1129
   97TMC2    C3 1508   1.620   4.157   0.270  0.2937 -0.6604  0.6125
   97TMC2    C4 1509   1.347   4.139   0.264 -0.0696 -0.2901  0.3475
   97TMC2    C5 1510   1.414   4.254   0.212 -0.5333  0.5196  0.6822
   97TMC2    C6 1511   1.552   4.263   0.214 -0.3859  0.1133  0.5409
   97TMC2     C 1512   1.358   3.944   0.403  1.3155  0.1865 -0.4728
   97TMC2     O 1513   1.249   3.968   0.450 -0.5221 -0.0220 -0.2355
   97TMC2     H 1514   1.620   3.969   0.372 -1.0775 -0.5078  0.4442
   97TMC2    H1 1515   1.239   4.135   0.261  0.0385 -2.8772 -0.1096
   97TMC2    H2 1516   1.610   4.349   0.181 -1.4810  0.9553  0.8001
   97TMC2    C7 1517   1.345   4.382   0.187 -0.3706  0.2336 -0.5640
   97TMC2    C8 1518   1.759   4.179   0.300 -0.7278 -0.4451 -0.3431
   97TMC2    O1 1519   1.416   4.483   0.190  0.2542  0.0784  0.6049
   97TMC2    O2 1520   1.818   4.127   0.395  0.4624  0.0019  0.7236
   97TMC2    O5 1521   1.808   4.210   0.171 -0.3793 -0.3105  0.0884
   97TMC2    H5 1522   1.733   4.225   0.110  1.1582 -0.6859 -1.9044
   98MPD2     C 1523   1.236   3.451   0.451  0.0294  0.0265  0.1189
   98MPD2    C1 1524   1.190   3.560   0.513  0.0486  0.8374  0.0669
   98MPD2    C2 1525   1.236   3.688   0.479  0.5191 -0.2454 -0.5453
   98MPD2    C3 1526   1.353   3.698   0.408 -0.0020 -0.1106 -0.6806
   98MPD2    C4 1527   1.407   3.587   0.343  0.5119 -0.5939  0.1191
   98MPD2    C5 1528   1.334   3.470   0.361 -0.0252 -0.1062  0.0976
   98MPD2     H 1529   1.189   3.777   0.519 -0.1694 -1.2424  0.8835
   98MPD2    H1 1530   1.496   3.582   0.280  0.7262  1.3209  0.2534
   98MPD2    H2 1531   1.196   3.354   0.475 -2.7011  1.5579  1.6861
   98MPD2    H3 1532   1.373   3.383   0.310  1.2707  1.4295 -1.5598
   98MPD2     N 1533   1.414   3.822   0.383  0.0257  0.7574 -0.5657
   98MPD2    H5 1534   1.490   3.817   0.316 -0.3983 -0.3165 -0.9524
   98MPD2    N1 1535   1.087   3.539   0.606 -0.1354  0.1569 -0.1300
   98MPD2    H7 1536   1.062   3.441   0.607  0.6852 -0.0614 -0.2110
   99TMC2    C1 1537   3.898   0.160   2.108  0.0378  0.2826  0.0524
   99TMC2    C2 1538   3.891   0.082   2.223  0.2800  0.2984 -0.4778
   99TMC2    C3 1539   3.793   0.116   2.320 -0.1133  0.2748 -0.0195
   99TMC2    C4 1540   3.812   0.262   2.076 -0.4690 -0.0264  0.6285
   99TMC2    C5 1541   3.714   0.289   2.169  0.3041  0.0238  0.6321
   99TMC2    C6 1542   3.709   0.219   2.289 -0.3683 -0.2154  0.3904
   99TMC2     C 1543   4.028   0.145   2.041  0.8642  0.2233 -0.2675
   99TMC2     O 1544   4.113   0.080   2.101 -0.8314 -0.0619 -0.5309
   99TMC2     H 1545   3.963   0.012   2.264 -2.3081 -1.7873  0.5641
   99TMC2    H1 1546   3.830   0.327   1.991 -0.0708 -0.3727  0.4480
   99TMC2    H2 1547   3.629   0.245   2.356  0.4431  0.8447  0.9517
   99TMC2    C7 1548   3.609   0.381   2.136  0.0924 -0.3726 -0.3048
   99TMC2    C8 1549   3.796   0.053   2.450  0.4012 -0.4135  0.2073
   99TMC2    O1 1550   3.555   0.429   2.237 -0.3472 -0.0581  0.3937
   99TMC2    O2 1551   3.902   0.028   2.505 -0.2214 -0.2402 -0.3629
   99TMC2    O5 1552   3.672   0.049   2.497  0.3448  0.0549 -0.2288
   99TMC2    H5 1553   3.601   0.061   2.431 -0.3886 -2.9639  0.0197
  100MPD2     C 1554   4.275   0.235   1.876 -0.0381 -0.1841  0.1106
  100MPD2    C1 1555   4.143   0.241   1.837  0.5212  0.1117  0.0135
  100MPD2    C2 1556   4.116   0.301   1.715  0.2764  0.1023 -0.6642
  100MPD2    C3 1557   4.217   0.338   1.632  0.8644 -0.4884 -0.9208
  100MPD2    C4 1558   4.346   0.313   1.669 -0.5567 -0.4456  0.1209
  100MPD2    C5 1559   4.373   0.262   1.790  0.1459 -0.0601  0.1750
  100MPD2     H 1560   4.011   0.309   1.687 -0.1113  1.1513  1.0600
  100MPD2    H1 1561   4.431   0.340   1.608 -0.4318 -0.2483  0.3812
  100MPD2    H2 1562   4.304   0.200   1.974  1.5366 -0.5091 -0.4690
  100MPD2    H3 1563   4.470   0.226   1.820 -0.0330 -1.7739 -1.3358
  100MPD2     N 1564   4.180   0.404   1.511  0.2719 -0.7998 -0.0607
  100MPD2    H5 1565   4.082   0.427   1.505  0.1920 -0.3488  3.3921
  100MPD2    N1 1566   4.030   0.214   1.919 -0.0496 -0.5307  0.6322
  100MPD2    H7 1567   3.938   0.241   1.884  1.3988  2.2854 -1.0477
  101TMC2    C1 1568   0.130   2.312  12.538  0.4102 -0.1103 -0.4581
  101TMC2    C2 1569   0.177   2.227  12.447  0.3755 -0.2346  0.4629
  101TMC2    C3 1570   0.283   2.267  12.370 -0.1958 -0.0198  0.4767
  101TMC2    C4 1571   0.159   2.446  12.539 -0.4142 -0.1875  0.0899
  101TMC2    C5 1572   0.274   2.480  12.461 -0.0280  0.3710  0.2580
  101TMC2    C6 1573   0.340   2.385  12.385  0.8093  0.6640  0.1628
  101TMC2     C 1574   0.037   2.268  12.638  0.3548  0.9607  0.4730
  101TMC2     O 1575   4.682   2.344  12.678  0.1272  0.0884 -0.5054
  101TMC2     H 1576   0.126   2.132  12.434  1.7397 -0.7712 -0.8870
  101TMC2    H1 1577   0.096   2.520  12.586 -0.9430  1.1537 -2.7235
  101TMC2    H2 1578   0.429   2.420  12.335  0.6065  0.9083 -0.0291
  101TMC2    C7 1579   0.291   2.626  12.425  0.2454 -0.5546 -0.6972
  101TMC2    C8 1580   0.337   2.165  12.282  0.2164 -0.2188  0.6899
  101TMC2    O1 1581   0.371   2.646  12.333 -0.3113 -0.1989 -0.5525
  101TMC2    O2 1582   0.266   2.075  12.237  0.2271  0.6406 -0.2940
  101TMC2    O5 1583   0.464   2.144  12.317 -0.4700 -0.3235  0.4612
  101TMC2    H5 1584   0.504   2.215  12.372 -4.3439  0.3894  2.3859
  102MPD2     C 1585   0.037   1.941  12.792  0.4544  0.2723  0.3556
  102MPD2    C1 1586   4.711   2.057  12.751  0.2607  0.2483 -0.5032
  102MPD2    C2 1587   4.574   2.086  12.778  0.3020 -0.6484 -0.0635
  102MPD2    C3 1588   4.505   1.995  12.859 -0.7971 -0.6304  1.0864
  102MPD2    C4 1589   4.570   1.882  12.915  0.0064  0.8805 -0.7421
  102MPD2    C5 1590   4.701   1.854  12.881  0.2282 -0.7868  0.0480
  102MPD2     H 1591   4.532   2.181  12.748  1.8265 -0.2026 -0.7723
  102MPD2    H1 1592   4.517   1.808  12.974  0.4280  0.8961 -0.3456
  102MPD2    H2 1593   0.142   1.924  12.771  0.5998  2.4950 -0.6830
  102MPD2    H3 1594   0.013   1.767  12.926  0.3306 -1.1376 -0.7308
  102MPD2     N 1595   4.368   2.022  12.893 -0.1898 -0.3580  0.4275
  102MPD2    H5 1596   4.326   2.097  12.840  1.6299  0.1179 -0.3287
  102MPD2    N1 1597   0.054   2.140  12.670 -0.5211  0.0144 -0.0072
  102MPD2    H7 1598   0.140   2.095  12.639 -1.3940 -1.8919  0.3734
  103TMC2    C1 1599   2.914   1.990  12.458 -0.0643 -0.0331 -0.8507
  103TMC2    C2 1600   3.024   1.992  12.378  0.1741  0.7793 -0.0499
  103TMC2    C3 1601   3.110   2.100  12.391 -0.1313 -0.0982  0.6664
  103TMC2    C4 1602   2.892   2.073  12.563  0.1143 -0.7728  0.2581
  103TMC2    C5 1603   2.981   2.171  12.577  0.4652 -0.1657 -0.7329
  103TMC2    C6 1604   3.091   2.191  12.493  0.2294  0.5152 -0.6252
  103TMC2     C 1605   2.823   1.873  12.446  0.3747  0.5180  0.4712
  103TMC2     O 1606   2.721   1.881  12.513 -0.3972  0.2022 -0.6656
  103TMC2     H 1607   3.032   1.933  12.288  0.3630  0.4394  0.1889
  103TMC2    H1 1608   2.801   2.059  12.621  0.5414  0.3178  1.1955
  103TMC2    H2 1609   3.128   2.293  12.493  0.8705  0.2838  0.8286
  103TMC2    C7 1610   2.973   2.234  12.707 -0.4274  0.0438 -0.3457
  103TMC2    C8 1611   3.206   2.123  12.279 -0.1298 -0.0866  0.4910
  103TMC2    O1 1612   2.889   2.189  12.786  0.0314 -0.3507 -1.1492
  103TMC2    O2 1613   3.196   2.064  12.169  0.2777  0.4633  0.5021
  103TMC2    O5 1614   3.293   2.218  12.309  0.3074  0.4373  0.0223
  103TMC2    H5 1615   3.296   2.258  12.399 -2.3125 -0.5445  0.5366
  104MPD2     C 1616   2.892   1.565  12.260  0.2761  0.3115  0.4029
  104MPD2    C1 1617   2.809   1.655  12.316  0.0102  0.6689  0.6916
  104MPD2    C2 1618   2.670   1.629  12.319 -0.5370 -0.4407  0.3690
  104MPD2    C3 1619   2.621   1.515  12.255  0.7331  0.5652  0.0949
  104MPD2    C4 1620   2.709   1.421  12.214  0.4818 -0.0830 -0.3346
  104MPD2    C5 1621   2.841   1.441  12.216  0.4702  0.1577 -0.0235
  104MPD2     H 1622   2.606   1.708  12.355  0.9158  0.0811  1.8247
  104MPD2    H1 1623   2.680   1.324  12.176  1.4468 -0.9420  1.1455
  104MPD2    H2 1624   3.000   1.577  12.257 -0.0626  2.4950 -2.7209
  104MPD2    H3 1625   2.908   1.365  12.178 -0.2545  0.4815 -1.9637
  104MPD2     N 1626   2.481   1.503  12.248 -0.4809  0.2958 -0.5425
  104MPD2    H5 1627   2.423   1.583  12.270  1.2288  1.8129 -1.5731
  104MPD2    N1 1628   2.875   1.771  12.369  0.4142  0.0500  0.3551
  104MPD2    H7 1629   2.973   1.776  12.344 -0.0780  0.4933 -1.4844
  105TMC2    C1 1630   3.558   1.319   0.432 -0.2475  0.4157  0.3539
  105TMC2    C2 1631   3.443   1.384   0.387 -0.4055 -0.5011  0.7358
  105TMC2    C3 1632   3.377   1.458   0.471  0.5106  0.1843  0.2809
  105TMC2    C4 1633   3.612   1.340   0.563  0.3883  0.6063 -0.7197
  105TMC2    C5 1634   3.554   1.439   0.629  0.9558 -0.6643  0.4558
  105TMC2    C6 1635   3.426   1.490   0.594  0.3471 -0.6831 -0.3826
  105TMC2     C 1636   3.603   1.206   0.356 -0.2411  0.7944  0.0738
  105TMC2     O 1637   3.654   1.117   0.424  0.4279  0.6894 -0.5061
  105TMC2     H 1638   3.399   1.364   0.289  0.2423  0.8823  0.1642
  105TMC2    H1 1639   3.694   1.281   0.602  0.8868  2.8091  1.5542
  105TMC2    H2 1640   3.380   1.573   0.646  2.0103  0.2691 -0.4238
  105TMC2    C7 1641   3.636   1.531   0.712  0.1541  0.1218 -0.0274
  105TMC2    C8 1642   3.259   1.528   0.429  0.1592 -0.2489 -0.1766
  105TMC2    O1 1643   3.566   1.617   0.761 -0.3943  0.5613  0.3055
  105TMC2    O2 1644   3.160   1.553   0.495 -0.7735  0.1585  0.8366
  105TMC2    O5 1645   3.279   1.580   0.305 -0.0230  0.3160 -0.8487
  105TMC2    H5 1646   3.373   1.568   0.277  0.5053 -0.0449  1.1222
  106MPD2     C 1647   3.764   1.031  17.654 -1.0046  0.2932 -0.5783
  106MPD2    C1 1648   3.738   1.162  17.636 -0.4844 -0.7421 -0.3052
  106MPD2    C2 1649   3.684   1.231  17.739  0.3553  1.2151 -0.2277
  106MPD2    C3 1650   3.670   1.169   0.123  0.3577  0.0895 -0.3725
  106MPD2    C4 1651   3.696   1.031   0.148  0.2324 -1.0383  0.3678
  106MPD2    C5 1652   3.743   0.968   0.033 -0.4730 -0.3204  0.1118
  106MPD2     H 1653   3.657   1.336  17.731 -1.9121  0.6438 -0.2249
  106MPD2    H1 1654   3.681   0.972   0.237 -0.3227 -1.0254  0.2880
  106MPD2    H2 1655   3.817   0.969  17.582 -0.8662 -0.9950  0.6476
  106MPD2    H3 1656   3.784   0.868   0.048  2.1065  0.5594 -0.9449
  106MPD2     N 1657   3.618   1.249   0.228  0.3896 -0.0335 -0.2450
  106MPD2    H5 1658   3.586   1.341   0.200 -1.2496 -0.8832 -1.2143
  106MPD2    N1 1659   3.763   1.235  17.518  0.6488 -0.1581 -0.2850
  106MPD2    H7 1660   3.736   1.332  17.504  0.2755 -0.1779  0.3004
  107TMC2    C1 1661   4.385   0.546  11.318  0.1053 -0.2031 -0.8037
  107TMC2    C2 1662   4.347   0.623  11.215  0.4508  0.1379  0.7367
  107TMC2    C3 1663   4.227   0.604  11.160  0.1694  0.5032 -0.2834
  107TMC2    C4 1664   4.304   0.443  11.351  1.0303 -0.2555  0.1132
  107TMC2    C5 1665   4.181   0.414  11.291 -0.2066 -0.0621 -0.4471
  107TMC2    C6 1666   4.144   0.496  11.191 -0.4592  0.8124 -0.3705
  107TMC2     C 1667   4.399   0.626  11.436  0.3972 -0.1962  0.0739
  107TMC2     O 1668   4.351   0.586  11.544  0.1312  0.6861  0.0775
  107TMC2     H 1669   4.403   0.710  11.183  0.7844  0.5200  2.3764
  107TMC2    H1 1670   4.333   0.380  11.434 -2.0621 -2.0902 -0.2087
  107TMC2    H2 1671   4.045   0.479  11.149  0.0414 -1.2003 -0.7067
  107TMC2    C7 1672   4.076   0.389  11.387 -0.0853  0.1301 -0.2203
  107TMC2    C8 1673   4.183   0.718  11.079  0.7985  0.3142 -0.4017
  107TMC2    O1 1674   3.979   0.324  11.349 -0.5914 -0.5377  0.1160
  107TMC2    O2 1675   4.257   0.807  11.043  0.0798  0.2892 -0.3227
  107TMC2    O5 1676   4.047   0.741  11.086 -0.0785  0.3350 -0.3366
  107TMC2    H5 1677   3.997   0.660  11.109  1.6739 -0.7624 -0.4066
  108MPD2     C 1678   4.610   0.920  11.505 -0.0387  0.2090  0.6283
  108MPD2    C1 1679   4.502   0.837  11.526  0.5610  0.4026  0.3045
  108MPD2    C2 1680   4.423   0.864  11.634  0.3294 -0.1483 -0.5737
  108MPD2    C3 1681   4.455   0.958  11.734  0.6165 -0.5489  0.2078
  108MPD2    C4 1682   4.568   1.028  11.717 -0.5246 -0.4538 -0.0559
  108MPD2    C5 1683   4.644   1.011  11.604 -0.1211 -0.4747  0.0767
  108MPD2     H 1684   4.338   0.797  11.641 -0.1177  0.6437  1.7188
  108MPD2    H1 1685   4.593   1.111  11.784  1.6226 -0.7650 -0.4574
  108MPD2    H2 1686   4.666   0.922  11.412 -1.4491  1.5064 -0.1861
  108MPD2    H3 1687   4.732   1.074  11.595 -0.9281  0.5496 -0.6325
  108MPD2     N 1688   4.366   0.993  11.837  0.3581 -0.4528 -0.0955
  108MPD2    H5 1689   4.395   1.066  11.900 -0.5467 -0.9803  0.9396
  108MPD2    N1 1690   4.472   0.743  11.422 -0.3365 -0.4028 -0.1534
  108MPD2    H7 1691   4.532   0.742  11.340 -2.4456 -0.1770 -1.6999
  109TMC2    C1 1692   0.058   2.741   0.433  0.1319 -0.8519  0.1533
  109TMC2    C2 1693   0.092   2.736   0.304  0.0209 -0.0188  0.3531
  109TMC2    C3 1694   0.225   2.772   0.273 -0.1983 -0.0298 -0.4815
  109TMC2    C4 1695   0.148   2.782   0.533  0.6191  0.3312  0.8977
  109TMC2    C5 1696   0.270   2.830   0.498  0.3910  0.7824  0.5277
  109TMC2    C6 1697   0.308   2.820   0.368  0.3620  0.7223 -0.8790
  109TMC2     C 1698   4.647   2.768   0.451  0.3814 -0.1331 -0.3184
  109TMC2     O 1699   4.569   2.758   0.359  0.3894 -0.1561 -0.2798
  109TMC2     H 1700   0.018   2.703   0.233 -0.1421 -0.6659  0.8224
  109TMC2    H1 1701   0.122   2.789   0.638 -3.1971 -1.0339  0.0421
  109TMC2    H2 1702   0.397   2.868   0.330 -0.6886  3.6210  0.3464
  109TMC2    C7 1703   0.355   2.919   0.589 -0.6149  0.2720 -0.3006
  109TMC2    C8 1704   0.267   2.785   0.134  0.3040  0.1053 -0.2312
  109TMC2    O1 1705   0.450   2.974   0.537  0.0267  0.1329  0.4845
  109TMC2    O2 1706   0.385   2.797   0.102 -0.5230 -0.0695  0.7693
  109TMC2    O5 1707   0.162   2.845   0.073  0.4181  0.2639 -0.1263
  109TMC2    H5 1708   0.092   2.854   0.141  0.5717  0.3401  0.0210
  110MPD2     C 1709   4.311   3.094   0.663 -0.3786  0.5465  0.5729
  110MPD2    C1 1710   4.428   3.090   0.735 -0.2529  0.0219  0.4818
  110MPD2    C2 1711   4.523   2.993   0.707 -0.0313  0.4102  0.3609
  110MPD2    C3 1712   4.507   2.912   0.601  0.2667  0.3136  0.0910
  110MPD2    C4 1713   4.386   2.900   0.537 -0.2689  0.2167  0.1043
  110MPD2    C5 1714   4.286   2.993   0.574 -0.7913  0.1115 -0.7199
  110MPD2     H 1715   4.601   2.974   0.780 -0.2377 -1.1168  0.1809
  110MPD2    H1 1716   4.364   2.832   0.456  2.0898 -0.4125 -0.0052
  110MPD2    H2 1717   4.230   3.165   0.678 -0.9766 -0.0280  0.0372
  110MPD2    H3 1718   4.194   2.993   0.517 -1.4277 -0.2420  0.3115
  110MPD2     N 1719   4.617   2.826   0.574  0.1941  0.3531  0.6005
  110MPD2    H5 1720   4.697   2.837   0.635  1.5446 -0.1672 -1.0695
  110MPD2    N1 1721   4.443   3.188   0.833  0.0903  0.5093 -0.2099
  110MPD2    H7 1722   4.377   3.265   0.838 -1.6145 -1.1121  2.0493
  111TMC2    C1 1723   4.229   2.593  11.745 -0.5168 -0.0721 -0.2184
  111TMC2    C2 1724   4.203   2.562  11.879 -0.2526 -0.0875  0.4946
  111TMC2    C3 1725   4.269   2.636  11.969  0.0483 -0.6774  0.0868
  111TMC2    C4 1726   4.318   2.699  11.715  0.1785  0.1467  0.3725
  111TMC2    C5 1727   4.374   2.774  11.821 -0.6577 -0.0339  0.2518
  111TMC2    C6 1728   4.357   2.737  11.944 -0.0230  0.3430 -0.1699
  111TMC2     C 1729   4.168   2.522  11.639  0.1234 -0.0355 -0.4703
  111TMC2     O 1730   4.208   2.547  11.527 -0.7258 -0.2370 -0.2275
  111TMC2     H 1731   4.133   2.486  11.916 -0.8117  0.5515  0.7520
  111TMC2    H1 1732   4.303   2.749  11.621  0.2350  1.1322  0.8845
  111TMC2    H2 1733   4.418   2.785  12.020 -1.6184 -0.1670  1.4225
  111TMC2    C7 1734   4.486   2.863  11.794  0.4500 -0.4187  0.6266
  111TMC2    C8 1735   4.278   2.568  12.097  0.6982  0.4185 -0.4178
  111TMC2    O1 1736   4.521   2.941  11.883 -0.2181 -0.2296 -0.5833
  111TMC2    O2 1737   4.280   2.446  12.107 -0.3459  0.2748 -0.3762
  111TMC2    O5 1738   4.321   2.661  12.187 -0.1719 -0.3571  0.2875
  111TMC2    H5 1739   4.285   2.750  12.166  0.3119  0.1664  1.6629
  112MPD2     C 1740   3.828   2.196  11.436 -0.2865  0.4219 -0.2343
  112MPD2    C1 1741   3.923   2.272  11.369  0.1149 -0.1288 -0.0639
  112MPD2    C2 1742   4.011   2.350  11.443 -0.0797  0.2600 -0.5103
  112MPD2    C3 1743   4.008   2.344  11.586  0.0301 -0.2540  0.1750
  112MPD2    C4 1744   3.918   2.260  11.643 -0.5785 -0.1656 -0.4395
  112MPD2    C5 1745   3.828   2.190  11.568 -0.3019  0.0600 -0.3223
  112MPD2     H 1746   4.078   2.413  11.386  0.7903  0.3330  0.5928
  112MPD2    H1 1747   3.918   2.253  11.751 -0.4697  0.9147 -0.3688
  112MPD2    H2 1748   3.759   2.126  11.390 -0.5350 -0.1789  1.0401
  112MPD2    H3 1749   3.765   2.121  11.622 -0.0525  1.2828  1.5265
  112MPD2     N 1750   4.082   2.420  11.676  0.7310 -0.1773 -0.4261
  112MPD2    H5 1751   4.074   2.405  11.776  1.8125 -1.3469 -0.5141
  112MPD2    N1 1752   3.921   2.285  11.230 -0.2372 -0.3411  0.0094
  112MPD2    H7 1753   3.974   2.360  11.187 -2.4450 -0.4959 -2.9934
  113TMC2    C1 1754   3.074   1.156   0.542  0.5437  0.3323 -0.1979
  113TMC2    C2 1755   3.017   1.272   0.507 -0.4372 -0.1759  0.0580
  113TMC2    C3 1756   2.948   1.272   0.392  0.1147 -0.7236  0.2598
  113TMC2    C4 1757   3.060   1.033   0.470 -0.4202  0.3694 -0.2596
  113TMC2    C5 1758   2.978   1.044   0.371  0.6277 -0.1428 -0.2417
  113TMC2    C6 1759   2.916   1.153   0.325 -0.2861  0.3327  0.3790
  113TMC2     C 1760   3.189   1.173   0.633 -0.2275 -0.2181  0.5844
  113TMC2     O 1761   3.178   1.254   0.727 -0.1656 -0.1030 -0.0669
  113TMC2     H 1762   3.053   1.362   0.557  1.6119 -0.1962 -1.3615
  113TMC2    H1 1763   3.108   0.938   0.489 -0.3536  0.4263 -0.1442
  113TMC2    H2 1764   2.880   1.150   0.223 -2.8650  0.2776  1.2907
  113TMC2    C7 1765   2.910   0.919   0.330  1.0100  0.1905  0.0051
  113TMC2    C8 1766   2.870   1.387   0.352  0.2172 -0.6482  0.1399
  113TMC2    O1 1767   2.866   0.910   0.215 -0.2287  0.0310  0.7122
  113TMC2    O2 1768   2.777   1.380   0.273  0.1968  0.6897 -0.0862
  113TMC2    O5 1769   2.900   1.494   0.425  0.2124 -0.4332 -0.1224
  113TMC2    H5 1770   2.987   1.488   0.469  0.5248 -0.4140 -0.7377
  114MPD2     C 1771   3.639   1.027   0.852  0.2455 -0.0361 -0.5824
  114MPD2    C1 1772   3.564   1.150   0.862  0.0919  0.2352 -0.2303
  114MPD2    C2 1773   3.445   1.165   0.784  0.3648 -0.0591 -0.5850
  114MPD2    C3 1774   3.402   1.059   0.701  0.8446  0.2115  0.1310
  114MPD2    C4 1775   3.481   0.946   0.698  0.1625 -0.0372  0.4233
  114MPD2    C5 1776   3.585   0.920   0.781 -0.6081  0.3049 -0.1398
  114MPD2     H 1777   3.386   1.255   0.793  0.1259 -0.1557 -1.2194
  114MPD2    H1 1778   3.454   0.865   0.631 -1.0660  1.1425 -0.5194
  114MPD2    H2 1779   3.736   1.011   0.899 -0.2791  2.4622  1.3547
  114MPD2    H3 1780   3.645   0.831   0.766  0.6384  0.8596  1.5394
  114MPD2     N 1781   3.289   1.073   0.619  0.3097 -0.1673 -0.6871
  114MPD2    H5 1782   3.273   1.003   0.548 -1.5636 -1.1466  0.6867
  114MPD2    N1 1783   3.599   1.263   0.943  0.3684 -0.2276 -0.1874
  114MPD2    H7 1784   3.522   1.328   0.957  0.5728  0.7134 -3.5949
  115TMC2    C1 1785   3.581   3.588  17.540  0.2093 -0.7493  0.1271
  115TMC2    C2 1786   3.635   3.633  17.424 -0.3669  0.3033  0.4340
  115TMC2    C3 1787   3.716   3.740  17.431  0.8841  0.2931 -0.3084
  115TMC2    C4 1788   3.601   3.655  17.660 -0.5761  1.1644 -0.1228
  115TMC2    C5 1789   3.677   3.769  17.660 -0.4237 -0.7198  0.6328
  115TMC2    C6 1790   3.739   3.810  17.547  0.2165  0.1271  0.6201
  115TMC2     C 1791   3.488   3.476  17.531  0.2973  0.0035 -0.0588
  115TMC2     O 1792   3.492   3.413  17.429 -0.2042 -0.3673 -0.2596
  115TMC2     H 1793   3.620   3.582  17.330  0.9057  0.5087  0.1251
  115TMC2    H1 1794   3.564   3.615   0.015  2.8120 -1.6832  0.0123
  115TMC2    H2 1795   3.793   3.903  17.535 -1.0527  1.1767  3.1088
  115TMC2    C7 1796   3.667   3.860   0.027 -0.0292 -0.4480 -0.9719
  115TMC2    C8 1797   3.762   3.794  17.308 -0.6352 -0.2026 -0.4749
  115TMC2    O1 1798   3.566   3.867   0.097 -0.0854 -0.4224 -0.0780
  115TMC2    O2 1799   3.847   3.879  17.305  0.0884 -0.8862 -0.0866
  115TMC2    O5 1800   3.656   3.785  17.224 -0.0069 -0.0474 -0.4506
  115TMC2    H5 1801   3.589   3.723  17.259  0.3752 -0.7589 -0.9906
  116MPD2     C 1802   3.061   3.207  17.638 -0.9160 -0.7372  0.0506
  116MPD2    C1 1803   3.158   3.178  17.542  0.0128 -0.1203  0.2611
  116MPD2    C2 1804   3.270   3.266  17.542  0.0545 -0.0613 -0.5615
  116MPD2    C3 1805   3.287   3.366  17.633 -0.2193 -0.2596 -0.4997
  116MPD2    C4 1806   3.193   3.383  17.735 -0.8321 -0.0748  0.4154
  116MPD2    C5 1807   3.080   3.306  17.732 -0.6016 -0.6600  0.3425
  116MPD2     H 1808   3.343   3.252  17.463 -1.0519 -2.1246 -1.1957
  116MPD2    H1 1809   3.203   3.458   0.074  1.7093  0.0102 -0.0150
  116MPD2    H2 1810   2.971   3.146  17.634 -1.5168  0.1403  0.0647
  116MPD2    H3 1811   3.001   3.333   0.063  0.3453  0.8098  0.8321
  116MPD2     N 1812   3.397   3.461  17.635  0.3539 -0.0867 -0.5732
  116MPD2    H5 1813   3.398   3.528  17.712  2.2542 -1.7801  0.8735
  116MPD2    N1 1814   3.130   3.077  17.437  0.0312  0.3772  0.4008
  116MPD2    H7 1815   3.039   3.032  17.439 -0.1189  0.6867  0.5970
  117TMC2    C1 1816   1.945   0.358  14.093  0.1288  0.2199  0.3331
  117TMC2    C2 1817   2.060   0.307  14.139  0.4471  0.0784 -0.0123
  117TMC2    C3 1818   2.131   0.384  14.230  1.0799 -0.1327  0.0322
  117TMC2    C4 1819   1.901   0.489  14.124  0.5982  0.3417  0.1819
  117TMC2    C5 1820   1.980   0.563  14.223  0.5777  0.9588 -0.0685
  117TMC2    C6 1821   2.098   0.510  14.270 -0.5233 -0.3459 -0.8097
  117TMC2     C 1822   1.854   0.260  14.035 -0.3667 -0.1907  0.2533
  117TMC2     O 1823   1.886   0.143  14.036  0.0492  0.3027 -0.1827
  117TMC2     H 1824   2.087   0.206  14.110 -0.4234 -0.3845  0.7952
  117TMC2    H1 1825   1.814   0.540  14.087  0.2248 -0.2629  0.2252
  117TMC2    H2 1826   2.163   0.564  14.338 -1.5373  2.5697 -2.1419
  117TMC2    C7 1827   1.992   0.701  14.191  0.5961  0.3021 -0.3998
  117TMC2    C8 1828   2.278   0.360  14.238 -0.1233 -0.3376  0.2747
  117TMC2    O1 1829   1.953   0.722  14.078  0.0008  0.0471 -0.6585
  117TMC2    O2 1830   2.334   0.390  14.343  0.1941  0.1551 -0.2784
  117TMC2    O5 1831   2.332   0.344  14.111  0.2149  0.0540  0.3114
  117TMC2    H5 1832   2.258   0.342  14.047  1.3626  0.1416 -1.0121
  118MPD2     C 1833   2.131   0.976  14.371 -0.3175  0.9124  0.1765
  118MPD2    C1 1834   2.107   0.897  14.263  0.2713  0.6537 -0.4643
  118MPD2    C2 1835   2.151   0.934  14.139  0.3596 -0.0244  0.2053
  118MPD2    C3 1836   2.214   1.054  14.120  0.8648 -0.5886  0.8263
  118MPD2    C4 1837   2.244   1.133  14.228  0.6242 -0.4082  0.5150
  118MPD2    C5 1838   2.193   1.097  14.351 -0.2736  0.6451 -0.1293
  118MPD2     H 1839   2.130   0.871  14.053  0.6900 -0.4991  0.4703
  118MPD2    H1 1840   2.289   1.231  14.223  2.0170 -1.0941 -0.5930
  118MPD2    H2 1841   2.080   0.947  14.463  2.0221 -0.3131  1.0925
  118MPD2    H3 1842   2.198   1.173  14.428  1.5957  1.2514 -0.8562
  118MPD2     N 1843   2.270   1.087  13.994 -0.5282 -0.5668 -0.8113
  118MPD2    H5 1844   2.323   1.173  13.995 -1.4163  0.0012 -2.8648
  118MPD2    N1 1845   2.046   0.777  14.284  0.0703 -0.4017 -0.2775
  118MPD2    H7 1846   2.051   0.740  14.379  0.2255  1.1561  0.3254
  119TMC2    C1 1847   0.856   1.440  13.208  0.0724 -0.8080 -0.0503
  119TMC2    C2 1848   0.967   1.361  13.218 -0.2510 -0.5144  0.6723
  119TMC2    C3 1849   0.956   1.235  13.161 -0.0084 -0.1508  1.0954
  119TMC2    C4 1850   0.726   1.387  13.183 -0.0717 -0.0396 -0.4404
  119TMC2    C5 1851   0.723   1.253  13.146 -0.2591  0.1010 -0.6079
  119TMC2    C6 1852   0.832   1.178  13.125 -0.0869 -0.7131 -0.3824
  119TMC2     C 1853   0.858   1.577  13.257  0.2148  0.7821 -0.9775
  119TMC2     O 1854   0.746   1.635  13.258  0.0554  0.0035 -0.5083
  119TMC2     H 1855   1.062   1.402  13.252 -0.9427 -1.3050  3.6041
  119TMC2    H1 1856   0.642   1.453  13.197  0.3212  0.8652 -2.3997
  119TMC2    H2 1857   0.835   1.074  13.092 -1.3970 -0.2764 -1.8749
  119TMC2    C7 1858   0.604   1.187  13.097 -0.5435  0.8420 -0.3649
  119TMC2    C8 1859   1.069   1.139  13.171  0.4488  0.2083  1.4780
  119TMC2    O1 1860   0.615   1.106  13.003  0.3894 -0.2945 -0.0253
  119TMC2    O2 1861   1.069   1.032  13.118 -0.5676 -0.1383  0.1681
  119TMC2    O5 1862   1.137   1.173  13.284  0.6514  0.0653 -0.4503
  119TMC2    H5 1863   1.194   1.104  13.323  0.8998  0.3444 -0.3201
  120MPD2     C 1864   1.023   2.027  13.458  1.0968  0.3645 -0.7624
  120MPD2    C1 1865   0.905   1.994  13.400  0.8730  1.0309  0.8388
  120MPD2    C2 1866   0.893   1.865  13.348 -0.0371  0.3164  1.1431
  120MPD2    C3 1867   0.996   1.770  13.346  0.4954 -0.5275 -0.5199
  120MPD2    C4 1868   1.109   1.811  13.405  0.0599  0.1992 -0.7828
  120MPD2    C5 1869   1.125   1.939  13.461 -0.2070 -0.5302  0.2913
  120MPD2     H 1870   0.798   1.838  13.304  0.6006  1.5064 -0.9613
  120MPD2    H1 1871   1.192   1.741  13.400  0.5338  0.6571  0.7962
  120MPD2    H2 1872   1.041   2.123  13.506  1.7452 -0.7333  1.1978
  120MPD2    H3 1873   1.221   1.969  13.501 -0.2697 -0.3467  0.3003
  120MPD2     N 1874   0.980   1.634  13.300 -0.1867 -0.1880 -0.0681
  120MPD2    H5 1875   1.064   1.578  13.308 -0.6134 -0.7327  0.5751
  120MPD2    N1 1876   0.796   2.088  13.407  0.1018  0.0170 -0.4325
  120MPD2    H7 1877   0.800   2.157  13.481  0.6456  0.4369 -0.8480
  121TMC2    C1 1878   1.898   3.298  13.998  0.3148 -1.0127  0.6026
  121TMC2    C2 1879   1.838   3.426  13.982  0.2150 -0.5122  0.4843
  121TMC2    C3 1880   1.717   3.446  14.035 -0.6744  0.1657  0.6166
  121TMC2    C4 1881   1.832   3.198  14.067 -0.3489  0.4974 -0.4290
  121TMC2    C5 1882   1.718   3.229  14.133 -0.1747 -0.0658 -0.5954
  121TMC2    C6 1883   1.653   3.346  14.115  0.4783 -0.3282 -0.6683
  121TMC2     C 1884   2.029   3.270  13.938  0.1995  1.2075 -0.1142
  121TMC2     O 1885   2.108   3.203  14.000  0.5317  0.1050 -0.0053
  121TMC2     H 1886   1.889   3.514  13.946  0.9058 -0.6945  1.0270
  121TMC2    H1 1887   1.879   3.101  14.070 -0.3178  0.4735 -1.6274
  121TMC2    H2 1888   1.562   3.375  14.165  0.5797 -0.1688 -0.5763
  121TMC2    C7 1889   1.637   3.118  14.163  0.3700 -0.3034  0.5416
  121TMC2    C8 1890   1.662   3.583  14.059  0.0935  0.0768 -0.5674
  121TMC2    O1 1891   1.681   3.013  14.205  0.1534 -0.2242 -0.0852
  121TMC2    O2 1892   1.661   3.669  13.968  0.1410  0.0714  0.3184
  121TMC2    O5 1893   1.689   3.616  14.192 -0.6803  0.3718  0.2677
  121TMC2    H5 1894   1.707   3.535  14.245  1.0652  0.9572  0.5891
  122MPD2     C 1895   2.267   3.270  13.763 -0.3461 -0.3562 -0.6037
  122MPD2    C1 1896   2.149   3.333  13.735 -0.3678  0.2438  0.0025
  122MPD2    C2 1897   2.137   3.400  13.614 -0.0339  0.6386  0.1871
  122MPD2    C3 1898   2.234   3.406  13.523 -1.2856  0.2104  0.2531
  122MPD2    C4 1899   2.355   3.337  13.548  0.1683  0.2308  0.3542
  122MPD2    C5 1900   2.371   3.268  13.670 -0.5522  0.0467  0.2080
  122MPD2     H 1901   2.034   3.426  13.595 -0.4482  0.4526  2.1858
  122MPD2    H1 1902   2.433   3.325  13.475 -0.5870  2.5552 -0.8336
  122MPD2    H2 1903   2.288   3.211  13.852 -0.5571 -0.0766 -0.3722
  122MPD2    H3 1904   2.469   3.227  13.691 -0.4021  0.6900  0.7943
  122MPD2     N 1905   2.215   3.480  13.397  0.3455  0.1198 -0.1556
  122MPD2    H5 1906   2.279   3.468  13.320  2.6072  1.2214  1.5605
  122MPD2    N1 1907   2.038   3.341  13.823 -0.1347  0.2059 -0.0764
  122MPD2    H7 1908   1.951   3.384  13.793 -0.4657 -0.9561 -0.7668
  123TMC2    C1 1909   0.289   1.095  10.524 -0.4157  0.1322 -0.1861
  123TMC2    C2 1910   0.298   1.104  10.390 -0.2391 -0.6473 -0.1054
  123TMC2    C3 1911   0.405   1.049  10.329 -0.6016 -0.4034  0.4367
  123TMC2    C4 1912   0.389   1.032  10.600  0.1000  0.6842 -0.7314
  123TMC2    C5 1913   0.508   0.991  10.536  0.2927  0.4852 -0.6554
  123TMC2    C6 1914   0.513   0.994  10.404  0.4197 -0.0312  0.2082
  123TMC2     C 1915   0.162   1.091  10.585 -0.1953  0.1206 -0.1066
  123TMC2     O 1916   0.099   1.195  10.602  0.4185  0.0446  0.5967
  123TMC2     H 1917   0.206   1.126  10.339 -0.2092  0.9727  0.5331
  123TMC2    H1 1918   0.389   1.034  10.709  2.7756 -2.6829 -0.6803
  123TMC2    H2 1919   0.602   0.954  10.356  0.4880 -0.0376  0.3411
  123TMC2    C7 1920   0.584   0.897  10.613  0.3747 -0.0540  1.1396
  123TMC2    C8 1921   0.396   1.026  10.187  0.1407 -0.8922  0.1003
  123TMC2    O1 1922   0.528   0.839  10.706 -0.2428  0.7762 -0.4092
  123TMC2    O2 1923   0.305   1.076  10.123 -0.3192  0.0573 -0.3904
  123TMC2    O5 1924   0.460   0.910  10.158 -0.1229 -0.1285  0.1801
  123TMC2    H5 1925   0.474   0.859  10.241  0.8145 -1.0276 -0.5306
  124MPD2     C 1926   4.531   0.794  10.782 -0.8379  1.1573 -0.2913
  124MPD2    C1 1927   4.593   0.722  10.680  0.8353  0.6164  0.5680
  124MPD2    C2 1928   4.697   0.776  10.609  0.1812  0.4847 -0.1684
  124MPD2    C3 1929   4.732   0.911  10.637 -0.2373 -0.4735 -0.2196
  124MPD2    C4 1930   4.663   0.985  10.727 -0.6828  0.2923  0.4048
  124MPD2    C5 1931   4.563   0.929  10.799  0.5224  0.2118 -0.6756
  124MPD2     H 1932   0.028   0.717  10.546 -0.6309  0.5668 -1.0943
  124MPD2    H1 1933   4.690   1.086  10.754 -0.0164  0.9962 -2.8970
  124MPD2    H2 1934   4.457   0.750  10.850  0.9374  0.7979  1.4067
  124MPD2    H3 1935   4.519   0.990  10.877  1.2546  0.7904 -0.7107
  124MPD2     N 1936   0.125   0.959  10.590 -0.0321  0.3890 -0.0092
  124MPD2    H5 1937   0.190   0.889  10.555 -2.0126 -1.4286  0.0139
  124MPD2    N1 1938   4.567   0.585  10.668 -0.2547  1.4236 -0.0320
  124MPD2    H7 1939   4.514   0.542  10.743  0.1955  0.0952 -0.4811
  125TMC2    C1 1940   0.935   2.615   8.874  0.0710 -0.4365  0.7837
  125TMC2    C2 1941   0.952   2.531   8.770  0.1893 -0.0346 -0.0301
  125TMC2    C3 1942   1.061   2.557   8.695 -0.3432  0.6674  0.2458
  125TMC2    C4 1943   1.029   2.699   8.926 -0.3277 -0.3235 -0.1729
  125TMC2    C5 1944   1.150   2.705   8.857  0.4385 -0.2032  0.7096
  125TMC2    C6 1945   1.163   2.637   8.739 -0.3183 -0.2868  0.4104
  125TMC2     C 1946   0.828   2.592   8.969  0.0593  0.7485  0.2045
  125TMC2     O 1947   0.793   2.688   9.040  0.1151  0.0999 -0.5343
  125TMC2     H 1948   0.875   2.459   8.746  0.7326 -0.7190  0.2907
  125TMC2    H1 1949   1.018   2.745   9.023  1.4396 -2.6456  1.1264
  125TMC2    H2 1950   1.248   2.665   8.679 -0.7341 -0.4389 -0.2439
  125TMC2    C7 1951   1.257   2.786   8.925 -0.0770  0.2005  0.1792
  125TMC2    C8 1952   1.074   2.481   8.570 -0.5756 -0.4562  0.7682
  125TMC2    O1 1953   1.220   2.849   9.028 -0.3564 -0.4513  0.2961
  125TMC2    O2 1954   1.144   2.377   8.560 -0.0575 -0.0846  0.5494
  125TMC2    O5 1955   1.084   2.581   8.480 -0.5952  0.5465  0.6876
  125TMC2    H5 1956   1.042   2.664   8.512 -0.1281  0.0136  2.6569
  126MPD1     C 1957   0.420   2.329   9.139  0.3097 -0.5589  0.6365
  126MPD1    C1 1958   0.480   2.264   9.035  0.1366 -0.1619  0.4491
  126MPD1    C2 1959   0.598   2.303   8.983 -0.3546 -0.5891  0.1832
  126MPD1    C3 1960   0.652   2.426   9.021  0.1496 -0.6202 -0.1241
  126MPD1    C4 1961   0.579   2.500   9.118  0.1197 -0.2659  0.4636
  126MPD1    C5 1962   0.462   2.449   9.174 -0.6251  0.1059  0.2946
  126MPD1     H 1963   0.651   2.230   8.923 -0.4506  0.7486 -1.4915
  126MPD1    H1 1964   0.600   2.601   9.153  0.1769 -0.0789 -0.1092
  126MPD1    H2 1965   0.324   2.302   9.182 -0.1575 -0.0667 -0.0947
  126MPD1    H3 1966   0.405   2.508   9.246 -1.6616 -1.4852  0.7613
  126MPD1     N 1967   0.773   2.470   8.962 -0.2441  0.0223  0.1684
  126MPD1    H5 1968   0.816   2.396   8.908 -1.8723 -0.5412 -0.3658
  126MPD1    N1 1969   0.425   2.142   9.005 -0.3509  0.4018  0.1131
  126MPD1    H6 1970   0.445   2.120   8.908 -1.1469 -1.2617  0.3432
  126MPD1    H7 1971   0.324   2.155   9.011 -0.4289  0.4508 -1.2560
  127TMC2    C1 1972   1.795   2.090   9.977 -0.0010  0.2254 -0.1124
  127TMC2    C2 1973   1.853   1.996  10.050  0.1939  0.3496 -0.2074
  127TMC2    C3 1974   1.773   1.897  10.094  0.1684 -0.0132  0.1396
  127TMC2    C4 1975   1.667   2.083   9.940 -0.3152  0.6155 -0.2348
  127TMC2    C5 1976   1.595   1.976   9.981 -0.5565  0.6353 -0.0266
  127TMC2    C6 1977   1.647   1.876  10.053  0.1236  0.2678 -0.1016
  127TMC2     C 1978   1.893   2.157   9.883  0.2158 -0.1908  0.7060
  127TMC2     O 1979   2.015   2.139   9.906 -0.1887 -0.1507  0.4772
  127TMC2     H 1980   1.957   1.999  10.080 -0.6515 -0.0907  2.8065
  127TMC2    H1 1981   1.618   2.169   9.894 -0.4177 -0.0438 -1.3625
  127TMC2    H2 1982   1.588   1.797  10.098 -2.3777  0.8591 -2.3178
  127TMC2    C7 1983   1.452   1.985   9.978  0.2271 -0.3360 -0.3077
  127TMC2    C8 1984   1.838   1.794  10.177  0.6813 -0.2289 -0.3575
  127TMC2    O1 1985   1.406   2.093   9.933  0.0359  0.6361 -0.3107
  127TMC2    O2 1986   1.799   1.679  10.190 -0.2086  0.1789 -0.5689
  127TMC2    O5 1987   1.885   1.864  10.285 -0.0902  0.1716  0.2986
  127TMC2    H5 1988   1.894   1.962  10.275 -0.7039  0.2063  0.0749
  128MPD2     C 1989   1.785   2.273   9.552 -0.5083 -0.6688  0.6092
  128MPD2    C1 1990   1.881   2.241   9.648 -0.4083 -0.1260  0.2049
  128MPD2    C2 1991   2.014   2.256   9.619  0.1509 -1.1220 -0.2999
  128MPD2    C3 1992   2.059   2.301   9.494 -0.5944 -0.2284  0.4006
  128MPD2    C4 1993   1.965   2.334   9.400 -0.1292 -0.5356  0.6580
  128MPD2    C5 1994   1.829   2.316   9.432 -0.6018 -0.1417  0.1612
  128MPD2     H 1995   2.087   2.239   9.697 -1.0069 -1.6540  0.6734
  128MPD2    H1 1996   1.984   2.386   9.307  1.4359  1.2711  1.9850
  128MPD2    H2 1997   1.679   2.249   9.561 -0.9434  0.3990 -1.5353
  128MPD2    H3 1998   1.756   2.351   9.360  0.4319  0.4238 -0.6122
  128MPD2     N 1999   2.200   2.332   9.492  0.1945  0.0187 -0.1770
  128MPD2    H5 2000   2.270   2.311   9.563  1.0690 -2.2877 -1.7324
  128MPD2    N1 2001   1.824   2.197   9.776  0.2993 -0.2911  0.0889
  128MPD2    H7 2002   1.723   2.192   9.784  0.1220  2.6450 -0.6479
  129TMC2    C1 2003   1.095   3.053   1.566  0.0378  0.2809 -0.4308
  129TMC2    C2 2004   1.210   3.127   1.553 -0.1143  0.0520  0.4120
  129TMC2    C3 2005   1.310   3.060   1.487 -0.0320  0.5887  0.8387
  129TMC2    C4 2006   1.089   2.920   1.552  0.1622  0.0162  0.7874
  129TMC2    C5 2007   1.197   2.863   1.500 -0.1081  0.4369 -0.5320
  129TMC2    C6 2008   1.304   2.931   1.457  0.8932 -0.4396  0.3853
  129TMC2     C 2009   0.973   3.103   1.626 -0.0341 -0.1334  0.7402
  129TMC2     O 2010   0.892   3.024   1.672 -0.9170  0.2858  0.4946
  129TMC2     H 2011   1.201   3.233   1.574  0.8397  0.6602 -2.1711
  129TMC2    H1 2012   1.002   2.863   1.581  1.8891 -2.4584  1.1786
  129TMC2    H2 2013   1.381   2.884   1.396 -0.5391 -1.1486 -0.8851
  129TMC2    C7 2014   1.188   2.717   1.471 -0.0785 -0.2902  0.3925
  129TMC2    C8 2015   1.439   3.124   1.456 -0.0737  0.7800 -0.3031
  129TMC2    O1 2016   1.079   2.660   1.485  0.2753  0.5458  0.2032
  129TMC2    O2 2017   1.514   3.085   1.369 -0.2012 -0.6431  0.0704
  129TMC2    O5 2018   1.474   3.195   1.567  0.1506  0.6052 -0.1313
  129TMC2    H5 2019   1.416   3.181   1.645 -1.2971 -1.0833 -1.5135
  130MPD2     C 2020   0.780   3.285   1.762 -0.4965  0.4969  0.3573
  130MPD2    C1 2021   0.871   3.323   1.667  0.2533 -0.6176  0.1116
  130MPD2    C2 2022   0.867   3.457   1.619 -1.0383  0.0722 -0.1294
  130MPD2    C3 2023   0.772   3.551   1.662  0.1288 -0.2106 -0.2601
  130MPD2    C4 2024   0.684   3.511   1.764 -0.0268 -0.1027 -0.2375
  130MPD2    C5 2025   0.693   3.382   1.807  0.5188 -0.6855  0.6198
  130MPD2     H 2026   0.932   3.496   1.542 -1.8745 -0.1552 -0.9513
  130MPD2    H1 2027   0.613   3.582   1.804  0.1724  0.0033 -0.0683
  130MPD2    H2 2028   0.771   3.186   1.805  1.1672 -0.3022 -1.1174
  130MPD2    H3 2029   0.630   3.361   1.893 -0.7320 -0.6415 -0.2810
  130MPD2     N 2030   0.762   3.682   1.602  0.2331 -0.5531  0.2417
  130MPD2    H5 2031   0.822   3.687   1.520 -0.2183 -1.2408 -0.1275
  130MPD2    N1 2032   0.966   3.236   1.610 -0.2099  0.1999 -0.1026
  130MPD2    H7 2033   1.028   3.276   1.540  0.0381 -0.3373 -0.1929
  131TMC2    C1 2034   0.190   0.545   9.779 -0.5195  1.2151 -0.5570
  131TMC2    C2 2035   0.322   0.539   9.808  0.1978 -0.6229 -1.1418
  131TMC2    C3 2036   0.390   0.652   9.794  0.5973  0.3026  0.2975
  131TMC2    C4 2037   0.131   0.655   9.724 -0.3719  0.0905  0.2997
  131TMC2    C5 2038   0.208   0.769   9.706  0.2746  0.0609 -0.5922
  131TMC2    C6 2039   0.341   0.762   9.735  0.2684  0.5133  0.2106
  131TMC2     C 2040   0.108   0.429   9.824 -0.3249  0.0157 -0.2834
  131TMC2     O 2041   0.156   0.357   9.909 -0.7150  0.0712 -0.0355
  131TMC2     H 2042   0.359   0.451   9.859  3.1447  2.0034  1.2459
  131TMC2    H1 2043   0.022   0.659   9.723 -0.2864  2.8729  2.2510
  131TMC2    H2 2044   0.407   0.843   9.709  0.6330  0.0218 -0.3972
  131TMC2    C7 2045   0.143   0.888   9.651  0.1839  0.0800  0.3619
  131TMC2    C8 2046   0.534   0.644   9.828  0.0610  0.2520  0.2719
  131TMC2    O1 2047   0.027   0.871   9.611  0.2882  0.1195 -0.4480
  131TMC2    O2 2048   0.603   0.738   9.790  0.1356 -0.6379 -0.2307
  131TMC2    O5 2049   0.538   0.596   9.957 -0.5472  0.0913 -0.5865
  131TMC2    H5 2050   0.458   0.546   9.984  0.4933  0.1007  2.5400
  132MPD2     C 2051   4.485   0.368   9.735 -0.3046  0.6693 -0.3517
  132MPD2    C1 2052   4.600   0.361   9.806 -0.4992 -0.0108 -0.0964
  132MPD2    C2 2053   4.591   0.314   9.933  0.5304  0.1525 -0.5232
  132MPD2    C3 2054   4.474   0.285   9.992 -0.4106  0.4203  0.1267
  132MPD2    C4 2055   4.358   0.295   9.917  0.0588  0.1477  0.2377
  132MPD2    C5 2056   4.364   0.334   9.785 -0.3262  0.4794  0.4274
  132MPD2     H 2057   4.682   0.327   9.990  0.7076  1.1931 -1.0485
  132MPD2    H1 2058   4.256   0.290   9.954 -0.1455  0.6707 -0.2551
  132MPD2    H2 2059   4.488   0.395   9.630 -1.2896 -0.1339 -0.5825
  132MPD2    H3 2060   4.277   0.340   9.721 -1.5738 -1.8682  1.9142
  132MPD2     N 2061   4.476   0.275  10.135 -0.5225 -0.1086  0.2046
  132MPD2    H5 2062   4.569   0.276  10.175 -0.2200 -1.8627 -0.4282
  132MPD2    N1 2063   4.719   0.417   9.756 -0.7719 -0.1315  0.0076
  132MPD2    H7 2064   4.708   0.470   9.670 -0.7672 -0.3469 -0.1259
  133TMC2    C1 2065   4.166   2.395   9.557  0.3340  0.3422  1.1177
  133TMC2    C2 2066   4.242   2.316   9.481  0.1494  0.0936 -0.3843
  133TMC2    C3 2067   4.374   2.316   9.508 -1.0552  0.0553  0.0585
  133TMC2    C4 2068   4.211   2.470   9.664 -0.0047 -1.4337 -0.0590
  133TMC2    C5 2069   4.343   2.475   9.678  0.7240  0.0693  0.1702
  133TMC2    C6 2070   4.427   2.393   9.609 -0.1969  0.6984 -0.2261
  133TMC2     C 2071   4.020   2.360   9.560 -0.2473  0.1897 -0.6039
  133TMC2     O 2072   3.989   2.250   9.511  0.2236  0.0540  0.2855
  133TMC2     H 2073   4.184   2.261   9.408 -1.5582  0.1733  0.9306
  133TMC2    H1 2074   4.144   2.527   9.728 -0.2417 -1.3634 -0.3659
  133TMC2    H2 2075   4.534   2.403   9.624 -0.3900  0.4989  1.2712
  133TMC2    C7 2076   4.391   2.532   9.803  0.4165 -0.2466 -0.3726
  133TMC2    C8 2077   4.462   2.247   9.414 -0.0762 -1.4217  0.2316
  133TMC2    O1 2078   4.303   2.552   9.890 -0.4041  0.4739  0.4156
  133TMC2    O2 2079   4.551   2.302   9.352  0.6410 -0.2896  0.4272
  133TMC2    O5 2080   4.397   2.131   9.386 -0.0660  0.1029  0.5197
  133TMC2    H5 2081   4.354   2.092   9.466  0.7082 -0.9747  0.3973
  134MPD2     C 2082   3.769   2.580   9.716 -0.3441  0.3747 -0.7919
  134MPD2    C1 2083   3.819   2.471   9.651  0.0101  0.2068  0.3529
  134MPD2    C2 2084   3.731   2.372   9.615 -0.0732  0.2272  0.4539
  134MPD2    C3 2085   3.597   2.369   9.641 -0.3437 -0.5866  0.2394
  134MPD2    C4 2086   3.547   2.475   9.716  0.5576 -0.4507  0.0542
  134MPD2    C5 2087   3.630   2.580   9.748  0.0312  0.2844  1.0265
  134MPD2     H 2088   3.769   2.289   9.556 -1.5451  0.6756 -1.1074
  134MPD2    H1 2089   3.439   2.478   9.722  0.4488  1.3273 -2.4916
  134MPD2    H2 2090   3.837   2.659   9.748 -1.9718  1.8862 -1.0560
  134MPD2    H3 2091   3.590   2.668   9.796 -0.7547  0.6786 -0.3400
  134MPD2     N 2092   3.502   2.271   9.592  0.7423  0.5323 -0.0589
  134MPD2    H5 2093   3.409   2.285   9.629 -0.9680 -2.2994 -3.3569
  134MPD2    N1 2094   3.954   2.465   9.614 -0.2652 -0.3089  0.3018
  134MPD2    H7 2095   4.007   2.551   9.625  0.1677 -0.3529 -1.4368
  135TMC2    C1 2096   0.625   3.343   9.439 -0.1011  0.3655  0.3642
  135TMC2    C2 2097   0.575   3.392   9.323  0.2113 -1.0143 -0.3378
  135TMC2    C3 2098   0.440   3.425   9.324  0.4978  0.1593 -0.0293
  135TMC2    C4 2099   0.551   3.331   9.550  1.1104  0.2890 -0.0973
  135TMC2    C5 2100   0.418   3.346   9.539  0.2074  0.0794 -0.1891
  135TMC2    C6 2101   0.356   3.393   9.430  0.6048  0.1432 -0.1183
  135TMC2     C 2102   0.772   3.355   9.449 -0.2270  0.3749  0.3078
  135TMC2     O 2103   0.804   3.405   9.552  0.1450 -0.0715 -0.3873
  135TMC2     H 2104   0.642   3.437   9.251  0.3294 -0.0980  0.3397
  135TMC2    H1 2105   0.599   3.300   9.642 -0.2301  0.1858  0.5629
  135TMC2    H2 2106   0.249   3.405   9.420  0.5184 -1.0785 -0.6450
  135TMC2    C7 2107   0.335   3.311   9.658  0.3462  0.3593  0.2239
  135TMC2    C8 2108   0.386   3.424   9.191 -0.2336 -0.3500 -0.6766
  135TMC2    O1 2109   0.218   3.345   9.668 -0.2219  0.4609 -1.0181
  135TMC2    O2 2110   0.270   3.454   9.161  0.2672  0.6030 -0.7472
  135TMC2    O5 2111   0.464   3.334   9.121  0.4768  0.1256 -0.1720
  135TMC2    H5 2112   0.555   3.320   9.157  0.0574 -1.6258  0.1861
  136MPD2     C 2113   1.068   3.342   9.440 -0.3316 -0.1374  0.2155
  136MPD2    C1 2114   0.983   3.300   9.339  0.0021  0.1118 -0.1469
  136MPD2    C2 2115   1.035   3.236   9.229  0.3070 -0.2942  0.2077
  136MPD2    C3 2116   1.173   3.228   9.219 -0.1513 -0.3090  0.2132
  136MPD2    C4 2117   1.262   3.264   9.317  0.3668  0.7403 -0.1515
  136MPD2    C5 2118   1.203   3.327   9.422  0.3330  0.1723  0.3151
  136MPD2     H 2119   0.964   3.197   9.157  1.6649 -0.2420 -1.1509
  136MPD2    H1 2120   1.370   3.254   9.318  0.1765 -1.2900  0.1208
  136MPD2    H2 2121   1.041   3.396   9.529 -0.9962  0.6220 -0.4432
  136MPD2    H3 2122   1.264   3.381   9.494 -0.0365  0.4684  0.4065
  136MPD2     N 2123   1.233   3.181   9.101 -0.1835  0.1923 -0.4438
  136MPD2    H5 2124   1.334   3.169   9.098 -0.0843  1.2772 -1.4583
  136MPD2    N1 2125   0.840   3.311   9.345  0.2506  0.5356  0.1967
  136MPD2    H7 2126   0.779   3.280   9.271  0.1334  2.4853 -0.5267
  137TMC2    C1 2127   1.519   2.126   9.197  0.5108  0.9250  0.3620
  137TMC2    C2 2128   1.650   2.108   9.175  0.9013 -0.8222 -1.1398
  137TMC2    C3 2129   1.703   1.984   9.152 -0.2968  0.3244 -0.0630
  137TMC2    C4 2130   1.436   2.015   9.202  0.4468 -0.4290 -0.6263
  137TMC2    C5 2131   1.486   1.892   9.161  0.1577 -0.3797 -0.5075
  137TMC2    C6 2132   1.619   1.873   9.129  0.3960 -0.3837 -0.1159
  137TMC2     C 2133   1.459   2.259   9.219  0.7622  0.3538  0.3262
  137TMC2     O 2134   1.549   2.340   9.210  0.6081  0.0468 -0.5124
  137TMC2     H 2135   1.708   2.199   9.164 -1.3351  0.9258  1.5531
  137TMC2    H1 2136   1.328   2.016   9.217  0.7188  0.2836  1.3304
  137TMC2    H2 2137   1.654   1.780   9.087  0.5942  0.1089 -1.0570
  137TMC2    C7 2138   1.415   1.772   9.190  0.0792 -0.1712 -0.1959
  137TMC2    C8 2139   1.845   1.988   9.113 -0.6320 -0.2203  0.4345
  137TMC2    O1 2140   1.480   1.672   9.173  0.0522 -0.0943  0.3044
  137TMC2    O2 2141   1.909   2.090   9.080  0.2188  0.5657 -0.6070
  137TMC2    O5 2142   1.901   1.873   9.139  0.4467  0.3071 -0.6415
  137TMC2    H5 2143   1.843   1.805   9.181  1.8920 -0.6576 -0.1869
  138MPD2     C 2144   1.112   2.377   9.198  0.5381  0.1592 -0.0666
  138MPD2    C1 2145   1.247   2.384   9.227  0.1252  0.2598  0.7127
  138MPD2    C2 2146   1.291   2.503   9.281 -0.1783  0.6796  0.2875
  138MPD2    C3 2147   1.210   2.620   9.305  0.3001 -0.0815  0.0237
  138MPD2    C4 2148   1.079   2.607   9.274  0.4689  0.3645 -0.2411
  138MPD2    C5 2149   1.028   2.484   9.225 -0.1018 -0.5539  0.1588
  138MPD2     H 2150   1.398   2.507   9.298 -0.3790 -0.7815  1.9049
  138MPD2    H1 2151   1.006   2.683   9.299  0.5372  0.2969  0.1641
  138MPD2    H2 2152   1.064   2.284   9.168  3.8299 -0.8142 -2.2378
  138MPD2    H3 2153   0.921   2.476   9.211 -0.1559 -3.7741  2.4686
  138MPD2     N 2154   1.271   2.737   9.360 -0.3959  0.3769  0.6486
  138MPD2    H5 2155   1.372   2.734   9.372 -0.4313 -0.3168  0.7918
  138MPD2    N1 2156   1.320   2.268   9.200 -0.1496  0.3853  0.0337
  138MPD2    H7 2157   1.270   2.184   9.173  2.6489 -1.1025 -0.5651
  139TMC2    C1 2158   1.690   1.614  14.018 -0.1852  0.6445 -0.2778
  139TMC2    C2 2159   1.761   1.577  14.130 -0.5110 -0.2272  0.3138
  139TMC2    C3 2160   1.854   1.668  14.181 -0.8706  0.2306  0.2941
  139TMC2    C4 2161   1.709   1.735  13.961  1.5197  0.3840  0.1693
  139TMC2    C5 2162   1.800   1.824  14.021 -0.1099 -0.1996  0.1617
  139TMC2    C6 2163   1.881   1.790  14.124  0.5600 -0.3412  0.0940
  139TMC2     C 2164   1.607   1.512  13.951 -0.1959 -0.1727  0.5866
  139TMC2     O 2165   1.605   1.403  14.004  0.1549  0.3407  0.7131
  139TMC2     H 2166   1.750   1.477  14.171 -2.3194  0.3571  1.2431
  139TMC2    H1 2167   1.661   1.758  13.866 -0.0791 -1.9782  0.4164
  139TMC2    H2 2168   1.947   1.865  14.169  1.1674 -0.6622 -0.2574
  139TMC2    C7 2169   1.845   1.930  13.936 -0.1723 -1.0448  0.1445
  139TMC2    C8 2170   1.897   1.656  14.322 -0.0966 -0.6665  0.0947
  139TMC2    O1 2171   1.966   1.959  13.924 -0.0665 -0.1658  0.0648
  139TMC2    O2 2172   1.988   1.722  14.364 -0.0011  0.0243 -1.0795
  139TMC2    O5 2173   1.799   1.588  14.396  0.7698 -0.7911  0.3981
  139TMC2    H5 2174   1.712   1.576  14.353 -0.7805 -0.5704  3.4217
  140MPD2     C 2175   1.369   1.534  13.668  0.1987  0.1077 -0.2658
  140MPD2    C1 2176   1.464   1.478  13.749 -0.5247 -0.2716 -0.7181
  140MPD2    C2 2177   1.494   1.346  13.741 -0.3183 -0.0461 -0.5479
  140MPD2    C3 2178   1.417   1.265  13.656 -0.3458  0.1575  0.5725
  140MPD2    C4 2179   1.310   1.315  13.583  0.4589 -0.1226  0.4146
  140MPD2    C5 2180   1.286   1.457  13.587  0.2718  0.6622 -0.1182
  140MPD2     H 2181   1.572   1.302  13.803 -0.3944 -0.2490 -0.5964
  140MPD2    H1 2182   1.256   1.251  13.514 -0.0903  0.1378  0.6018
  140MPD2    H2 2183   1.345   1.639  13.682 -0.7262  0.1975 -2.5565
  140MPD2    H3 2184   1.215   1.515  13.529  0.2808 -0.3223 -1.1113
  140MPD2     N 2185   1.458   1.133  13.639 -0.2371  0.2466 -1.0177
  140MPD2    H5 2186   1.539   1.113  13.697 -0.7305  0.8647 -0.1128
  140MPD2    N1 2187   1.535   1.563  13.842 -0.8616  0.1002 -0.1993
  140MPD2    H7 2188   1.524   1.663  13.837 -0.8319  0.1608  1.0825
  141TMC2    C1 2189   2.194   2.522  14.191  0.4933 -0.2821  0.9108
  141TMC2    C2 2190   2.065   2.491  14.221  0.3738 -0.6224  0.1561
  141TMC2    C3 2191   2.002   2.568  14.315  0.3972 -0.5086  0.3155
  141TMC2    C4 2192   2.261   2.622  14.256  0.0897  0.4274 -0.2401
  141TMC2    C5 2193   2.199   2.690  14.353  0.0444  0.6184 -0.1758
  141TMC2    C6 2194   2.066   2.663  14.388  0.1564 -0.4238  0.4582
  141TMC2     C 2195   2.270   2.458  14.088  0.0120 -0.6559  0.8890
  141TMC2     O 2196   2.386   2.481  14.099  0.0610  0.1909  0.2893
  141TMC2     H 2197   2.018   2.398  14.189 -0.9681 -0.9930  3.1769
  141TMC2    H1 2198   2.362   2.651  14.229  0.4019 -0.0567  0.4319
  141TMC2    H2 2199   2.019   2.734  14.455  0.3467  0.4727 -0.3705
  141TMC2    C7 2200   2.255   2.810  14.413  0.6022  0.1048  0.3340
  141TMC2    C8 2201   1.887   2.496  14.365 -0.5643 -0.4523  0.0720
  141TMC2    O1 2202   2.185   2.884  14.481  0.3231  0.3792 -0.5997
  141TMC2    O2 2203   1.781   2.513  14.314  0.2733 -0.4852 -0.2057
  141TMC2    O5 2204   1.897   2.483  14.496  0.3446 -0.1158 -0.4846
  141TMC2    H5 2205   1.988   2.475  14.534  0.0832  1.4663  0.4583
  142TMC2    C1 2206   0.486   0.199  10.990  0.1995 -0.4321 -0.0751
  142TMC2    C2 2207   0.568   0.156  11.090 -0.1591  0.2041  0.2071
  142TMC2    C3 2208   0.701   0.197  11.086  0.1771 -0.1831 -0.2384
  142TMC2    C4 2209   0.537   0.264  10.884 -0.4778 -0.0071 -0.0192
  142TMC2    C5 2210   0.668   0.304  10.880 -0.4977  0.4999 -0.3892
  142TMC2    C6 2211   0.756   0.275  10.985 -0.4027  0.3572 -0.0052
  142TMC2     C 2212   0.358   0.131  10.965  0.6517  0.5317 -0.6040
  142TMC2     O 2213   0.299   0.156  10.864  0.2295  0.4584 -0.3482
  142TMC2     H 2214   0.535   0.101  11.177  0.5008  0.6538  0.7468
  142TMC2    H1 2215   0.472   0.281  10.798 -1.5188  1.0819  0.9898
  142TMC2    H2 2216   0.862   0.288  11.001 -0.4755 -0.9390  1.5479
  142TMC2    C7 2217   0.695   0.425  10.804  0.8349  0.2546  0.4986
  142TMC2    C8 2218   0.775   0.181  11.206  0.0569  0.3674  0.7148
  142TMC2    O1 2219   0.597   0.456  10.730  0.0530 -0.3442  0.2325
  142TMC2    O2 2220   0.866   0.262  11.231  0.5467 -0.3126 -0.0561
  142TMC2    O5 2221   0.782   0.046  11.229 -0.2386 -0.1793 -0.0584
  142TMC2    H5 2222   0.712   4.726  11.189 -2.6998  2.5344  0.4552
  143MPD2     C 2223   4.707   4.552  11.105  0.2260 -0.2342  0.3390
  143MPD2    C1 2224   0.012   4.598  10.983 -0.4360  0.2997 -0.3233
  143MPD2    C2 2225   0.121   4.681  10.970 -0.2656 -0.1307 -0.4946
  143MPD2    C3 2226   0.196   4.712  11.083 -0.6075  0.8411  0.2762
  143MPD2    C4 2227   0.154   4.657  11.207  0.6718 -0.0276  0.4773
  143MPD2    C5 2228   0.049   4.576  11.218 -0.0471  0.6043  0.0443
  143MPD2     H 2229   0.163   4.710  10.874 -2.5715 -1.9498 -2.0387
  143MPD2    H1 2230   0.205   4.679  11.300  0.2672 -1.1751  0.9766
  143MPD2    H2 2231   4.626   4.481  11.114 -1.0596  1.1211 -0.5176
  143MPD2    H3 2232   0.015   4.522  11.305  0.9107  1.5768  1.0104
  143MPD2     N 2233   0.317   0.057  11.074 -0.4631 -0.2204 -0.3165
  143MPD2    H5 2234   0.372   0.067  11.159 -0.9776  0.9019 -0.1216
  143MPD2    N1 2235   4.669   4.558  10.871  0.9892  0.1979 -0.2529
  143MPD2    H7 2236   4.600   4.485  10.882 -1.2650  2.2828 -0.5997
  144TMC2    C1 2237   3.703   0.015   0.402  0.6675  0.9641  0.7755
  144TMC2    C2 2238   3.774   4.721   0.289  0.2228 -0.5997 -0.7453
  144TMC2    C3 2239   3.911   4.723   0.299  0.5926  0.7206 -0.7587
  144TMC2    C4 2240   3.760   0.035   0.523 -0.3505  0.0528 -0.0888
  144TMC2    C5 2241   3.893   0.037   0.523  0.1870 -0.6609 -0.5314
  144TMC2    C6 2242   3.975   0.012   0.417  0.1108 -0.5238 -0.5131
  144TMC2     C 2243   3.558   0.001   0.389  0.1014  0.0782 -0.8063
  144TMC2     O 2244   3.512   4.652   0.314 -0.3253  0.3464  0.5653
  144TMC2     H 2245   3.727   4.707   0.193 -2.5408 -0.3927  0.5623
  144TMC2    H1 2246   3.701   0.027   0.614 -0.4166  1.5518  0.0006
  144TMC2    H2 2247   4.081   0.033   0.416  0.6098 -2.9574  2.0534
  144TMC2    C7 2248   3.967   0.085   0.641  0.1278  0.4784 -0.6243
  144TMC2    C8 2249   3.973   0.048   0.185 -0.1240 -0.9081  0.0968
  144TMC2    O1 2250   4.085   0.060   0.649  0.6368  0.7800  0.3094
  144TMC2    O2 2251   3.904   0.119   0.114 -0.1860 -0.1797 -0.1071
  144TMC2    O5 2252   4.047   4.682   0.141 -0.1373  0.5271 -0.1789
  144TMC2    H5 2253   4.064   4.609   0.204 -0.9749  1.9914  1.7513
  145MPD2     C 2254   3.070   0.186   0.410 -0.5626  0.2188  0.3010
  145MPD2    C1 2255   3.121   0.062   0.376  0.7505 -0.0636  0.5057
  145MPD2    C2 2256   3.255   0.027   0.397  0.0372 -0.4422  0.4837
  145MPD2    C3 2257   3.347   0.122   0.436 -0.2637 -0.4906  0.1998
  145MPD2    C4 2258   3.291   0.244   0.479 -0.1720 -0.3157  0.5578
  145MPD2    C5 2259   3.159   0.261   0.467  0.4437 -0.3812  0.0366
  145MPD2     H 2260   3.288   4.660   0.382  0.4629 -0.2904  0.3978
  145MPD2    H1 2261   3.353   0.323   0.519 -0.0138  0.2582 -0.8459
  145MPD2    H2 2262   2.968   0.222   0.407 -0.6749 -0.1537 -0.7191
  145MPD2    H3 2263   3.117   0.357   0.492  0.3302  0.1111 -2.0422
  145MPD2     N 2264   3.487   0.102   0.442 -0.4958  0.1037  1.0970
  145MPD2    H5 2265   3.530   0.180   0.490  1.1801  0.8074 -1.5573
  145MPD2    N1 2266   3.027   4.697   0.336 -0.1019  0.3396 -0.0062
  145MPD2    H7 2267   3.050   4.599   0.328 -0.3867  0.3988 -1.5069
  146TMC2    C1 2268   3.894   3.933  12.846 -1.0019 -0.5925  0.1147
  146TMC2    C2 2269   3.828   4.027  12.766 -0.1015 -0.3109 -0.2562
  146TMC2    C3 2270   3.877   4.035  12.637  0.3798 -0.4950 -0.2297
  146TMC2    C4 2271   4.013   3.869  12.808 -0.7670  0.3189 -0.3599
  146TMC2    C5 2272   4.050   3.888  12.680 -0.3890  0.7335  0.7530
  146TMC2    C6 2273   3.989   3.974  12.598  0.5861  0.3828 -0.6210
  146TMC2     C 2274   3.851   3.937  12.986 -0.6408 -0.4262  0.0092
  146TMC2     O 2275   3.783   4.030  13.025 -0.0405  0.4009  0.3576
  146TMC2     H 2276   3.740   4.079  12.801 -0.4921 -2.7640  2.4068
  146TMC2    H1 2277   4.076   3.808  12.873  0.7833  0.5715 -1.6276
  146TMC2    H2 2278   4.024   3.987  12.496 -0.2948  2.1861 -0.7036
  146TMC2    C7 2279   4.127   3.781  12.605  0.7659 -0.0117  0.5717
  146TMC2    C8 2280   3.779   4.085  12.547 -0.4394 -0.9522  0.6226
  146TMC2    O1 2281   4.157   3.803  12.487  0.0063  0.4427 -0.1670
  146TMC2    O2 2282   3.656   4.077  12.569 -0.2136 -0.5278  0.1472
  146TMC2    O5 2283   3.832   4.109  12.425  0.7031  0.1105 -0.2936
  146TMC2    H5 2284   3.930   4.119  12.428  0.5290  2.0368 -1.3943
  147MPD2     C 2285   4.441   3.401  12.597 -1.0771 -0.7871 -0.0259
  147MPD2    C1 2286   4.350   3.372  12.703  0.2719 -0.6576  0.1761
  147MPD2    C2 2287   4.257   3.464  12.735  0.1312 -0.2757  0.1741
  147MPD2    C3 2288   4.248   3.576  12.661  0.3144  0.0262 -0.1020
  147MPD2    C4 2289   4.342   3.607  12.560 -0.3788  0.3506 -0.2758
  147MPD2    C5 2290   4.435   3.517  12.527  0.5070 -0.0578 -0.0336
  147MPD2     H 2291   4.186   3.442  12.814 -0.3282  0.2363 -0.0984
  147MPD2    H1 2292   4.341   3.700  12.505 -1.8734  0.6911  0.3218
  147MPD2    H2 2293   4.517   3.332  12.562 -1.3307 -0.7676 -0.6233
  147MPD2    H3 2294   4.506   3.527  12.445  3.2703 -0.4340  2.3253
  147MPD2     N 2295   4.147   3.671  12.687  0.6091  0.3152  0.7377
  147MPD2    H5 2296   4.090   3.661  12.770  1.4133 -0.8863  1.1535
  147MPD2    N1 2297   4.353   3.244  12.759  0.3200 -0.2335  1.0552
  147MPD2    H7 2298   4.409   3.176  12.709 -0.3985  1.7887 -2.5430
  148TMC2    C1 2299   4.602   1.414  10.058 -0.1984 -0.7667  0.0618
  148TMC2    C2 2300   4.717   1.460  10.113  0.1177  0.0114 -0.0723
  148TMC2    C3 2301   0.096   1.395  10.091  0.5111 -0.1284  0.2751
  148TMC2    C4 2302   4.594   1.305   9.979  0.2099  0.1481  0.1637
  148TMC2    C5 2303   4.709   1.235   9.955  0.5718  0.0553  0.8008
  148TMC2    C6 2304   0.097   1.281  10.004  0.2908  0.0754 -0.6307
  148TMC2     C 2305   4.480   1.477  10.108 -0.1727  0.4940  0.0152
  148TMC2     O 2306   4.489   1.595  10.140  0.3266  0.2580 -0.5025
  148TMC2     H 2307   4.712   1.540  10.186 -0.6700  1.4399 -1.6851
  148TMC2    H1 2308   4.512   1.275   9.915 -0.7564  1.3000  0.8449
  148TMC2    H2 2309   0.188   1.224   9.987 -0.1674 -0.5171 -1.0943
  148TMC2    C7 2310   4.689   1.098   9.931 -0.0416 -0.0636  0.6577
  148TMC2    C8 2311   0.216   1.457  10.138  0.9041 -0.1758 -0.2590
  148TMC2    O1 2312   4.586   1.076   9.871 -0.7525 -0.0707  0.3602
  148TMC2    O2 2313   0.315   1.457  10.066  0.0950 -0.0915 -0.1990
  148TMC2    O5 2314   0.211   1.445  10.269  0.0234 -0.2482  0.2442
  148TMC2    H5 2315   0.125   1.412  10.303 -0.7963  1.2363 -0.3970
  149MPD2     C 2316   4.194   1.543  10.176 -0.4923  0.0149 -1.0051
  149MPD2    C1 2317   4.240   1.418  10.132 -0.4284 -0.0178 -0.5306
  149MPD2    C2 2318   4.139   1.320  10.117  0.0254  0.3846 -0.4530
  149MPD2    C3 2319   4.009   1.345  10.144 -0.4241 -0.2136 -0.5154
  149MPD2    C4 2320   3.971   1.472  10.173  0.7056  0.1945  0.0723
  149MPD2    C5 2321   4.064   1.577  10.181 -0.3525 -0.0916  0.6046
  149MPD2     H 2322   4.160   1.223  10.075 -0.2788  0.5071 -0.8940
  149MPD2    H1 2323   3.865   1.498  10.180  0.4177 -1.0612  0.3435
  149MPD2    H2 2324   4.272   1.616  10.194  0.5435 -1.4829  0.6271
  149MPD2    H3 2325   4.027   1.679  10.187 -0.6144 -0.2412  1.5946
  149MPD2     N 2326   3.913   1.244  10.129  0.7159 -0.0716  0.4387
  149MPD2    H5 2327   3.815   1.264  10.144  0.2378 -3.2681  1.6456
  149MPD2    N1 2328   4.375   1.388  10.101 -0.0711 -0.5550  0.5127
  149MPD2    H7 2329   4.401   1.293  10.077  0.6769 -0.0681 -0.6359
  150TMC2    C1 2330   1.469   1.313  12.505 -0.2195  0.6402 -0.9012
  150TMC2    C2 2331   1.361   1.378  12.547  0.8648 -0.0652  0.0995
  150TMC2    C3 2332   1.376   1.501  12.608 -0.3231 -0.0557  0.3475
  150TMC2    C4 2333   1.594   1.357  12.530  0.2322  0.3529 -0.1886
  150TMC2    C5 2334   1.609   1.477  12.594  0.6493  0.2691  0.1836
  150TMC2    C6 2335   1.502   1.545  12.635 -0.0399  0.3300 -0.1824
  150TMC2     C 2336   1.443   1.171  12.463 -0.8231 -0.4451 -0.3953
  150TMC2     O 2337   1.532   1.090  12.489 -0.0691 -0.0762  0.5318
  150TMC2     H 2338   1.259   1.343  12.543  1.5054 -1.9374  0.2998
  150TMC2    H1 2339   1.676   1.287  12.517  0.4722  0.3052  1.5070
  150TMC2    H2 2340   1.517   1.649  12.663  1.2100  0.7757 -2.4376
  150TMC2    C7 2341   1.733   1.531  12.640  0.1120  0.0477 -0.2082
  150TMC2    C8 2342   1.284   1.520  12.723  0.3921  0.4838  0.5725
  150TMC2    O1 2343   1.733   1.653  12.657 -0.0994 -0.2549  0.2820
  150TMC2    O2 2344   1.190   1.447  12.749  0.2074 -0.0744 -1.0956
  150TMC2    O5 2345   1.317   1.629  12.792  0.1804 -0.2778 -0.1385
  150TMC2    H5 2346   1.387   1.684  12.752  0.0989 -0.7115 -0.8984
  151MPD2     C 2347   1.205   0.800  12.225  0.6245  0.4735 -0.6192
  151MPD2    C1 2348   1.163   0.919  12.170  0.0635 -0.1275 -0.6063
  151MPD2    C2 2349   1.217   1.033  12.230  0.1399  0.2790 -0.1712
  151MPD2    C3 2350   1.293   1.035  12.341 -0.0300 -0.0422  0.2196
  151MPD2    C4 2351   1.318   0.914  12.405  0.1168  0.1403  0.3941
  151MPD2    C5 2352   1.280   0.797  12.335  0.2055 -0.3641 -0.2161
  151MPD2     H 2353   1.195   1.129  12.185  1.1639  0.1762 -0.8968
  151MPD2    H1 2354   1.377   0.913  12.496 -1.7106  1.3124  1.6003
  151MPD2    H2 2355   1.184   0.707  12.173  0.4257  0.4150 -0.4374
  151MPD2    H3 2356   1.302   0.697  12.371  1.5681  0.1629  0.3797
  151MPD2     N 2357   1.327   1.158  12.391  0.5501 -0.1355 -0.5346
  151MPD2    H5 2358   1.287   1.242  12.349 -1.9401 -0.7101  0.7094
  151MPD2    N1 2359   1.078   0.922  12.057 -0.6653  0.3913 -0.3773
  151MPD2    H7 2360   1.062   0.835  12.008  0.0914 -1.1979  2.2181
  152TMC2    C1 2361   1.741   1.328  12.943 -0.0247 -0.6207 -0.3569
  152TMC2    C2 2362   1.818   1.222  12.985  0.1807 -1.2160  0.7167
  152TMC2    C3 2363   1.936   1.239  13.057 -0.0595  0.8099 -0.2116
  152TMC2    C4 2364   1.774   1.449  12.986 -0.5879  0.1669  0.2845
  152TMC2    C5 2365   1.890   1.466  13.054  0.6624  0.0565 -0.1036
  152TMC2    C6 2366   1.968   1.365  13.097 -0.3216  0.5316  0.1305
  152TMC2     C 2367   1.601   1.300  12.897  1.0486 -0.3679  0.1837
  152TMC2     O 2368   1.517   1.387  12.927 -0.5949 -0.3602  0.2220
  152TMC2     H 2369   1.788   1.122  12.955  1.9184 -1.6787  0.5438
  152TMC2    H1 2370   1.714   1.532  12.950 -1.3624 -0.3219  0.4431
  152TMC2    H2 2371   2.044   1.376  13.173  0.3457  0.1030 -0.4807
  152TMC2    C7 2372   1.930   1.595  13.094  0.4208 -0.2245  0.1238
  152TMC2    C8 2373   1.974   1.142  13.158 -0.0343 -0.6272  0.1688
  152TMC2    O1 2374   1.851   1.686  13.099  0.0221 -0.0343  0.7609
  152TMC2    O2 2375   1.939   1.158  13.275  0.2991  0.2679  0.4547
  152TMC2    O5 2376   1.978   1.022  13.092 -0.3429 -0.1779  0.2120
  152TMC2    H5 2377   2.015   1.020  13.001  1.5092 -4.2056  1.0634
  153MPD2     C 2378   1.433   0.975  12.816 -0.4007  1.0809 -0.4935
  153MPD2    C1 2379   1.436   1.109  12.842  0.0613 -0.8171  0.5683
  153MPD2    C2 2380   1.319   1.177  12.829 -0.1148  0.0881 -0.4981
  153MPD2    C3 2381   1.202   1.105  12.803  0.3542  0.8143  0.9967
  153MPD2    C4 2382   1.193   0.970  12.797 -0.5606 -0.2948  0.4307
  153MPD2    C5 2383   1.317   0.908  12.796  0.0070 -0.5025 -0.6135
  153MPD2     H 2384   1.331   1.285  12.826  1.1930 -0.0357 -0.0611
  153MPD2    H1 2385   1.109   0.912  12.761 -1.1827  0.4546  0.6947
  153MPD2    H2 2386   1.524   0.920  12.797 -0.0637  1.4321  0.1336
  153MPD2    H3 2387   1.316   0.805  12.765 -1.2825 -0.3604 -1.0393
  153MPD2     N 2388   1.088   1.190  12.778 -0.0551 -0.4215  0.1753
  153MPD2    H5 2389   1.110   1.289  12.778  0.1951 -0.4721  2.5573
  153MPD2    N1 2390   1.571   1.168  12.865 -0.6400  0.1513  0.1702
  153MPD2    H7 2391   1.649   1.106  12.847 -2.0618 -1.7250  0.4696
  154TMC2    C1 2392   3.327   1.047   0.106  0.5852 -0.2214  0.4262
  154TMC2    C2 2393   3.357   0.983   0.220 -0.6550  0.1716 -0.0795
  154TMC2    C3 2394   3.393   0.854   0.216 -0.0913 -0.4767 -0.0033
  154TMC2    C4 2395   3.349   0.988  17.721 -0.0865  0.9798 -0.0069
  154TMC2    C5 2396   3.382   0.852  17.724  0.3118  0.0299 -0.5879
  154TMC2    C6 2397   3.402   0.788   0.101  0.4881  0.3777 -0.5998
  154TMC2     C 2398   3.250   1.165   0.120 -0.2693 -0.2566  0.6721
  154TMC2     O 2399   3.242   1.211   0.230 -0.4128  0.3102 -0.3341
  154TMC2     H 2400   3.353   1.029   0.318  1.6955 -0.5748  0.3680
  154TMC2    H1 2401   3.332   1.046  17.630 -1.3534 -0.0079 -0.3963
  154TMC2    H2 2402   3.435   0.685   0.102 -0.8928 -0.0474  0.6597
  154TMC2    C7 2403   3.408   0.773  17.600 -1.7178  0.1515  0.3169
  154TMC2    C8 2404   3.363   0.781   0.336 -0.2382  0.1990 -0.1606
  154TMC2    O1 2405   3.459   0.839  17.510  0.0613 -0.0349 -0.6265
  154TMC2    O2 2406   3.331   0.833   0.442  0.3665  0.0201 -0.2445
  154TMC2    O5 2407   3.458   0.683   0.336 -0.2434 -0.1255 -0.2204
  154TMC2    H5 2408   3.520   0.685   0.260  0.4757 -0.5752  0.3437
  155MPD2     C 2409   3.007   1.325  17.635 -0.2097  0.6461  0.3554
  155MPD2    C1 2410   3.090   1.317   0.003 -0.2054 -0.3645 -0.1233
  155MPD2    C2 2411   3.097   1.428   0.089 -0.5285 -0.1813  0.4957
  155MPD2    C3 2412   3.018   1.543   0.077  0.7127  0.2584 -0.4540
  155MPD2    C4 2413   2.927   1.536  17.715 -0.1883  0.0996 -0.5313
  155MPD2    C5 2414   2.933   1.437  17.625 -0.0360 -0.7150  0.4738
  155MPD2     H 2415   3.170   1.438   0.168  0.9338  1.7196 -1.0937
  155MPD2    H1 2416   2.848   1.608  17.696 -0.2059  0.5963  1.4634
  155MPD2    H2 2417   2.976   1.243  17.571 -1.3189  1.0270  0.3931
  155MPD2    H3 2418   2.863   1.448  17.543 -0.9692 -0.7451  1.2749
  155MPD2     N 2419   3.034   1.661   0.154 -0.2270 -0.3152  0.0413
  155MPD2    H5 2420   3.111   1.650   0.219  0.4146 -0.7491 -0.7800
  155MPD2    N1 2421   3.177   1.206   0.009 -1.3175 -0.2549  0.1827
  155MPD2    H7 2422   3.186   1.153  17.662  1.4451  0.1575  0.1913
  156TMC2    C1 2423   1.450   3.173  11.935  0.2928  0.2373 -0.1865
  156TMC2    C2 2424   1.368   3.067  11.951  0.4797  0.5917 -0.7361
  156TMC2    C3 2425   1.325   3.002  11.836 -0.5192  0.5209  0.2233
  156TMC2    C4 2426   1.484   3.220  11.809 -0.5314  0.1161 -0.1135
  156TMC2    C5 2427   1.427   3.154  11.697  0.1883 -0.1800 -0.0989
  156TMC2    C6 2428   1.335   3.054  11.717  0.0227  0.4159 -0.0189
  156TMC2     C 2429   1.533   3.216  12.047  0.5393  0.0294 -0.2164
  156TMC2     O 2430   1.545   3.335  12.055  0.1120 -0.4285  0.6506
  156TMC2     H 2431   1.346   3.018  12.045 -1.9062 -1.4866 -2.3791
  156TMC2    H1 2432   1.551   3.303  11.790  0.1509 -0.3658  0.1547
  156TMC2    H2 2433   1.311   2.992  11.631 -1.4694  0.5432  0.3043
  156TMC2    C7 2434   1.394   3.250  11.591  0.1888 -0.3502  0.5334
  156TMC2    C8 2435   1.207   2.919  11.857 -0.3545  0.2608 -0.1376
  156TMC2    O1 2436   1.406   3.371  11.616 -0.4414 -0.4520 -0.3907
  156TMC2    O2 2437   1.118   2.952  11.930 -0.2026 -0.4012 -0.1355
  156TMC2    O5 2438   1.188   2.847  11.745 -0.1214  0.8194  0.7518
  156TMC2    H5 2439   1.272   2.810  11.713 -0.7845  1.3360 -1.5745
  157MPD2     C 2440   1.609   3.006  12.340 -0.4265  0.1492 -0.2942
  157MPD2    C1 2441   1.607   3.120  12.270 -0.2531  0.2395 -0.4653
  157MPD2    C2 2442   1.631   3.240  12.328 -0.4173  0.9299  0.1727
  157MPD2    C3 2443   1.653   3.246  12.464 -0.6139  0.0660 -0.5677
  157MPD2    C4 2444   1.673   3.126  12.531 -0.8269 -0.1484 -0.3246
  157MPD2    C5 2445   1.646   3.012  12.464  0.3140  0.3784 -0.4568
  157MPD2     H 2446   1.612   3.327  12.266  2.5470  1.1681 -0.4418
  157MPD2    H1 2447   1.704   3.120  12.635 -2.3233 -0.2097  0.1237
  157MPD2    H2 2448   1.572   2.915  12.294 -0.4443  1.0748 -2.1421
  157MPD2    H3 2449   1.665   2.923  12.524 -1.6135 -0.8902 -1.7631
  157MPD2     N 2450   1.659   3.371  12.529  0.1125  1.1943 -0.0007
  157MPD2    H5 2451   1.662   3.457  12.476  0.0039  1.2832  0.1364
  157MPD2    N1 2452   1.553   3.109  12.141 -0.1829  0.5603 -0.5615
  157MPD2    H7 2453   1.525   3.018  12.106 -0.0159  0.3254 -0.0912
  158TMC2    C1 2454   2.030   2.807  13.004 -0.4826  0.0410 -0.2459
  158TMC2    C2 2455   2.103   2.822  12.887  0.1891 -1.0893  0.3526
  158TMC2    C3 2456   2.030   2.832  12.769  0.0276 -0.7244  0.3644
  158TMC2    C4 2457   1.894   2.817  13.013 -0.1881 -0.0350  1.0919
  158TMC2    C5 2458   1.834   2.832  12.891  0.0788 -0.0397  0.2304
  158TMC2    C6 2459   1.897   2.830  12.769  0.1623  0.1113  0.2226
  158TMC2     C 2460   2.104   2.786  13.128  0.0511 -0.4997  0.8593
  158TMC2     O 2461   2.222   2.825  13.133 -0.5264 -0.1958  0.0673
  158TMC2     H 2462   2.211   2.828  12.893  0.1369 -1.1451  1.3308
  158TMC2    H1 2463   1.838   2.830  13.105 -1.6885  2.6575 -0.1967
  158TMC2    H2 2464   1.845   2.872  12.684  1.7598 -1.4754 -1.5428
  158TMC2    C7 2465   1.690   2.840  12.886 -0.0263 -0.4738  0.2154
  158TMC2    C8 2466   2.103   2.896  12.663  0.2792  0.3527  0.2964
  158TMC2    O1 2467   1.634   2.880  12.786 -0.4497 -0.4723  0.8572
  158TMC2    O2 2468   2.073   2.884  12.546 -0.8922  0.2191  0.3035
  158TMC2    O5 2469   2.129   3.016  12.724  0.0378  0.1904 -0.1324
  158TMC2    H5 2470   2.117   3.021  12.821  0.1911  0.7777 -0.1432
  159MPD2     C 2471   2.148   2.622  13.608 -0.0313  0.2078 -0.5152
  159MPD2    C1 2472   2.015   2.618  13.579  0.3547 -0.7092  0.3236
  159MPD2    C2 2473   1.984   2.656  13.454 -0.3547 -0.2447  0.2566
  159MPD2    C3 2474   2.068   2.698  13.356 -0.0847 -0.2588  0.0905
  159MPD2    C4 2475   2.204   2.695  13.389  0.6858  0.4008 -0.3761
  159MPD2    C5 2476   2.242   2.647  13.512 -0.0580 -0.4153 -0.1203
  159MPD2     H 2477   1.882   2.655  13.416  0.1253  0.0867 -1.0585
  159MPD2    H1 2478   2.284   2.718  13.319 -1.6979  3.8006 -1.9900
  159MPD2    H2 2479   2.187   2.586  13.703  0.7897  4.1892  0.6786
  159MPD2    H3 2480   2.349   2.647  13.531  0.0130 -1.7349 -0.4756
  159MPD2     N 2481   2.025   2.729  13.225 -0.1094 -0.8246 -0.5042
  159MPD2    H5 2482   1.930   2.709  13.194 -0.1352 -1.2719 -0.1216
  159MPD2    N1 2483   1.924   2.581  13.681 -0.0605 -0.2276  0.1393
  159MPD2    H7 2484   1.959   2.566  13.775 -2.3612 -1.7511  0.7510
  160TMC2    C1 2485   2.290   0.709   1.522 -0.3022  0.2889  0.4818
  160TMC2    C2 2486   2.374   0.748   1.625  0.2539 -0.0869 -0.4550
  160TMC2    C3 2487   2.502   0.773   1.589  0.7340 -0.4656  0.0543
  160TMC2    C4 2488   2.321   0.711   1.389  0.0628 -1.2538  0.0433
  160TMC2    C5 2489   2.445   0.759   1.355  0.2029 -0.1164  0.2645
  160TMC2    C6 2490   2.542   0.782   1.456  0.1587  0.0389 -0.2880
  160TMC2     C 2491   2.146   0.699   1.554 -0.3833 -0.5010  0.3737
  160TMC2     O 2492   2.112   0.652   1.659  0.1649 -0.4137 -0.7042
  160TMC2     H 2493   2.340   0.731   1.726  0.0321  0.8154 -0.3803
  160TMC2    H1 2494   2.255   0.688   1.306  0.2972  1.2953 -0.8366
  160TMC2    H2 2495   2.647   0.802   1.434  0.0205  1.2111  0.1077
  160TMC2    C7 2496   2.493   0.751   1.218 -0.3820  0.4049  0.6172
  160TMC2    C8 2497   2.604   0.806   1.683 -0.2370  0.8493 -0.5397
  160TMC2    O1 2498   2.437   0.665   1.147  0.0172  0.0424 -0.0976
  160TMC2    O2 2499   2.726   0.825   1.662  0.6010  0.6490 -0.0296
  160TMC2    O5 2500   2.553   0.813   1.808 -0.2369  0.2278  0.4136
  160TMC2    H5 2501   2.456   0.812   1.819 -0.1845 -1.2880  0.6772
  161MPD2     C 2502   1.854   0.677   1.532  0.3337 -0.0662 -0.8137
  161MPD2    C1 2503   1.931   0.762   1.465  0.6101  0.1120  0.0512
  161MPD2    C2 2504   1.864   0.866   1.402  0.0998 -0.2882 -0.5276
  161MPD2    C3 2505   1.727   0.873   1.386  0.1513  0.1737  0.2983
  161MPD2    C4 2506   1.649   0.768   1.438 -0.1597  0.4294 -0.5133
  161MPD2    C5 2507   1.713   0.674   1.519  0.1698 -0.2466 -0.6044
  161MPD2     H 2508   1.924   0.936   1.346  1.7886 -0.6322  0.8510
  161MPD2    H1 2509   1.543   0.762   1.418 -0.3908 -1.3135  1.1609
  161MPD2    H2 2510   1.889   0.600   1.600  1.4006  0.6575 -0.5388
  161MPD2    H3 2511   1.642   0.613   1.574  0.4185  1.2606  1.3780
  161MPD2     N 2512   1.665   0.981   1.308  0.0671  0.2275 -0.1246
  161MPD2    H5 2513   1.564   0.975   1.298  0.1317 -0.5076 -0.3562
  161MPD2    N1 2514   2.074   0.766   1.459  0.0728  0.2317 -0.6585
  161MPD2    H7 2515   2.120   0.840   1.407  2.0213 -0.9566 -0.6230
  162TMC2    C1 2516   4.639   2.704   1.332  0.3393  0.3183  0.4521
  162TMC2    C2 2517   4.557   2.770   1.414  0.4442 -0.4149  0.2209
  162TMC2    C3 2518   4.603   2.793   1.542 -0.3503  0.4030  0.0218
  162TMC2    C4 2519   0.016   2.642   1.378 -0.4673  0.5183 -0.5956
  162TMC2    C5 2520   0.066   2.664   1.510 -0.1923 -0.0341  0.4071
  162TMC2    C6 2521   4.726   2.749   1.593  0.7727  0.1712 -0.0285
  162TMC2     C 2522   4.612   2.687   1.193 -0.1435  0.2797  0.5268
  162TMC2     O 2523   4.681   2.609   1.124  0.9479  0.0131  0.2929
  162TMC2     H 2524   4.456   2.801   1.389  1.5504  2.0440 -1.2282
  162TMC2    H1 2525   0.070   2.579   1.308  2.7070  0.9553  1.4589
  162TMC2    H2 2526   0.026   2.778   1.691  0.3624 -1.0508  0.4783
  162TMC2    C7 2527   0.210   2.671   1.531  0.0653 -0.3195  0.1409
  162TMC2    C8 2528   4.528   2.899   1.612 -0.3790 -0.1819  0.3857
  162TMC2    O1 2529   0.247   2.745   1.622 -0.2245 -0.0897  0.3619
  162TMC2    O2 2530   4.469   2.996   1.568 -0.0785 -0.3650  0.2073
  162TMC2    O5 2531   4.520   2.847   1.735 -0.0264 -0.4974 -0.0945
  162TMC2    H5 2532   4.552   2.754   1.739  1.4138  0.0805  2.1998
  163MPD2     C 2533   4.286   2.727   0.796 -0.4387  0.1103  0.1796
  163MPD2    C1 2534   4.400   2.640   0.817 -0.6772  0.0882  0.1067
  163MPD2    C2 2535   4.466   2.647   0.935 -0.2027  0.3889 -0.2778
  163MPD2    C3 2536   4.446   2.756   1.026 -0.4647  0.7453  0.4197
  163MPD2    C4 2537   4.337   2.837   1.005  0.4461 -0.5089 -0.2585
  163MPD2    C5 2538   4.251   2.819   0.892 -0.3672  0.2117 -0.0905
  163MPD2     H 2539   4.542   2.575   0.963 -0.9559 -1.1440 -2.1957
  163MPD2    H1 2540   4.315   2.919   1.072  2.6373 -0.2540  0.1495
  163MPD2    H2 2541   4.233   2.734   0.702  1.8629 -0.9399 -1.1916
  163MPD2    H3 2542   4.166   2.883   0.875 -0.2238  0.6881  0.9392
  163MPD2     N 2543   4.509   2.765   1.151  0.3052  0.2323 -0.2484
  163MPD2    H5 2544   4.473   2.841   1.209 -1.2087  0.7668 -1.9143
  163MPD2    N1 2545   4.425   2.541   0.721  0.0813  0.0472 -0.4539
  163MPD2    H7 2546   4.348   2.527   0.656  1.1624 -0.4568 -1.6086
  164TMC2    C1 2547   4.533   1.452  10.914 -0.4934  0.0872  0.6769
  164TMC2    C2 2548   4.564   1.465  10.781 -0.1474  0.1871 -0.3755
  164TMC2    C3 2549   4.470   1.496  10.691 -0.2322  0.1144 -0.1077
  164TMC2    C4 2550   4.408   1.461  10.959  0.6033 -0.4750 -0.6065
  164TMC2    C5 2551   4.315   1.499  10.869  0.4659 -0.8231 -0.7530
  164TMC2    C6 2552   4.342   1.520  10.733 -0.3573 -0.2337  0.5717
  164TMC2     C 2553   4.634   1.399  11.001 -0.0950  0.1402 -0.5402
  164TMC2     O 2554   4.603   1.368  11.113  0.1614 -0.3554 -0.4509
  164TMC2     H 2555   4.663   1.446  10.742 -0.3309  2.0316 -1.7819
  164TMC2    H1 2556   4.378   1.431  11.059 -0.5102 -1.6425 -1.2940
  164TMC2    H2 2557   4.260   1.559  10.674 -0.4717  0.9886  1.5343
  164TMC2    C7 2558   4.183   1.528  10.923  0.0612 -0.4451 -0.4432
  164TMC2    C8 2559   4.520   1.570  10.570 -0.0548 -0.4125 -0.1152
  164TMC2    O1 2560   4.111   1.607  10.863  0.0663 -0.3684  0.2660
  164TMC2    O2 2561   4.631   1.611  10.563 -0.5197 -0.1691 -0.0120
  164TMC2    O5 2562   4.412   1.628  10.510 -0.3899  0.0073 -0.9870
  164TMC2    H5 2563   4.336   1.572  10.538  0.9433 -1.3173  0.0606
  165TMC2    C1 2564   1.594   0.350   1.435 -0.0487  0.2272 -0.3791
  165TMC2    C2 2565   1.608   0.309   1.570 -0.4075  0.6270  0.2580
  165TMC2    C3 2566   1.728   0.254   1.611  0.1264  0.1629 -0.7845
  165TMC2    C4 2567   1.691   0.351   1.347  0.5293  0.1343 -0.0448
  165TMC2    C5 2568   1.808   0.300   1.401  0.5547 -0.0099 -0.8929
  165TMC2    C6 2569   1.831   0.246   1.526 -0.1636  0.4627  0.0485
  165TMC2     C 2570   1.460   0.393   1.393 -0.0447  0.8143  0.5265
  165TMC2     O 2571   1.367   0.333   1.447 -0.1356  0.1901  0.2497
  165TMC2     H 2572   1.526   0.322   1.639 -1.3254 -4.5066  0.1511
  165TMC2    H1 2573   1.674   0.375   1.243 -0.3533  2.1178  0.5683
  165TMC2    H2 2574   1.927   0.207   1.557 -0.3261  0.3950  0.4746
  165TMC2    C7 2575   1.916   0.280   1.304 -0.0638  0.0338  0.1295
  165TMC2    C8 2576   1.745   0.223   1.752  0.2809  0.3060 -0.8753
  165TMC2    O1 2577   2.029   0.267   1.353 -0.5819 -0.6097 -0.6829
  165TMC2    O2 2578   1.701   0.297   1.841 -0.2827  0.3803 -0.5326
  165TMC2    O5 2579   1.819   0.112   1.772 -0.0468 -0.3741  0.3263
  165TMC2    H5 2580   1.840   0.052   1.697 -3.2213 -0.6101 -0.3872
  166MPD2     C 2581   1.143   0.701   1.129  0.4247  0.2024 -1.0740
  166MPD2    C1 2582   1.121   0.577   1.186 -1.0184 -0.1573  0.5070
  166MPD2    C2 2583   1.230   0.505   1.236 -0.0731 -0.0386  0.0027
  166MPD2    C3 2584   1.353   0.567   1.246  0.4012 -0.9662  0.6246
  166MPD2    C4 2585   1.370   0.694   1.197  0.5953  0.3050 -0.0308
  166MPD2    C5 2586   1.264   0.758   1.143  0.1419 -1.1437  0.1049
  166MPD2     H 2587   1.227   0.410   1.288 -1.7012  0.0239  0.0210
  166MPD2    H1 2588   1.467   0.741   1.188  0.6619 -0.0048 -0.9854
  166MPD2    H2 2589   1.057   0.757   1.092  1.2586  1.5330 -1.0185
  166MPD2    H3 2590   1.265   0.863   1.116  1.3111 -1.0971  0.3143
  166MPD2     N 2591   1.463   0.495   1.298 -0.0500 -0.1730  0.1219
  166MPD2    H5 2592   1.555   0.529   1.271 -0.2253  0.6212  0.5400
  166MPD2    N1 2593   0.985   0.523   1.187  0.5673  0.4803 -0.3523
  166MPD2    H7 2594   0.908   0.584   1.162  0.7899  1.8019  2.0938
  167TMC2    C1 2595   4.649   2.503  12.236  0.3957  0.6937 -0.6920
  167TMC2    C2 2596   4.648   2.604  12.329  0.1744  0.0112  0.8720
  167TMC2    C3 2597   4.581   2.579  12.444  0.2126 -0.0952  0.4204
  167TMC2    C4 2598   4.588   2.376  12.257 -0.1387 -0.4385 -0.3395
  167TMC2    C5 2599   4.524   2.362  12.376 -0.4326 -0.3887  0.0139
  167TMC2    C6 2600   4.516   2.463  12.465 -0.0110 -0.0528  0.4436
  167TMC2     C 2601   4.682   2.546  12.101 -0.8539 -0.6398  0.5468
  167TMC2     O 2602   4.732   2.661  12.098  0.2418 -0.0214  0.5728
  167TMC2     H 2603   4.686   2.705  12.318  4.8174 -1.9369 -0.6553
  167TMC2    H1 2604   4.582   2.297  12.184 -2.3019 -1.6778  1.1900
  167TMC2    H2 2605   4.455   2.441  12.552  1.4586  3.1896  2.3006
  167TMC2    C7 2606   4.463   2.235  12.410 -0.2024 -0.2760 -0.2635
  167TMC2    C8 2607   4.586   2.670  12.556  0.0014 -0.2492  0.1441
  167TMC2    O1 2608   4.421   2.229  12.525  0.5286 -0.3637  0.3674
  167TMC2    O2 2609   4.615   2.790  12.541 -0.0358  0.0205  0.1417
  167TMC2    O5 2610   4.572   2.602  12.675  0.0638 -0.3722 -0.2464
  167TMC2    H5 2611   4.583   2.506  12.663  0.9316 -0.3183  0.1514
  168MPD2     C 2612   4.714   2.569  11.801 -0.4040 -0.4760 -0.0303
  168MPD2    C1 2613   4.628   2.488  11.861  0.5174  0.0628 -0.2569
  168MPD2    C2 2614   4.554   2.413  11.776 -0.5040 -0.4536  0.2965
  168MPD2    C3 2615   4.575   2.419  11.640 -0.0894  0.0317 -0.0061
  168MPD2    C4 2616   4.679   2.483  11.586  0.4239 -0.2457  0.3507
  168MPD2    C5 2617   0.007   2.575  11.667 -0.0338 -0.9788  0.0134
  168MPD2     H 2618   4.482   2.345  11.820 -0.7755 -0.0584  0.4685
  168MPD2    H1 2619   4.694   2.483  11.478 -0.7480 -0.4970  0.1898
  168MPD2    H2 2620   0.030   2.637  11.869 -2.5763 -0.9151  2.0635
  168MPD2    H3 2621   0.090   2.631  11.625 -1.2383 -0.8679 -2.2186
  168MPD2     N 2622   4.481   2.357  11.553 -0.2819  0.0140  0.2043
  168MPD2    H5 2623   4.502   2.377  11.456  1.2625 -1.7136  0.1897
  168MPD2    N1 2624   4.614   2.469  12.003  0.2376 -0.3313 -0.3576
  168MPD2    H7 2625   4.568   2.387  12.042 -2.1238  1.1491 -0.0227
  169MPD1     C 2626   0.801   2.605   9.601 -0.4375 -0.4076 -0.3434
  169MPD1    C1 2627   0.934   2.585   9.593  0.3849  0.7877  0.2321
  169MPD1    C2 2628   0.980   2.452   9.591 -0.2216  0.7340 -0.1984
  169MPD1    C3 2629   0.900   2.346   9.626 -0.7358  0.0853  0.6184
  169MPD1    C4 2630   0.760   2.369   9.636 -1.1026  0.0306  0.7330
  169MPD1    C5 2631   0.718   2.498   9.625  0.2458  0.5591  0.5783
  169MPD1     H 2632   1.087   2.436   9.590 -0.3897 -0.3751 -0.2020
  169MPD1    H1 2633   0.687   2.290   9.646  0.2352 -1.2974 -0.0810
  169MPD1    H2 2634   0.754   2.702   9.602  0.4318 -0.0093  1.3309
  169MPD1    H3 2635   0.610   2.505   9.628  0.1537  0.0393 -1.8325
  169MPD1     N 2636   0.956   2.218   9.624  0.0956 -0.6031  0.0582
  169MPD1    H5 2637   1.057   2.224   9.626  0.1894 -2.4380  0.8118
  169MPD1    N1 2638   1.026   2.700   9.587 -0.0075 -0.0694  0.2627
  169MPD1    H6 2639   0.965   2.780   9.595  2.5637  1.4283  5.0038
  169MPD1    H7 2640   1.078   2.703   9.500  1.4424 -0.8061  1.0995
  170MPD1     C 2641   0.163   3.534  13.269  1.5288  0.4137  0.3161
  170MPD1    C1 2642   0.131   3.527  13.400  1.0082  0.4216  1.3902
  170MPD1    C2 2643   0.171   3.628  13.487  0.1173  0.1858  0.4117
  170MPD1    C3 2644   0.232   3.739  13.429 -0.3549  0.3178  0.1622
  170MPD1    C4 2645   0.252   3.751  13.291 -0.2186  0.2675  0.6865
  170MPD1    C5 2646   0.230   3.640  13.214 -0.5301 -0.5474  0.2876
  170MPD1     H 2647   0.146   3.618  13.592  0.1796  0.6466  0.4709
  170MPD1    H1 2648   0.300   3.837  13.246 -1.2878 -0.0417 -1.0327
  170MPD1    H2 2649   0.145   3.453  13.199  1.5157  0.0908  0.6926
  170MPD1    H3 2650   0.259   3.644  13.109  1.1825 -0.0547  0.7813
  170MPD1     N 2651   0.259   3.843  13.520 -0.6203  0.4088 -0.3723
  170MPD1    H5 2652   0.252   3.824  13.619 -1.7923 -0.9744 -0.7223
  170MPD1    N1 2653   0.089   3.411  13.460  0.0343  0.4300 -0.4912
  170MPD1    H6 2654   0.051   3.421  13.554 -2.9920  1.9628 -1.8595
  170MPD1    H7 2655   0.015   3.370  13.403 -0.0163 -2.5869  1.7116
  171MPD1     C 2656   3.743   0.904  15.286  0.2729 -0.2466 -1.2442
  171MPD1    C1 2657   3.800   0.796  15.210  0.2495  0.1627 -0.3098
  171MPD1    C2 2658   3.810   0.672  15.278 -0.0547 -0.4196 -0.3814
  171MPD1    C3 2659   3.780   0.663  15.416  0.1596 -0.4644  0.3472
  171MPD1    C4 2660   3.732   0.767  15.487  0.5427  0.3834  0.2857
  171MPD1    C5 2661   3.719   0.886  15.419  0.6422  1.1697 -0.0752
  171MPD1     H 2662   3.846   0.585  15.226 -0.0604 -0.5272 -0.2061
  171MPD1    H1 2663   3.701   0.753  15.589 -0.1572 -0.1895 -0.0030
  171MPD1    H2 2664   3.712   0.996  15.236 -1.2265  0.6363  1.3184
  171MPD1    H3 2665   3.671   0.963  15.478  1.2058  1.3663  0.1342
  171MPD1     N 2666   3.781   0.540  15.483 -0.3035 -0.8789 -0.5140
  171MPD1    H5 2667   3.754   0.539  15.581 -0.2407  1.0178 -0.4720
  171MPD1    N1 2668   3.815   0.808  15.070  0.1623  0.2019 -0.5297
  171MPD1    H6 2669   3.864   0.727  15.033 -0.9524 -1.2110  1.0603
  171MPD1    H7 2670   3.869   0.894  15.058  1.2483 -0.2346  1.3108
  172MPD1     C 2671   3.290   4.198   0.086 -0.1632  0.4168  0.3852
  172MPD1    C1 2672   3.235   4.272  17.725 -0.2235  0.0814 -0.1900
  172MPD1    C2 2673   3.235   4.408   0.001  0.1275  0.3480 -0.6869
  172MPD1    C3 2674   3.309   4.478   0.092 -0.4902  0.4895  0.7155
  172MPD1    C4 2675   3.386   4.395   0.175 -0.0891  0.4061  0.4558
  172MPD1    C5 2676   3.371   4.262   0.177  0.4489 -0.1731  0.4620
  172MPD1     H 2677   3.178   4.466  17.668  0.9094 -0.6810 -2.1514
  172MPD1    H1 2678   3.435   4.436   0.263  2.6735  1.0421 -1.3867
  172MPD1    H2 2679   3.290   4.090   0.084 -0.8897  0.4536 -2.0747
  172MPD1    H3 2680   3.418   4.203   0.255 -1.6044 -2.0634  0.2638
  172MPD1     N 2681   3.318   4.619   0.102  0.0411 -0.9015  0.1155
  172MPD1    H5 2682   3.372   4.648   0.183  2.3145 -1.1815 -1.3231
  172MPD1    N1 2683   3.153   4.214  17.631 -0.2532  0.0387 -0.0158
  172MPD1    H6 2684   3.189   4.125  17.598  2.9697  0.9572  1.0037
  172MPD1    H7 2685   3.142   4.283  17.557  1.6732 -0.8989 -1.2146
  173MPD1     C 2686   4.354   0.129  13.599 -0.4270  0.4378  1.0208
  173MPD1    C1 2687   4.486   0.096  13.638 -0.4520  0.1683 -0.2298
  173MPD1    C2 2688   4.509   0.034  13.765  0.0420  0.7191 -0.8464
  173MPD1    C3 2689   4.401   0.027  13.850  0.0050  0.2214 -0.0429
  173MPD1    C4 2690   4.282   0.078  13.816 -0.1681 -0.6618  0.3800
  173MPD1    C5 2691   4.256   0.126  13.693  0.1228 -0.2461 -0.3284
  173MPD1     H 2692   4.611   4.735  13.780 -0.1737 -0.4279 -1.9718
  173MPD1    H1 2693   4.201   0.072  13.888 -0.4389  0.0189  0.1299
  173MPD1    H2 2694   4.329   0.178  13.506  1.6896  0.0333  0.2394
  173MPD1    H3 2695   4.163   0.171  13.662  1.2836  1.9140 -0.6745
  173MPD1     N 2696   4.424   4.699  13.974  0.3340  0.4370 -0.0483
  173MPD1    H5 2697   4.519   4.672  14.000 -1.2380 -2.1294  3.0909
  173MPD1    N1 2698   4.586   0.100  13.540  0.6361  0.3723  0.8680
  173MPD1    H6 2699   4.680   0.117  13.575 -0.9827  1.8898  4.5006
  173MPD1    H7 2700   4.575   0.174  13.471 -2.0599 -2.5737 -1.8564
  174MPD1     C 2701   0.417   4.378  14.254  0.4385  0.5107  0.3219
  174MPD1    C1 2702   0.350   4.365  14.372  0.1426 -0.4924  1.2001
  174MPD1    C2 2703   0.210   4.388  14.367  0.3962 -0.6474 -0.1777
  174MPD1    C3 2704   0.141   4.399  14.248 -0.4165 -0.6800  0.1996
  174MPD1    C4 2705   0.211   4.407  14.129 -0.1989 -0.1828  0.5592
  174MPD1    C5 2706   0.347   4.401  14.138 -0.2155  0.9180 -0.1662
  174MPD1     H 2707   0.158   4.385  14.463 -1.0223  0.4440 -0.9040
  174MPD1    H1 2708   0.168   4.426  14.031  1.7556  0.4616 -0.1957
  174MPD1    H2 2709   0.525   4.377  14.244  0.4646  3.9253  0.0016
  174MPD1    H3 2710   0.399   4.409  14.042 -1.1657 -1.1694 -0.8358
  174MPD1     N 2711   4.733   4.418  14.237 -0.2805 -0.4350 -0.2290
  174MPD1    H5 2712   4.689   4.433  14.147 -0.2342 -1.0032 -0.3506
  174MPD1    N1 2713   0.426   4.361  14.495  0.0908 -0.6638  0.2214
  174MPD1    H6 2714   0.519   4.324  14.477 -0.3471 -1.3570 -0.6180
  174MPD1    H7 2715   0.379   4.320  14.576  1.1815 -2.5217 -0.1090
  175MPD1     C 2716   2.641   1.009  15.170  0.2479  0.0423 -0.6239
  175MPD1    C1 2717   2.721   0.894  15.185 -0.4802 -0.1307 -0.1981
  175MPD1    C2 2718   2.688   0.793  15.273 -0.8489 -0.2374  0.3801
  175MPD1    C3 2719   2.562   0.804  15.340 -0.1354  0.2294 -0.5221
  175MPD1    C4 2720   2.479   0.914  15.314  0.4640  0.5211 -0.2385
  175MPD1    C5 2721   2.519   1.014  15.232  0.1395  0.6189  0.0753
  175MPD1     H 2722   2.755   0.712  15.295  0.2649  0.5205 -0.2156
  175MPD1    H1 2723   2.385   0.924  15.367  0.6822  2.7652 -0.2702
  175MPD1    H2 2724   2.660   1.092  15.104 -0.4193 -1.0228 -2.1512
  175MPD1    H3 2725   2.456   1.101  15.219 -0.5874  0.0809  0.0179
  175MPD1     N 2726   2.518   0.706  15.427 -0.5924 -0.2771 -0.1537
  175MPD1    H5 2727   2.426   0.723  15.465 -0.1948  0.7352  0.3658
  175MPD1    N1 2728   2.850   0.913  15.138 -0.0906  0.4906 -0.3034
  175MPD1    H6 2729   2.890   0.823  15.112  0.6443  0.8681 -0.4765
  175MPD1    H7 2730   2.819   0.964  15.055  1.4842  0.9897 -0.5806
  176MPD1     C 2731   0.059   2.510  16.902 -0.0160  0.6063  0.5682
  176MPD1    C1 2732   0.087   2.625  16.830 -0.6293  0.5831 -0.0758
  176MPD1    C2 2733   0.085   2.748  16.904  0.5468 -0.3751 -0.8320
  176MPD1    C3 2734   0.054   2.755  17.036  0.2492 -0.1777  0.3177
  176MPD1    C4 2735   0.019   2.637  17.099 -0.2742 -0.5570  0.5859
  176MPD1    C5 2736   0.023   2.516  17.031  0.1465 -0.4481  0.0946
  176MPD1     H 2737   0.108   2.846  16.863 -2.0334  0.2349 -0.8219
  176MPD1    H1 2738   4.707   2.645  17.196  0.0675  0.7366  0.6500
  176MPD1    H2 2739   0.046   2.414  16.852 -0.7575  0.0937  1.7282
  176MPD1    H3 2740   4.727   2.425  17.080 -4.3473  0.6619 -0.6996
  176MPD1     N 2741   0.060   2.885  17.101 -0.0111  0.2298  0.5668
  176MPD1    H5 2742   0.083   2.968  17.048  1.3163 -1.7262 -1.8862
  176MPD1    N1 2743   0.130   2.626  16.697 -0.6189  0.0847  0.2329
  176MPD1    H6 2744   0.128   2.715  16.648  0.6468  0.0458  0.1145
  176MPD1    H7 2745   0.083   2.556  16.640 -1.8934  0.0163  1.3551
  177MPD1     C 2746   2.569   2.470  10.200  0.1142 -0.1007  0.0590
  177MPD1    C1 2747   2.498   2.362  10.154 -0.1148 -0.4575  0.4644
  177MPD1    C2 2748   2.488   2.359  10.016 -0.1584  0.3968 -0.2809
  177MPD1    C3 2749   2.554   2.452   9.933  0.0612 -1.4388 -0.2751
  177MPD1    C4 2750   2.621   2.564   9.986  0.6267  0.3457  0.6491
  177MPD1    C5 2751   2.627   2.570  10.123 -0.1688 -0.1145  0.4295
  177MPD1     H 2752   2.435   2.276   9.971 -1.9080  1.8166 -0.8413
  177MPD1    H1 2753   2.670   2.643   9.930  0.4089  1.0142  1.3962
  177MPD1    H2 2754   2.586   2.466  10.307 -0.7275  1.4265  0.2541
  177MPD1    H3 2755   2.683   2.645  10.178 -1.0000  0.4680  0.4785
  177MPD1     N 2756   2.551   2.430   9.795 -0.3404 -0.0797 -0.2635
  177MPD1    H5 2757   2.495   2.356   9.755 -0.2334  1.1380 -2.6642
  177MPD1    N1 2758   2.456   2.252  10.233  0.5053  0.7012 -0.4779
  177MPD1    H6 2759   2.388   2.195  10.183  0.5408  0.9981 -0.8665
  177MPD1    H7 2760   2.428   2.282  10.326  1.9290  1.5657 -0.3257
  178MPD1     C 2761   0.304   4.257   0.135 -1.0042 -0.2051 -0.0094
  178MPD1    C1 2762   0.253   4.228   0.011  0.6480  0.1710 -0.1778
  178MPD1    C2 2763   0.332   4.150  17.672 -0.2138 -0.0093  0.1213
  178MPD1    C3 2764   0.444   4.086  17.719 -0.0064 -0.0585  0.1145
  178MPD1    C4 2765   0.488   4.100   0.109  0.2470  0.0599 -0.3529
  178MPD1    C5 2766   0.420   4.191   0.180 -0.0589  0.1512 -0.4485
  178MPD1     H 2767   0.299   4.135  17.569  1.6659  0.0241 -0.4780
  178MPD1    H1 2768   0.575   4.047   0.148  0.4350  1.1411  0.6836
  178MPD1    H2 2769   0.248   4.328   0.194 -1.0579 -2.1783  2.3206
  178MPD1    H3 2770   0.465   4.203   0.277  0.5744  1.3994 -0.8926
  178MPD1     N 2771   0.508   3.985  17.637 -0.3175 -0.5216 -0.1681
  178MPD1    H5 2772   0.589   3.938  17.677  0.3813 -1.1187 -2.2917
  178MPD1    N1 2773   0.138   4.296  17.694  0.0916  0.2756 -0.7675
  178MPD1    H6 2774   0.061   4.293   0.021 -0.7227  0.8944 -1.6947
  178MPD1    H7 2775   0.118   4.243  17.609  1.7056  0.6757 -1.4086
  179MPD1     C 2776   0.121   2.131  15.893 -0.3596  0.5535  0.3101
  179MPD1    C1 2777   0.014   2.111  15.816 -0.5243 -0.3379 -0.5903
  179MPD1    C2 2778   4.705   1.980  15.795  0.1653  0.6931 -0.2141
  179MPD1    C3 2779   0.046   1.877  15.843 -0.2724 -0.0137  0.3587
  179MPD1    C4 2780   0.156   1.896  15.914 -0.5219  0.1305  1.1118
  179MPD1    C5 2781   0.197   2.021  15.946 -0.7242  0.1456 -0.6755
  179MPD1     H 2782   4.613   1.970  15.739  0.5928  0.0521 -0.8081
  179MPD1    H1 2783   0.212   1.813  15.955  0.4792  1.2658  2.0627
  179MPD1    H2 2784   0.145   2.232  15.922 -1.3249  1.4667 -2.0324
  179MPD1    H3 2785   0.289   2.036  16.002 -0.4721 -0.4621 -0.9352
  179MPD1     N 2786   0.016   1.739  15.831  0.2317  0.3849  0.1110
  179MPD1    H5 2787   0.092   1.676  15.853 -1.5391 -1.4591  0.9594
  179MPD1    N1 2788   4.664   2.217  15.793  0.1277  0.4635 -0.5938
  179MPD1    H6 2789   4.602   2.201  15.715 -0.8813 -0.8018  0.4721
  179MPD1    H7 2790   4.711   2.307  15.783  1.6021 -0.1691  0.6503
  180MPD1     C 2791   0.534   2.770  15.428 -0.4852  0.0118  0.0486
  180MPD1    C1 2792   0.561   2.887  15.354  0.0332 -0.1092 -0.0182
  180MPD1    C2 2793   0.483   2.934  15.250 -1.0748  0.3072 -1.1091
  180MPD1    C3 2794   0.371   2.867  15.223 -0.5464  0.1228  0.0141
  180MPD1    C4 2795   0.348   2.743  15.278  0.6043  0.4809 -0.7540
  180MPD1    C5 2796   0.424   2.695  15.387  0.7432 -0.5820  0.2972
  180MPD1     H 2797   0.513   3.028  15.205 -0.2136  0.4832 -0.1496
  180MPD1    H1 2798   0.278   2.669  15.241  1.3994 -1.4714  1.6113
  180MPD1    H2 2799   0.619   2.729  15.481  0.5855  0.0129 -1.6648
  180MPD1    H3 2800   0.396   2.605  15.440 -0.4315 -0.5188 -0.2305
  180MPD1     N 2801   0.289   2.922  15.123 -0.4763 -0.4725 -0.1412
  180MPD1    H5 2802   0.299   3.021  15.102 -0.8935  0.1385  2.5348
  180MPD1    N1 2803   0.684   2.949  15.383 -0.8030 -0.3318 -0.1107
  180MPD1    H6 2804   0.728   2.939  15.474  0.3486 -1.0475 -0.7358
  180MPD1    H7 2805   0.704   3.039  15.340  0.1039 -0.5876 -0.2167
  181MPD1     C 2806   0.475   4.480   9.954  0.3673  0.2342 -0.3134
  181MPD1    C1 2807   0.538   4.581   9.876  0.1418 -0.2286  0.1736
  181MPD1    C2 2808   0.666   4.587   9.908  0.7241 -0.3100 -0.7463
  181MPD1    C3 2809   0.736   4.512  10.004  0.2446  0.5269 -0.8589
  181MPD1    C4 2810   0.673   4.412  10.070  0.4495  0.5429  0.0893
  181MPD1    C5 2811   0.538   4.397  10.041  0.4386  0.3723  0.9049
  181MPD1     H 2812   0.714   4.659   9.843  0.9090 -0.7861 -1.1400
  181MPD1    H1 2813   0.724   4.354  10.147  0.8474  0.2147 -0.4163
  181MPD1    H2 2814   0.378   4.456   9.912  0.1358  0.9960 -0.2200
  181MPD1    H3 2815   0.483   4.313  10.083  0.2111  0.4877  0.8378
  181MPD1     N 2816   0.870   4.525  10.025  0.2001 -0.1543  0.3552
  181MPD1    H5 2817   0.907   4.460  10.093  2.8245 -1.6153 -2.4925
  181MPD1    N1 2818   0.480   4.640   9.763  0.0423 -0.5170 -0.9973
  181MPD1    H6 2819   0.382   4.659   9.787  0.7525  0.3070  1.3403
  181MPD1    H7 2820   0.522   4.731   9.744 -1.9515  0.5281 -0.4296
  182MPD1     C 2821   3.560   3.384   0.990  0.0197  0.4005  0.0140
  182MPD1    C1 2822   3.446   3.311   0.963 -0.5844  0.0936 -0.1530
  182MPD1    C2 2823   3.326   3.358   1.016 -0.2966 -0.1569 -0.2619
  182MPD1    C3 2824   3.319   3.480   1.090 -0.0731 -0.2167  0.3297
  182MPD1    C4 2825   3.441   3.552   1.102  0.2001  0.0012  0.5544
  182MPD1    C5 2826   3.558   3.502   1.058 -0.2838  0.0511 -1.0061
  182MPD1     H 2827   3.236   3.298   1.008 -0.1364 -0.1463 -2.1606
  182MPD1    H1 2828   3.447   3.657   1.127 -0.0148 -0.1126  1.1018
  182MPD1    H2 2829   3.650   3.344   0.946  0.3086  0.4465  0.5620
  182MPD1    H3 2830   3.655   3.550   1.048 -1.4996  2.6164 -0.5152
  182MPD1     N 2831   3.206   3.540   1.152  0.1152 -0.0512  0.6130
  182MPD1    H5 2832   3.219   3.636   1.182 -0.5341  0.8100 -1.8415
  182MPD1    N1 2833   3.452   3.184   0.906 -0.1220 -0.2683 -0.7960
  182MPD1    H6 2834   3.509   3.179   0.822  1.1723 -1.5982  0.1596
  182MPD1    H7 2835   3.362   3.160   0.866 -0.0787  2.3935 -2.5207
  183MPD1     C 2836   1.895   3.710   9.173  0.0375 -0.0789  0.3144
  183MPD1    C1 2837   1.907   3.730   9.309  0.1111  0.0200 -0.4433
  183MPD1    C2 2838   1.988   3.834   9.354  0.4049  0.3863 -0.0894
  183MPD1    C3 2839   2.058   3.913   9.263 -0.3738 -0.5883 -0.3888
  183MPD1    C4 2840   2.040   3.881   9.125 -0.1779  0.1352 -0.6178
  183MPD1    C5 2841   1.956   3.785   9.078  0.0280  0.1710 -0.9939
  183MPD1     H 2842   2.011   3.857   9.457  1.7833 -0.4678 -0.2189
  183MPD1    H1 2843   2.102   3.930   9.052 -0.7913  2.6213  0.5395
  183MPD1    H2 2844   1.841   3.623   9.138 -0.1468  1.0218 -2.1983
  183MPD1    H3 2845   1.950   3.757   8.973 -0.6145 -1.4417 -0.5250
  183MPD1     N 2846   2.137   4.020   9.309  0.4150  0.2772  0.2081
  183MPD1    H5 2847   2.159   4.025   9.408 -0.0478 -3.0669  0.4772
  183MPD1    N1 2848   1.823   3.662   9.397  0.5243  0.3062 -0.9652
  183MPD1    H6 2849   1.834   3.666   9.498  1.4312 -0.1713 -1.0417
  183MPD1    H7 2850   1.808   3.567   9.362  1.7257 -0.2828  0.1338
  184MPD1     C 2851   1.439   2.511   9.889 -0.4831  0.4991 -0.1857
  184MPD1    C1 2852   1.378   2.577   9.780  0.0435 -0.2278 -0.1234
  184MPD1    C2 2853   1.460   2.616   9.677 -0.0651 -0.2643  0.9045
  184MPD1    C3 2854   1.596   2.586   9.676 -0.3609 -0.2233 -0.1000
  184MPD1    C4 2855   1.654   2.513   9.778 -0.3335 -0.3190 -0.1649
  184MPD1    C5 2856   1.573   2.484   9.889  0.5115 -0.0052 -0.1461
  184MPD1     H 2857   1.406   2.678   9.606  3.0543  1.4715  0.0800
  184MPD1    H1 2858   1.759   2.492   9.764  0.3969  2.9561  0.5407
  184MPD1    H2 2859   1.377   2.481   9.973 -1.5373 -0.2410 -1.2310
  184MPD1    H3 2860   1.618   2.434   9.974 -2.4477  0.4000  1.6657
  184MPD1     N 2861   1.689   2.624   9.577  0.1810  0.3120  0.2514
  184MPD1    H5 2862   1.789   2.614   9.585  0.2812  0.8653 -0.3367
  184MPD1    N1 2863   1.249   2.631   9.784  0.0701  0.6334  0.2552
  184MPD1    H6 2864   1.207   2.629   9.691 -0.3199 -2.9972  0.5416
  184MPD1    H7 2865   1.190   2.582   9.850 -0.3842  3.0267  1.6396
  185MPD1     C 2866   1.484   2.446   8.656 -0.0798  0.4214 -0.1030
  185MPD1    C1 2867   1.600   2.516   8.655 -0.7339 -0.0713 -0.1009
  185MPD1    C2 2868   1.677   2.529   8.771 -0.2224 -0.6464 -0.5997
  185MPD1    C3 2869   1.629   2.479   8.891 -0.1509 -0.0938  0.2985
  185MPD1    C4 2870   1.505   2.415   8.890  0.2113 -0.3145 -0.4688
  185MPD1    C5 2871   1.438   2.392   8.772 -0.1256 -0.1390 -0.4449
  185MPD1     H 2872   1.775   2.571   8.755  1.2180 -3.8368 -0.1487
  185MPD1    H1 2873   1.467   2.379   8.985 -1.5227  1.6164 -0.4352
  185MPD1    H2 2874   1.437   2.424   8.561 -0.5997  0.7435  0.0768
  185MPD1    H3 2875   1.344   2.338   8.765  0.6927 -1.3871 -1.7122
  185MPD1     N 2876   1.703   2.498   9.007  0.3683 -0.2814 -0.1718
  185MPD1    H5 2877   1.663   2.459   9.092 -1.3722  1.6941 -0.1023
  185MPD1    N1 2878   1.656   2.553   8.532  0.2542 -0.0489 -0.0102
  185MPD1    H6 2879   1.714   2.636   8.538 -0.6383  0.5367  0.6343
  185MPD1    H7 2880   1.583   2.577   8.465  0.9450 -0.6406 -0.9812
  186MPD1     C 2881   0.323   1.439  16.223  0.3681  0.0764 -0.0461
  186MPD1    C1 2882   0.355   1.540  16.134 -0.1452 -0.0264 -0.2991
  186MPD1    C2 2883   0.456   1.626  16.159 -0.5846 -0.2015  0.4094
  186MPD1    C3 2884   0.534   1.611  16.275 -0.0134 -0.3529 -0.2323
  186MPD1    C4 2885   0.506   1.508  16.359 -0.4085  0.2584  0.5759
  186MPD1    C5 2886   0.407   1.417  16.331  0.2190 -0.5835 -0.0080
  186MPD1     H 2887   0.476   1.706  16.088 -1.3554 -1.7678 -1.5833
  186MPD1    H1 2888   0.562   1.496  16.451 -0.8522 -1.9355  0.5594
  186MPD1    H2 2889   0.236   1.378  16.204  0.2981  0.5860 -1.3703
  186MPD1    H3 2890   0.381   1.344  16.407  0.9281  1.7286  2.4506
  186MPD1     N 2891   0.609   1.709  16.329 -0.0870 -0.9261 -0.7054
  186MPD1    H5 2892   0.644   1.689  16.422  0.8827 -0.6672 -1.0076
  186MPD1    N1 2893   0.251   1.571  16.049  0.4651  0.1530 -0.6355
  186MPD1    H6 2894   0.278   1.626  15.968  1.1925  0.4958 -0.1639
  186MPD1    H7 2895   0.191   1.490  16.036  0.4621  0.3279 -1.6801
  187MPD1     C 2896   0.565   3.497   0.039  0.3635  0.1187 -0.1950
  187MPD1    C1 2897   0.474   3.435  17.702 -0.1970  0.0889  0.4015
  187MPD1    C2 2898   0.361   3.502  17.662  0.7960  0.1916  0.1379
  187MPD1    C3 2899   0.326   3.629  17.708 -0.3441  0.4908  0.7313
  187MPD1    C4 2900   0.408   3.679   0.067  0.9087  0.5173  0.0646
  187MPD1    C5 2901   0.528   3.621   0.097  0.1556  0.4753 -0.3606
  187MPD1     H 2902   0.297   3.468  17.581  0.3606  2.0485 -0.2882
  187MPD1    H1 2903   0.382   3.770   0.120  1.1596 -0.0527  1.1629
  187MPD1    H2 2904   0.655   3.444   0.070 -0.8200 -1.4931  0.4630
  187MPD1    H3 2905   0.582   3.667   0.179  0.3488  0.2358 -0.3553
  187MPD1     N 2906   0.215   3.699  17.667 -0.2641 -0.2677  0.1231
  187MPD1    H5 2907   0.186   3.775  17.729  1.3051  0.9558 -0.6559
  187MPD1    N1 2908   0.502   3.311  17.638  0.8909 -0.5751  1.1635
  187MPD1    H6 2909   0.578   3.257  17.678  0.9559 -0.6274  0.9644
  187MPD1    H7 2910   0.421   3.249  17.640  0.9443 -0.6437  1.1521
  188MPD1     C 2911   4.371   2.871  10.396 -0.1410 -0.0459  0.8062
  188MPD1    C1 2912   4.257   2.898  10.331  0.3803  0.2266  0.0116
  188MPD1    C2 2913   4.198   2.793  10.267  0.4905 -0.7680  0.4258
  188MPD1    C3 2914   4.250   2.664  10.270  1.2751  0.0584  0.5584
  188MPD1    C4 2915   4.361   2.638  10.339  0.8020 -0.0651  0.3042
  188MPD1    C5 2916   4.431   2.746  10.391 -0.0069  1.3723  0.1146
  188MPD1     H 2917   4.102   2.813  10.223  0.3246 -2.0511  0.1911
  188MPD1    H1 2918   4.408   2.540  10.345 -1.9234 -1.5102 -1.6396
  188MPD1    H2 2919   4.437   2.944  10.440  1.8474 -1.0100 -0.5379
  188MPD1    H3 2920   4.530   2.735  10.433  0.6052  0.2612 -1.6011
  188MPD1     N 2921   4.187   2.551  10.214 -0.6376 -0.0583 -0.6317
  188MPD1    H5 2922   4.217   2.459  10.243  0.6189 -0.4713 -3.1834
  188MPD1    N1 2923   4.228   3.029  10.300  0.1908 -0.3735 -0.5263
  188MPD1    H6 2924   4.253   3.099  10.370  0.1049 -1.1905  0.3117
  188MPD1    H7 2925   4.132   3.058  10.279 -0.4018  0.1229  2.8796
  189MPD1     C 2926   1.897   0.702   0.715 -0.1082 -0.0360 -0.2404
  189MPD1    C1 2927   1.809   0.781   0.641  0.1674  0.1700 -0.3270
  189MPD1    C2 2928   1.688   0.725   0.594  0.1351 -0.4748 -0.3861
  189MPD1    C3 2929   1.664   0.591   0.615 -0.1542  0.1543 -0.6165
  189MPD1    C4 2930   1.748   0.514   0.691  0.3301  0.2993  0.0292
  189MPD1    C5 2931   1.866   0.570   0.740  0.3613 -0.6400  0.8022
  189MPD1     H 2932   1.622   0.791   0.539  1.4738  1.7813  0.6937
  189MPD1    H1 2933   1.734   0.407   0.698 -0.3165  0.4671  1.3407
  189MPD1    H2 2934   1.992   0.745   0.744  0.2735  0.1107 -1.7304
  189MPD1    H3 2935   1.941   0.519   0.799  0.3197 -1.5718  0.0514
  189MPD1     N 2936   1.549   0.544   0.551  0.1542  0.4299  0.3892
  189MPD1    H5 2937   1.496   0.618   0.507 -1.4836  0.0435  1.7116
  189MPD1    N1 2938   1.830   0.917   0.621 -0.3383 -0.1410 -0.4516
  189MPD1    H6 2939   1.829   0.945   0.524 -2.1066  0.0929 -0.3573
  189MPD1    H7 2940   1.928   0.926   0.648 -0.7025 -1.8624  1.4658
  190MPD1     C 2941   0.195   2.357  15.644 -0.8262  0.5649 -0.0212
  190MPD1    C1 2942   0.333   2.364  15.639  0.2450  0.0967 -0.4203
  190MPD1    C2 2943   0.392   2.476  15.693 -0.0986 -0.8689 -0.5966
  190MPD1    C3 2944   0.325   2.583  15.755  0.1494 -0.1561 -0.3078
  190MPD1    C4 2945   0.185   2.580  15.744 -0.4120 -0.5338 -0.0706
  190MPD1    C5 2946   0.125   2.462  15.706 -0.5631  0.4995 -0.4160
  190MPD1     H 2947   0.500   2.469  15.695 -0.0606 -0.1729 -0.1404
  190MPD1    H1 2948   0.118   2.658  15.778  2.3706  1.7659  0.0882
  190MPD1    H2 2949   0.138   2.269  15.617 -0.9512  0.7961 -0.5216
  190MPD1    H3 2950   0.017   2.458  15.705 -0.5051 -0.8893 -1.8817
  190MPD1     N 2951   0.399   2.689  15.810  0.8131  0.1875 -0.0861
  190MPD1    H5 2952   0.499   2.693  15.792  0.8001  1.1461  0.0362
  190MPD1    N1 2953   0.416   2.260  15.594 -0.3767 -0.2710  0.7271
  190MPD1    H6 2954   0.357   2.195  15.542  1.7298 -2.1789  0.7246
  190MPD1    H7 2955   0.493   2.295  15.538 -1.2887  1.2175  0.4274
  191MPD1     C 2956   3.933   4.527  13.169  0.1998 -0.0259  0.1065
  191MPD1    C1 2957   4.043   4.559  13.091  0.3459 -0.3524  0.4858
  191MPD1    C2 2958   4.035   4.647  12.983 -0.3317 -0.3693 -0.1862
  191MPD1    C3 2959   3.916   4.697  12.943 -0.1186  0.0485  0.4213
  191MPD1    C4 2960   3.803   4.675  13.030 -0.1458 -0.4081  0.6406
  191MPD1    C5 2961   3.815   4.589  13.143 -0.2740 -0.7631  0.5059
  191MPD1     H 2962   4.125   4.662  12.924 -0.0068  0.3008  0.4741
  191MPD1    H1 2963   3.707   4.713  12.999  1.0004  1.1008 -1.0685
  191MPD1    H2 2964   3.943   4.457  13.251 -0.6042 -0.0256  0.2062
  191MPD1    H3 2965   3.724   4.561  13.194  1.0578 -2.0556  2.1892
  191MPD1     N 2966   3.919   0.040  12.828  0.1615  0.1832  0.0646
  191MPD1    H5 2967   4.008   0.065  12.786  0.2509 -0.3468 -0.0565
  191MPD1    N1 2968   4.171   4.508  13.130  0.1416 -0.0580 -0.1943
  191MPD1    H6 2969   4.175   4.432  13.198  1.1192  0.2441  0.0925
  191MPD1    H7 2970   4.236   4.492  13.054  0.3931 -0.6902  0.1527
  192MPD1     C 2971   3.395   0.552  12.009  1.2103  0.0021 -0.0930
  192MPD1    C1 2972   3.353   0.474  12.115 -0.0309 -0.4886  0.1994
  192MPD1    C2 2973   3.455   0.405  12.182 -0.8315 -0.0276  0.2469
  192MPD1    C3 2974   3.585   0.438  12.169 -0.5523  0.9440 -0.1368
  192MPD1    C4 2975   3.627   0.524  12.074 -0.3647 -0.3351 -0.3894
  192MPD1    C5 2976   3.527   0.572  11.989 -0.3317 -0.0511 -0.1030
  192MPD1     H 2977   3.420   0.323  12.244 -1.1854  0.0567  0.1629
  192MPD1    H1 2978   3.733   0.539  12.060 -1.0390  0.9508 -4.3323
  192MPD1    H2 2979   3.323   0.595  11.940  0.8966  0.0651  0.2734
  192MPD1    H3 2980   3.557   0.630  11.902 -0.6626 -0.5819 -0.5684
  192MPD1     N 2981   3.687   0.382  12.252  0.0454 -0.2285 -0.2279
  192MPD1    H5 2982   3.781   0.412  12.229  0.5360 -0.8592  0.9515
  192MPD1    N1 2983   3.219   0.444  12.134 -0.1801  0.6261 -0.3731
  192MPD1    H6 2984   3.154   0.509  12.091 -2.4790 -0.7597  0.9926
  192MPD1    H7 2985   3.201   0.455  12.234 -0.6362  4.7060 -0.9305
  193MPD1     C 2986   3.530   0.116  15.846 -0.7257  0.1363 -0.5139
  193MPD1    C1 2987   3.493   0.227  15.910 -0.6319 -0.2912 -0.2135
  193MPD1    C2 2988   3.568   0.270  16.015 -0.4356  0.4727  0.1080
  193MPD1    C3 2989   3.679   0.194  16.051  0.5904 -0.4742  0.2382
  193MPD1    C4 2990   3.705   0.068  15.989 -0.1549 -0.3453  0.4744
  193MPD1    C5 2991   3.623   0.032  15.888 -1.0911  0.2169 -0.2405
  193MPD1     H 2992   3.546   0.366  16.060 -2.2047  0.1349 -0.0282
  193MPD1    H1 2993   3.779   0.000  16.030  0.1096 -0.9267 -0.9617
  193MPD1    H2 2994   3.486   0.079  15.754 -0.1468 -0.3824 -0.5813
  193MPD1    H3 2995   3.625   4.673  15.835 -2.2034 -1.4711  2.6995
  193MPD1     N 2996   3.764   0.232  16.160  0.6629 -0.0263  0.3158
  193MPD1    H5 2997   3.834   0.161  16.179  2.0123  1.1535 -0.1333
  193MPD1    N1 2998   3.400   0.314  15.852 -0.1747 -0.5797  0.1154
  193MPD1    H6 2999   3.357   0.372  15.924 -2.1265 -0.3424 -1.2681
  193MPD1    H7 3000   3.333   0.259  15.799 -0.9030  1.6536 -1.2690
  194MPD1     C 3001   2.723   2.819  16.359 -0.0984 -0.2860  0.2073
  194MPD1    C1 3002   2.608   2.751  16.325  0.2146 -0.4944  0.0072
  194MPD1    C2 3003   2.592   2.620  16.349 -0.0497  0.5198 -0.1959
  194MPD1    C3 3004   2.693   2.551  16.418  0.1394  0.0576  0.1696
  194MPD1    C4 3005   2.797   2.624  16.473  0.5698  0.1931 -0.5419
  194MPD1    C5 3006   2.811   2.753  16.432  0.1800  0.0251  0.3864
  194MPD1     H 3007   2.506   2.567  16.311  0.2049  0.8356 -1.2306
  194MPD1    H1 3008   2.879   2.589  16.534  0.9886  3.9283  1.0478
  194MPD1    H2 3009   2.744   2.921  16.329 -0.9698  0.3121  1.6772
  194MPD1    H3 3010   2.900   2.808  16.459 -0.7313  2.3339 -1.2411
  194MPD1     N 3011   2.694   2.410  16.446 -0.2100  0.2847  0.5081
  194MPD1    H5 3012   2.764   2.371  16.507  1.4689  1.5521 -0.5808
  194MPD1    N1 3013   2.515   2.810  16.243 -0.1238  0.7018  0.0126
  194MPD1    H6 3014   2.519   2.912  16.248  2.2063  0.5712  0.7264
  194MPD1    H7 3015   2.420   2.788  16.270  0.2544  0.4478  1.1274
  195MPD1     C 3016   4.215   4.165   1.103  0.1103 -0.1569  0.6520
  195MPD1    C1 3017   4.336   4.110   1.079  0.7017  0.7161  0.0959
  195MPD1    C2 3018   4.362   4.050   0.953  0.3305 -0.0637 -0.0020
  195MPD1    C3 3019   4.260   4.039   0.858 -0.1580  0.1939  0.0648
  195MPD1    C4 3020   4.134   4.079   0.887 -0.2088  0.7918 -0.5208
  195MPD1    C5 3021   4.117   4.146   1.007 -0.0905  0.0436 -0.2768
  195MPD1     H 3022   4.463   4.019   0.926  0.7087 -1.4371  3.0541
  195MPD1    H1 3023   4.048   4.073   0.821  0.0436 -0.8269 -0.7100
  195MPD1    H2 3024   4.192   4.187   1.207  0.3055  1.6714  0.3055
  195MPD1    H3 3025   4.015   4.174   1.030 -0.1029  1.1623 -1.6256
  195MPD1     N 3026   4.278   3.975   0.734 -0.6686  0.0681  0.2100
  195MPD1    H5 3027   4.211   3.992   0.661  0.2607  0.9946 -0.4397
  195MPD1    N1 3028   4.428   4.104   1.188 -0.5068  0.6679 -0.6817
  195MPD1    H6 3029   4.516   4.080   1.144 -1.5886 -0.8183 -2.0428
  195MPD1    H7 3030   4.438   4.185   1.249  0.7659 -0.4252  0.5261
  196MPD1     C 3031   2.938   4.098   0.429  0.0462  0.5846 -0.5898
  196MPD1    C1 3032   2.990   4.036   0.325  0.1084  0.2995 -0.5693
  196MPD1    C2 3033   3.116   3.985   0.336 -0.1602  0.1362  0.1080
  196MPD1    C3 3034   3.193   4.014   0.444  0.7152  0.2459  0.2318
  196MPD1    C4 3035   3.131   4.090   0.546 -0.1610  0.9690 -0.2979
  196MPD1    C5 3036   3.001   4.124   0.539  0.5923  0.7523 -0.4878
  196MPD1     H 3037   3.150   3.931   0.248  1.5231  0.7301  0.3838
  196MPD1    H1 3038   3.187   4.111   0.637 -0.2737  1.5443 -0.3606
  196MPD1    H2 3039   2.832   4.120   0.423 -0.0270 -0.2131 -2.1731
  196MPD1    H3 3040   2.952   4.171   0.624 -0.2976  0.5611 -0.8901
  196MPD1     N 3041   3.324   3.973   0.466  0.8307 -0.0121  0.6221
  196MPD1    H5 3042   3.375   4.014   0.544  0.1841  0.4989  0.7781
  196MPD1    N1 3043   2.910   4.001   0.211  0.0948  0.7764 -0.3389
  196MPD1    H6 3044   2.963   3.982   0.127  2.5735  0.2021  1.3409
  196MPD1    H7 3045   2.842   4.072   0.184  0.2488  1.2730  0.5504
  197MPD1     C 3046   2.503   4.686  17.340  0.0956 -0.5669 -0.1852
  197MPD1    C1 3047   2.618   0.020  17.372  0.8314  0.6221  0.4241
  197MPD1    C2 3048   2.654   0.138  17.298  0.0649 -0.1247 -0.0308
  197MPD1    C3 3049   2.594   0.159  17.179  0.2481  0.7772 -0.0075
  197MPD1    C4 3050   2.489   0.074  17.142 -0.9199  0.0300 -0.3245
  197MPD1    C5 3051   2.450   4.709  17.220  0.2128  0.6330  0.5304
  197MPD1     H 3052   2.732   0.201  17.340  0.9910  0.0532 -2.0156
  197MPD1    H1 3053   2.428   0.103  17.057 -2.7037  1.4749  1.4489
  197MPD1    H2 3054   2.454   4.611  17.401 -0.4786 -1.5949 -1.8970
  197MPD1    H3 3055   2.360   4.654  17.194 -1.0639  2.6467  0.6031
  197MPD1     N 3056   2.623   0.266  17.089 -0.7989  0.1761 -0.1541
  197MPD1    H5 3057   2.575   0.276  17.000  0.8995  2.0761 -0.8741
  197MPD1    N1 3058   2.676   4.724  17.495  0.6926 -0.1769 -0.2531
  197MPD1    H6 3059   2.655   4.636  17.541  1.4675 -0.5592 -0.6474
  197MPD1    H7 3060   2.775   0.012  17.505  0.3834  0.6697  0.9173
  198MPD1     C 3061   4.402   3.476  15.163 -0.3166 -0.6580 -0.1299
  198MPD1    C1 3062   4.435   3.600  15.117 -0.8921 -0.3272 -0.1448
  198MPD1    C2 3063   4.465   3.703  15.200  0.1281 -0.2576 -0.2826
  198MPD1    C3 3064   4.473   3.672  15.339 -0.8214 -0.5945  1.1676
  198MPD1    C4 3065   4.463   3.542  15.376 -0.8442  0.2682  0.2315
  198MPD1    C5 3066   4.434   3.439  15.290 -0.5143  0.0310 -0.5825
  198MPD1     H 3067   4.467   3.804  15.159  0.3451  0.0737  0.5539
  198MPD1    H1 3068   4.493   3.517  15.477 -1.6633 -0.5701  0.2656
  198MPD1    H2 3069   4.355   3.402  15.099  1.8641 -2.1989  0.0844
  198MPD1    H3 3070   4.433   3.334  15.317  2.1030  0.5487  1.5172
  198MPD1     N 3071   4.495   3.772  15.432  0.3465  0.5243 -0.2826
  198MPD1    H5 3072   4.501   3.748  15.531  0.7127  1.9031  0.0235
  198MPD1    N1 3073   4.430   3.630  14.979  0.1799  0.0870 -0.0252
  198MPD1    H6 3074   4.508   3.693  14.960  0.4323 -0.3182 -0.3398
  198MPD1    H7 3075   4.450   3.545  14.926 -1.3328 -0.1270 -0.2478
  199MPD1     C 3076   2.077   0.978   9.618  0.5195 -0.3045 -0.0833
  199MPD1    C1 3077   2.027   0.853   9.601  0.8386 -0.5691 -0.3535
  199MPD1    C2 3078   1.893   0.826   9.620  0.0052 -0.3802 -0.6600
  199MPD1    C3 3079   1.808   0.924   9.659  0.7786 -0.2006 -0.0902
  199MPD1    C4 3080   1.850   1.056   9.670  0.4543 -0.4948 -0.0011
  199MPD1    C5 3081   1.986   1.081   9.649  0.0095  0.1781  0.8059
  199MPD1     H 3082   1.860   0.725   9.603  0.5294 -0.5614 -0.5923
  199MPD1    H1 3083   1.788   1.133   9.714 -1.2746 -1.1533 -1.2766
  199MPD1    H2 3084   2.182   1.006   9.617  0.8340 -1.4486 -0.1348
  199MPD1    H3 3085   2.011   1.187   9.651 -0.2917  0.2646 -0.0185
  199MPD1     N 3086   1.670   0.908   9.690 -0.1651 -0.1121 -0.6060
  199MPD1    H5 3087   1.622   0.988   9.728 -0.9737 -1.0300  0.3109
  199MPD1    N1 3088   2.116   0.751   9.559 -0.0473 -0.4070 -0.5951
  199MPD1    H6 3089   2.171   0.775   9.477 -0.6503 -0.1027 -0.9100
  199MPD1    H7 3090   2.062   0.670   9.527 -0.6869  0.6873 -2.2808
  200MPD1     C 3091   1.096   0.657  15.849 -0.4405 -0.3386  0.1245
  200MPD1    C1 3092   1.196   0.615  15.764  0.5863 -0.0881  0.4452
  200MPD1    C2 3093   1.160   0.540  15.652  0.1875 -0.2085  0.2758
  200MPD1    C3 3094   1.023   0.515  15.630 -0.4307  1.0880  0.3237
  200MPD1    C4 3095   0.924   0.562  15.717  0.1220  0.5114  0.1481
  200MPD1    C5 3096   0.965   0.639  15.823  0.3171  0.1460  0.3800
  200MPD1     H 3097   1.238   0.511  15.582 -1.6279 -1.8005 -1.0638
  200MPD1    H1 3098   0.817   0.552  15.708 -0.0667  4.1422 -1.3550
  200MPD1    H2 3099   1.127   0.701  15.943  1.9748  2.8944 -2.1902
  200MPD1    H3 3100   0.887   0.676  15.888 -2.2814 -0.6358 -2.2450
  200MPD1     N 3101   0.994   0.449  15.509 -0.0514 -0.2337 -0.0489
  200MPD1    H5 3102   1.075   0.440  15.448 -2.1112 -0.1840 -2.7569
  200MPD1    N1 3103   1.330   0.639  15.808 -0.3046 -0.0738 -0.0256
  200MPD1    H6 3104   1.333   0.725  15.862 -1.6660  0.6661 -1.1515
  200MPD1    H7 3105   1.395   0.631  15.729 -0.5125  1.0915 -0.3123
  201MPD1     C 3106   2.852   4.367  12.797 -0.2459 -1.0543  0.8566
  201MPD1    C1 3107   2.956   4.341  12.715  0.2459  0.7590  0.1305
  201MPD1    C2 3108   3.058   4.254  12.760 -0.7841 -0.2037  0.2754
  201MPD1    C3 3109   3.061   4.211  12.891 -0.1987 -0.1020  0.9310
  201MPD1    C4 3110   2.954   4.243  12.973  1.1722  0.1564  0.0456
  201MPD1    C5 3111   2.857   4.325  12.922 -0.1946  0.3627  0.7916
  201MPD1     H 3112   3.127   4.208  12.690 -2.1240  0.4060 -1.4824
  201MPD1    H1 3113   2.952   4.205  13.075 -0.5667 -1.5169 -0.5989
  201MPD1    H2 3114   2.768   4.427  12.765 -0.5060 -1.7599  0.2160
  201MPD1    H3 3115   2.773   4.336  12.989  0.7029  1.0851  1.7959
  201MPD1     N 3116   3.153   4.111  12.926  0.2541 -0.6467 -0.4151
  201MPD1    H5 3117   3.222   4.079  12.858 -0.0129  1.3795 -1.6246
  201MPD1    N1 3118   2.963   4.384  12.580  0.1728  0.2313 -0.5316
  201MPD1    H6 3119   2.921   4.477  12.580 -0.4389 -0.0454 -2.1801
  201MPD1    H7 3120   3.055   4.382  12.537 -0.3306  1.9731 -1.7151
  202MPD1     C 3121   2.412   3.159   9.052 -0.6193  0.3920  0.0986
  202MPD1    C1 3122   2.477   3.278   9.048  0.5439 -0.2844  0.2223
  202MPD1    C2 3123   2.501   3.333   9.172 -0.1115 -0.0159 -0.8800
  202MPD1    C3 3124   2.511   3.253   9.287  0.0701 -0.0594  0.2174
  202MPD1    C4 3125   2.453   3.124   9.285 -0.0090 -0.3676  0.6455
  202MPD1    C5 3126   2.401   3.082   9.161 -0.4754  0.1751  0.0860
  202MPD1     H 3127   2.529   3.438   9.175  1.5358 -0.4545 -0.7761
  202MPD1    H1 3128   2.446   3.060   9.371 -2.9973  0.2025  0.8033
  202MPD1    H2 3129   2.364   3.112   8.967 -2.8193  2.7183  0.0415
  202MPD1    H3 3130   2.350   2.986   9.163  0.1959 -0.1915 -0.3106
  202MPD1     N 3131   2.550   3.296   9.413  0.5595 -0.1759 -0.0720
  202MPD1    H5 3132   2.530   3.231   9.488  0.3567  0.0081  0.0308
  202MPD1    N1 3133   2.455   3.357   8.934  0.9152  0.2850 -0.1912
  202MPD1    H6 3134   2.465   3.303   8.849 -0.8411  1.2282 -1.0053
  202MPD1    H7 3135   2.536   3.419   8.934  1.4732 -0.4270  1.5740
  203MPD1     C 3136   1.619   0.578  12.721  0.4613  0.1550 -0.0399
  203MPD1    C1 3137   1.590   0.520  12.605  0.3537 -0.5016  0.7441
  203MPD1    C2 3138   1.608   0.385  12.589 -0.3849 -0.3224  0.2464
  203MPD1    C3 3139   1.662   0.309  12.689  0.0858  0.0153  0.3716
  203MPD1    C4 3140   1.692   0.370  12.807 -0.3445  0.3046  0.1906
  203MPD1    C5 3141   1.660   0.503  12.822 -0.1604  0.1910  0.1182
  203MPD1     H 3142   1.592   0.339  12.493  3.6008  1.0592 -1.0736
  203MPD1    H1 3143   1.742   0.321  12.890  0.2471  0.6175  0.0151
  203MPD1    H2 3144   1.610   0.685  12.737  0.5498 -0.2061  2.4527
  203MPD1    H3 3145   1.691   0.553  12.913  0.3470 -2.2192  1.2689
  203MPD1     N 3146   1.665   0.162  12.660 -0.3442 -0.1942  0.9382
  203MPD1    H5 3147   1.637   0.140  12.566 -0.3875 -1.0728  1.1558
  203MPD1    N1 3148   1.529   0.601  12.508  0.0376 -0.0537 -0.6037
  203MPD1    H6 3149   1.555   0.573  12.413 -0.4819 -0.4975 -0.6117
  203MPD1    H7 3150   1.559   0.697  12.522 -2.6153  0.9214 -1.6880
  204MPD1     C 3151   2.489   1.607  16.976  0.2540 -0.6428 -0.3375
  204MPD1    C1 3152   2.412   1.537  16.890 -0.9010 -0.3571  0.2944
  204MPD1    C2 3153   2.361   1.414  16.925  0.1125 -0.6638 -0.0259
  204MPD1    C3 3154   2.376   1.369  17.056  0.5397  0.1145 -0.1869
  204MPD1    C4 3155   2.464   1.437  17.144 -0.6573  0.0445 -0.3117
  204MPD1    C5 3156   2.521   1.555  17.097  0.5070 -0.0579  0.8164
  204MPD1     H 3157   2.306   1.354  16.853 -0.0312  0.9962 -1.3128
  204MPD1    H1 3158   2.494   1.400  17.241 -2.1910  0.6967  0.4003
  204MPD1    H2 3159   2.542   1.697  16.945 -0.5887  0.1100  0.3998
  204MPD1    H3 3160   2.585   1.613  17.163 -0.7978 -0.1361  2.1456
  204MPD1     N 3161   2.311   1.244  17.084  0.3651  0.6946  0.0969
  204MPD1    H5 3162   2.234   1.216  17.024 -1.5306  0.9345  2.4405
  204MPD1    N1 3163   2.404   1.561  16.752 -0.4930  0.6394 -0.2285
  204MPD1    H6 3164   2.316   1.514  16.730 -0.8422  0.4718  1.5328
  204MPD1    H7 3165   2.410   1.662  16.739 -2.0984  0.5765 -1.4232
  205MPD1     C 3166   1.712   4.521  17.183  0.0056 -0.6747 -0.8234
  205MPD1    C1 3167   1.772   4.457  17.282  0.4501 -0.0952 -0.2208
  205MPD1    C2 3168   1.803   4.522  17.404  0.4304  0.4469 -0.3076
  205MPD1    C3 3169   1.770   4.651  17.431  0.6442 -0.5309 -0.0589
  205MPD1    C4 3170   1.704   4.712  17.324 -0.4490 -0.4965  1.0395
  205MPD1    C5 3171   1.679   4.648  17.204 -0.4786  0.6643 -0.1113
  205MPD1     H 3172   1.845   4.471  17.490  0.1647  1.0347  0.1774
  205MPD1    H1 3173   1.680   0.083  17.326 -1.4366 -0.6848 -0.7461
  205MPD1    H2 3174   1.683   4.477  17.088  1.0227 -1.3084 -0.8476
  205MPD1    H3 3175   1.624   4.701  17.128 -0.2887  1.8190  0.5521
  205MPD1     N 3176   1.808   4.725  17.545  0.3028  0.8116 -0.0875
  205MPD1    H5 3177   1.798   0.091  17.545  0.0247  0.7951  2.5071
  205MPD1    N1 3178   1.831   4.334  17.257 -0.3804  0.6596 -0.2736
  205MPD1    H6 3179   1.800   4.282  17.175 -1.4760 -0.2816  0.7418
  205MPD1    H7 3180   1.840   4.272  17.337  0.3454  0.2232 -0.6918
  206MPD1     C 3181   2.383   2.902  16.774 -0.7070  0.7120 -0.2788
  206MPD1    C1 3182   2.431   2.847  16.661  0.1787 -0.0858 -0.1611
  206MPD1    C2 3183   2.350   2.800  16.559 -1.1587  0.1277 -0.6880
  206MPD1    C3 3184   2.214   2.836  16.570  1.0625  0.0639  0.9118
  206MPD1    C4 3185   2.166   2.903  16.676 -0.1122  0.0268 -0.4548
  206MPD1    C5 3186   2.248   2.936  16.776 -0.4684  0.1876 -0.0018
  206MPD1     H 3187   2.380   2.759  16.463 -1.0671  0.2598 -0.7164
  206MPD1    H1 3188   2.060   2.927  16.682 -0.1264  0.1840 -1.3468
  206MPD1    H2 3189   2.440   2.944  16.856 -1.1324  0.2279  0.2650
  206MPD1    H3 3190   2.211   2.990  16.862 -0.5163  0.4670 -0.1954
  206MPD1     N 3191   2.115   2.807  16.476  0.1036  0.0075  0.6053
  206MPD1    H5 3192   2.022   2.841  16.497 -0.5223 -1.7856  0.7577
  206MPD1    N1 3193   2.563   2.798  16.655  0.6861  0.0538  0.5234
  206MPD1    H6 3194   2.590   2.761  16.564 -0.6038  2.8157 -0.9840
  206MPD1    H7 3195   2.628   2.850  16.714  0.3765  0.9705  0.0570
  207MPD1     C 3196   4.266   4.666   9.866  0.2485  1.9035 -0.2948
  207MPD1    C1 3197   4.394   4.694   9.905  0.2284  0.1959  0.1957
  207MPD1    C2 3198   4.432   4.668  10.039  0.6633  0.3015 -0.6445
  207MPD1    C3 3199   4.336   4.626  10.126 -0.3483 -0.0127  0.2265
  207MPD1    C4 3200   4.205   4.619  10.090  0.0436 -0.9403  0.0927
  207MPD1    C5 3201   4.171   4.634   9.960  0.3681 -0.1174  0.1725
  207MPD1     H 3202   4.535   4.685  10.070  1.1232 -3.5720 -0.0331
  207MPD1    H1 3203   4.129   4.603  10.166  1.5811  2.2203  2.3145
  207MPD1    H2 3204   4.236   4.691   9.765 -1.7116  0.1980 -0.1215
  207MPD1    H3 3205   4.069   4.610   9.930  0.0932 -1.0162  1.8184
  207MPD1     N 3206   4.369   4.590  10.256  0.5133  0.1968 -0.2844
  207MPD1    H5 3207   4.305   4.535  10.312  0.3193  0.6863 -0.0305
  207MPD1    N1 3208   4.493   4.715   9.803 -0.1175  0.1552 -0.6856
  207MPD1    H6 3209   4.582   0.023   9.825 -0.6565  2.0892 -2.3084
  207MPD1    H7 3210   4.452   0.022   9.720 -1.1869 -0.5267 -0.5080
  208MPD1     C 3211   2.601   3.995  17.677  0.0475 -0.0475  0.0932
  208MPD1    C1 3212   2.514   4.093  17.708  0.3277 -0.2173  0.0855
  208MPD1    C2 3213   2.435   4.075   0.084 -0.1585 -0.4595  0.1960
  208MPD1    C3 3214   2.443   3.967   0.167 -0.0563  0.0026  0.1137
  208MPD1    C4 3215   2.544   3.877   0.141  0.3804  0.1984 -0.3172
  208MPD1    C5 3216   2.621   3.897   0.035 -0.2212  0.6081  0.1877
  208MPD1     H 3217   2.355   4.148   0.097 -0.3213 -0.2056 -2.2832
  208MPD1    H1 3218   2.585   3.807   0.213 -3.3753  0.7435  2.3997
  208MPD1    H2 3219   2.676   4.000  17.598 -0.1789  0.8121 -0.0641
  208MPD1    H3 3220   2.706   3.831   0.020 -1.6550 -1.7313  2.4831
  208MPD1     N 3221   2.357   3.956   0.281 -0.6765 -0.1795 -0.5720
  208MPD1    H5 3222   2.285   4.027   0.283 -0.8240 -0.3646  1.7663
  208MPD1    N1 3223   2.497   4.206  17.625  0.2955  0.5361 -0.1431
  208MPD1    H6 3224   2.440   4.281  17.664  1.0400 -1.8273  5.4139
  208MPD1    H7 3225   2.583   4.246  17.588  0.6677 -0.4691 -0.3727
  209MPD1     C 3226   4.701   3.057  10.248 -0.5042 -0.2694 -0.4870
  209MPD1    C1 3227   4.620   3.169  10.226 -0.3463  0.1903 -0.0424
  209MPD1    C2 3228   4.560   3.219  10.338  0.0139 -0.0853  0.0121
  209MPD1    C3 3229   4.597   3.179  10.464  0.8117 -0.7634 -0.6227
  209MPD1    C4 3230   4.688   3.075  10.485  0.6820  0.4921 -0.8425
  209MPD1    C5 3231   0.000   3.025  10.376 -0.4488  0.1572 -0.0821
  209MPD1     H 3232   4.484   3.296  10.340  0.6627  0.5361  0.7672
  209MPD1    H1 3233   4.713   3.033  10.581 -2.3923 -1.1482 -0.7382
  209MPD1    H2 3234   0.008   2.994  10.170 -0.0736  2.5387 -2.5199
  209MPD1    H3 3235   0.062   2.936  10.374  1.2610  1.3476 -1.0385
  209MPD1     N 3236   4.526   3.241  10.568  0.2240 -0.1672 -0.0383
  209MPD1    H5 3237   4.464   3.317  10.541 -1.8563 -1.7884  0.1129
  209MPD1    N1 3238   4.562   3.173  10.099 -0.6611  0.1227 -0.0045
  209MPD1    H6 3239   4.508   3.259  10.095  2.3369  2.0229  1.2000
  209MPD1    H7 3240   4.632   3.173  10.025 -1.4163 -1.3857 -0.7348
  210MPD1     C 3241   4.654   3.734  11.549  0.0510 -0.9102  0.6895
  210MPD1    C1 3242   4.647   3.600  11.530 -0.8247 -0.0684 -0.3777
  210MPD1    C2 3243   4.650   3.546  11.397  0.2827 -0.1819  0.6034
  210MPD1    C3 3244   4.655   3.626  11.281 -0.0510  0.4045  0.7504
  210MPD1    C4 3245   4.656   3.763  11.305 -0.6747 -0.3943  0.0359
  210MPD1    C5 3246   4.655   3.813  11.438 -0.1641  0.2566  0.1528
  210MPD1     H 3247   4.640   3.439  11.384 -0.6484  0.0886 -0.8800
  210MPD1    H1 3248   4.638   3.827  11.220  0.9048  0.1362  0.1114
  210MPD1    H2 3249   4.650   3.779  11.648 -1.4901  3.0724 -1.1848
  210MPD1    H3 3250   4.658   3.919  11.461  0.0952  0.5591 -1.2849
  210MPD1     N 3251   4.645   3.582  11.151 -0.7475  0.1341 -0.7745
  210MPD1    H5 3252   4.649   3.655  11.080  0.2375 -0.4862 -1.3585
  210MPD1    N1 3253   4.607   3.525  11.640 -0.3054 -0.1648  0.0539
  210MPD1    H6 3254   4.609   3.423  11.638  1.9335 -0.0854 -0.6622
  210MPD1    H7 3255   4.639   3.569  11.727 -2.1637 -1.4433  1.3915
  211MPD1     C 3256   2.257   3.869  15.893 -0.1785 -0.4963 -0.1403
  211MPD1    C1 3257   2.209   3.965  15.805 -0.4712 -0.4110  0.3502
  211MPD1    C2 3258   2.115   4.059  15.848  0.0530  0.0620 -0.9810
  211MPD1    C3 3259   2.046   4.041  15.966 -0.3453  0.2725 -0.3294
  211MPD1    C4 3260   2.094   3.953  16.055  0.3746  0.3891 -0.2870
  211MPD1    C5 3261   2.200   3.869  16.018  0.3672 -0.2745  0.1474
  211MPD1     H 3262   2.083   4.135  15.776 -2.1896  0.0138 -0.0365
  211MPD1    H1 3263   2.055   3.939  16.156 -0.6420 -0.0994 -0.7549
  211MPD1    H2 3264   2.334   3.796  15.868 -0.1936 -0.6821  0.3501
  211MPD1    H3 3265   2.229   3.794  16.091 -1.5689 -1.0358  0.1420
  211MPD1     N 3266   1.931   4.113  16.005  0.4272 -0.6100 -0.1276
  211MPD1    H5 3267   1.904   4.101  16.102  1.8720 -0.9394  0.2289
  211MPD1    N1 3268   2.271   3.979  15.672 -0.4658 -0.4357  0.0111
  211MPD1    H6 3269   2.201   4.016  15.608  0.5681 -0.9234 -1.4087
  211MPD1    H7 3270   2.313   3.899  15.625 -0.5884 -0.1931 -0.5088
  212MPD1     C 3271   1.942   2.348  16.540  0.7011 -0.1336 -0.5842
  212MPD1    C1 3272   1.950   2.396  16.667 -0.6393  0.1889  0.1548
  212MPD1    C2 3273   1.850   2.359  16.759 -0.0654  0.0324 -0.0118
  212MPD1    C3 3274   1.756   2.267  16.718  0.1127  0.5029  0.6491
  212MPD1    C4 3275   1.763   2.210  16.596  0.0502  0.2260 -0.1275
  212MPD1    C5 3276   1.855   2.253  16.506  0.0469 -0.1649  0.1140
  212MPD1     H 3277   1.846   2.402  16.858  0.4219  1.0108 -0.4129
  212MPD1    H1 3278   1.692   2.137  16.561  0.0831 -0.7286  1.7968
  212MPD1    H2 3279   2.012   2.378  16.462  0.6692 -0.9489 -0.9326
  212MPD1    H3 3280   1.851   2.217  16.404 -0.4191  1.4670 -0.4536
  212MPD1     N 3281   1.654   2.223  16.807  0.8591  0.7245 -0.2215
  212MPD1    H5 3282   1.603   2.145  16.768  0.0931  0.5193  1.1933
  212MPD1    N1 3283   2.049   2.486  16.703  0.1033  0.2533  0.4639
  212MPD1    H6 3284   2.084   2.471  16.797 -3.2309  1.9848  1.9884
  212MPD1    H7 3285   2.132   2.472  16.646 -0.2150 -1.8607  0.5183
  213MPD1     C 3286   4.179   3.348  15.784 -0.9932 -0.2548 -0.5539
  213MPD1    C1 3287   4.175   3.229  15.719  0.2565  0.0486 -0.1640
  213MPD1    C2 3288   4.193   3.237  15.587 -0.1206  0.4962 -0.1538
  213MPD1    C3 3289   4.167   3.353  15.514  0.3836  0.5135  0.3615
  213MPD1    C4 3290   4.145   3.468  15.584 -0.4835  0.0513 -0.2934
  213MPD1    C5 3291   4.160   3.468  15.719  0.4250 -0.2869 -0.2145
  213MPD1     H 3292   4.218   3.150  15.529 -0.6491 -0.2804  0.7858
  213MPD1    H1 3293   4.110   3.556  15.531 -0.1639  0.5309  0.2959
  213MPD1    H2 3294   4.177   3.352  15.893 -1.0235 -0.0524 -0.5610
  213MPD1    H3 3295   4.157   3.560  15.776 -0.7121 -1.9596  2.4316
  213MPD1     N 3296   4.141   3.335  15.371  0.0884  0.2045  0.1713
  213MPD1    H5 3297   4.169   3.246  15.333 -2.4370  0.5504 -2.4871
  213MPD1    N1 3298   4.217   3.111  15.781  0.3925  0.3890  0.1358
  213MPD1    H6 3299   4.190   3.114  15.880 -2.1396  2.3984 -0.6152
  213MPD1    H7 3300   4.182   3.024  15.743  0.6432 -0.2194  1.2998
  214MPD1     C 3301   3.690   2.812  14.645  0.3844 -0.1021  0.5353
  214MPD1    C1 3302   3.760   2.780  14.755 -0.3643  0.2420  0.5203
  214MPD1    C2 3303   3.823   2.886  14.820 -0.1073  0.2370 -0.1073
  214MPD1    C3 3304   3.793   3.020  14.797 -0.0175  0.2334  0.5372
  214MPD1    C4 3305   3.705   3.050  14.698 -0.1198 -0.2757 -0.0754
  214MPD1    C5 3306   3.653   2.943  14.624 -0.7034  0.1125 -0.3256
  214MPD1     H 3307   3.903   2.865  14.890  1.7129  0.5415 -2.0870
  214MPD1    H1 3308   3.682   3.154  14.676  0.3813 -0.5744 -1.9694
  214MPD1    H2 3309   3.644   2.744  14.574 -1.3209  0.9838  0.5799
  214MPD1    H3 3310   3.608   2.971  14.529  0.6433  0.8675 -0.7559
  214MPD1     N 3311   3.855   3.130  14.862 -0.4716 -1.4299 -0.6370
  214MPD1    H5 3312   3.822   3.223  14.838 -0.6964 -1.1029  0.9656
  214MPD1    N1 3313   3.802   2.645  14.773 -0.5018 -0.2036 -0.0733
  214MPD1    H6 3314   3.733   2.577  14.741 -1.8585  0.7664  0.8166
  214MPD1    H7 3315   3.830   2.616  14.867 -2.2407  0.9974  0.8182
  215MPD1     C 3316   3.811   3.555  10.266 -0.1617 -0.1482  0.2573
  215MPD1    C1 3317   3.813   3.693  10.259 -0.1141 -0.1340 -0.7255
  215MPD1    C2 3318   3.886   3.768  10.352  0.6237  0.3447 -0.0971
  215MPD1    C3 3319   3.956   3.702  10.456 -0.6262  0.1412 -0.5727
  215MPD1    C4 3320   3.944   3.563  10.461 -1.0418 -0.5761  0.1268
  215MPD1    C5 3321   3.884   3.492  10.365 -0.0089  0.5583 -0.4320
  215MPD1     H 3322   3.887   3.877  10.360  0.3845  0.3333  0.0961
  215MPD1    H1 3323   4.018   3.509  10.520  0.4548  1.8431  0.4778
  215MPD1    H2 3324   3.761   3.495  10.191 -1.6079  1.8939 -0.4238
  215MPD1    H3 3325   3.874   3.384  10.364  3.7365  0.1958  1.2716
  215MPD1     N 3326   4.021   3.782  10.558  0.0007 -0.3933  0.2816
  215MPD1    H5 3327   4.010   3.882  10.550 -1.2889 -0.4518  1.3597
  215MPD1    N1 3328   3.761   3.756  10.141  0.0394  0.7686  0.1656
  215MPD1    H6 3329   3.716   3.841  10.172 -1.7217 -0.6207  1.3966
  215MPD1    H7 3330   3.686   3.701  10.101  0.7143 -0.6490  0.8073
  216MPD1     C 3331   1.594   1.858  16.146 -0.0470  1.2613  0.4493
  216MPD1    C1 3332   1.582   1.723  16.165  0.1371 -0.0943  0.8060
  216MPD1    C2 3333   1.604   1.671  16.291  0.5420 -0.1756 -0.3312
  216MPD1    C3 3334   1.614   1.754  16.407 -0.1021 -0.4783  0.1142
  216MPD1    C4 3335   1.605   1.889  16.380  0.5359 -0.0399  0.0203
  216MPD1    C5 3336   1.606   1.940  16.255  0.6676 -0.2548  0.2505
  216MPD1     H 3337   1.596   1.565  16.311 -1.4312 -0.0323 -0.3124
  216MPD1    H1 3338   1.608   1.956  16.465  2.6603  0.3482 -0.3612
  216MPD1    H2 3339   1.576   1.891  16.044  0.7561 -0.7257 -0.3263
  216MPD1    H3 3340   1.595   2.047  16.242 -0.2435 -0.4906 -0.9622
  216MPD1     N 3341   1.650   1.703  16.536 -0.2347  0.4234 -0.3956
  216MPD1    H5 3342   1.655   1.602  16.538  2.4188  0.6332  2.9894
  216MPD1    N1 3343   1.562   1.641  16.056  0.8257 -0.1804 -0.0569
  216MPD1    H6 3344   1.513   1.553  16.074  0.3221  0.1905  0.3926
  216MPD1    H7 3345   1.513   1.695  15.985  0.2110  0.5270  0.9036
  217MPD1     C 3346   1.510   2.627   8.258  0.0602 -0.3079 -0.1027
  217MPD1    C1 3347   1.395   2.622   8.334 -0.4596  0.3439 -0.0959
  217MPD1    C2 3348   1.357   2.737   8.403 -0.0305 -0.0230 -0.7376
  217MPD1    C3 3349   1.447   2.839   8.414 -0.3050 -0.3825 -0.2504
  217MPD1    C4 3350   1.562   2.835   8.337  0.1433  0.1861  0.4099
  217MPD1    C5 3351   1.592   2.732   8.261 -0.2678 -0.1192  0.3561
  217MPD1     H 3352   1.260   2.758   8.445  1.0153  0.3766  1.5055
  217MPD1    H1 3353   1.638   2.912   8.346 -0.4586  0.9244 -0.8874
  217MPD1    H2 3354   1.538   2.545   8.193  2.8880  1.3205 -0.9503
  217MPD1    H3 3355   1.686   2.732   8.206 -0.2894 -0.5959  0.3198
  217MPD1     N 3356   1.428   2.951   8.498  0.1503 -0.5484 -0.3230
  217MPD1    H5 3357   1.497   3.025   8.495 -1.3819  0.8854 -0.1432
  217MPD1    N1 3358   1.306   2.519   8.322  0.2602 -0.0178  0.0276
  217MPD1    H6 3359   1.341   2.431   8.285 -0.9261  0.3276 -1.9248
  217MPD1    H7 3360   1.228   2.516   8.388  1.3428  5.0609  1.5202
  218MPD1     C 3361   3.175   4.621  13.029 -0.1980 -0.0555  0.2206
  218MPD1    C1 3362   3.245   4.723  12.959 -0.4631  0.0048 -0.2515
  218MPD1    C2 3363   3.362   4.693  12.887 -0.1325  0.3146 -0.5783
  218MPD1    C3 3364   3.417   4.568  12.895 -1.1653  0.7255  0.5170
  218MPD1    C4 3365   3.348   4.475  12.970  0.4486  0.4576 -0.5417
  218MPD1    C5 3366   3.228   4.496  13.031  0.2837 -0.3688  0.3744
  218MPD1     H 3367   3.416   0.033  12.831  1.4731 -1.7907 -1.8848
  218MPD1    H1 3368   3.385   4.374  12.979  0.9042  0.6320 -0.4546
  218MPD1    H2 3369   3.080   4.635  13.078 -0.2905  2.5039 -0.7282
  218MPD1    H3 3370   3.176   4.419  13.085 -0.4619  0.1123  0.3375
  218MPD1     N 3371   3.544   4.548  12.832 -0.3422 -0.0533  0.2511
  218MPD1    H5 3372   3.589   4.626  12.783  0.3973 -0.1998  0.6940
  218MPD1    N1 3373   3.181   0.107  12.955  0.0020  0.2723 -0.2549
  218MPD1    H6 3374   3.112   0.121  13.029 -0.2330  0.6269 -0.5367
  218MPD1    H7 3375   3.242   0.189  12.951  0.8986 -0.4938 -2.3259
  219MPD1     C 3376   3.686   0.045  12.017  0.9784  0.7372  0.5196
  219MPD1    C1 3377   3.787   4.691  12.035  0.3327  0.0322 -0.1047
  219MPD1    C2 3378   3.804   4.625  12.152 -0.0700  0.0757  0.2651
  219MPD1    C3 3379   3.708   4.645  12.251 -0.7665  1.1411  0.7146
  219MPD1    C4 3380   3.597   4.726  12.225 -0.1410 -0.1133 -0.0839
  219MPD1    C5 3381   3.588   0.058  12.108  0.1552  0.6164  0.8117
  219MPD1     H 3382   3.882   4.550  12.165 -0.4054 -0.7194 -2.2691
  219MPD1    H1 3383   3.525   0.020  12.300 -1.8355 -2.1200 -0.9190
  219MPD1    H2 3384   3.680   0.107  11.928  1.5632  0.0929  0.0301
  219MPD1    H3 3385   3.505   0.123  12.083  1.3323  2.2759  1.2384
  219MPD1     N 3386   3.730   4.593  12.380 -0.1281  0.2768  0.3702
  219MPD1    H5 3387   3.669   4.634  12.451 -2.0027 -1.4167 -0.2440
  219MPD1    N1 3388   3.875   4.669  11.933 -0.1244 -0.0838  0.0745
  219MPD1    H6 3389   3.844   4.705  11.844  0.1620  0.1264  0.0597
  219MPD1    H7 3390   3.909   4.573  11.924 -0.9236 -0.5993  2.4674
  220MPD1     C 3391   3.614   0.083   9.346 -0.5155 -0.7172  0.0432
  220MPD1    C1 3392   3.513   0.001   9.387  0.1290  0.5625 -0.0278
  220MPD1    C2 3393   3.515   4.700   9.524 -0.4440  0.1569  0.3994
  220MPD1    C3 3394   3.614   0.006   9.615 -0.5510  0.1032 -0.7036
  220MPD1    C4 3395   3.720   0.076   9.563  0.0918 -0.2671 -0.2061
  220MPD1    C5 3396   3.719   0.112   9.432 -0.3088  0.6767  0.6764
  220MPD1     H 3397   3.443   4.627   9.561 -1.0062  0.1201 -0.7921
  220MPD1    H1 3398   3.811   0.093   9.619  0.6612  1.1903 -1.5761
  220MPD1    H2 3399   3.607   0.120   9.245 -1.9424 -0.7008  0.1456
  220MPD1    H3 3400   3.805   0.158   9.386 -0.6221  1.9598  1.3893
  220MPD1     N 3401   3.614   4.690   9.747  0.0976 -0.2339  0.8201
  220MPD1    H5 3402   3.546   4.621   9.779  0.4684 -1.0040 -0.0470
  220MPD1    N1 3403   3.400   4.707   9.308 -0.0120  0.2300  0.1846
  220MPD1    H6 3404   3.428   4.714   9.210  0.7069 -0.8286  0.3161
  220MPD1    H7 3405   3.346   4.623   9.327  0.9004 -0.7490 -1.5393
  221MPD1     C 3406   2.323   4.401  16.192  0.1536 -0.6237  0.4087
  221MPD1    C1 3407   2.452   4.393  16.148  0.1001  0.2037 -0.1890
  221MPD1    C2 3408   2.512   4.264  16.146 -0.0792 -0.1217 -0.0478
  221MPD1    C3 3409   2.440   4.146  16.168  0.2553  0.4598  0.3203
  221MPD1    C4 3410   2.308   4.165  16.217 -0.2551 -0.6933  0.3539
  221MPD1    C5 3411   2.253   4.286  16.216  0.9174  0.8033  0.3999
  221MPD1     H 3412   2.611   4.269  16.101 -0.1709  1.6064 -0.0696
  221MPD1    H1 3413   2.245   4.078  16.231 -0.5552 -0.5969 -0.3965
  221MPD1    H2 3414   2.269   4.495  16.192 -0.6940 -1.1097 -0.1749
  221MPD1    H3 3415   2.146   4.292  16.231  0.5415 -0.2955 -1.8718
  221MPD1     N 3416   2.496   4.016  16.162 -0.4126  0.4108 -0.4457
  221MPD1    H5 3417   2.440   3.946  16.210 -0.5523  0.0088 -1.1913
  221MPD1    N1 3418   2.525   4.512  16.129 -0.4908  0.2064  0.6080
  221MPD1    H6 3419   2.596   4.500  16.058  0.3775 -0.0587  1.5179
  221MPD1    H7 3420   2.460   4.584  16.097 -1.4141 -0.1024  1.7589
  222MPD1     C 3421   1.504   2.565   0.430 -0.4258 -0.0004 -0.3261
  222MPD1    C1 3422   1.590   2.612   0.531 -0.4362 -0.5545 -0.1169
  222MPD1    C2 3423   1.572   2.740   0.580  0.4394 -0.0976  0.5067
  222MPD1    C3 3424   1.449   2.806   0.554 -0.2835  0.3134  0.8295
  222MPD1    C4 3425   1.359   2.751   0.461  0.0604  0.1538  0.2287
  222MPD1    C5 3426   1.388   2.632   0.398 -0.1606  0.2800  0.9475
  222MPD1     H 3427   1.635   2.783   0.657 -1.3497 -1.3477  2.6777
  222MPD1    H1 3428   1.267   2.803   0.435 -0.7345 -1.6645 -0.5686
  222MPD1    H2 3429   1.528   2.477   0.371  0.0205 -0.0311 -0.1008
  222MPD1    H3 3430   1.315   2.600   0.325 -1.0658  0.5051  1.7550
  222MPD1     N 3431   1.418   2.930   0.613 -0.5561 -0.0935 -0.0201
  222MPD1    H5 3432   1.324   2.966   0.597  0.5343  1.9690 -1.8146
  222MPD1    N1 3433   1.705   2.537   0.569  0.3004 -0.0113 -0.3068
  222MPD1    H6 3434   1.698   2.436   0.570  0.3465 -0.0051  2.7388
  222MPD1    H7 3435   1.744   2.553   0.662  0.9822  0.1968 -0.6255
  223MPD1     C 3436   0.694   3.248   1.162  0.2139 -0.1797 -0.3428
  223MPD1    C1 3437   0.795   3.329   1.209 -0.4470 -0.0729  0.1046
  223MPD1    C2 3438   0.910   3.343   1.135 -0.0830  0.3474  0.4474
  223MPD1    C3 3439   0.933   3.259   1.026 -0.8252  0.9797  0.0786
  223MPD1    C4 3440   0.834   3.175   0.983 -0.3829  0.8933 -0.2648
  223MPD1    C5 3441   0.721   3.168   1.052  1.3867  0.1183  0.4816
  223MPD1     H 3442   0.991   3.411   1.161  0.4937 -0.2822  0.3194
  223MPD1    H1 3443   0.843   3.109   0.898 -0.6556 -0.5238  0.8154
  223MPD1    H2 3444   0.601   3.233   1.215  0.7678 -3.2179 -0.2193
  223MPD1    H3 3445   0.644   3.103   1.012  0.0314  3.7394 -2.7881
  223MPD1     N 3446   1.065   3.259   0.974 -0.3860  0.3325 -0.3806
  223MPD1    H5 3447   1.125   3.327   1.019 -0.5157 -0.4122  0.9223
  223MPD1    N1 3448   0.756   3.409   1.309 -0.4335 -0.5626 -0.4749
  223MPD1    H6 3449   0.705   3.360   1.382  0.8731 -4.3552 -2.1414
  223MPD1    H7 3450   0.830   3.467   1.347 -1.1641 -0.9011  1.4684
  224MPD1     C 3451   0.608   3.314  10.092 -0.1561 -0.0947  0.1587
  224MPD1    C1 3452   0.728   3.267  10.123 -0.4948  0.3584 -0.7696
  224MPD1    C2 3453   0.847   3.317  10.065  0.0609  0.0075 -0.5281
  224MPD1    C3 3454   0.843   3.426   9.980  0.4019  0.5182 -0.0473
  224MPD1    C4 3455   0.717   3.489   9.974  0.2344 -0.7543 -0.2640
  224MPD1    C5 3456   0.602   3.425  10.018  0.5154 -0.3505 -0.1107
  224MPD1     H 3457   0.941   3.265  10.079  0.5051  0.1702 -3.0086
  224MPD1    H1 3458   0.705   3.575   9.909 -0.5182 -1.4296 -1.0186
  224MPD1    H2 3459   0.518   3.260  10.120  0.6996 -1.5062  0.2174
  224MPD1    H3 3460   0.503   3.462   9.993  1.8539  1.1196 -3.3419
  224MPD1     N 3461   0.962   3.483   9.926  0.1803 -0.2444 -0.2889
  224MPD1    H5 3462   0.953   3.581   9.900  0.7942  0.0668  0.6647
  224MPD1    N1 3463   0.735   3.149  10.199  0.2974  0.1550 -0.0874
  224MPD1    H6 3464   0.823   3.139  10.248  0.8185  1.0807 -0.8302
  224MPD1    H7 3465   0.663   3.148  10.271  0.1314  1.3060 -0.2236
  225MPD1     C 3466   3.991   0.786  12.134  0.4188 -0.0038 -0.6483
  225MPD1    C1 3467   3.964   0.778  12.267 -0.0834 -0.3110 -0.2555
  225MPD1    C2 3468   3.829   0.805  12.299 -0.4587 -1.1340 -0.2079
  225MPD1    C3 3469   3.728   0.810  12.206 -0.3806  0.1860 -1.0883
  225MPD1    C4 3470   3.760   0.817  12.072  0.0571 -0.1965  0.8830
  225MPD1    C5 3471   3.893   0.799  12.036  0.7694  0.3866 -0.7304
  225MPD1     H 3472   3.797   0.826  12.401  0.3447  0.5873 -0.3106
  225MPD1    H1 3473   3.687   0.819  11.992  0.1934 -3.0658  0.7016
  225MPD1    H2 3474   4.089   0.764  12.094  0.4368 -2.1394  0.5417
  225MPD1    H3 3475   3.923   0.810  11.932  0.0453 -2.0464 -1.2087
  225MPD1     N 3476   3.591   0.816  12.246 -0.1789  0.3296  0.4103
  225MPD1    H5 3477   3.529   0.857  12.177  0.0564  0.8546  0.5096
  225MPD1    N1 3478   4.065   0.758  12.364 -0.4507  0.5055 -0.5259
  225MPD1    H6 3479   4.068   0.838  12.427  0.4188  0.8660 -1.0376
  225MPD1    H7 3480   4.157   0.756  12.322 -1.0358 -0.3525 -1.7618
  226MPD1     C 3481   1.089   4.708   9.713 -0.0318 -0.5707  0.2286
  226MPD1    C1 3482   1.031   0.096   9.685 -0.7330 -0.2748 -0.4441
  226MPD1    C2 3483   1.121   0.188   9.633 -0.1626  0.1932 -0.0164
  226MPD1    C3 3484   1.258   0.161   9.620  0.2952  0.9573  0.6871
  226MPD1    C4 3485   1.307   0.045   9.670  0.0748  0.1557 -0.1485
  226MPD1    C5 3486   1.223   4.684   9.714  0.1497 -0.6169 -0.1022
  226MPD1     H 3487   1.080   0.277   9.586 -1.2936 -0.8900 -1.0816
  226MPD1    H1 3488   1.412   0.020   9.665  0.1330  0.4545 -0.4651
  226MPD1    H2 3489   1.032   4.622   9.748 -1.7130  0.2027 -0.6419
  226MPD1    H3 3490   1.257   4.589   9.753 -0.1518 -0.9364 -0.6279
  226MPD1     N 3491   1.337   0.265   9.568 -0.3819 -0.3218 -0.4527
  226MPD1    H5 3492   1.281   0.349   9.554  0.0696  0.3930  2.0261
  226MPD1    N1 3493   0.897   0.111   9.681 -0.2775 -0.1157  0.1545
  226MPD1    H6 3494   0.860   0.088   9.773  1.1760  0.0477  0.7781
  226MPD1    H7 3495   0.868   0.207   9.662  0.6004 -0.2333 -1.7977
  227MPD1     C 3496   1.033   0.989   9.334 -0.1225 -1.1543 -0.0574
  227MPD1    C1 3497   0.999   0.872   9.401  0.3661  0.1236  0.0385
  227MPD1    C2 3498   1.104   0.774   9.410  1.0342 -0.6331  0.5026
  227MPD1    C3 3499   1.236   0.794   9.355 -0.4724  0.4497 -0.2406
  227MPD1    C4 3500   1.261   0.916   9.297 -0.1005  0.7366  0.0368
  227MPD1    C5 3501   1.155   1.007   9.279  0.1929 -0.2579  0.8179
  227MPD1     H 3502   1.076   0.682   9.460 -3.1230 -0.3994 -1.3695
  227MPD1    H1 3503   1.363   0.940   9.269  0.0246  1.1247  0.8380
  227MPD1    H2 3504   0.965   1.074   9.325  1.0379 -0.0249  1.8138
  227MPD1    H3 3505   1.175   1.101   9.228 -2.0071 -0.9585 -1.2898
  227MPD1     N 3506   1.327   0.689   9.367 -0.5347  0.2764  0.4408
  227MPD1    H5 3507   1.288   0.616   9.425 -2.0538 -0.1560 -1.1138
  227MPD1    N1 3508   0.866   0.851   9.439  0.6879 -0.1930  0.0599
  227MPD1    H6 3509   0.848   0.787   9.516  2.3627 -0.7778 -0.0269
  227MPD1    H7 3510   0.827   0.945   9.450 -1.7107 -1.2181  0.3689
  228MPD1     C 3511   4.055   2.376  12.477 -0.2324  0.2874  0.1666
  228MPD1    C1 3512   4.028   2.369  12.611 -0.6794  0.0812  0.3267
  228MPD1    C2 3513   4.104   2.450  12.698  0.3339 -0.5106 -0.3689
  228MPD1    C3 3514   4.178   2.556  12.648 -0.1510 -0.1744 -0.1309
  228MPD1    C4 3515   4.189   2.574  12.513  0.6293  0.2046 -0.0802
  228MPD1    C5 3516   4.145   2.474  12.431 -0.4104 -0.0319 -0.2702
  228MPD1     H 3517   4.111   2.433  12.805  0.1558  2.5996  0.1158
  228MPD1    H1 3518   4.246   2.658  12.476  0.6546 -0.5743 -1.7762
  228MPD1    H2 3519   4.011   2.315  12.398  0.0672  1.0504 -0.5869
  228MPD1    H3 3520   4.166   2.476  12.324  0.1740 -3.1187 -0.1992
  228MPD1     N 3521   4.226   2.663  12.739 -0.6653  0.1733  0.3443
  228MPD1    H5 3522   4.233   2.636  12.837 -3.6048 -2.9578 -0.3014
  228MPD1    N1 3523   3.941   2.264  12.655 -0.5745  0.0509 -0.2252
  228MPD1    H6 3524   3.866   2.254  12.587  1.2440 -1.7600 -1.9535
  228MPD1    H7 3525   3.896   2.267  12.746  0.0913 -1.8941  0.1852
  229MPD1     C 3526   0.545   0.514  14.397  0.1984 -0.0483  0.4711
  229MPD1    C1 3527   0.575   0.643  14.371 -0.8412 -0.4655  0.6300
  229MPD1    C2 3528   0.470   0.735  14.387  0.2478  0.5769 -0.2396
  229MPD1    C3 3529   0.341   0.682  14.405 -0.5499 -0.4202 -0.1109
  229MPD1    C4 3530   0.319   0.547  14.432  0.2273  0.8109  0.0828
  229MPD1    C5 3531   0.428   0.468  14.428 -0.3169 -0.4229 -0.1762
  229MPD1     H 3532   0.495   0.840  14.378  2.9672 -0.1988 -1.7485
  229MPD1    H1 3533   0.220   0.512  14.457  0.0178  0.4095 -1.2971
  229MPD1    H2 3534   0.625   0.441  14.390  0.2028  0.2217 -2.0891
  229MPD1    H3 3535   0.425   0.361  14.450 -0.6268 -0.9636 -2.9312
  229MPD1     N 3536   0.218   0.762  14.403 -0.2878 -0.0356  0.4347
  229MPD1    H5 3537   0.130   0.716  14.423 -0.6821  1.3196  1.8193
  229MPD1    N1 3538   0.710   0.679  14.357  0.5716  0.0961 -0.3518
  229MPD1    H6 3539   0.717   0.773  14.319 -1.9398  0.0845 -0.8627
  229MPD1    H7 3540   0.748   0.610  14.292  0.7342  1.6326 -1.8878
  230MPD1     C 3541   4.623   1.688  14.183 -0.2704 -0.5556 -0.3441
  230MPD1    C1 3542   4.663   1.587  14.102  0.5630  0.1335  0.7576
  230MPD1    C2 3543   4.700   1.470  14.176 -0.0429 -0.2218  0.4774
  230MPD1    C3 3544   4.672   1.453  14.307  0.0917  0.2758 -0.8032
  230MPD1    C4 3545   4.641   1.560  14.386 -1.2231 -0.9470 -0.2171
  230MPD1    C5 3546   4.611   1.674  14.320 -0.5352  0.4233  0.7271
  230MPD1     H 3547   4.727   1.382  14.119  1.5946  1.5389 -1.4715
  230MPD1    H1 3548   4.648   1.561  14.494  0.1514 -0.1116 -0.3126
  230MPD1    H2 3549   4.601   1.782  14.134  0.2497  0.1879  0.8545
  230MPD1    H3 3550   4.583   1.767  14.368 -0.3006  0.8479  0.0536
  230MPD1     N 3551   4.697   1.325  14.354 -0.0306 -0.1582  0.6888
  230MPD1    H5 3552   4.721   1.251  14.288 -0.3261  0.4605 -0.1129
  230MPD1    N1 3553   4.675   1.605  13.969 -0.3056  0.7092  0.5128
  230MPD1    H6 3554   4.627   1.684  13.927 -2.6392 -1.3616 -0.6860
  230MPD1    H7 3555   4.635   1.528  13.915  1.2255  0.3222 -0.0748
  231MPD1     C 3556   3.536   3.572  15.575  0.1142 -0.0348 -0.5199
  231MPD1    C1 3557   3.500   3.705  15.558  0.3581  0.9293 -0.1273
  231MPD1    C2 3558   3.525   3.755  15.432 -0.3390 -0.3809  0.1350
  231MPD1    C3 3559   3.597   3.690  15.337  0.0246 -0.1416  0.7852
  231MPD1    C4 3560   3.652   3.570  15.363  0.4147  0.0675 -0.0768
  231MPD1    C5 3561   3.617   3.515  15.482  0.0659 -0.9566 -0.4239
  231MPD1     H 3562   3.481   3.849  15.400 -1.2018 -0.7386  0.2667
  231MPD1    H1 3563   3.725   3.515  15.305 -1.7887 -1.4782 -1.3460
  231MPD1    H2 3564   3.511   3.519  15.667 -0.9516  1.3252 -0.0194
  231MPD1    H3 3565   3.658   3.417  15.503 -0.3949 -0.7520  1.4181
  231MPD1     N 3566   3.622   3.751  15.214 -0.2010  0.0152  0.1816
  231MPD1    H5 3567   3.605   3.851  15.212  1.7179  0.3168 -0.6015
  231MPD1    N1 3568   3.404   3.764  15.643 -0.8307  0.6121 -0.3682
  231MPD1    H6 3569   3.419   3.758  15.743 -1.2069  0.4175 -0.3240
  231MPD1    H7 3570   3.381   3.860  15.616 -1.7055  0.8064  1.0838
  232MPD1     C 3571   0.918   1.993   0.359  0.3829 -0.6462 -0.1585
  232MPD1    C1 3572   0.806   2.058   0.324 -0.0810  0.5581 -0.3508
  232MPD1    C2 3573   0.702   1.981   0.277 -0.2697 -0.0570  0.1976
  232MPD1    C3 3574   0.698   1.842   0.281  0.5205  0.2469 -0.3939
  232MPD1    C4 3575   0.808   1.777   0.334 -0.1714  0.0736  0.1853
  232MPD1    C5 3576   0.920   1.857   0.371  0.0642  0.3419  0.1137
  232MPD1     H 3577   0.624   2.033   0.221 -0.0601 -0.0453 -0.0847
  232MPD1    H1 3578   0.820   1.672   0.359  0.0516 -0.6325 -2.8824
  232MPD1    H2 3579   0.997   2.052   0.404 -0.7568 -0.6781  1.8774
  232MPD1    H3 3580   1.013   1.818   0.410  0.3049 -0.8837 -1.6861
  232MPD1     N 3581   0.581   1.776   0.231 -0.0018 -0.0548 -0.6232
  232MPD1    H5 3582   0.502   1.827   0.193  0.7419  0.6720 -1.1678
  232MPD1    N1 3583   0.807   2.199   0.311  0.0251  0.3349  0.0363
  232MPD1    H6 3584   0.718   2.239   0.337  0.3133  0.0043  1.5673
  232MPD1    H7 3585   0.868   2.240   0.382 -0.1220 -0.9227  0.9052
  233MPD1     C 3586   3.117   4.172   2.793 -0.3610  0.5049  0.2256
  233MPD1    C1 3587   3.233   4.237   2.753  0.0634 -0.5397  0.5577
  233MPD1    C2 3588   3.290   4.202   2.630 -0.2267  0.4021 -0.1355
  233MPD1    C3 3589   3.213   4.125   2.538 -0.0652 -0.1850 -0.5137
  233MPD1    C4 3590   3.096   4.073   2.579 -0.4903 -0.2599  0.1304
  233MPD1    C5 3591   3.053   4.092   2.707 -0.3174  0.1133  0.5158
  233MPD1     H 3592   3.375   4.256   2.590 -2.0218  2.8243 -0.6696
  233MPD1    H1 3593   3.037   4.007   2.518 -1.4675  0.0863  0.7102
  233MPD1    H2 3594   3.083   4.170   2.896 -0.8646  1.0623  0.0694
  233MPD1    H3 3595   2.957   4.048   2.729 -1.9415  3.7636  0.6892
  233MPD1     N 3596   3.252   4.100   2.403 -0.0312  0.6529 -0.1007
  233MPD1    H5 3597   3.184   4.052   2.345 -0.4580  0.5275  0.5063
  233MPD1    N1 3598   3.298   4.318   2.850 -0.6612  0.1708  0.0057
  233MPD1    H6 3599   3.359   4.377   2.793 -0.3662 -0.4115 -0.2865
  233MPD1    H7 3600   3.235   4.383   2.896  0.0439  0.6936  0.2375
  234MPD1     C 3601   2.671   4.100   9.242 -0.7567 -0.3297  0.0856
  234MPD1    C1 3602   2.678   4.038   9.364  0.1297  0.0836  0.8340
  234MPD1    C2 3603   2.593   3.924   9.378 -0.1578 -0.0449  0.3460
  234MPD1    C3 3604   2.512   3.881   9.278  0.0131  0.3089  0.5663
  234MPD1    C4 3605   2.501   3.951   9.160  0.4092  0.6394  0.3831
  234MPD1    C5 3606   2.578   4.064   9.144 -0.7158 -0.2523  0.0087
  234MPD1     H 3607   2.617   3.859   9.462  2.7590  0.0287 -0.4335
  234MPD1    H1 3608   2.446   3.919   9.072  0.6364 -1.5828  1.0261
  234MPD1    H2 3609   2.737   4.184   9.226 -0.4458 -0.4495  0.7461
  234MPD1    H3 3610   2.578   4.121   9.051  1.0381  1.4481  1.0346
  234MPD1     N 3611   2.448   3.757   9.296 -0.6663 -0.5260 -0.6134
  234MPD1    H5 3612   2.479   3.706   9.378  2.5161 -0.7708 -1.9805
  234MPD1    N1 3613   2.772   4.078   9.458  0.4790  0.0978  0.4032
  234MPD1    H6 3614   2.798   4.175   9.442 -1.6025  0.6279  0.2183
  234MPD1    H7 3615   2.726   4.086   9.549  1.1930  3.1115  0.4999
  235MPD1     C 3616   4.073   0.035  11.125 -0.6110 -0.2296 -0.7929
  235MPD1    C1 3617   4.197   0.091  11.140  0.4045 -0.0138 -0.4847
  235MPD1    C2 3618   4.262   0.143  11.028  0.5138 -0.1192 -0.7395
  235MPD1    C3 3619   4.201   0.146  10.903  0.1738 -0.1857 -0.0300
  235MPD1    C4 3620   4.070   0.093  10.893 -0.2733 -0.1251 -0.0699
  235MPD1    C5 3621   4.012   0.036  11.004 -0.2344 -0.2828 -0.0237
  235MPD1     H 3622   4.367   0.165  11.036  0.8633 -2.2268  0.5290
  235MPD1    H1 3623   4.012   0.080  10.803 -1.0767 -0.2576  0.4621
  235MPD1    H2 3624   4.018   4.728  11.208 -0.4823 -1.2252 -1.2253
  235MPD1    H3 3625   3.913   4.728  10.996 -0.5707  0.7815 -1.5419
  235MPD1     N 3626   4.273   0.199  10.796  0.0046  0.3885  0.3331
  235MPD1    H5 3627   4.363   0.243  10.809  0.1070  0.1809  0.3332
  235MPD1    N1 3628   4.267   0.058  11.254 -0.4436  0.7753 -0.0566
  235MPD1    H6 3629   4.338   0.118  11.294 -0.2781  1.3160 -1.1699
  235MPD1    H7 3630   4.205   0.033  11.331 -0.4876  1.8389  0.2525
  236MPD1     C 3631   3.062   1.221   9.648  0.5326  0.2294  0.4935
  236MPD1    C1 3632   3.145   1.316   9.697  0.9215  0.0970  0.2269
  236MPD1    C2 3633   3.257   1.277   9.767 -0.6156  0.0117  0.3087
  236MPD1    C3 3634   3.274   1.152   9.822 -0.2749  0.0553  0.0166
  236MPD1    C4 3635   3.171   1.062   9.799  0.2081  0.2036 -0.3132
  236MPD1    C5 3636   3.070   1.099   9.717  0.4155 -0.4816 -0.1974
  236MPD1     H 3637   3.334   1.346   9.800 -0.5728 -0.4328  1.1199
  236MPD1    H1 3638   3.178   0.960   9.836  0.7443  1.3852  2.8538
  236MPD1    H2 3639   2.987   1.249   9.574  0.4538  2.0980  1.2654
  236MPD1    H3 3640   2.995   1.022   9.703  1.4862 -1.5860  0.0682
  236MPD1     N 3641   3.377   1.112   9.909  0.2151  0.1997 -0.1312
  236MPD1    H5 3642   3.380   1.016   9.942 -0.4413 -0.5093 -2.1378
  236MPD1    N1 3643   3.136   1.449   9.654 -0.0330 -0.1512  0.6558
  236MPD1    H6 3644   3.187   1.507   9.720  1.5342 -1.7263  0.8354
  236MPD1    H7 3645   3.046   1.488   9.628  0.3765 -0.0882 -0.6606
  237MPD1     C 3646   4.064   0.189  14.884 -0.0107 -0.1469 -0.2305
  237MPD1    C1 3647   3.996   0.161  14.766  0.9848  0.0925  0.4365
  237MPD1    C2 3648   3.856   0.173  14.764  0.0001  0.9451  0.1533
  237MPD1    C3 3649   3.789   0.193  14.885  0.1873  0.1218  0.3336
  237MPD1    C4 3650   3.855   0.206  15.001  0.2341 -0.7098  0.6557
  237MPD1    C5 3651   3.988   0.216  14.998 -0.0267 -0.3564 -0.4549
  237MPD1     H 3652   3.801   0.172  14.671  0.6296 -2.9679 -0.1649
  237MPD1    H1 3653   3.797   0.203  15.092 -2.9572  0.7153 -1.3165
  237MPD1    H2 3654   4.172   0.195  14.895 -0.2017 -1.7413  2.4156
  237MPD1    H3 3655   4.049   0.232  15.086 -1.9318  0.1344  0.7627
  237MPD1     N 3656   3.650   0.211  14.899 -0.7753  0.2168  0.5419
  237MPD1    H5 3657   3.609   0.232  14.989 -2.3891 -1.5358  0.2083
  237MPD1    N1 3658   4.069   0.142  14.645  0.5382  0.2914 -0.4096
  237MPD1    H6 3659   4.013   0.098  14.573 -0.6601  1.1545 -0.0144
  237MPD1    H7 3660   4.150   0.082  14.661 -0.1431 -0.7305 -0.8513
  238MPD1     C 3661   0.295   4.107  15.450  0.8184  0.4126  0.8083
  238MPD1    C1 3662   0.335   3.990  15.509  0.3807 -0.0318  0.9468
  238MPD1    C2 3663   0.265   3.875  15.490 -0.1953  0.2719  0.3678
  238MPD1    C3 3664   0.162   3.877  15.396  0.0324  0.1456  0.8602
  238MPD1    C4 3665   0.126   3.996  15.344 -0.3584 -0.5718  0.6649
  238MPD1    C5 3666   0.181   4.112  15.374  0.3370 -0.5618 -0.3650
  238MPD1     H 3667   0.299   3.781  15.532  0.8128  0.2143 -0.5561
  238MPD1    H1 3668   0.037   3.993  15.283  0.5987 -1.2201 -0.7065
  238MPD1    H2 3669   0.347   4.201  15.461 -0.4612  1.2118 -0.0359
  238MPD1    H3 3670   0.148   4.210  15.339 -0.2256 -1.5227 -2.5144
  238MPD1     N 3671   0.104   3.757  15.343 -0.2754 -0.6238  0.7156
  238MPD1    H5 3672   0.051   3.769  15.257  0.7649 -1.3068 -0.0185
  238MPD1    N1 3673   0.464   3.994  15.561  0.2749  0.1428 -0.2646
  238MPD1    H6 3674   0.502   3.912  15.608 -0.1113 -0.1863 -0.5228
  238MPD1    H7 3675   0.482   4.078  15.615  2.4472  1.4542 -3.0100
  239MPD1     C 3676   0.681   4.459  14.958 -0.2606  0.1505  0.1968
  239MPD1    C1 3677   0.709   4.383  14.847 -0.7211 -0.1131 -0.7434
  239MPD1    C2 3678   0.702   4.443  14.725 -0.7016  0.1907  0.2063
  239MPD1    C3 3679   0.660   4.573  14.706  0.1697 -0.1936 -0.3816
  239MPD1    C4 3680   0.626   4.653  14.818 -0.6688 -0.7259 -0.3627
  239MPD1    C5 3681   0.624   4.584  14.939 -0.3697  0.0401 -0.7500
  239MPD1     H 3682   0.708   4.387  14.631 -1.9618  1.2085 -0.4852
  239MPD1    H1 3683   0.588   0.019  14.810 -2.4637 -1.5708 -2.5283
  239MPD1    H2 3684   0.686   4.422  15.059 -0.8176  0.0628  0.1889
  239MPD1    H3 3685   0.590   4.638  15.027  0.0411 -0.2926 -0.3835
  239MPD1     N 3686   0.652   4.627  14.575  0.1083  0.2933 -0.1094
  239MPD1    H5 3687   0.618   4.723  14.570  2.5701  1.1921  0.5358
  239MPD1    N1 3688   0.763   4.254  14.863  0.1004 -0.1877 -0.4234
  239MPD1    H6 3689   0.731   4.199  14.783  0.5029  0.2030 -0.8522
  239MPD1    H7 3690   0.722   4.216  14.948  2.7001 -0.6385  0.5963
  240MPD1     C 3691   4.440   4.426  13.720  0.5962 -0.2816 -0.3063
  240MPD1    C1 3692   4.344   4.399  13.813  0.2391  0.0870  0.2133
  240MPD1    C2 3693   4.366   4.307  13.916  0.2486 -0.4440  0.8157
  240MPD1    C3 3694   4.492   4.260  13.942 -0.0181 -0.2715 -0.4647
  240MPD1    C4 3695   4.593   4.315  13.861 -0.1771  0.3355  0.0779
  240MPD1    C5 3696   4.568   4.386  13.751 -0.2139  0.2868 -0.0940
  240MPD1     H 3697   4.278   4.273  13.970  1.2513 -0.1357  2.6442
  240MPD1    H1 3698   4.697   4.293  13.882 -0.9682 -2.1455  1.4466
  240MPD1    H2 3699   4.413   4.479  13.629 -0.4991 -0.3505 -0.0203
  240MPD1    H3 3700   4.644   4.431  13.688  2.1608 -2.3693  0.8979
  240MPD1     N 3701   4.508   4.182  14.054 -0.2096 -0.2412 -0.0145
  240MPD1    H5 3702   4.420   4.146  14.089 -2.1880  4.4042 -0.2045
  240MPD1    N1 3703   4.216   4.452  13.790 -0.1225  0.0913 -0.5059
  240MPD1    H6 3704   4.158   4.456  13.873 -0.3862 -3.2545 -0.5544
  240MPD1    H7 3705   4.214   4.547  13.751  1.3651  0.2931 -0.0720
  241MPD1     C 3706   0.334   4.215  14.881 -0.7458 -0.7544  0.2855
  241MPD1    C1 3707   0.312   4.086  14.834 -0.2653  0.0501 -0.1127
  241MPD1    C2 3708   0.213   4.047  14.745 -0.2776 -0.0735 -0.2134
  241MPD1    C3 3709   0.137   4.153  14.696  0.4669  0.4763  0.8538
  241MPD1    C4 3710   0.159   4.285  14.736  0.2174  0.3556  0.0463
  241MPD1    C5 3711   0.254   4.313  14.829  0.0866 -0.2429 -1.0077
  241MPD1     H 3712   0.202   3.944  14.714 -1.8498 -0.1242  0.4944
  241MPD1    H1 3713   0.102   4.365  14.690  2.5146  1.8050 -0.2588
  241MPD1    H2 3714   0.417   4.251  14.941 -0.4433  0.8971 -1.1430
  241MPD1    H3 3715   0.268   4.412  14.871 -1.3618 -0.9996  1.2801
  241MPD1     N 3716   0.045   4.124  14.585  0.2888 -1.0188 -0.4733
  241MPD1    H5 3717   0.004   4.203  14.535  1.5751  1.8068  2.9649
  241MPD1    N1 3718   0.414   3.994  14.878  0.7348 -0.0929 -0.4382
  241MPD1    H6 3719   0.506   4.036  14.872  2.1500 -2.8838  1.6360
  241MPD1    H7 3720   0.416   3.908  14.824  0.8987 -0.7763  0.6701
  242MPD1     C 3721   4.043   1.599  15.863  0.1190  0.4460 -0.4315
  242MPD1    C1 3722   3.983   1.563  15.743  0.4206 -0.1053  0.2286
  242MPD1    C2 3723   4.004   1.640  15.625 -0.3417  1.0162 -0.1196
  242MPD1    C3 3724   4.114   1.720  15.618 -0.1651  0.4644 -0.5936
  242MPD1    C4 3725   4.191   1.730  15.733  0.3137  0.2079  0.8680
  242MPD1    C5 3726   4.150   1.684  15.855 -0.0190  0.2613 -0.0816
  242MPD1     H 3727   3.936   1.637  15.541  0.0551 -0.4490 -0.3947
  242MPD1    H1 3728   4.273   1.800  15.731  0.1012  0.4538  0.7012
  242MPD1    H2 3729   4.016   1.557  15.959 -1.1000  2.8634  0.2769
  242MPD1    H3 3730   4.206   1.714  15.943  1.8226 -0.8345 -0.8677
  242MPD1     N 3731   4.152   1.800  15.509  0.5689  0.4078  0.2127
  242MPD1    H5 3732   4.240   1.848  15.519  0.1113  1.0363  1.1744
  242MPD1    N1 3733   3.878   1.468  15.757 -0.2731 -0.5430  0.4470
  242MPD1    H6 3734   3.903   1.400  15.829  0.4024 -0.9039 -0.1232
  242MPD1    H7 3735   3.867   1.407  15.676 -0.5178 -1.0416  0.8547
  243MPD1     C 3736   1.995   1.345  17.106 -0.5944  0.6350  0.3039
  243MPD1    C1 3737   1.930   1.255  17.017 -0.3722 -0.4768 -0.2717
  243MPD1    C2 3738   1.851   1.155  17.071  0.5891  0.4752 -0.8344
  243MPD1    C3 3739   1.836   1.140  17.207  0.0864  0.4443  0.5299
  243MPD1    C4 3740   1.895   1.231  17.294  0.2322 -0.7419 -0.3525
  243MPD1    C5 3741   1.977   1.335  17.241 -0.2798  0.0321  0.0279
  243MPD1     H 3742   1.804   1.080  17.009  1.0519 -1.5685  1.2983
  243MPD1    H1 3743   1.891   1.224  17.402 -0.7098 -1.3689 -0.4222
  243MPD1    H2 3744   2.065   1.416  17.063  0.5417  0.9810  2.7054
  243MPD1    H3 3745   2.019   1.404  17.313  0.0296  2.7866 -2.7968
  243MPD1     N 3746   1.766   1.022  17.249 -0.3353  0.0456  0.3708
  243MPD1    H5 3747   1.742   0.955  17.176  0.2990  0.9502 -0.6695
  243MPD1    N1 3748   1.978   1.256  16.885 -0.1636 -0.0020 -0.0814
  243MPD1    H6 3749   1.902   1.234  16.821 -1.2180  1.8938  0.5301
  243MPD1    H7 3750   2.014   1.349  16.862 -1.8372  0.4780 -0.7692
  244MPD1     C 3751   1.986   0.510   0.382 -0.1082 -0.3022  0.1098
  244MPD1    C1 3752   2.035   0.622   0.319 -0.3853 -0.0659  0.1948
  244MPD1    C2 3753   1.996   0.652   0.186 -0.5499 -0.1418  0.6760
  244MPD1    C3 3754   1.890   0.593   0.129 -0.3833  0.8392 -0.5981
  244MPD1    C4 3755   1.837   0.482   0.191  0.2284  0.2040  0.2160
  244MPD1    C5 3756   1.878   0.450   0.315  0.0980 -0.1154  0.4321
  244MPD1     H 3757   2.042   0.735   0.135  1.1619 -0.8479  1.0459
  244MPD1    H1 3758   1.751   0.430   0.149  0.2302  0.3892 -0.0190
  244MPD1    H2 3759   2.014   0.490   0.485  0.0380  1.8102  0.4715
  244MPD1    H3 3760   1.829   0.370   0.370  0.8335  0.6756  2.2237
  244MPD1     N 3761   1.854   0.633   0.000 -0.2537 -0.3340  0.5119
  244MPD1    H5 3762   1.894   0.724  17.717  0.6588 -0.5798  1.1204
  244MPD1    N1 3763   2.146   0.686   0.383 -0.6556 -0.6007 -0.4734
  244MPD1    H6 3764   2.182   0.651   0.471 -0.5386  0.5179 -0.0734
  244MPD1    H7 3765   2.230   0.693   0.327 -0.7417 -0.4329 -0.5820
  245MPD1     C 3766   2.865   1.533  13.113 -0.2728  0.0107  0.3353
  245MPD1    C1 3767   2.866   1.596  13.234  0.0787  0.1100  0.9546
  245MPD1    C2 3768   2.978   1.663  13.281  0.8648  0.2228 -0.8901
  245MPD1    C3 3769   3.082   1.687  13.190 -0.4672 -0.7842  0.1732
  245MPD1    C4 3770   3.076   1.646  13.058 -0.2657 -0.5133  0.1147
  245MPD1    C5 3771   2.973   1.565  13.021 -0.3497  0.4082 -0.8540
  245MPD1     H 3772   2.993   1.702  13.382  1.7559 -2.3701 -0.0171
  245MPD1    H1 3773   3.156   1.671  12.989  0.0704  2.3796  1.5515
  245MPD1    H2 3774   2.781   1.479  13.072  0.6958  0.2381 -1.9303
  245MPD1    H3 3775   2.967   1.531  12.919  1.4369 -0.2423 -0.7526
  245MPD1     N 3776   3.199   1.750  13.242 -0.3447 -0.3072 -0.1700
  245MPD1    H5 3777   3.192   1.783  13.338 -2.4331 -1.8349  0.2173
  245MPD1    N1 3778   2.773   1.563  13.332 -0.4620  0.1059 -0.8819
  245MPD1    H6 3779   2.687   1.543  13.280 -0.2404 -1.9598 -0.4550
  245MPD1    H7 3780   2.753   1.646  13.388  0.0313 -1.0075  0.9772
  246MPD1     C 3781   0.055   2.706  10.077  0.1006 -0.2537  0.4375
  246MPD1    C1 3782   0.090   2.701   9.947  0.7979  0.2136 -0.1629
  246MPD1    C2 3783   4.734   2.646   9.854  0.6086  0.4314 -0.4898
  246MPD1    C3 3784   4.605   2.621   9.888 -0.4271 -0.2861 -1.0447
  246MPD1    C4 3785   4.562   2.649  10.015  0.4191  0.2994  0.0912
  246MPD1    C5 3786   4.656   2.689  10.108 -0.4421 -0.0893  0.8323
  246MPD1     H 3787   0.035   2.628   9.753 -1.9897 -2.5022 -0.8834
  246MPD1    H1 3788   4.458   2.627  10.037  0.4295 -0.8067 -0.9446
  246MPD1    H2 3789   0.123   2.736  10.156 -0.7907  2.0959  0.3065
  246MPD1    H3 3790   4.620   2.695  10.210  0.3511 -0.5260  1.1359
  246MPD1     N 3791   4.519   2.566   9.789  0.0228  0.2842 -0.1611
  246MPD1    H5 3792   4.548   2.556   9.692 -1.9263  0.9126 -0.8105
  246MPD1    N1 3793   0.220   2.741   9.909  0.2412 -0.2450 -0.4085
  246MPD1    H6 3794   0.261   2.799   9.982 -1.4471  0.3191  0.0859
  246MPD1    H7 3795   0.219   2.793   9.821  3.1744  1.1358  0.3823
  247MPD1     C 3796   1.691   1.446  15.772  0.7337  0.7499 -0.0969
  247MPD1    C1 3797   1.807   1.375  15.788  0.2158 -0.5641 -0.5190
  247MPD1    C2 3798   1.926   1.436  15.751 -1.0118  0.0178 -0.2979
  247MPD1    C3 3799   1.926   1.568  15.716 -0.8336  0.4283  0.0105
  247MPD1    C4 3800   1.807   1.633  15.709 -0.1273  0.5059  1.2109
  247MPD1    C5 3801   1.687   1.574  15.735 -0.1341 -0.4107  0.8489
  247MPD1     H 3802   2.019   1.380  15.746 -0.8789  0.0595  1.8430
  247MPD1    H1 3803   1.807   1.739  15.683  0.1579 -0.4880 -2.6754
  247MPD1    H2 3804   1.594   1.402  15.793  0.5290  0.4434 -1.6907
  247MPD1    H3 3805   1.595   1.629  15.721  0.2623  0.3189  1.1276
  247MPD1     N 3806   2.042   1.654  15.697 -0.0150  0.6562  0.6999
  247MPD1    H5 3807   2.026   1.749  15.665  0.0012  0.5743  0.4524
  247MPD1    N1 3808   1.806   1.238  15.833 -0.8937  0.5229 -0.0511
  247MPD1    H6 3809   1.900   1.199  15.838 -1.6635 -1.9283 -4.1940
  247MPD1    H7 3810   1.755   1.229  15.920  0.1022 -1.3899  0.3264
  248MPD1     C 3811   3.447   0.351  17.318  0.1317 -0.5691 -0.1576
  248MPD1    C1 3812   3.397   0.312  17.451 -0.5845 -0.6060 -0.5710
  248MPD1    C2 3813   3.368   0.420  17.536  0.5338  0.1086 -0.9103
  248MPD1    C3 3814   3.415   0.543  17.512 -0.0381 -0.0388  0.1462
  248MPD1    C4 3815   3.473   0.572  17.390  0.3595 -0.3890 -0.1143
  248MPD1    C5 3816   3.478   0.474  17.294 -0.5479  0.7611  0.7589
  248MPD1     H 3817   3.330   0.393  17.634  1.8019 -2.0351 -1.0221
  248MPD1    H1 3818   3.499   0.672  17.358 -1.7224  0.3008  0.3674
  248MPD1    H2 3819   3.452   0.285  17.232  0.5614  1.0094 -1.3473
  248MPD1    H3 3820   3.512   0.498  17.194  2.3780 -3.0587  0.8323
  248MPD1     N 3821   3.389   0.639  17.611  0.2728  1.0506 -0.3172
  248MPD1    H5 3822   3.340   0.600  17.691  0.2900 -1.4377 -1.5103
  248MPD1    N1 3823   3.356   0.181  17.468  0.1113 -0.3397 -0.1230
  248MPD1    H6 3824   3.416   0.113  17.421  1.9390  0.6643  0.7634
  248MPD1    H7 3825   3.363   0.164  17.568 -1.1878 -3.1928 -0.5256
  249MPD1     C 3826   4.513   0.083  11.432  0.2421  0.0579 -0.4886
  249MPD1    C1 3827   4.496   0.165  11.541  0.3129  0.7463 -0.2687
  249MPD1    C2 3828   4.556   0.295  11.546 -0.6253 -0.4800  0.9777
  249MPD1    C3 3829   4.661   0.322  11.457  0.5820  0.5607  0.1774
  249MPD1    C4 3830   4.687   0.230  11.359  0.9583 -0.3112 -0.0996
  249MPD1    C5 3831   4.609   0.123  11.342 -0.1128 -0.1703 -0.5522
  249MPD1     H 3832   4.540   0.367  11.625 -0.5254  0.9286 -0.2730
  249MPD1    H1 3833   0.028   0.243  11.283 -0.4311  0.0423 -1.4191
  249MPD1    H2 3834   4.474   4.719  11.416 -0.7496  0.0586  2.0193
  249MPD1    H3 3835   4.630   0.056  11.258 -0.5018 -0.2566 -0.5794
  249MPD1     N 3836   0.005   0.435  11.488 -0.4331 -0.2302 -0.4473
  249MPD1    H5 3837   4.716   0.488  11.571  0.2663  0.0170 -0.4009
  249MPD1    N1 3838   4.404   0.129  11.639  0.4728 -0.2339  0.2703
  249MPD1    H6 3839   4.409   0.182  11.726 -0.1961 -0.0008  0.1670
  249MPD1    H7 3840   4.393   0.029  11.652  1.6546  0.1121  4.1431
  250MPD2     C 3841   0.827   0.107  13.385  0.2994 -0.2090 -0.3350
  250MPD2    C1 3842   0.895   0.130  13.263  0.1189  0.2522  0.7141
  250MPD2    C2 3843   0.915   0.025  13.179  0.5324  0.3880 -0.1750
  250MPD2    C3 3844   0.877   4.630  13.205  0.1425  0.5689 -0.0441
  250MPD2    C4 3845   0.821   4.608  13.327 -0.3130 -0.0919 -0.0522
  250MPD2    C5 3846   0.810   4.708  13.417 -0.2527  0.4819  0.1244
  250MPD2     H 3847   0.962   0.057  13.087 -1.3651 -0.8975 -1.6014
  250MPD2    H1 3848   0.800   4.509  13.366 -0.2263 -1.3383 -3.1382
  250MPD2    H2 3849   0.814   0.184  13.460 -1.0713 -1.0122  0.2524
  250MPD2    H3 3850   0.777   4.676  13.515  2.4409 -1.5138  0.3679
  250MPD2     N 3851   0.895   4.519  13.115  0.9175 -0.8724 -0.0958
  250MPD2    H5 3852   0.879   4.424  13.147 -3.4424  0.1724  0.7785
  250MPD2    N1 3853   0.937   0.262  13.241  0.3481  0.1254 -0.5453
  250MPD2    H7 3854   0.909   0.336  13.304 -0.4563  0.7236 -1.6032
  251TMC3    C1 3855   1.064   0.440  13.177  0.0454  0.4440 -0.6034
  251TMC3    C2 3856   0.959   0.516  13.216 -0.1321  0.4737  0.8207
  251TMC3    C3 3857   0.972   0.648  13.206  0.3150  0.0881  0.2385
  251TMC3    C4 3858   1.189   0.487  13.129  0.2683 -0.4299 -0.0124
  251TMC3    C5 3859   1.196   0.623  13.136 -0.8631 -0.4900  0.6270
  251TMC3    C6 3860   1.094   0.701  13.163  0.9862 -0.0569 -0.6328
  251TMC3     C 3861   1.035   0.301  13.151  0.1181 -0.1291 -0.2924
  251TMC3     O 3862   1.121   0.231  13.101  0.4558 -0.7829 -0.2267
  251TMC3     H 3863   0.864   0.482  13.255  0.0577 -0.6134  0.3191
  251TMC3    H1 3864   1.277   0.425  13.117  0.6968  0.5516 -2.0217
  251TMC3    H2 3865   1.097   0.809  13.174  2.9029 -0.3665  1.9459
  251TMC3    C7 3866   1.329   0.684  13.141 -0.1224  0.4136  0.3188
  251TMC3    C8 3867   0.896   0.730  13.295  0.1647  0.3426 -0.7942
  251TMC3    O1 3868   1.424   0.614  13.139  0.2145  0.3914  0.1381
  251TMC3    O2 3869   0.956   0.820  13.359 -0.4222 -0.2617 -0.3439
  252TMC3    C1 3870   0.973   1.982   9.656  0.2570  0.6502  1.0256
  252TMC3    C2 3871   1.094   1.987   9.601 -0.1055 -0.2007  0.4774
  252TMC3    C3 3872   1.162   1.865   9.587  0.6341 -0.0605 -0.4170
  252TMC3    C4 3873   0.905   1.860   9.675 -0.1636 -0.1072 -0.1787
  252TMC3    C5 3874   0.975   1.742   9.658  0.2320 -0.6160  0.2990
  252TMC3    C6 3875   1.115   1.741   9.620 -0.0349  0.0633 -0.1635
  252TMC3     C 3876   0.886   2.099   9.656  0.2791  0.2587 -0.0844
  252TMC3     O 3877   0.766   2.088   9.678 -0.2674  0.4991 -0.3680
  252TMC3     H 3878   1.141   2.078   9.565 -1.5823  0.5500  0.4738
  252TMC3    H1 3879   0.809   1.854   9.725 -0.7340  1.6344 -1.0985
  252TMC3    H2 3880   1.163   1.656   9.574 -0.3171 -0.3010  0.2126
  252TMC3    C7 3881   0.904   1.624   9.683  1.3066 -0.5121  0.4580
  252TMC3    C8 3882   1.306   1.876   9.565  0.5554 -1.1669  1.4394
  252TMC3    O1 3883   0.791   1.634   9.729 -0.3631 -0.4330  0.1412
  252TMC3    O2 3884   1.334   1.967   9.491 -0.0428 -0.7315 -0.5154
  253MPD2     C 3885   2.999   0.461  15.153  0.1346 -0.0434  0.2705
  253MPD2    C1 3886   2.862   0.441  15.147 -0.2367 -0.2031  0.0608
  253MPD2    C2 3887   2.799   0.351  15.229 -0.6330  0.2098  0.6458
  253MPD2    C3 3888   2.874   0.270  15.316 -0.3661  0.0466 -0.2110
  253MPD2    C4 3889   3.012   0.280  15.310 -0.1131  0.0805 -0.3130
  253MPD2    C5 3890   3.070   0.367  15.224  0.1378 -0.0421 -0.5032
  253MPD2     H 3891   2.692   0.345  15.222 -0.7994  0.0735  3.1418
  253MPD2    H1 3892   3.078   0.219  15.370 -1.6075  0.3992  1.6521
  253MPD2    H2 3893   3.051   0.536  15.093  0.4308 -1.7143 -1.5657
  253MPD2    H3 3894   3.178   0.373  15.233  0.1603 -0.6922 -0.3226
  253MPD2     N 3895   2.812   0.173  15.408  0.4832  0.0340 -0.2940
  253MPD2    H5 3896   2.873   0.113  15.462 -1.0525  1.6142  3.2208
  253MPD2    N1 3897   2.784   0.510  15.054 -0.1628 -0.1666  0.2152
  253MPD2    H7 3898   2.692   0.470  15.037 -1.2286  2.0382  0.8149
  254TMC3    C1 3899   2.635   0.064  15.529 -0.7347  0.3675 -0.7148
  254TMC3    C2 3900   2.501   0.069  15.552 -0.2565 -0.4748 -0.0162
  254TMC3    C3 3901   2.458   4.716  15.651 -0.1031 -0.2421 -0.2435
  254TMC3    C4 3902   2.726   4.727  15.605 -0.8702 -0.4504  0.4158
  254TMC3    C5 3903   2.678   4.652  15.709  0.3824 -0.4789 -0.3549
  254TMC3    C6 3904   2.542   4.640  15.724 -0.1222 -0.5335 -0.3755
  254TMC3     C 3905   2.678   0.147  15.413 -0.0933 -0.7950  0.0799
  254TMC3     O 3906   2.581   0.190  15.354  0.1984  0.1303 -0.2244
  254TMC3     H 3907   2.426   0.124  15.497  0.3281  1.5655  1.2271
  254TMC3    H1 3908   2.830   0.012  15.583 -1.0212  1.2499  1.3067
  254TMC3    H2 3909   2.518   4.574  15.806  0.2798 -1.3162 -0.8861
  254TMC3    C7 3910   2.763   4.613  15.820 -0.1110  0.9908  0.1586
  254TMC3    C8 3911   2.325   4.728  15.713 -0.1005  0.7248  0.4349
  254TMC3    O1 3912   2.721   4.522  15.889 -0.0064 -0.5151  0.0699
  254TMC3    O2 3913   2.304   4.663  15.817  0.9922 -0.6171  0.3169
  255MPD2     C 3914   1.009   2.949  10.225 -0.5122  0.3697  0.5628
  255MPD2    C1 3915   0.989   2.840  10.137  0.0151 -0.5305  0.7044
  255MPD2    C2 3916   1.058   2.833  10.017  0.0715  0.0137 -0.7733
  255MPD2    C3 3917   1.148   2.937   9.988 -0.7631 -0.5642  0.6527
  255MPD2    C4 3918   1.167   3.045  10.077 -0.2283  0.2481  0.2426
  255MPD2    C5 3919   1.095   3.051  10.192  0.4833 -0.6989  0.4582
  255MPD2     H 3920   1.052   2.742   9.958 -1.2554  0.1442 -0.8452
  255MPD2    H1 3921   1.236   3.125  10.053  2.1268 -1.0477  2.7989
  255MPD2    H2 3922   0.955   2.950  10.320  1.1959  0.4323  1.5361
  255MPD2    H3 3923   1.132   3.121  10.266 -0.6168  1.0166 -0.6159
  255MPD2     N 3924   1.216   2.917   9.864  0.1790 -0.0551 -0.1716
  255MPD2    H5 3925   1.203   2.825   9.824  0.1841  1.1339 -2.9280
  255MPD2    N1 3926   0.900   2.743  10.178 -0.1085 -0.8522  0.1473
  255MPD2    H7 3927   0.861   2.756  10.271 -0.1347 -2.4358  0.3461
  256TMC3    C1 3928   0.704   2.603  10.162 -0.6837 -0.2751 -0.3014
  256TMC3    C2 3929   0.623   2.696  10.216 -0.4719  0.3549 -0.1353
  256TMC3    C3 3930   0.490   2.684  10.201 -0.5061 -0.3014 -0.5921
  256TMC3    C4 3931   0.647   2.499  10.102 -0.3776  0.5874 -0.0553
  256TMC3    C5 3932   0.513   2.485  10.085 -0.5785  0.0231 -0.0969
  256TMC3    C6 3933   0.430   2.588  10.125 -0.5469 -0.7895 -0.5815
  256TMC3     C 3934   0.837   2.652  10.104  0.1710 -0.2105  0.1949
  256TMC3     O 3935   0.845   2.630   9.983  0.3276  0.2773 -0.3599
  256TMC3     H 3936   0.648   2.783  10.275 -1.1188  1.2754 -1.2045
  256TMC3    H1 3937   0.710   2.414  10.077  1.7025  1.4528  2.2955
  256TMC3    H2 3938   0.323   2.575  10.117 -0.8816 -0.3859  3.1053
  256TMC3    C7 3939   0.460   2.383  10.002 -0.4296 -0.1057  0.4061
  256TMC3    C8 3940   0.421   2.810  10.197  0.4091  0.0449 -0.1327
  256TMC3    O1 3941   0.521   2.278  10.008 -0.0691 -0.5404 -0.4083
  256TMC3    O2 3942   0.357   2.841  10.296  0.5791 -0.0573 -0.0196
  257MPD2     C 3943   0.166   0.103  13.418 -0.3619  0.0035 -0.2990
  257MPD2    C1 3944   0.150   0.003  13.325  0.3028 -0.4131  0.5766
  257MPD2    C2 3945   0.139   4.605  13.382 -0.0630  0.0338 -0.6673
  257MPD2    C3 3946   0.144   4.580  13.520  0.2262 -0.4371  0.0858
  257MPD2    C4 3947   0.153   4.689  13.603 -0.1861 -0.3649 -0.4593
  257MPD2    C5 3948   0.165   0.081  13.553 -0.4032  0.5170 -0.1998
  257MPD2     H 3949   0.138   4.522  13.312 -2.1095  0.3881 -1.0368
  257MPD2    H1 3950   0.166   4.676  13.710 -0.1532  0.4207 -0.3665
  257MPD2    H2 3951   0.174   0.207  13.388  0.7400 -0.4084 -1.3891
  257MPD2    H3 3952   0.192   0.160  13.622  1.5291 -0.0576 -0.3118
  257MPD2     N 3953   0.153   4.446  13.564  0.4364 -0.0934  0.2881
  257MPD2    H5 3954   0.159   4.377  13.489 -1.4543 -1.5251  1.4615
  257MPD2    N1 3955   0.149   0.027  13.187  0.2966 -0.7154  0.1262
  257MPD2    H7 3956   0.130   0.124  13.162 -1.0136 -0.3145  2.6738
  258TMC3    C1 3957   0.233   4.268  13.699  0.1359 -0.2105 -0.0714
  258TMC3    C2 3958   0.246   4.195  13.585  0.4182 -0.2671 -0.2836
  258TMC3    C3 3959   0.291   4.068  13.602 -0.3616  0.0586  0.1175
  258TMC3    C4 3960   0.259   4.216  13.824 -0.0563 -0.1910  0.7065
  258TMC3    C5 3961   0.285   4.086  13.837  0.2068  0.0042 -0.5098
  258TMC3    C6 3962   0.306   4.012  13.726 -0.2086  0.3766  0.5198
  258TMC3     C 3963   0.184   4.402  13.693  0.3824  0.7371 -0.4389
  258TMC3     O 3964   0.168   4.462  13.796  0.5005  0.3014 -0.1784
  258TMC3     H 3965   0.246   4.241  13.487  1.2582 -0.2208 -0.2687
  258TMC3    H1 3966   0.254   4.279  13.912 -0.6818  0.7591 -0.0084
  258TMC3    H2 3967   0.330   3.908  13.748  1.4006  0.5573 -0.3780
  258TMC3    C7 3968   0.374   4.055  13.946 -0.2420  0.1634 -0.3168
  258TMC3    C8 3969   0.282   3.976  13.480  0.2962 -0.9099  0.3116
  258TMC3    O1 3970   0.477   3.993  13.923 -0.7314  0.1136  0.4281
  258TMC3    O2 3971   0.293   4.034  13.372 -0.0795 -0.3011 -0.4375
  259MPD2     C 3972   4.362   2.036   0.724  0.0627  0.0860 -0.7068
  259MPD2    C1 3973   4.376   1.916   0.652 -0.5426 -0.7270  0.1107
  259MPD2    C2 3974   4.330   1.904   0.519 -0.8708 -0.2113 -0.2045
  259MPD2    C3 3975   4.262   2.011   0.466 -0.2563  0.1006  0.0738
  259MPD2    C4 3976   4.256   2.127   0.536  0.3865  0.4799  0.1707
  259MPD2    C5 3977   4.303   2.136   0.664  0.4051 -0.4126  0.1144
  259MPD2     H 3978   4.344   1.813   0.463 -0.0555  0.1065 -0.5142
  259MPD2    H1 3979   4.188   2.202   0.496 -1.5884 -0.7874  1.1440
  259MPD2    H2 3980   4.408   2.057   0.820 -2.0539 -0.7310  0.4863
  259MPD2    H3 3981   4.281   2.232   0.711 -0.1420  0.1668 -1.3322
  259MPD2     N 3982   4.202   2.016   0.334  0.4188  0.0282  0.2596
  259MPD2    H5 3983   4.134   2.090   0.319 -0.6608 -1.1481 -0.6193
  259MPD2    N1 3984   4.442   1.820   0.718  0.3103 -0.4821  1.0979
  259MPD2    H7 3985   4.477   1.841   0.811  1.8823  1.6335  0.0223
  260TMC3    C1 3986   4.106   1.939   0.129 -0.2728 -0.0464 -0.3983
  260TMC3    C2 3987   4.161   2.037   0.056  0.4592  0.0588 -0.0502
  260TMC3    C3 3988   4.229   2.002  17.677 -0.3360 -0.7544 -0.0586
  260TMC3    C4 3989   4.086   1.819   0.069  0.4481 -0.2116 -0.2834
  260TMC3    C5 3990   4.141   1.790  17.691 -0.4489  0.3007  0.5635
  260TMC3    C6 3991   4.216   1.875  17.625 -0.0866 -0.4320  0.3551
  260TMC3     C 3992   4.189   1.911   0.247  0.9583 -0.4406 -0.2919
  260TMC3     O 3993   4.234   1.800   0.257  0.0107  0.2892  0.2177
  260TMC3     H 3994   4.165   2.139   0.092  0.4759  0.2771 -0.6751
  260TMC3    H1 3995   4.043   1.739   0.128 -1.7411  1.6581  0.6691
  260TMC3    H2 3996   4.259   1.850  17.529 -1.9827  0.1865 -0.6725
  260TMC3    C7 3997   4.167   1.651  17.658 -0.8074 -0.7124  0.2864
  260TMC3    C8 3998   4.344   2.089  17.645 -1.0465 -0.2909  0.3192
  260TMC3    O1 3999   4.264   1.624  17.583 -0.3087 -0.3444  0.3601
  260TMC3    O2 4000   4.335   2.211  17.664  0.0302  0.0462 -0.5690
  261MPD2     C 4001   0.477   4.350  12.415  0.1188 -0.0975  0.5491
  261MPD2    C1 4002   0.604   4.401  12.428 -0.8480 -0.5765 -0.6740
  261MPD2    C2 4003   0.663   4.471  12.319 -0.2618  0.5001 -0.0516
  261MPD2    C3 4004   0.600   4.479  12.202 -0.2243  0.0236 -1.4901
  261MPD2    C4 4005   0.470   4.435  12.188 -0.6188 -0.2327  0.7246
  261MPD2    C5 4006   0.411   4.369  12.295  0.1818 -0.0524  0.4057
  261MPD2     H 4007   0.757   4.524  12.332  1.6444 -2.7224 -0.7584
  261MPD2    H1 4008   0.420   4.444  12.093  2.4904 -1.9990 -1.0807
  261MPD2    H2 4009   0.429   4.308  12.502  1.5777  0.0857  1.4381
  261MPD2    H3 4010   0.307   4.340  12.297  0.1486  0.0436 -0.1080
  261MPD2     N 4011   0.669   4.528  12.089  0.2920  0.7053  0.3872
  261MPD2    H5 4012   0.620   4.540  12.001  0.5537 -0.2402  0.1176
  261MPD2    N1 4013   0.684   4.387  12.544  0.3938  0.2256  0.3386
  261MPD2    H7 4014   0.768   4.443  12.547  2.8105 -3.3944  0.1076
  262TMC3    C1 4015   0.843   4.611  11.960 -0.1633  0.7709  0.2915
  262TMC3    C2 4016   0.790   4.732  11.944 -0.0960 -0.1570 -0.2166
  262TMC3    C3 4017   0.856   0.084  11.847 -0.0117  0.6193  0.2836
  262TMC3    C4 4018   0.942   4.555  11.881 -0.3037  0.8920 -0.0675
  262TMC3    C5 4019   0.999   4.640  11.785 -0.1393  0.0600  0.3413
  262TMC3    C6 4020   0.967   0.040  11.774 -0.1582 -0.4903  0.3934
  262TMC3     C 4021   0.807   4.534  12.078  0.2966  0.1212  0.0416
  262TMC3     O 4022   0.888   4.465  12.140 -0.0682  0.0320  0.0208
  262TMC3     H 4023   0.715   0.034  12.013 -0.2044  1.7367 -1.3473
  262TMC3    H1 4024   0.975   4.452  11.895  0.2753  1.0489 -0.2606
  262TMC3    H2 4025   1.017   0.104  11.702  0.0627 -0.5634  0.4817
  262TMC3    C7 4026   1.111   4.580  11.711  0.4076 -0.8844 -0.5221
  262TMC3    C8 4027   0.826   0.226  11.841 -1.0814  0.0330 -0.2700
  262TMC3    O1 4028   1.113   4.460  11.711 -0.1133 -0.2550 -0.4874
  262TMC3    O2 4029   0.917   0.298  11.796  0.1069  0.3149  0.2679
  263MPD2     C 4030   1.502   3.938  11.152 -0.6267  0.5528  0.1141
  263MPD2    C1 4031   1.560   4.051  11.213 -0.5697  0.6693  0.2260
  263MPD2    C2 4032   1.620   4.152  11.146  0.8748  0.0425  0.2965
  263MPD2    C3 4033   1.613   4.152  11.004 -0.0240  1.0432  0.4986
  263MPD2    C4 4034   1.554   4.051  10.938 -0.2099  0.4004  0.5319
  263MPD2    C5 4035   1.503   3.941  11.014  0.6987  0.1576  0.0537
  263MPD2     H 4036   1.677   4.233  11.190 -0.3746  0.4027  1.2670
  263MPD2    H1 4037   1.545   4.047  10.830  1.2802  3.0918  0.3081
  263MPD2    H2 4038   1.466   3.849  11.201  0.6722  0.8422  1.6244
  263MPD2    H3 4039   1.465   3.856  10.959  1.2824 -0.4785  0.6399
  263MPD2     N 4040   1.692   4.247  10.936 -0.0502 -0.3520  0.5388
  263MPD2    H5 4041   1.726   4.325  10.993 -1.9649  2.2945 -1.9191
  263MPD2    N1 4042   1.581   4.042  11.356 -0.3635  0.2349 -0.1120
  263MPD2    H7 4043   1.551   3.953  11.395  1.2890 -0.6355 -0.7948
  264TMC3    C1 4044   1.745   4.406  10.767  0.1964  0.0395  0.6055
  264TMC3    C2 4045   1.723   4.517  10.841  0.0836 -0.3129  0.5626
  264TMC3    C3 4046   1.728   4.640  10.785  0.5568  0.1134 -0.3579
  264TMC3    C4 4047   1.800   4.416  10.643  0.5549 -0.5106  0.0156
  264TMC3    C5 4048   1.812   4.538  10.585 -0.3277 -0.3607  0.1294
  264TMC3    C6 4049   1.762   4.645  10.650 -0.3029 -0.3399 -0.9391
  264TMC3     C 4050   1.700   4.272  10.805  0.2116 -0.3429  0.3064
  264TMC3     O 4051   1.682   4.188  10.717 -0.3348 -0.4962  0.2230
  264TMC3     H 4052   1.697   4.509  10.946 -0.1004 -1.4811  0.4199
  264TMC3    H1 4053   1.842   4.328  10.597  0.5357 -0.1603 -0.6691
  264TMC3    H2 4054   1.772   0.008  10.605  1.7719 -1.5943 -3.1775
  264TMC3    C7 4055   1.934   4.563  10.513 -0.1398 -0.8937  0.3091
  264TMC3    C8 4056   1.765   0.022  10.864  0.3966 -0.3326  0.0756
  264TMC3    O1 4057   1.989   4.459  10.481  0.7138  0.8030 -0.2964
  264TMC3    O2 4058   1.848   0.102  10.812 -0.4728  0.0242 -0.0713
  265MPD2     C 4059   3.921   4.448  15.371  0.2020  0.3124  0.8242
  265MPD2    C1 4060   3.990   4.566  15.347 -0.9045 -0.3210  0.2032
  265MPD2    C2 4061   4.104   4.568  15.273  0.3193  0.0244 -0.2237
  265MPD2    C3 4062   4.146   4.450  15.215  0.1423  0.1628  0.3988
  265MPD2    C4 4063   4.082   4.333  15.239 -0.1024  0.1960 -0.2159
  265MPD2    C5 4064   3.973   4.327  15.322 -0.5939 -0.0287 -0.1520
  265MPD2     H 4065   4.162   4.659  15.264  0.2035  0.3082  2.0338
  265MPD2    H1 4066   4.114   4.238  15.196  0.2627 -0.0909  0.6810
  265MPD2    H2 4067   3.831   4.450  15.433 -0.7010 -0.3810 -0.4783
  265MPD2    H3 4068   3.914   4.238  15.347  0.3309 -1.0254 -1.5324
  265MPD2     N 4069   4.255   4.452  15.127 -0.5880  0.0583  0.0400
  265MPD2    H5 4070   4.288   4.361  15.096  0.8062  0.6535 -0.2367
  265MPD2    N1 4071   3.947   4.686  15.409  0.3801 -0.0039 -0.4952
  265MPD2    H7 4072   3.999   0.033  15.379 -1.1614  1.2623  0.2856
  266TMC3    C1 4073   3.849   0.094  15.568 -0.4231 -0.3024  0.4144
  266TMC3    C2 4074   3.885   0.111  15.699 -0.4134  0.1948  0.0087
  266TMC3    C3 4075   3.887   0.240  15.747  0.3049 -1.1004 -0.5312
  266TMC3    C4 4076   3.834   0.197  15.484 -0.5437  0.9565  0.3414
  266TMC3    C5 4077   3.833   0.321  15.535 -0.4078 -0.2797 -0.1713
  266TMC3    C6 4078   3.859   0.345  15.664  0.2789 -0.0773 -0.0464
  266TMC3     C 4079   3.871   4.696  15.519 -0.0300 -0.1116 -0.6056
  266TMC3     O 4080   3.850   4.610  15.606 -0.0256 -0.2089 -0.0917
  266TMC3     H 4081   3.880   0.027  15.767  1.6417 -0.3209 -0.4970
  266TMC3    H1 4082   3.832   0.168  15.380  1.7554  1.1701  0.2524
  266TMC3    H2 4083   3.857   0.445  15.705 -1.3592 -0.2242  0.2138
  266TMC3    C7 4084   3.822   0.421  15.430 -0.2313 -0.4425 -0.1072
  266TMC3    C8 4085   3.965   0.250  15.877 -0.2697 -0.6537  0.0392
  266TMC3    O1 4086   3.829   0.380  15.315  0.4163 -0.0869 -0.1688
  266TMC3    O2 4087   4.007   0.143  15.917  0.3742  0.5770  0.1198
  267MPD2     C 4088   1.894   1.785  17.608  0.0414 -0.3154 -0.5225
  267MPD2    C1 4089   1.973   1.801  17.498 -0.2062 -0.4817  0.0543
  267MPD2    C2 4090   1.918   1.790  17.375 -0.2721 -0.1370 -0.1709
  267MPD2    C3 4091   1.783   1.749  17.359  0.1051 -0.5813  0.2405
  267MPD2    C4 4092   1.708   1.743  17.469  0.5103  0.4618  0.1318
  267MPD2    C5 4093   1.764   1.764  17.591 -0.1347 -0.1235 -0.3443
  267MPD2     H 4094   1.979   1.809  17.288  0.7949  3.3738  1.3772
  267MPD2    H1 4095   1.602   1.723  17.462  0.5181  0.1962  0.7359
  267MPD2    H2 4096   1.930   1.800  17.709 -2.0864  0.5299  0.0923
  267MPD2    H3 4097   1.708   1.758  17.684  2.1289  2.2750  1.1852
  267MPD2     N 4098   1.720   1.729  17.237  0.2388  0.3587 -0.1506
  267MPD2    H5 4099   1.624   1.697  17.237  0.4595 -0.3197  2.0359
  267MPD2    N1 4100   2.109   1.831  17.522  0.5649 -0.2055  0.3302
  267MPD2    H7 4101   2.133   1.829  17.621  0.3782 -2.0591  0.3310
  268TMC3    C1 4102   2.347   1.870  17.487  0.5012 -0.1748  0.1932
  268TMC3    C2 4103   2.456   1.837  17.405 -0.0148  1.1466 -0.7503
  268TMC3    C3 4104   2.579   1.834  17.471  0.1121 -0.1130  0.2302
  268TMC3    C4 4105   2.355   1.907  17.619  0.6465 -0.1238  0.1977
  268TMC3    C5 4106   2.477   1.890  17.684 -0.2640  0.2469  0.2247
  268TMC3    C6 4107   2.587   1.850  17.607 -0.3314  0.4433 -0.4037
  268TMC3     C 4108   2.215   1.832  17.432 -0.3912  0.3958 -0.1183
  268TMC3     O 4109   2.210   1.813  17.308 -0.1545  0.1673  0.3649
  268TMC3     H 4110   2.446   1.826  17.298 -1.0253 -1.7098 -0.3512
  268TMC3    H1 4111   2.266   1.929  17.676  0.8345 -0.3745  0.5847
  268TMC3    H2 4112   2.683   1.854  17.658  0.5639  3.2837 -2.2801
  268TMC3    C7 4113   2.486   1.924   0.083 -0.6959 -0.2685 -0.6128
  268TMC3    C8 4114   2.699   1.854  17.396  0.8913  0.2335  0.4576
  268TMC3    O1 4115   2.396   2.004   0.110  0.3365  0.0378 -0.3891
  268TMC3    O2 4116   2.800   1.817  17.449  0.1720  0.1258 -0.1762
  269MPD2     C 4117   2.049   0.480  15.365 -0.0339 -0.5520  0.0066
  269MPD2    C1 4118   1.920   0.497  15.412 -0.5718  0.0787 -0.2370
  269MPD2    C2 4119   1.865   0.624  15.433 -0.3585  0.2893 -0.2223
  269MPD2    C3 4120   1.943   0.734  15.411 -0.0134  0.0992 -0.7512
  269MPD2    C4 4121   2.078   0.716  15.378  0.8641 -0.8924 -0.5352
  269MPD2    C5 4122   2.132   0.587  15.361 -0.0373 -0.3567  0.3338
  269MPD2     H 4123   1.763   0.636  15.466 -0.6620 -3.9067  0.3594
  269MPD2    H1 4124   2.153   0.795  15.373 -2.6900  2.3673 -2.0716
  269MPD2    H2 4125   2.091   0.381  15.353  1.0357 -0.4675  2.9508
  269MPD2    H3 4126   2.232   0.577  15.321  0.0058  1.7012 -0.0954
  269MPD2     N 4127   1.884   0.864  15.424 -0.3022  0.0336 -0.0767
  269MPD2    H5 4128   1.794   0.861  15.471  0.0844 -0.6934  0.6324
  269MPD2    N1 4129   1.855   0.373  15.443 -0.5544  0.3384 -0.3220
  269MPD2    H7 4130   1.907   0.291  15.412 -1.3526  0.1107 -1.0655
  270TMC3    C1 4131   1.681   0.225  15.509  0.0427  0.2762  0.3456
  270TMC3    C2 4132   1.555   0.184  15.460 -0.2284  0.6057 -0.2442
  270TMC3    C3 4133   1.529   0.047  15.454 -0.1873  1.1868 -0.5158
  270TMC3    C4 4134   1.778   0.131  15.539 -0.0961 -1.3049  0.4149
  270TMC3    C5 4135   1.759   4.731  15.500  0.8312  0.5214  0.0855
  270TMC3    C6 4136   1.631   4.693  15.467  0.0200 -0.3462  0.5673
  270TMC3     C 4137   1.722   0.361  15.491  0.7247  0.0267  0.3173
  270TMC3     O 4138   1.642   0.448  15.507 -0.4541 -0.3549  0.6357
  270TMC3     H 4139   1.473   0.251  15.439 -0.6286 -0.1162 -0.9303
  270TMC3    H1 4140   1.876   0.158  15.579 -0.5654 -1.9815  2.0306
  270TMC3    H2 4141   1.606   4.588  15.457 -1.2982 -0.0337  0.5879
  270TMC3    C7 4142   1.870   4.681  15.412 -0.3404 -0.7248 -0.1790
  270TMC3    C8 4143   1.439   4.731  15.365 -0.0084 -0.7180 -0.2570
  270TMC3    O1 4144   1.983   0.000  15.428  0.3821  0.1728  0.0909
  270TMC3    O2 4145   1.320   0.000  15.392  0.0609  0.3277  0.1302
  271MPD2     C 4146   0.765   0.191  13.747 -0.4457  0.5971  0.0884
  271MPD2    C1 4147   0.773   0.235  13.880  0.3746  0.0672  0.1792
  271MPD2    C2 4148   0.664   0.295  13.943 -0.1657 -0.4851  0.1832
  271MPD2    C3 4149   0.546   0.305  13.872 -0.4835 -0.4154  0.2742
  271MPD2    C4 4150   0.538   0.252  13.747 -0.1788 -0.2970 -0.4183
  271MPD2    C5 4151   0.642   0.192  13.685  0.0402  0.1893  0.0208
  271MPD2     H 4152   0.666   0.338  14.042 -1.8121  0.0596 -0.0191
  271MPD2    H1 4153   0.445   0.241  13.693 -0.7652 -0.4495  0.6069
  271MPD2    H2 4154   0.847   0.155  13.686 -0.7023  1.6850 -0.9087
  271MPD2    H3 4155   0.634   0.149  13.586  0.6038 -1.7227  0.8003
  271MPD2     N 4156   0.430   0.365  13.927  0.5434  0.0521 -0.1796
  271MPD2    H5 4157   0.341   0.344  13.883  1.4126  2.7796 -3.2732
  271MPD2    N1 4158   0.894   0.221  13.963  0.1056  0.1833  0.0659
  271MPD2    H7 4159   0.881   0.231  14.063 -1.6364  0.2291 -0.1593
  272TMC3    C1 4160   1.081   0.099  14.038 -0.2058 -0.3712  0.0187
  272TMC3    C2 4161   1.174   0.003  13.998 -0.1579  0.1138 -0.1781
  272TMC3    C3 4162   1.237   4.678  14.099 -0.5063  0.4448 -1.3657
  272TMC3    C4 4163   1.040   0.121  14.166  0.0814  1.4319 -0.5239
  272TMC3    C5 4164   1.104   0.047  14.256 -0.0807 -0.7217 -0.5643
  272TMC3    C6 4165   1.194   4.689  14.226  0.3626  0.0511 -0.5548
  272TMC3     C 4166   1.009   0.162  13.928 -0.1791 -0.1393 -0.2994
  272TMC3     O 4167   1.056   0.137  13.819  0.3877  0.1416 -0.0962
  272TMC3     H 4168   1.205   4.717  13.896 -0.6232  0.1854 -0.3386
  272TMC3    H1 4169   0.958   0.180  14.206 -0.2011  1.3646 -1.0017
  272TMC3    H2 4170   1.238   4.651  14.317 -0.2212 -1.3050 -0.8480
  272TMC3    C7 4171   1.051   0.038  14.392  0.3893 -0.4911  0.5696
  272TMC3    C8 4172   1.360   4.608  14.062  0.2561  0.1913  0.4220
  272TMC3    O1 4173   0.932   0.038  14.396  0.1101  0.1105 -0.3432
  272TMC3    O2 4174   1.391   4.585  13.945  0.3664 -0.4735  0.6845
  273MPD2     C 4175   2.339   2.726  12.181 -0.4403  0.3001  0.1891
  273MPD2    C1 4176   2.406   2.834  12.123  0.0088  0.1428  0.5310
  273MPD2    C2 4177   2.363   2.898  12.011 -0.7068 -0.1161  0.3731
  273MPD2    C3 4178   2.244   2.851  11.957 -0.0819  0.7015  0.6394
  273MPD2    C4 4179   2.170   2.755  12.024  0.1146  0.2633  0.2359
  273MPD2    C5 4180   2.214   2.697  12.140  0.0014  0.7335 -0.3987
  273MPD2     H 4181   2.421   2.971  11.957  1.0563 -0.3976  1.8623
  273MPD2    H1 4182   2.075   2.728  11.981  0.5177 -0.4291 -0.2237
  273MPD2    H2 4183   2.381   2.671  12.264 -0.4754 -1.2366 -0.8167
  273MPD2    H3 4184   2.165   2.612  12.187 -1.0935  0.6265 -1.7494
  273MPD2     N 4185   2.186   2.907  11.845 -0.8915  0.4296 -0.0252
  273MPD2    H5 4186   2.090   2.879  11.826 -0.7772 -0.6676  1.0240
  273MPD2    N1 4187   2.532   2.885  12.189  0.6359 -0.9393 -0.2377
  273MPD2    H7 4188   2.556   2.839  12.276  0.1407 -0.9480 -0.1088
  274TMC3    C1 4189   2.137   3.058  11.674 -0.1649 -0.4829 -0.2344
  274TMC3    C2 4190   2.172   3.084  11.543  0.1347  0.0568  0.1748
  274TMC3    C3 4191   2.068   3.134  11.470 -0.2110 -0.0253 -0.2616
  274TMC3    C4 4192   2.014   3.084  11.724 -0.4009  0.2755  0.7270
  274TMC3    C5 4193   1.917   3.144  11.648  0.3755  0.4995 -0.2599
  274TMC3    C6 4194   1.940   3.171  11.516 -0.1810  0.5397  0.3638
  274TMC3     C 4195   2.239   3.004  11.764 -1.0011  0.0265  0.8649
  274TMC3     O 4196   2.349   3.057  11.745  0.5364  0.4171 -0.6357
  274TMC3     H 4197   2.271   3.061  11.504 -0.3906 -0.0488 -1.0757
  274TMC3    H1 4198   1.993   3.059  11.827  1.4440 -3.9554  0.0843
  274TMC3    H2 4199   1.866   3.229  11.462 -0.4861 -0.5187 -0.3545
  274TMC3    C7 4200   1.850   3.258  11.711 -0.7391 -0.5115 -0.1670
  274TMC3    C8 4201   2.111   3.181  11.338 -1.2628 -0.1007  0.8707
  274TMC3    O1 4202   1.792   3.335  11.636 -0.3753  0.2313  0.5012
  274TMC3    O2 4203   2.228   3.210  11.326 -0.3564  0.0815 -0.2433
  275MPD2     C 4204   2.119   1.486  13.997  0.0912  0.3360  0.2655
  275MPD2    C1 4205   2.109   1.457  14.132  0.1820 -0.2898  0.1161
  275MPD2    C2 4206   2.025   1.361  14.186  0.8182  0.1384  0.1071
  275MPD2    C3 4207   1.940   1.294  14.105  0.8762 -0.0999 -0.5427
  275MPD2    C4 4208   1.949   1.316  13.970 -1.0481 -0.3345 -0.1435
  275MPD2    C5 4209   2.027   1.413  13.916  0.3609 -0.1350 -0.4327
  275MPD2     H 4210   2.012   1.348  14.293  2.5435  0.6284  0.3737
  275MPD2    H1 4211   1.881   1.270  13.900  0.3263 -0.1214 -1.6465
  275MPD2    H2 4212   2.183   1.563  13.956 -0.4742  1.1644  0.9714
  275MPD2    H3 4213   2.039   1.422  13.808  0.3669 -1.8651 -0.5680
  275MPD2     N 4214   1.836   1.199  14.145  0.0351 -0.1975  0.2677
  275MPD2    H5 4215   1.788   1.139  14.079 -0.1111 -1.7323  1.7387
  275MPD2    N1 4216   2.192   1.518  14.224  0.0676 -0.9141 -0.2340
  275MPD2    H7 4217   2.193   1.468  14.313 -0.5810  1.7845  1.2895
  276TMC3    C1 4218   2.356   1.640  14.332 -0.4441 -0.0098  0.2783
  276TMC3    C2 4219   2.277   1.608  14.439 -0.5860  0.1705  0.5086
  276TMC3    C3 4220   2.328   1.563  14.556 -0.4375 -0.5728 -0.5736
  276TMC3    C4 4221   2.487   1.626  14.356  0.2551  0.4734  0.3174
  276TMC3    C5 4222   2.538   1.591  14.476  0.0406 -0.0218  0.0557
  276TMC3    C6 4223   2.463   1.543  14.576  0.5901 -0.1692 -0.3039
  276TMC3     C 4224   2.294   1.610  14.207 -0.5487 -0.5511  0.1647
  276TMC3     O 4225   2.324   1.670  14.107  0.2277  0.1345 -0.1694
  276TMC3     H 4226   2.170   1.623  14.433 -0.5394  0.5213  0.5505
  276TMC3    H1 4227   2.558   1.622  14.274  0.4626  2.4816  0.4152
  276TMC3    H2 4228   2.502   1.503  14.669  0.3337 -2.1188 -1.0239
  276TMC3    C7 4229   2.674   1.620  14.512 -0.4799  0.4399 -0.1145
  276TMC3    C8 4230   2.236   1.473  14.618 -0.3029  0.6020  0.1536
  276TMC3    O1 4231   2.707   1.574  14.619  0.9164 -0.4819 -0.4618
  276TMC3    O2 4232   2.116   1.504  14.613  0.5510  0.0066 -0.0867
  277MPD2     C 4233   4.130   0.407  12.940 -0.4811 -0.7306  0.9693
  277MPD2    C1 4234   3.996   0.435  12.956 -0.0564 -0.0859  0.1552
  277MPD2    C2 4235   3.922   0.385  13.057  0.0503  0.5165  0.0487
  277MPD2    C3 4236   3.979   0.277  13.128 -0.2415  0.6887  0.2716
  277MPD2    C4 4237   4.112   0.249  13.106 -0.5652 -0.0184 -0.3169
  277MPD2    C5 4238   4.189   0.315  13.016 -0.2018 -0.2889  0.1078
  277MPD2     H 4239   3.828   0.434  13.081  0.7615  1.4912  0.8207
  277MPD2    H1 4240   4.166   0.175  13.163  0.6714  2.8038  2.1412
  277MPD2    H2 4241   4.187   0.465  12.868 -0.0973 -0.1653  1.7264
  277MPD2    H3 4242   4.291   0.283  13.005 -0.1798 -0.0135 -0.4968
  277MPD2     N 4243   3.891   0.212  13.221  0.3635 -0.2431 -0.0577
  277MPD2    H5 4244   3.792   0.235  13.212  0.3161 -1.5070 -2.6967
  277MPD2    N1 4245   3.945   0.537  12.871  0.2710 -0.2168  0.1593
  277MPD2    H7 4246   4.012   0.591  12.816 -0.6301  0.7306 -0.0033
  278TMC3    C1 4247   3.821   0.077  13.404 -0.1269  0.3963  0.3330
  278TMC3    C2 4248   3.846   4.711  13.488  0.5203  0.0967 -0.1732
  278TMC3    C3 4249   3.745   4.633  13.531  0.4997  0.1777 -0.3224
  278TMC3    C4 4250   3.688   0.113  13.376  0.0250 -0.1034 -0.3243
  278TMC3    C5 4251   3.588   0.041  13.431 -0.0686 -0.2489  0.7718
  278TMC3    C6 4252   3.616   4.668  13.502 -0.1214  0.2025 -0.6387
  278TMC3     C 4253   3.931   0.140  13.328  0.0570  0.0038 -0.5043
  278TMC3     O 4254   4.045   0.116  13.369 -0.3285 -0.1578  0.2500
  278TMC3     H 4255   3.951   4.691  13.508  0.8840 -0.6213 -2.7822
  278TMC3    H1 4256   3.669   0.201  13.318 -4.6818  0.6910  2.4362
  278TMC3    H2 4257   3.541   4.622  13.565  0.7394 -2.0255 -1.2573
  278TMC3    C7 4258   3.445   0.085  13.419 -0.5454  1.3280  0.1549
  278TMC3    C8 4259   3.770   4.498  13.573  0.0087  0.0812  0.4884
  278TMC3    O1 4260   3.421   0.202  13.389  0.4347  0.1338  0.4644
  278TMC3    O2 4261   3.864   4.473  13.649  0.0809 -0.2681 -0.6269
  279MPD2     C 4262   3.780   0.437  17.677 -0.4817  0.6112  0.3895
  279MPD2    C1 4263   3.721   0.318  17.642 -0.3939  0.2693  1.1492
  279MPD2    C2 4264   3.735   0.265  17.516 -0.5052  0.2570  0.5534
  279MPD2    C3 4265   3.782   0.345  17.411 -0.3747  0.5582  0.9530
  279MPD2    C4 4266   3.820   0.466  17.442  1.2208  0.4210 -0.2891
  279MPD2    C5 4267   3.828   0.509  17.572  0.0863  0.0139 -0.5045
  279MPD2     H 4268   3.689   0.170  17.487  2.0223 -0.5926 -0.6292
  279MPD2    H1 4269   3.848   0.540  17.367 -0.4853 -1.9324 -3.2636
  279MPD2    H2 4270   3.779   0.490   0.033 -0.0218  1.1951  0.0679
  279MPD2    H3 4271   3.868   0.608  17.591  0.8111 -0.7717  2.0315
  279MPD2     N 4272   3.780   0.298  17.278 -0.1003 -0.5601 -0.1390
  279MPD2    H5 4273   3.796   0.362  17.200 -0.1683  1.8761  1.8556
  279MPD2    N1 4274   3.630   0.253  17.725  0.1909  0.1586  0.0885
  279MPD2    H7 4275   3.582   0.167  17.700 -1.6365  1.0325  0.6540
  280TMC3    C1 4276   3.464   0.255   0.142 -0.3428  0.5253 -0.3823
  280TMC3    C2 4277   3.421   0.133   0.084  0.1159 -0.2764  0.4349
  280TMC3    C3 4278   3.284   0.116   0.065 -0.4606 -0.8753  0.0357
  280TMC3    C4 4279   3.372   0.353   0.168 -0.2385 -0.2526  0.1338
  280TMC3    C5 4280   3.239   0.337   0.135 -0.0914  0.5067  0.0139
  280TMC3    C6 4281   3.194   0.220   0.089 -0.0828  0.2587 -0.1416
  280TMC3     C 4282   3.593   0.298   0.111  0.1678  0.3327 -0.6036
  280TMC3     O 4283   3.630   0.397   0.176  0.5416  0.0383  0.0439
  280TMC3     H 4284   3.494   0.054   0.068 -1.0261 -1.4567  1.0776
  280TMC3    H1 4285   3.404   0.437   0.228  0.5060 -0.1660 -0.3916
  280TMC3    H2 4286   3.090   0.190   0.080 -0.2337  1.0078 -0.8569
  280TMC3    C7 4287   3.174   0.457   0.099 -0.5760  0.3780 -0.3379
  280TMC3    C8 4288   3.241   4.716   0.037  0.3744 -0.3375 -0.5254
  280TMC3    O1 4289   3.241   0.559   0.109  0.9637  0.0452  0.5964
  280TMC3    O2 4290   3.148   4.708  17.702  0.2696  0.0299 -0.6723
  281TMC3    C1 4291   1.466   0.905  13.577  0.3040  0.3338 -0.0066
  281TMC3    C2 4292   1.601   0.910  13.570  0.0673  0.2902 -0.6078
  281TMC3    C3 4293   1.664   0.799  13.517  0.1793 -0.7888 -0.7945
  281TMC3    C4 4294   1.389   0.795  13.545 -0.3365  0.0362  0.0528
  281TMC3    C5 4295   1.465   0.686  13.507  0.2498  0.1884 -0.5255
  281TMC3    C6 4296   1.597   0.688  13.497 -0.3472  0.1446 -0.4073
  281TMC3     C 4297   1.395   1.030  13.576 -0.0403 -0.4328 -0.3603
  281TMC3     O 4298   1.292   1.023  13.504  0.6861 -0.1607 -0.1493
  281TMC3     H 4299   1.658   1.003  13.567  0.8442 -0.2201 -1.7774
  281TMC3    H1 4300   1.283   0.787  13.562 -0.7805 -0.5410 -2.9549
  281TMC3    H2 4301   1.652   0.602  13.460 -0.6516  0.0935 -0.7487
  281TMC3    C7 4302   1.393   0.562  13.483  0.9485 -0.1510  0.2592
  281TMC3    C8 4303   1.770   0.821  13.426 -0.6509 -0.1372 -0.6526
  281TMC3    O1 4304   1.275   0.577  13.460 -0.3066 -0.2682 -0.2449
  281TMC3    O2 4305   1.870   0.750  13.436 -0.2727 -0.1304 -0.0064
  282MPD2     C 4306   3.639   1.612  14.877 -0.0040  0.2437 -0.1008
  282MPD2    C1 4307   3.539   1.561  14.960  1.2602  0.4308 -0.1922
  282MPD2    C2 4308   3.444   1.472  14.907 -0.3396  1.0035 -0.4743
  282MPD2    C3 4309   3.443   1.435  14.772 -0.0033  0.1881  0.0824
  282MPD2    C4 4310   3.536   1.504  14.694  0.8014 -0.5742  0.5179
  282MPD2    C5 4311   3.630   1.589  14.744 -0.1797  0.3185  0.8276
  282MPD2     H 4312   3.369   1.430  14.974  0.8364  0.8629  0.7482
  282MPD2    H1 4313   3.530   1.488  14.587  0.6414  0.7529  0.3273
  282MPD2    H2 4314   3.722   1.679  14.901 -1.5596  2.2049 -0.1846
  282MPD2    H3 4315   3.704   1.636  14.679 -0.5887 -0.5843 -0.2907
  282MPD2     N 4316   3.342   1.347  14.727 -0.7120 -0.4933 -0.1334
  282MPD2    H5 4317   3.300   1.306  14.810 -0.8852  0.7239  0.3866
  282MPD2    N1 4318   3.540   1.593  15.102 -0.0185  0.5393  0.4505
  282MPD2    H7 4319   3.470   1.548  15.160 -1.7213  3.6622  0.7917
  283TMC3    C1 4320   3.608   1.657  15.316 -0.4730 -0.1447  0.3993
  283TMC3    C2 4321   3.654   1.764  15.384 -0.0743  0.3676 -0.1004
  283TMC3    C3 4322   3.680   1.738  15.516 -0.3326  0.1598  0.2664
  283TMC3    C4 4323   3.574   1.536  15.361  0.6231 -0.0942  0.8193
  283TMC3    C5 4324   3.591   1.522  15.501  0.6502  0.7015  0.5161
  283TMC3    C6 4325   3.646   1.624  15.577 -0.6776 -0.9621 -0.2534
  283TMC3     C 4326   3.626   1.674  15.172 -0.8252 -0.5154 -0.3988
  283TMC3     O 4327   3.694   1.763  15.120 -0.0143  0.3726  0.4500
  283TMC3     H 4328   3.687   1.853  15.332 -0.6894  1.2289  0.9885
  283TMC3    H1 4329   3.536   1.457  15.298 -1.4049  0.5479  1.2439
  283TMC3    H2 4330   3.644   1.625  15.686  2.2562 -2.8758 -0.1821
  283TMC3    C7 4331   3.537   1.411  15.572 -0.3076 -0.1140 -0.4937
  283TMC3    C8 4332   3.725   1.849  15.598  0.2157  0.4446 -0.2507
  283TMC3    O1 4333   3.519   1.423  15.694 -0.7480  0.6239 -0.8077
  283TMC3    O2 4334   3.681   1.861  15.714  0.4192 -0.6618  0.1919
  284MPD2     C 4335   1.508   1.254  11.431 -0.0316 -0.6228  0.7575
  284MPD2    C1 4336   1.625   1.209  11.486  0.0212 -0.2114 -0.2823
  284MPD2    C2 4337   1.623   1.144  11.608 -0.3122 -0.2655  0.1277
  284MPD2    C3 4338   1.506   1.124  11.675  0.4380 -0.3011 -0.0920
  284MPD2    C4 4339   1.392   1.171  11.623 -0.1955  0.1583  0.3335
  284MPD2    C5 4340   1.387   1.235  11.498  0.7051  0.1399 -0.2017
  284MPD2     H 4341   1.718   1.107  11.645  0.6744  1.6849 -0.4623
  284MPD2    H1 4342   1.292   1.159  11.665 -2.0156  1.8218 -3.5178
  284MPD2    H2 4343   1.507   1.305  11.336 -0.1485 -2.8762 -0.4473
  284MPD2    H3 4344   1.298   1.268  11.445  0.4719 -1.4212 -0.7819
  284MPD2     N 4345   1.519   1.066  11.804 -0.0820  0.1106 -0.4626
  284MPD2    H5 4346   1.608   1.026  11.833 -0.9583  0.1018  2.2574
  284MPD2    N1 4347   1.755   1.231  11.436 -0.2786 -0.7734 -0.5469
  284MPD2    H7 4348   1.837   1.191  11.480  0.7335  1.9111  0.0001
  285TMC3    C1 4349   1.927   1.324  11.309  0.6732 -0.2616  0.3520
  285TMC3    C2 4350   1.995   1.216  11.357 -0.0427  0.0628  0.4436
  285TMC3    C3 4351   2.121   1.230  11.413 -0.0104 -0.2683 -0.2696
  285TMC3    C4 4352   1.986   1.442  11.302  0.1497  0.7529  0.3626
  285TMC3    C5 4353   2.111   1.456  11.355  0.1197  0.2660 -0.8758
  285TMC3    C6 4354   2.176   1.357  11.422 -0.1382  0.0962  0.3486
  285TMC3     C 4355   1.780   1.322  11.330 -0.0993 -1.0460  0.4834
  285TMC3     O 4356   1.713   1.407  11.276  0.1499  0.5949 -0.3299
  285TMC3     H 4357   1.947   1.119  11.364 -0.6830  0.2263 -1.6301
  285TMC3    H1 4358   1.939   1.527  11.254 -0.7394  0.0755  0.0310
  285TMC3    H2 4359   2.282   1.365  11.446 -0.0499  0.5106 -0.1810
  285TMC3    C7 4360   2.166   1.594  11.357 -0.1006  0.4779  0.5057
  285TMC3    C8 4361   2.195   1.099  11.420 -0.2030 -0.0598 -0.2529
  285TMC3    O1 4362   2.119   1.682  11.294 -0.0086 -0.2646  0.6278
  285TMC3    O2 4363   2.135   1.001  11.381 -0.3922 -0.4402  0.0325
  286MPD2     C 4364   2.669   0.353   1.525  1.1158  0.3796  0.0346
  286MPD2    C1 4365   2.648   0.237   1.450  1.5267 -0.2718 -0.1918
  286MPD2    C2 4366   2.650   0.111   1.510  0.3291 -0.1063 -0.3404
  286MPD2    C3 4367   2.676   0.102   1.649  0.0314 -0.0172 -0.1248
  286MPD2    C4 4368   2.696   0.222   1.728 -0.7572 -0.9987  0.6193
  286MPD2    C5 4369   2.689   0.345   1.660  0.7347  0.3008  0.9012
  286MPD2     H 4370   2.651   0.021   1.451  3.7783  0.3394 -0.9229
  286MPD2    H1 4371   2.713   0.216   1.835  0.2626 -0.5398  0.4841
  286MPD2    H2 4372   2.660   0.455   1.490  0.5910  0.6413  0.9207
  286MPD2    H3 4373   2.700   0.436   1.718  0.6863  0.9502 -0.1052
  286MPD2     N 4374   2.693   4.710   1.702 -0.3041 -0.2227 -0.1393
  286MPD2    H5 4375   2.733   4.715   1.795 -0.4569 -1.5655 -0.0130
  286MPD2    N1 4376   2.628   0.250   1.306 -0.5018  0.6085 -0.0978
  286MPD2    H7 4377   2.618   0.168   1.248 -0.0295  1.1116 -0.8962
  287TMC3    C1 4378   2.716   4.470   1.699  0.0266  0.3311 -0.4201
  287TMC3    C2 4379   2.696   4.357   1.614  0.2235  0.2450  0.2378
  287TMC3    C3 4380   2.813   4.286   1.575 -0.1403 -0.6485  0.3874
  287TMC3    C4 4381   2.842   4.489   1.741 -0.0428 -0.4312 -0.8566
  287TMC3    C5 4382   2.946   4.409   1.707 -0.5483  0.0052  1.1529
  287TMC3    C6 4383   2.940   4.306   1.623 -0.3974 -0.4024 -0.3513
  287TMC3     C 4384   2.656   4.589   1.640  0.6191 -0.3872  0.3958
  287TMC3     O 4385   2.568   4.573   1.553 -0.1047  0.2158  0.1147
  287TMC3     H 4386   2.604   4.357   1.558  1.1866  0.9103 -1.3393
  287TMC3    H1 4387   2.876   4.576   1.797  1.2516  0.5398 -3.1338
  287TMC3    H2 4388   3.019   4.232   1.615 -2.1822 -2.1812 -1.4482
  287TMC3    C7 4389   3.063   4.428   1.788 -0.1567  0.0007  0.1019
  287TMC3    C8 4390   2.809   4.199   1.465 -0.1507 -0.2306  0.1534
  287TMC3    O1 4391   3.050   4.463   1.903 -0.0715 -0.2337  0.1799
  287TMC3    O2 4392   2.916   4.158   1.417  0.5470  0.0959  0.1238
  288TMC3    C1 4393   4.520   4.457  14.307  0.5565  0.1911 -0.0874
  288TMC3    C2 4394   4.433   4.451  14.409 -0.0622 -0.1891 -0.0588
  288TMC3    C3 4395   4.321   4.534  14.398  0.3746 -0.5908 -0.0387
  288TMC3    C4 4396   4.500   4.536  14.190  0.0443 -0.1995  0.1050
  288TMC3    C5 4397   4.377   4.599  14.180  0.0712 -0.1076 -0.1520
  288TMC3    C6 4398   4.293   4.608  14.288  0.4476  0.5583 -0.1401
  288TMC3     C 4399   4.649   4.413  14.345 -0.0756 -0.1005 -0.5436
  288TMC3     O 4400   4.669   4.363  14.452 -0.4255 -0.1876  0.5613
  288TMC3     H 4401   4.464   4.403  14.502 -1.3464 -1.2006 -0.1506
  288TMC3    H1 4402   4.564   4.545  14.103  2.1164 -0.4473  1.6060
  288TMC3    H2 4403   4.208   4.675  14.288  0.9267  1.1551 -0.9972
  288TMC3    C7 4404   4.327   4.658  14.061  0.3575  0.9449  0.1638
  288TMC3    C8 4405   4.260   4.574  14.522  0.1368 -0.3265  0.1771
  288TMC3    O1 4406   4.205   4.670  14.055  0.3797 -0.2594 -0.2921
  288TMC3    O2 4407   4.300   4.670  14.590 -0.6278  0.2641  0.4343
  289MPD2     C 4408   4.361   3.452  14.439 -0.9826  0.0968 -0.1780
  289MPD2    C1 4409   4.305   3.571  14.396 -0.1526  0.4412  0.8211
  289MPD2    C2 4410   4.176   3.571  14.336 -0.6620 -0.2442 -0.0893
  289MPD2    C3 4411   4.107   3.455  14.319 -0.3688 -0.1897  0.3987
  289MPD2    C4 4412   4.162   3.342  14.370  0.2990  0.4555  0.2178
  289MPD2    C5 4413   4.287   3.333  14.430 -0.5894 -0.5768 -0.5672
  289MPD2     H 4414   4.132   3.664  14.301 -2.2458 -0.8150  0.3964
  289MPD2    H1 4415   4.106   3.251  14.388  1.1827 -0.1368 -0.0414
  289MPD2    H2 4416   4.463   3.457  14.475 -0.9754 -1.5787  0.0257
  289MPD2    H3 4417   4.329   3.243  14.471  2.6741  0.0603 -2.5343
  289MPD2     N 4418   3.981   3.450  14.244 -0.6982 -0.2626  0.6067
  289MPD2    H5 4419   3.942   3.359  14.222 -0.3925  0.0533 -1.2090
  289MPD2    N1 4420   4.382   3.688  14.388  0.2475  0.3801 -0.2338
  289MPD2    H7 4421   4.470   3.681  14.437 -0.1314  0.8497  0.5072
  290TMC3    C1 4422   3.797   3.526  14.117 -0.5584 -0.7093  0.5447
  290TMC3    C2 4423   3.732   3.633  14.071  1.1720  0.1780  0.3049
  290TMC3    C3 4424   3.598   3.627  14.043  0.0600  0.3065  0.6261
  290TMC3    C4 4425   3.741   3.401  14.129  0.4525 -0.2042 -0.7452
  290TMC3    C5 4426   3.605   3.395  14.093 -0.3928  0.0713 -0.3996
  290TMC3    C6 4427   3.527   3.506  14.059  0.1829 -0.3924 -0.5044
  290TMC3     C 4428   3.917   3.559  14.187  1.2358 -0.2015  0.3864
  290TMC3     O 4429   3.940   3.680  14.210  0.2796 -0.1139 -0.3344
  290TMC3     H 4430   3.785   3.728  14.067  0.6823  0.3299 -2.2264
  290TMC3    H1 4431   3.800   3.311  14.140  0.8947  0.4472  2.3390
  290TMC3    H2 4432   3.422   3.488  14.040  0.6435 -1.2762 -2.2717
  290TMC3    C7 4433   3.527   3.275  14.114 -0.4055 -0.2345 -0.5074
  290TMC3    C8 4434   3.535   3.742  13.996  0.9431 -0.2696  0.2258
  290TMC3    O1 4435   3.404   3.280  14.115 -0.3574 -0.2715  0.2221
  290TMC3    O2 4436   3.432   3.712  13.936 -0.5256 -0.1170  0.8310
  291MPD2     C 4437   3.968   3.570  17.596  0.2327  0.6228  1.0545
  291MPD2    C1 4438   3.940   3.552  17.727  0.3265 -0.2726 -0.1835
  291MPD2    C2 4439   4.000   3.642   0.077  0.0383  0.2578 -0.9553
  291MPD2    C3 4440   4.102   3.732   0.033 -0.4902 -0.3856  0.4521
  291MPD2    C4 4441   4.139   3.738  17.640  0.0410 -0.2261 -0.5424
  291MPD2    C5 4442   4.065   3.664  17.551  0.3573 -0.4869  0.0787
  291MPD2     H 4443   3.967   3.635   0.180 -0.1080  0.6186 -0.9751
  291MPD2    H1 4444   4.215   3.799  17.594  0.7886 -1.0311 -0.3741
  291MPD2    H2 4445   3.912   3.519  17.518  0.9303  1.0509  0.2607
  291MPD2    H3 4446   4.079   3.660  17.443  1.7935  1.8302  0.1639
  291MPD2     N 4447   4.182   3.803   0.132 -0.4154 -0.0308  0.9371
  291MPD2    H5 4448   4.272   3.840   0.101 -0.9525 -1.3522 -2.1179
  291MPD2    N1 4449   3.842   3.456   0.032  0.0965  0.2811 -0.3372
  291MPD2    H7 4450   3.825   3.448   0.132 -0.2365  0.9028 -0.3430
  292TMC3    C1 4451   3.696   3.264   0.020 -0.1345  0.1550  0.8678
  292TMC3    C2 4452   3.613   3.323   0.111 -0.3770  0.1234 -0.0388
  292TMC3    C3 4453   3.510   3.252   0.160  0.0929 -0.0927 -0.3278
  292TMC3    C4 4454   3.669   3.137  17.710 -0.1785 -0.1155  0.9523
  292TMC3    C5 4455   3.562   3.068   0.025 -0.1999  0.7118 -0.0443
  292TMC3    C6 4456   3.492   3.119   0.127  0.5317  0.0505  0.4511
  292TMC3     C 4457   3.794   3.348  17.695 -0.1992 -0.0194  0.1216
  292TMC3     O 4458   3.834   3.316  17.586 -0.1248  0.1462  0.2771
  292TMC3     H 4459   3.631   3.426   0.141 -1.4401  0.5047 -0.7245
  292TMC3    H1 4460   3.724   3.090  17.629  0.2185 -0.6082  1.5068
  292TMC3    H2 4461   3.403   3.069   0.164  0.7705 -0.8659 -0.2424
  292TMC3    C7 4462   3.525   2.936  17.704 -0.5719  0.3456 -0.0256
  292TMC3    C8 4463   3.413   3.327   0.243  0.8552 -0.3474  0.2978
  292TMC3    O1 4464   3.609   2.889  17.625  0.7184 -0.1092 -0.1931
  292TMC3    O2 4465   3.413   3.451   0.221  0.2011 -0.2744  0.3601
  293MPD2     C 4466   0.708   0.110  12.398 -0.7801 -0.0824 -0.3131
  293MPD2    C1 4467   0.593   0.046  12.442  0.1848 -0.3203  0.7200
  293MPD2    C2 4468   0.577   0.016  12.577 -0.2030 -0.6443  0.1743
  293MPD2    C3 4469   0.684   0.042  12.667  0.1577 -0.9981  0.4733
  293MPD2    C4 4470   0.800   0.101  12.618 -0.5070 -1.0760  0.0549
  293MPD2    C5 4471   0.814   0.127  12.482  0.1291  0.2077 -0.0256
  293MPD2     H 4472   0.481   4.726  12.622 -0.4178  0.7821  0.5377
  293MPD2    H1 4473   0.884   0.132  12.680 -1.2205  1.8539 -0.4548
  293MPD2    H2 4474   0.722   0.131  12.292 -0.4035  0.1207 -0.2254
  293MPD2    H3 4475   0.904   0.183  12.456  1.4629 -1.4337  1.0719
  293MPD2     N 4476   0.672   0.013  12.810 -0.5229  0.0788 -0.1980
  293MPD2    H5 4477   0.745   0.047  12.872 -0.0650 -0.2457 -0.5634
  293MPD2    N1 4478   0.490   0.030  12.355  0.1708  0.0844 -0.1299
  293MPD2    H7 4479   0.520   0.041  12.258 -0.0619  0.2766 -0.1800
  294TMC3    C1 4480   0.270   0.025  12.259  0.9822  0.1370  0.3066
  294TMC3    C2 4481   0.158   4.686  12.260  0.0838 -0.4036  0.6373
  294TMC3    C3 4482   0.097   4.657  12.134 -0.5802  0.1089 -0.3414
  294TMC3    C4 4483   0.328   0.077  12.152 -0.2754 -0.2846  0.4751
  294TMC3    C5 4484   0.285   0.028  12.033 -0.4850  0.1501 -0.1316
  294TMC3    C6 4485   0.167   4.695  12.023  0.1715  0.7108 -0.5511
  294TMC3     C 4486   0.357   0.016  12.382  0.7922 -0.0967  0.5711
  294TMC3     O 4487   0.309   4.726  12.490  0.4430 -0.7857 -0.0495
  294TMC3     H 4488   0.102   4.649  12.346 -1.2806  0.5830  0.1722
  294TMC3    H1 4489   0.418   0.136  12.163  1.2425 -2.0322 -2.3712
  294TMC3    H2 4490   0.128   4.656  11.930 -1.8712  1.4624 -0.0130
  294TMC3    C7 4491   0.367   0.047  11.916 -0.2387 -0.5566 -0.5377
  294TMC3    C8 4492   0.036   4.525  12.128 -0.0987  0.0987 -0.4525
  294TMC3    O1 4493   0.483   0.081  11.936 -0.5728  0.3294  0.9213
  294TMC3    O2 4494   0.066   4.447  12.216 -0.1563  0.4267 -0.2542
  295MPD2     C 4495   1.309   4.436   1.260 -0.2276 -0.1325  0.6714
  295MPD2    C1 4496   1.288   4.308   1.198  0.0451 -0.1993  0.0426
  295MPD2    C2 4497   1.187   4.228   1.252 -0.6954  0.2163  0.0443
  295MPD2    C3 4498   1.116   4.279   1.358 -0.1147 -0.3168  0.9711
  295MPD2    C4 4499   1.137   4.400   1.413 -0.3686  0.6841 -0.5984
  295MPD2    C5 4500   1.233   4.478   1.365  0.1178  0.9403  0.6313
  295MPD2     H 4501   1.171   4.129   1.209 -3.1962  0.1827  1.1031
  295MPD2    H1 4502   1.075   4.430   1.497  0.6322  2.8349 -0.6235
  295MPD2    H2 4503   1.398   4.494   1.238 -0.4596  0.1270  0.4314
  295MPD2    H3 4504   1.255   4.569   1.419  1.4564  0.9693  0.0282
  295MPD2     N 4505   1.010   4.206   1.414 -0.3965  0.4349  0.3354
  295MPD2    H5 4506   0.941   4.255   1.470  2.0879  1.2373  2.7235
  295MPD2    N1 4507   1.370   4.267   1.090  0.5574  0.0437  0.9650
  295MPD2    H7 4508   1.362   4.173   1.052  1.1242  0.3832  0.0006
  296TMC3    C1 4509   0.844   4.055   1.448 -0.4331 -0.3613 -0.0563
  296TMC3    C2 4510   0.747   4.156   1.454  0.3106 -0.5608  0.2232
  296TMC3    C3 4511   0.636   4.131   1.527  0.2532 -0.5943 -0.4229
  296TMC3    C4 4512   0.832   3.936   1.508  0.0937 -0.5988 -0.9669
  296TMC3    C5 4513   0.708   3.911   1.564 -0.2648 -0.1796  0.0603
  296TMC3    C6 4514   0.616   4.012   1.588  0.0598 -0.2326  0.6536
  296TMC3     C 4515   0.976   4.082   1.389  0.9160 -0.8094 -0.2729
  296TMC3     O 4516   1.041   3.987   1.347  0.5596  0.0560  0.2991
  296TMC3     H 4517   0.764   4.250   1.403 -1.5026  0.3465  1.2652
  296TMC3    H1 4518   0.916   3.867   1.506  0.6303 -0.0305  2.3576
  296TMC3    H2 4519   0.526   4.000   1.647 -0.7490 -1.2486 -0.7648
  296TMC3    C7 4520   0.680   3.785   1.636  0.8965  0.5960  0.3833
  296TMC3    C8 4521   0.520   4.216   1.519 -0.4337 -0.1265  0.0489
  296TMC3    O1 4522   0.586   3.788   1.717  0.2913  0.1936  0.0890
  296TMC3    O2 4523   0.412   4.161   1.546  0.8925 -0.0070  0.4049
  297MPD2     C 4524   2.887   0.275  16.023  0.6888 -0.3380 -0.3311
  297MPD2    C1 4525   2.879   0.366  15.920 -0.2052 -0.0731  0.3810
  297MPD2    C2 4526   2.968   0.475  15.923 -0.5569 -0.0541  0.6673
  297MPD2    C3 4527   3.054   0.495  16.025  0.0322  0.2181  0.2764
  297MPD2    C4 4528   3.070   0.399  16.129 -0.2540 -0.0479 -0.3284
  297MPD2    C5 4529   2.989   0.288  16.118 -0.3846 -0.9074 -0.1647
  297MPD2     H 4530   2.969   0.550  15.844 -0.5596 -0.5175  0.2234
  297MPD2    H1 4531   3.147   0.407  16.205 -1.3370 -1.0920  0.8647
  297MPD2    H2 4532   2.828   0.184  16.019 -0.5330  0.5155 -1.6425
  297MPD2    H3 4533   2.996   0.210  16.193  4.0067 -0.4824 -0.1117
  297MPD2     N 4534   3.128   0.613  16.018 -0.7491 -0.3162  0.0118
  297MPD2    H5 4535   3.112   0.663  15.931 -0.5278  0.8788  0.6561
  297MPD2    N1 4536   2.770   0.371  15.827 -0.0611 -0.4898  0.4976
  297MPD2    H7 4537   2.769   0.451  15.764 -0.0639 -0.9494 -0.0915
  298TMC3    C1 4538   2.544   0.363  15.744 -0.0253  0.2098  0.9288
  298TMC3    C2 4539   2.585   0.423  15.628 -0.3501  0.1134 -0.2320
  298TMC3    C3 4540   2.511   0.512  15.559 -0.7202 -0.4799 -1.2503
  298TMC3    C4 4541   2.436   0.415  15.810  0.4714 -0.0903 -0.4034
  298TMC3    C5 4542   2.356   0.502  15.741  0.0530 -0.5325 -0.5181
  298TMC3    C6 4543   2.389   0.552  15.619 -0.0467 -0.2401  0.1535
  298TMC3     C 4544   2.647   0.304  15.837 -0.6417 -0.0694  0.0224
  298TMC3     O 4545   2.616   0.234  15.930  0.0116 -0.3394 -0.3570
  298TMC3     H 4546   2.670   0.387  15.572 -1.3134 -0.2966 -1.4193
  298TMC3    H1 4547   2.409   0.377  15.908 -0.5645  1.4935 -0.0518
  298TMC3    H2 4548   2.328   0.622  15.563 -0.5651  1.0216  2.3069
  298TMC3    C7 4549   2.259   0.577  15.827  0.7044 -0.1989  0.4546
  298TMC3    C8 4550   2.591   0.597  15.471  0.0345 -0.1330 -0.6158
  298TMC3    O1 4551   2.282   0.568  15.945 -0.2181  1.0366 -0.1153
  298TMC3    O2 4552   2.706   0.561  15.457 -0.4307 -0.5487  0.3956
  299MPD2     C 4553   3.527   0.137  10.383  0.6487 -0.2199 -0.1006
  299MPD2    C1 4554   3.468   0.102  10.501 -1.1517  0.5170  0.5307
  299MPD2    C2 4555   3.342   0.049  10.496  0.0662 -0.4203  0.8576
  299MPD2    C3 4556   3.275   0.017  10.378  0.2541 -0.1320 -0.0288
  299MPD2    C4 4557   3.335   0.056  10.256  0.1512 -0.2809 -0.1313
  299MPD2    C5 4558   3.461   0.114  10.261  0.2060  0.5109  0.3506
  299MPD2     H 4559   3.295   0.030  10.592  1.5540  0.1018  1.6991
  299MPD2    H1 4560   3.285   0.027  10.165  0.1031 -2.8359  0.7007
  299MPD2    H2 4561   3.623   0.187  10.379 -0.4198  1.9054  0.8674
  299MPD2    H3 4562   3.494   0.139  10.160  2.7249 -2.1832  0.5219
  299MPD2     N 4563   3.141   4.690  10.376 -0.2268 -0.0044  0.0139
  299MPD2    H5 4564   3.107   4.668  10.283  2.8032  0.2286 -1.1586
  299MPD2    N1 4565   3.554   0.133  10.610  0.1621 -0.6788  0.2353
  299MPD2    H7 4566   3.632   0.193  10.587  0.3317  0.2299  3.1513
  300TMC3    C1 4567   2.954   4.573  10.470 -0.5378  0.5444 -0.1463
  300TMC3    C2 4568   2.862   4.667  10.431 -0.8882 -0.3339  0.1073
  300TMC3    C3 4569   2.741   4.676  10.500 -0.6352 -0.2773 -0.7460
  300TMC3    C4 4570   2.922   4.492  10.569 -0.1909 -0.7142  0.0063
  300TMC3    C5 4571   2.806   4.494  10.635  0.4367  0.7516 -0.0763
  300TMC3    C6 4572   2.712   4.590  10.599  0.8824  0.3500  0.2758
  300TMC3     C 4573   3.089   4.618  10.482 -0.3078  0.4661 -0.4714
  300TMC3     O 4574   3.129   4.610  10.599  0.4150  0.4000  0.2457
  300TMC3     H 4575   2.890   0.014  10.366  1.7880 -1.6844 -0.4290
  300TMC3    H1 4576   2.997   4.425  10.610 -0.5456 -0.6024  0.8274
  300TMC3    H2 4577   2.626   4.595  10.665  1.8288 -2.4588  1.7370
  300TMC3    C7 4578   2.819   4.472  10.778 -0.1926 -0.3265 -0.1049
  300TMC3    C8 4579   2.697   0.077  10.516  0.6217  0.1825 -0.1828
  300TMC3    O1 4580   2.849   4.364  10.816 -0.2894  0.0570  0.5206
  300TMC3    O2 4581   2.753   0.160  10.445 -0.3300 -0.1824 -0.9351
  301MPD2     C 4582   1.787   2.002   1.171 -0.5867  0.5069 -0.2218
  301MPD2    C1 4583   1.678   1.961   1.105 -0.1665  0.5040 -0.0451
  301MPD2    C2 4584   1.637   1.828   1.106 -0.3763  0.5106  0.2366
  301MPD2    C3 4585   1.724   1.737   1.171 -0.6324  1.2794  0.5493
  301MPD2    C4 4586   1.849   1.775   1.220  0.0278 -0.2327  0.0637
  301MPD2    C5 4587   1.874   1.909   1.220  0.2603  1.0272  0.4909
  301MPD2     H 4588   1.552   1.800   1.046  0.1130 -3.4588  1.4137
  301MPD2    H1 4589   1.908   1.715   1.289 -0.2229  2.8052  2.9459
  301MPD2    H2 4590   1.828   2.102   1.164  2.2328 -0.6491 -0.0854
  301MPD2    H3 4591   1.947   1.952   1.288 -1.1353  1.6082  1.6371
  301MPD2     N 4592   1.696   1.602   1.182 -0.5074 -0.3668  0.4341
  301MPD2    H5 4593   1.774   1.541   1.207  0.4306  0.4877 -0.3969
  301MPD2    N1 4594   1.604   2.046   1.018  0.2780 -0.9142  0.5350
  301MPD2    H7 4595   1.519   2.001   0.985 -0.5888  0.0632  1.4247
  302TMC3    C1 4596   1.595   1.404   1.116 -0.2033 -0.3419  0.1417
  302TMC3    C2 4597   1.664   1.321   1.203  0.1006  0.7252  0.2415
  302TMC3    C3 4598   1.628   1.194   1.212 -0.0767 -0.4126 -0.6207
  302TMC3    C4 4599   1.492   1.358   1.042  0.0727  0.3778 -0.0675
  302TMC3    C5 4600   1.466   1.225   1.043  0.5203 -0.2586  0.0592
  302TMC3    C6 4601   1.537   1.139   1.120  0.1565 -0.0029  0.3249
  302TMC3     C 4602   1.578   1.541   1.141 -0.4763 -0.1261  0.9631
  302TMC3     O 4603   1.473   1.591   1.097 -0.1744 -0.0316 -0.3707
  302TMC3     H 4604   1.734   1.357   1.277 -0.0663  0.7115  0.4060
  302TMC3    H1 4605   1.437   1.416   0.968 -0.4675  1.4087  1.1432
  302TMC3    H2 4606   1.511   1.035   1.128  1.9956 -0.6427 -2.1172
  302TMC3    C7 4607   1.363   1.174   0.960  0.6604 -0.5409  0.4488
  302TMC3    C8 4608   1.720   1.101   1.279  0.6355 -0.1241  0.4464
  302TMC3    O1 4609   1.381   1.057   0.928 -0.0920 -0.0062 -0.1460
  302TMC3    O2 4610   1.836   1.139   1.285 -0.1502  0.4427 -0.2399
  303MPD2     C 4611   1.154   4.628  10.514 -0.3890 -0.1100 -0.1982
  303MPD2    C1 4612   1.034   4.566  10.533 -0.0478 -0.4623 -0.0348
  303MPD2    C2 4613   0.921   4.616  10.474  0.1572 -0.2203 -0.6266
  303MPD2    C3 4614   0.925   4.720  10.382  1.1122  0.4083  0.6461
  303MPD2    C4 4615   1.048   0.047  10.366 -0.7935 -0.6159 -0.2293
  303MPD2    C5 4616   1.158   4.733  10.430  0.2672  0.1415 -0.1403
  303MPD2     H 4617   0.828   4.563  10.491  0.8737 -0.4469  2.5100
  303MPD2    H1 4618   1.073   0.128  10.299 -0.8187 -0.4051  0.0169
  303MPD2    H2 4619   1.250   4.590  10.545 -0.9481  0.8059  2.6269
  303MPD2    H3 4620   1.258   0.034  10.407 -0.2715  2.1759  0.6344
  303MPD2     N 4621   0.811   0.035  10.308  0.0037 -0.0511  0.5962
  303MPD2    H5 4622   0.829   0.106  10.238  0.6616 -0.7496  0.0587
  303MPD2    N1 4623   1.037   4.447  10.601 -0.0718 -0.4423  0.0173
  303MPD2    H7 4624   1.123   4.417  10.645 -0.4570 -3.2476 -1.1629
  304TMC3    C1 4625   0.966   4.249  10.715 -0.0669 -0.9436  0.7606
  304TMC3    C2 4626   0.930   4.280  10.843  0.1846  0.1758 -0.4783
  304TMC3    C3 4627   0.857   4.186  10.915  0.4225  0.1031  0.2714
  304TMC3    C4 4628   0.931   4.128  10.661 -0.6504 -0.3886 -0.0347
  304TMC3    C5 4629   0.860   4.040  10.728  0.5940  0.0051  0.8714
  304TMC3    C6 4630   0.825   4.063  10.858  0.4817 -0.5496 -0.5128
  304TMC3     C 4631   0.935   4.360  10.620  0.1858 -0.8196  0.0381
  304TMC3     O 4632   0.832   4.334  10.554 -0.0357  0.1925  0.1940
  304TMC3     H 4633   0.927   4.385  10.873 -0.2467 -0.0866  0.3991
  304TMC3    H1 4634   0.948   4.120  10.554 -0.1656 -0.3212  0.0404
  304TMC3    H2 4635   0.766   3.988  10.908 -0.7426  0.7327 -0.0448
  304TMC3    C7 4636   0.747   3.967  10.666  0.6234  0.4063  0.4667
  304TMC3    C8 4637   0.742   4.244  10.985 -0.2946  0.1928  0.8895
  304TMC3    O1 4638   0.645   3.983  10.729  0.3457  0.1092  0.3986
  304TMC3    O2 4639   0.747   4.325  11.076  0.3654  0.2508 -0.4463
  305MPD2     C 4640   3.803   1.556  13.632 -0.0006  0.0417  0.5897
  305MPD2    C1 4641   3.880   1.667  13.645  0.3543  0.1578 -0.2660
  305MPD2    C2 4642   3.906   1.740  13.535  0.5345  0.2364 -0.5287
  305MPD2    C3 4643   3.860   1.719  13.408 -0.2021  0.1314  0.6749
  305MPD2    C4 4644   3.780   1.607  13.398  0.1317 -0.4975  0.1230
  305MPD2    C5 4645   3.755   1.522  13.506 -0.0706 -0.5675  0.2663
  305MPD2     H 4646   3.962   1.833  13.543 -1.0908  1.2617 -1.0733
  305MPD2    H1 4647   3.735   1.581  13.303  2.0566 -2.0602 -0.3522
  305MPD2    H2 4648   3.768   1.506  13.722  0.2651 -2.0454 -0.4590
  305MPD2    H3 4649   3.695   1.432  13.497 -0.5916 -0.1409 -0.4938
  305MPD2     N 4650   3.891   1.786  13.287 -0.0794 -0.0222  0.0581
  305MPD2    H5 4651   3.843   1.750  13.205  0.8048  1.9579 -1.3268
  305MPD2    N1 4652   3.903   1.728  13.771 -0.1960 -0.2817  0.1990
  305MPD2    H7 4653   3.928   1.826  13.780  0.0975 -0.4326  0.9895
  306TMC3    C1 4654   3.930   1.734  14.004 -0.5277 -0.0090  0.3263
  306TMC3    C2 4655   4.043   1.813  13.995 -0.2067 -0.6724 -0.3881
  306TMC3    C3 4656   4.089   1.884  14.099  0.8591 -0.8105 -0.0840
  306TMC3    C4 4657   3.867   1.718  14.122 -0.1898  0.3509  0.1790
  306TMC3    C5 4658   3.925   1.771  14.237 -0.6938 -0.2404 -0.1371
  306TMC3    C6 4659   4.028   1.860  14.227 -0.5369 -0.0736 -0.1686
  306TMC3     C 4660   3.886   1.660  13.894 -0.2864 -0.0383  0.1671
  306TMC3     O 4661   3.857   1.545  13.919  0.4532 -0.3834 -0.1037
  306TMC3     H 4662   4.099   1.825  13.903 -0.8531 -1.2953 -0.8649
  306TMC3    H1 4663   3.784   1.648  14.124  0.2720 -0.1480  2.3258
  306TMC3    H2 4664   4.080   1.889  14.318 -0.7394 -0.5340  0.0955
  306TMC3    C7 4665   3.852   1.758  14.365  0.2120 -0.0478  0.5130
  306TMC3    C8 4666   4.224   1.936  14.093 -0.2094  0.1425 -0.6549
  306TMC3    O1 4667   3.738   1.718  14.358 -0.2572  0.5781  0.1147
  306TMC3    O2 4668   4.292   1.901  13.995  0.3733 -0.1821 -0.2300
  307MPD2     C 4669   2.435   0.670   0.517 -0.3140 -0.2322 -0.3261
  307MPD2    C1 4670   2.402   0.802   0.541 -0.5977  0.4957 -0.4626
  307MPD2    C2 4671   2.324   0.824   0.656 -0.0951 -0.2840  0.1044
  307MPD2    C3 4672   2.289   0.720   0.746  0.2665  0.1316  0.7324
  307MPD2    C4 4673   2.331   0.589   0.716  0.3721 -0.6991  0.1205
  307MPD2    C5 4674   2.408   0.570   0.605 -0.1512  0.2198  0.9163
  307MPD2     H 4675   2.296   0.924   0.687  0.7392 -0.0228  0.0230
  307MPD2    H1 4676   2.300   0.502   0.772 -0.2635  0.5614  1.7523
  307MPD2    H2 4677   2.513   0.642   0.447  1.4573  1.2404  1.0658
  307MPD2    H3 4678   2.450   0.471   0.591 -1.7446 -0.2318 -0.6260
  307MPD2     N 4679   2.220   0.755   0.861 -0.2397  0.2514  0.5242
  307MPD2    H5 4680   2.202   0.854   0.875  0.2324  0.9655 -3.9135
  307MPD2    N1 4681   2.435   0.909   0.458  0.4407  0.0216  0.3968
  307MPD2    H7 4682   2.421   0.999   0.501  0.6216  1.0014 -1.5888
  308TMC3    C1 4683   1.852   0.740   1.075  0.0625  1.0852 -0.7029
  308TMC3    C2 4684   1.847   0.878   1.056 -0.2985 -0.4384 -0.7748
  308TMC3    C3 4685   1.971   0.944   1.044 -0.0684  0.3204 -0.0168
  308TMC3    C4 4686   1.968   0.675   1.072  0.2304  0.5136  0.2490
  308TMC3    C5 4687   2.087   0.741   1.049 -0.3693 -0.1877  0.0098
  308TMC3    C6 4688   2.089   0.873   1.050  0.2628  0.5406  0.6598
  308TMC3     C 4689   1.733   0.653   1.047  0.1544 -0.3699 -0.3589
  308TMC3     O 4690   1.729   0.538   1.095 -0.2256 -0.8094  0.1290
  308TMC3     H 4691   1.748   0.922   1.052  0.6012  1.8804  2.6905
  308TMC3    H1 4692   1.968   0.567   1.065  0.2567  0.8363 -4.3745
  308TMC3    H2 4693   2.185   0.923   1.050  1.4001 -1.6706 -0.2533
  308TMC3    C7 4694   2.174   0.675   0.961  0.1970  0.0472  0.1203
  308TMC3    C8 4695   1.985   1.082   0.995 -0.4545 -0.2456  0.4841
  308TMC3    O1 4696   2.180   0.551   0.978  0.0056 -0.4848 -0.3328
  308TMC3    O2 4697   2.099   1.120   0.981  0.7973 -0.1429 -0.3524
  309MPD2     C 4698   1.138   0.426  17.269 -0.5395 -0.1005  0.2957
  309MPD2    C1 4699   1.034   0.439  17.174  0.5610  0.3272 -0.1021
  309MPD2    C2 4700   0.919   0.509  17.203  0.8963 -0.1292  0.0023
  309MPD2    C3 4701   0.892   0.555  17.325  0.8707 -0.0045 -0.1376
  309MPD2    C4 4702   0.989   0.532  17.425  0.6509 -0.0201 -0.3662
  309MPD2    C5 4703   1.106   0.467  17.397 -0.4287 -0.2080  0.0891
  309MPD2     H 4704   0.840   0.520  17.130  1.2522 -1.7671 -0.6410
  309MPD2    H1 4705   0.962   0.549  17.529  1.2479  2.1015 -0.5536
  309MPD2    H2 4706   1.239   0.395  17.247 -0.4250  0.3945  0.1226
  309MPD2    H3 4707   1.184   0.457  17.471  1.7182  1.9522 -1.8859
  309MPD2     N 4708   0.772   0.622  17.358  0.4503  0.2561 -0.1429
  309MPD2    H5 4709   0.774   0.678  17.442 -1.0146  0.8262 -0.4873
  309MPD2    N1 4710   1.048   0.387  17.039  0.1743  0.1569 -0.5314
  309MPD2    H7 4711   0.959   0.402  16.994 -1.4086 -1.0969  2.1663
  310TMC3    C1 4712   1.137   0.282  16.842 -0.0770  0.3619 -1.1764
  310TMC3    C2 4713   1.068   0.374  16.758  0.2115  0.6264 -0.2733
  310TMC3    C3 4714   1.096   0.363  16.624  0.5251  0.2028 -0.2156
  310TMC3    C4 4715   1.219   0.187  16.784 -0.1288  0.1798  0.4580
  310TMC3    C5 4716   1.235   0.181  16.650 -0.2916  0.7644  0.0876
  310TMC3    C6 4717   1.174   0.270  16.563 -0.1439  0.2317 -0.3221
  310TMC3     C 4718   1.139   0.300  16.989  0.2530 -0.3883  0.6620
  310TMC3     O 4719   1.221   0.240  17.054  0.3703 -0.2502 -0.0385
  310TMC3     H 4720   1.017   0.463  16.791 -0.1664  0.3745 -0.1798
  310TMC3    H1 4721   1.270   0.119  16.851  2.1096  1.8373  0.4286
  310TMC3    H2 4722   1.201   0.264  16.458  0.4491 -0.6331 -0.1227
  310TMC3    C7 4723   1.346   0.101  16.588 -0.1127 -0.0757  0.3520
  310TMC3    C8 4724   1.037   0.464  16.549  0.5543 -0.4370  0.1049
  310TMC3    O1 4725   1.359   0.096  16.465  0.5147 -0.0674  0.0079
  310TMC3    O2 4726   0.924   0.508  16.578 -0.1244  0.1628  0.4227
  311MPD2     C 4727   3.265   1.685  12.457 -0.8447  0.6206  0.5302
  311MPD2    C1 4728   3.308   1.805  12.506 -0.4055  0.3859 -0.6442
  311MPD2    C2 4729   3.240   1.858  12.620 -0.2425  0.8005 -0.5463
  311MPD2    C3 4730   3.125   1.791  12.669 -0.8870  0.2004 -0.8915
  311MPD2    C4 4731   3.101   1.661  12.632  0.2207  0.0185 -0.6415
  311MPD2    C5 4732   3.175   1.611  12.523 -0.2058  0.2287  0.3104
  311MPD2     H 4733   3.273   1.952  12.664  1.3199  0.3453 -0.7492
  311MPD2    H1 4734   3.023   1.598  12.675 -0.4261  0.3689 -1.2918
  311MPD2    H2 4735   3.317   1.644  12.372  2.3772  0.2943  2.6584
  311MPD2    H3 4736   3.146   1.516  12.480  1.5011 -0.1302 -0.0340
  311MPD2     N 4737   3.051   1.851  12.773  0.1893 -0.2249  0.5072
  311MPD2    H5 4738   3.102   1.923  12.824  0.5779 -0.5448  0.5696
  311MPD2    N1 4739   3.409   1.879  12.445 -0.1738  0.2056  0.2587
  311MPD2    H7 4740   3.453   1.954  12.496 -1.3013  0.7328  0.4627
  312TMC3    C1 4741   2.849   1.888  12.908 -0.3033 -0.4603  0.1764
  312TMC3    C2 4742   2.725   1.833  12.937 -0.3150 -0.3250  0.0750
  312TMC3    C3 4743   2.676   1.848  13.067  0.5081 -0.4807  0.1601
  312TMC3    C4 4744   2.927   1.949  13.001 -0.5305  0.8775 -0.2149
  312TMC3    C5 4745   2.873   1.964  13.123  0.2406 -0.0567  0.5544
  312TMC3    C6 4746   2.744   1.920  13.159 -0.0298 -0.4587 -0.8323
  312TMC3     C 4747   2.919   1.814  12.802  0.0676 -0.3686 -0.6170
  312TMC3     O 4748   2.854   1.724  12.744  0.0368  0.3577 -0.0013
  312TMC3     H 4749   2.673   1.766  12.870 -0.2582 -0.1908 -0.1031
  312TMC3    H1 4750   3.031   1.974  12.984 -0.7249  0.0631 -2.5937
  312TMC3    H2 4751   2.715   1.922  13.263 -0.1748 -0.1377 -0.8801
  312TMC3    C7 4752   2.958   2.040  13.225  0.2193  0.8385 -0.7914
  312TMC3    C8 4753   2.550   1.786  13.102  0.7413 -0.1888 -0.0556
  312TMC3    O1 4754   2.910   2.065  13.333  0.5786  0.0741 -0.8014
  312TMC3    O2 4755   2.520   1.698  13.023 -0.2581  0.0947  0.4115
  313MPD2     C 4756   2.577   0.580  10.378  0.1059 -0.0149 -0.3868
  313MPD2    C1 4757   2.441   0.559  10.384 -0.1804 -0.2234  0.4941
  313MPD2    C2 4758   2.369   0.498  10.284  0.1510 -0.2269  0.1360
  313MPD2    C3 4759   2.436   0.464  10.170 -0.8035 -0.4190 -0.2850
  313MPD2    C4 4760   2.571   0.497  10.155 -0.0626 -0.1525  0.4707
  313MPD2    C5 4761   2.643   0.545  10.261 -0.0022 -0.0589  0.1710
  313MPD2     H 4762   2.262   0.479  10.287 -0.1856  1.5407 -0.3599
  313MPD2    H1 4763   2.631   0.475  10.067 -1.3247  0.7064 -0.6062
  313MPD2    H2 4764   2.644   0.618  10.454  0.6137 -1.3218 -0.1631
  313MPD2    H3 4765   2.751   0.546  10.255 -0.0317  1.1800 -0.2069
  313MPD2     N 4766   2.348   0.404  10.077 -0.2788  0.1551  0.0457
  313MPD2    H5 4767   2.263   0.364  10.116  1.0357 -2.5590  0.1741
  313MPD2    N1 4768   2.364   0.591  10.499  0.7991 -0.3236 -0.4034
  313MPD2    H7 4769   2.272   0.549  10.499  0.4807  0.3959 -1.9606
  314TMC3    C1 4770   2.319   0.689  10.709 -0.1691 -0.1308 -0.2759
  314TMC3    C2 4771   2.367   0.742  10.823 -0.6168 -0.0542  0.3371
  314TMC3    C3 4772   2.287   0.812  10.908 -0.6162 -0.0081  0.1828
  314TMC3    C4 4773   2.186   0.702  10.674 -0.1440 -0.7047  0.3002
  314TMC3    C5 4774   2.114   0.780  10.760 -0.2677  1.1288 -0.0556
  314TMC3    C6 4775   2.153   0.823  10.882 -0.0571 -0.6003  0.0668
  314TMC3     C 4776   2.418   0.658  10.608  0.6450  0.0900 -0.2148
  314TMC3     O 4777   2.527   0.707  10.630  0.8206  0.4493 -0.0168
  314TMC3     H 4778   2.474   0.740  10.841 -0.5904 -1.0826  0.0314
  314TMC3    H1 4779   2.138   0.664  10.585 -0.1875 -1.0173  0.4582
  314TMC3    H2 4780   2.087   0.889  10.936 -0.7205 -0.0475 -1.4194
  314TMC3    C7 4781   1.975   0.814  10.715 -0.4252 -0.1474 -0.3098
  314TMC3    C8 4782   2.347   0.906  11.001 -0.8325  0.2928 -0.3026
  314TMC3    O1 4783   1.891   0.821  10.805  0.2595 -0.2205 -0.1002
  314TMC3    O2 4784   2.268   0.991  11.038 -0.1280 -0.3211 -0.9669
  315MPD2     C 4785   2.300   4.598   0.001  0.4232  1.1006 -0.4378
  315MPD2    C1 4786   2.413   4.677   0.031 -0.3862  0.5016  0.5024
  315MPD2    C2 4787   2.438   0.056  17.690 -0.1777 -1.2932 -1.0807
  315MPD2    C3 4788   2.338   0.092  17.595  0.5950  0.2262  0.5120
  315MPD2    C4 4789   2.225   0.015  17.570  0.2707  0.3557 -0.3312
  315MPD2    C5 4790   2.213   4.630  17.637  0.0604 -0.0836 -0.4864
  315MPD2     H 4791   2.526   0.116  17.712 -0.8821 -0.2047 -1.2358
  315MPD2    H1 4792   2.149   0.036  17.495 -0.4973 -0.1436  0.3085
  315MPD2    H2 4793   2.272   4.511   0.059  0.6862 -0.1958 -2.2470
  315MPD2    H3 4794   2.135   4.556  17.620  1.0348 -1.2557  0.1107
  315MPD2     N 4795   2.364   0.212  17.520  0.1523  0.5943  0.2235
  315MPD2    H5 4796   2.442   0.270  17.551  0.5309 -1.4505  3.1217
  315MPD2    N1 4797   2.511   4.625   0.116 -0.2147 -0.4405 -0.1426
  315MPD2    H7 4798   2.577   4.697   0.142  0.1050 -0.1680 -1.6859
  316TMC3    C1 4799   2.351   0.378  17.354 -0.3625 -0.2730  0.7029
  316TMC3    C2 4800   2.459   0.445  17.410  0.4512  0.2873 -0.1914
  316TMC3    C3 4801   2.499   0.557  17.345  0.5240  0.0825  0.2259
  316TMC3    C4 4802   2.297   0.417  17.232  0.3036 -0.1640  0.5031
  316TMC3    C5 4803   2.361   0.517  17.161 -0.8085 -0.1500 -0.4872
  316TMC3    C6 4804   2.455   0.596  17.217 -0.2609  0.2735 -0.3428
  316TMC3     C 4805   2.296   0.254  17.410  0.6196  0.0468  0.2842
  316TMC3     O 4806   2.205   0.201  17.342 -0.2478  0.2652  0.2245
  316TMC3     H 4807   2.494   0.417  17.509  1.2898  0.9562 -0.3004
  316TMC3    H1 4808   2.214   0.362  17.188 -0.3126  1.6100 -0.5507
  316TMC3    H2 4809   2.497   0.679  17.162  2.6568  0.0705  1.5285
  316TMC3    C7 4810   2.375   0.485  17.020  0.1253 -0.0097  0.4213
  316TMC3    C8 4811   2.626   0.625  17.384  0.1244  0.2788  0.0063
  316TMC3    O1 4812   2.374   0.368  16.986  0.6061  0.2105 -0.4444
  316TMC3    O2 4813   2.651   0.737  17.340 -0.3528  0.7242 -0.1925
  317MPD2     C 4814   3.940   3.963  13.267 -0.0996  0.2175  0.0754
  317MPD2    C1 4815   3.969   3.855  13.188  0.0171  0.2645 -0.4629
  317MPD2    C2 4816   4.030   3.746  13.247  0.4091 -0.8797 -0.2905
  317MPD2    C3 4817   4.082   3.756  13.376 -0.0583 -0.5338 -0.0337
  317MPD2    C4 4818   4.069   3.874  13.450 -0.0518 -0.1624 -0.0169
  317MPD2    C5 4819   3.992   3.969  13.394  0.2884  0.1107  0.1834
  317MPD2     H 4820   4.053   3.656  13.190  1.7441 -0.3027 -0.6597
  317MPD2    H1 4821   4.117   3.886  13.547 -0.0978  2.5266 -0.3333
  317MPD2    H2 4822   3.894   4.051  13.224 -0.0302  0.9572  1.5202
  317MPD2    H3 4823   3.993   4.068  13.439 -0.3467  0.0945  0.2340
  317MPD2     N 4824   4.149   3.645  13.424  0.3319  0.1755 -0.0391
  317MPD2    H5 4825   4.152   3.565  13.361 -0.5512 -0.3178  0.5417
  317MPD2    N1 4826   3.927   3.844  13.057 -0.2855  0.9814 -0.0858
  317MPD2    H7 4827   3.966   3.765  13.008 -1.7255  0.1720  0.0891
  318TMC3    C1 4828   4.254   3.502  13.583 -0.8401 -0.5675  0.5341
  318TMC3    C2 4829   4.189   3.387  13.539  0.4526 -0.8729  0.1011
  318TMC3    C3 4830   4.251   3.267  13.576 -0.3077 -0.1826 -0.1013
  318TMC3    C4 4831   4.372   3.495  13.652 -0.3212 -0.0558  0.4495
  318TMC3    C5 4832   4.426   3.373  13.698 -0.2769  0.1602  0.0835
  318TMC3    C6 4833   4.376   3.262  13.643  1.1616  0.1615 -0.1885
  318TMC3     C 4834   4.218   3.634  13.543 -0.2314  0.8137 -0.0773
  318TMC3     O 4835   4.261   3.722  13.615  0.4336 -0.0041  0.6932
  318TMC3     H 4836   4.095   3.395  13.484  0.2113 -2.3211  0.3011
  318TMC3    H1 4837   4.420   3.582  13.695  1.3537 -0.7696  0.0177
  318TMC3    H2 4838   4.417   3.168  13.678 -0.2585 -0.3996 -0.0384
  318TMC3    C7 4839   4.565   3.381  13.744  0.4161  0.1559 -0.5927
  318TMC3    C8 4840   4.200   3.141  13.528 -0.2613 -0.9109  0.7910
  318TMC3    O1 4841   4.613   3.493  13.745 -0.3938 -0.0046 -0.1317
  318TMC3    O2 4842   4.242   3.037  13.572 -0.1335 -0.2849 -0.3194
  319MPD2     C 4843   0.786   0.084  16.266 -0.0614 -0.9917 -0.7741
  319MPD2    C1 4844   0.703   0.034  16.370 -0.9435 -0.5646 -0.3830
  319MPD2    C2 4845   0.570   0.012  16.337 -0.1140 -1.0936 -0.7854
  319MPD2    C3 4846   0.526   0.010  16.202 -0.1191 -0.0599  0.0148
  319MPD2    C4 4847   0.619   0.043  16.106  0.1678 -0.3287  0.1594
  319MPD2    C5 4848   0.738   0.089  16.135  0.3497 -0.1285  0.1645
  319MPD2     H 4849   0.502   4.724  16.417  1.1269  0.0657  0.5979
  319MPD2    H1 4850   0.582   0.041  16.005 -0.5803  3.1971  0.3619
  319MPD2    H2 4851   0.889   0.106  16.291 -0.3371 -1.3191  0.6691
  319MPD2    H3 4852   0.804   0.119  16.054 -0.8210  0.6373 -0.5179
  319MPD2     N 4853   0.394   4.707  16.167 -0.3713  0.0732 -0.1504
  319MPD2    H5 4854   0.364   4.727  16.072  1.1643 -1.2429 -0.9116
  319MPD2    N1 4855   0.750   0.021  16.502  0.0583 -0.3738 -0.0426
  319MPD2    H7 4856   0.679   4.730  16.570 -0.9028  1.8226 -0.2446
  320TMC3    C1 4857   0.195   4.576  16.184  0.1028  0.3058  0.4521
  320TMC3    C2 4858   0.114   4.659  16.112 -0.6413 -0.0732  0.3902
  320TMC3    C3 4859   0.006   4.605  16.046 -0.9368  0.3238  0.1337
  320TMC3    C4 4860   0.172   4.440  16.191  0.4409  0.2358  0.3674
  320TMC3    C5 4861   0.069   4.394  16.119 -0.1634 -0.4882  0.7052
  320TMC3    C6 4862   4.720   4.470  16.047  0.7881  0.0997  0.2256
  320TMC3     C 4863   0.322   4.619  16.248  0.1124 -0.0105  0.2306
  320TMC3     O 4864   0.360   4.553  16.349 -0.6839 -0.1564  0.2064
  320TMC3     H 4865   0.134   0.030  16.111 -0.6031 -0.0688  1.1827
  320TMC3    H1 4866   0.246   4.373  16.231  1.4979  0.4969 -1.1490
  320TMC3    H2 4867   4.645   4.421  15.987  0.8048 -0.6342  0.8063
  320TMC3    C7 4868   0.019   4.254  16.157  0.0865  0.1742 -0.4819
  320TMC3    C8 4869   4.660   4.695  15.961  0.1249  0.0098 -0.5647
  320TMC3    O1 4870   4.692   4.200  16.064 -0.0306  0.5011  0.3686
  320TMC3    O2 4871   4.707   0.072  15.951 -0.0281  0.4915 -0.0906
  321TMC3    C1 4872   0.900   4.728  16.684 -0.3809 -0.3323  0.0674
  321TMC3    C2 4873   0.975   4.625  16.733 -0.4132  0.1904 -0.2595
  321TMC3    C3 4874   0.943   4.575  16.857 -0.2758 -0.1325  0.1451
  321TMC3    C4 4875   0.803   0.059  16.756 -0.5692 -0.3047 -0.5301
  321TMC3    C5 4876   0.778   0.011  16.881 -0.1310 -0.3509  0.6200
  321TMC3    C6 4877   0.842   4.638  16.927  0.8260 -0.0756  0.2559
  321TMC3     C 4878   0.884   0.002  16.542 -0.1275 -0.1333 -0.2326
  321TMC3     O 4879   0.987   4.732  16.478 -0.1037 -0.5236 -0.7624
  321TMC3     H 4880   1.049   4.573  16.673  0.0601  1.9471 -1.1727
  321TMC3    H1 4881   0.768   0.155  16.720 -0.0791 -0.4911 -1.4954
  321TMC3    H2 4882   0.816   4.601  17.025 -1.4880 -1.4585 -0.8815
  321TMC3    C7 4883   0.737   0.113  16.982 -0.3683 -0.1355  0.1344
  321TMC3    C8 4884   1.053   4.587  16.950  0.3923  0.3897 -0.4012
  321TMC3    O1 4885   0.660   0.202  16.965 -0.8557  0.2720  0.2165
  321TMC3    O2 4886   1.043   4.683  17.026 -0.5664  0.2462  0.0363
  322MPD2     C 4887   4.213   1.283  12.908 -1.0815  0.0900  0.4017
  322MPD2    C1 4888   4.156   1.286  13.030 -0.1549 -0.1001 -0.1167
  322MPD2    C2 4889   4.106   1.170  13.084  0.6294 -0.0424  0.0150
  322MPD2    C3 4890   4.125   1.044  13.016 -0.0929  0.0689  0.5750
  322MPD2    C4 4891   4.185   1.050  12.896  0.3072 -0.5583 -0.4018
  322MPD2    C5 4892   4.228   1.166  12.845 -0.4371  0.3369  0.0388
  322MPD2     H 4893   4.065   1.166  13.184  0.5059 -0.0525 -0.0361
  322MPD2    H1 4894   4.207   0.957  12.844  0.1745 -0.6582 -0.2785
  322MPD2    H2 4895   4.261   1.375  12.875 -1.7807 -0.7954 -3.0882
  322MPD2    H3 4896   4.293   1.163  12.758  2.0134 -1.2996  1.9322
  322MPD2     N 4897   4.086   0.928  13.090  0.0957 -0.6988  0.6024
  322MPD2    H5 4898   4.067   0.930  13.189 -2.5984 -0.7077  0.0865
  322MPD2    N1 4899   4.172   1.402  13.104  0.2069 -0.3899 -0.0158
  322MPD2    H7 4900   4.247   1.461  13.068  0.7021 -1.2853 -0.4577
  323TMC3    C1 4901   4.180   1.512  13.317 -0.1651 -0.0056  0.2063
  323TMC3    C2 4902   4.299   1.569  13.287 -0.4877 -1.1705  0.4209
  323TMC3    C3 4903   4.383   1.611  13.390  0.3098 -0.5350 -0.2196
  323TMC3    C4 4904   4.134   1.493  13.449  0.5961 -0.7713  0.0759
  323TMC3    C5 4905   4.219   1.546  13.545  0.0911 -0.3979  0.0968
  323TMC3    C6 4906   4.340   1.605  13.517 -0.1964  0.2154 -0.0576
  323TMC3     C 4907   4.110   1.425  13.226  0.2153  0.0823 -0.4672
  323TMC3     O 4908   4.009   1.374  13.266 -0.0879 -0.3287  0.1222
  323TMC3     H 4909   4.344   1.575  13.189 -1.5629 -0.9426 -0.0486
  323TMC3    H1 4910   4.037   1.450  13.470 -1.0561  2.6552 -0.5530
  323TMC3    H2 4911   4.409   1.622  13.599 -0.3978 -1.4612  0.4645
  323TMC3    C7 4912   4.218   1.467  13.670 -0.8321  0.3606  0.0604
  323TMC3    C8 4913   4.514   1.665  13.373 -0.2601  0.0080 -0.6632
  323TMC3    O1 4914   4.158   1.362  13.665 -0.5245 -0.4322 -0.4073
  323TMC3    O2 4915   4.558   1.712  13.477  0.1747  0.2568  0.5776
  324MPD2     C 4916   0.854   2.214  14.532 -0.3546 -0.2104  0.6563
  324MPD2    C1 4917   0.858   2.347  14.499  0.3235 -0.6453 -0.0512
  324MPD2    C2 4918   0.759   2.393  14.422  0.4733 -0.3727  0.1684
  324MPD2    C3 4919   0.661   2.308  14.372  0.2868 -0.0115 -0.1579
  324MPD2    C4 4920   0.656   2.174  14.402 -0.5327  1.2125  0.4556
  324MPD2    C5 4921   0.756   2.128  14.486  0.3319 -0.8386  0.0605
  324MPD2     H 4922   0.760   2.499  14.403  0.4326 -0.3705  0.1772
  324MPD2    H1 4923   0.573   2.112  14.370  1.8534 -1.4951 -0.4633
  324MPD2    H2 4924   0.920   2.181  14.611 -1.2828  0.7931  1.8416
  324MPD2    H3 4925   0.754   2.027  14.526 -0.3559  0.0092  2.1796
  324MPD2     N 4926   0.566   2.362  14.272  0.3563 -0.0462  0.0016
  324MPD2    H5 4927   0.588   2.460  14.258 -1.5478  0.4863  0.7295
  324MPD2    N1 4928   0.951   2.435  14.559  0.2193 -0.4381 -0.2283
  324MPD2    H7 4929   0.925   2.533  14.565 -1.8743 -0.9980 -0.3224
  325TMC3    C1 4930   0.371   2.376  14.132 -0.0242  0.2987  0.2286
  325TMC3    C2 4931   0.316   2.300  14.030 -0.4368  0.4997 -0.2888
  325TMC3    C3 4932   0.194   2.340  13.985 -0.0209  0.4250 -0.5194
  325TMC3    C4 4933   0.326   2.500  14.178  0.4172  0.0009 -0.8027
  325TMC3    C5 4934   0.207   2.538  14.117  0.0774 -0.2929  0.6238
  325TMC3    C6 4935   0.142   2.456  14.028 -0.1300 -0.3451 -0.1581
  325TMC3     C 4936   0.464   2.296  14.210  0.2574  0.4649  0.1054
  325TMC3     O 4937   0.445   2.176  14.201  0.2022  0.0174 -0.4830
  325TMC3     H 4938   0.353   2.200  14.012  0.0425  0.9824 -1.9518
  325TMC3    H1 4939   0.375   2.562  14.252 -1.0628  0.9742 -0.6358
  325TMC3    H2 4940   0.046   2.496  13.998  0.0877 -0.9473 -1.6712
  325TMC3    C7 4941   0.163   2.675  14.121 -0.4384 -0.3415 -1.1650
  325TMC3    C8 4942   0.109   2.267  13.893  0.3084 -1.5586  0.1755
  325TMC3    O1 4943   0.109   2.715  14.021  0.0644  0.2471  0.2806
  325TMC3    O2 4944   0.171   2.219  13.800  0.1662 -0.3681 -0.1202
  326MPD2     C 4945   1.599   3.390  11.078 -0.6179  0.1272 -0.5008
  326MPD2    C1 4946   1.553   3.426  10.957 -0.7636  0.4562 -0.0247
  326MPD2    C2 4947   1.599   3.552  10.908 -0.6960 -0.5868 -0.0491
  326MPD2    C3 4948   1.682   3.633  10.974 -0.0542 -0.3762 -0.6510
  326MPD2    C4 4949   1.713   3.586  11.106  0.1825 -0.0337 -0.2575
  326MPD2    C5 4950   1.673   3.468  11.153 -0.3543  0.5746  1.2551
  326MPD2     H 4951   1.559   3.583  10.812 -0.6180  0.2777  0.1967
  326MPD2    H1 4952   1.775   3.641  11.176 -0.3534 -0.5089  0.5764
  326MPD2    H2 4953   1.571   3.293  11.117 -2.1283  0.7141 -0.1411
  326MPD2    H3 4954   1.699   3.442  11.255  3.3064 -0.9048 -0.0207
  326MPD2     N 4955   1.747   3.751  10.931  0.1671 -0.5056 -0.2800
  326MPD2    H5 4956   1.817   3.788  10.994 -2.2865  0.7431  1.7484
  326MPD2    N1 4957   1.484   3.333  10.873 -0.3688 -0.0822 -0.3699
  326MPD2    H7 4958   1.452   3.380  10.789  1.0234  1.9268  0.2075
  327TMC3    C1 4959   1.474   3.122  10.753  0.0868  0.2264 -0.0764
  327TMC3    C2 4960   1.422   3.200  10.646  0.4223 -0.4498 -0.0591
  327TMC3    C3 4961   1.505   3.226  10.537  0.6553 -0.2179 -0.3826
  327TMC3    C4 4962   1.590   3.051  10.736  0.1761 -0.1835  0.4810
  327TMC3    C5 4963   1.673   3.102  10.637 -0.8539 -0.3380 -0.0288
  327TMC3    C6 4964   1.633   3.177  10.534 -0.1363  0.5143 -0.0554
  327TMC3     C 4965   1.502   3.196  10.881 -0.0851  0.0917  0.3406
  327TMC3     O 4966   1.563   3.134  10.969 -0.0055 -0.2074 -0.3706
  327TMC3     H 4967   1.325   3.245  10.667  0.8905  0.7332 -0.4183
  327TMC3    H1 4968   1.627   2.974  10.803 -0.1681 -1.6928 -1.0657
  327TMC3    H2 4969   1.695   3.200  10.449 -1.1514  2.0471 -0.3924
  327TMC3    C7 4970   1.802   3.139  10.673  1.2074 -1.0122 -0.2449
  327TMC3    C8 4971   1.459   3.312  10.433  0.0651  0.5997  0.1345
  327TMC3    O1 4972   1.884   3.171  10.588 -0.3592 -0.3981  0.1031
  327TMC3    O2 4973   1.547   3.379  10.381 -0.1228 -0.3307 -0.7019
  328MPD2     C 4974   0.102   3.717  17.186  0.0810  0.4850 -0.3513
  328MPD2    C1 4975   0.009   3.627  17.149 -0.7547  0.0489  0.1639
  328MPD2    C2 4976   4.639   3.654  17.064 -0.4275 -0.0863  0.2072
  328MPD2    C3 4977   4.626   3.787  17.016 -0.2221 -0.2038  0.1719
  328MPD2    C4 4978   4.720   3.876  17.052 -0.4510  0.1411 -0.0354
  328MPD2    C5 4979   0.098   3.836  17.122 -0.1832  0.1436 -0.7435
  328MPD2     H 4980   4.560   3.584  17.040 -0.2079 -0.5839  0.9259
  328MPD2    H1 4981   4.726   3.969  16.996 -3.3484 -0.3267 -1.0891
  328MPD2    H2 4982   0.190   3.703  17.248 -0.6191 -0.1565  0.4915
  328MPD2    H3 4983   0.176   3.910  17.134 -2.9735  3.1055 -0.7848
  328MPD2     N 4984   4.507   3.839  16.962  0.2907  0.3196  0.0903
  328MPD2    H5 4985   4.487   3.938  16.955 -2.3381 -0.2629 -0.6035
  328MPD2    N1 4986   0.026   3.503  17.211  0.4906 -0.1145  0.2234
  328MPD2    H7 4987   0.095   3.502  17.286  0.7923 -0.0348 -0.0527
  329TMC3    C1 4988   0.021   3.274  17.256 -0.2115 -0.6827 -0.3388
  329TMC3    C2 4989   0.065   3.296  17.384  0.0647  0.1011 -0.3016
  329TMC3    C3 4990   0.107   3.191  17.458  0.5484 -0.3932  0.4338
  329TMC3    C4 4991   0.019   3.157  17.199  0.5285  0.2049 -0.1907
  329TMC3    C5 4992   0.059   3.050  17.276  0.3412  0.0223 -0.3790
  329TMC3    C6 4993   0.106   3.065  17.407  0.3289 -0.4708 -0.8139
  329TMC3     C 4994   4.703   3.385  17.179 -0.3846  0.6305  0.1564
  329TMC3     O 4995   4.634   3.351  17.084 -0.2411 -0.2455  0.3184
  329TMC3     H 4996   0.070   3.394  17.432 -2.3508 -1.2235  2.6216
  329TMC3    H1 4997   4.715   3.137  17.100 -1.6052 -2.2437  1.1554
  329TMC3    H2 4998   0.111   2.986  17.481 -0.7244 -0.2555 -0.5056
  329TMC3    C7 4999   0.052   2.912  17.241 -1.3938 -0.4381  0.3801
  329TMC3    C8 5000   0.144   3.222  17.595  0.2168 -0.4700 -0.4274
  329TMC3    O1 5001   0.062   2.823  17.330  0.1916 -0.4836  0.1315
  329TMC3    O2 5002   0.251   3.174  17.633  0.4595  0.2416  0.0953
  330TMC3    C1 5003   2.573   2.574   9.344 -0.3811 -0.0652  0.1386
  330TMC3    C2 5004   2.452   2.523   9.322  0.2785 -0.0523 -0.0923
  330TMC3    C3 5005   2.389   2.459   9.425  0.2184  0.0366  0.2844
  330TMC3    C4 5006   2.631   2.561   9.463  0.0690  0.8298 -0.1598
  330TMC3    C5 5007   2.564   2.505   9.567  0.1125  0.0528 -0.4287
  330TMC3    C6 5008   2.440   2.453   9.549  0.5219 -0.1069 -0.2391
  330TMC3     C 5009   2.624   2.665   9.250  0.0639 -1.0761  0.0829
  330TMC3     O 5010   2.740   2.697   9.275 -0.4223  0.3501  0.1970
  330TMC3     H 5011   2.417   2.519   9.219 -3.1687 -2.7055  1.1697
  330TMC3    H1 5012   2.734   2.591   9.481 -0.2590 -1.6508  5.9036
  330TMC3    H2 5013   2.377   2.430   9.633 -0.9085 -0.0502 -1.3031
  330TMC3    C7 5014   2.610   2.518   9.703  0.6009  0.3911  0.5898
  330TMC3    C8 5015   2.255   2.415   9.396  0.4503  0.0756  0.2511
  330TMC3    O1 5016   2.724   2.555   9.716  0.1771  0.0425  0.7084
  330TMC3    O2 5017   2.215   2.445   9.285  0.1797 -0.1044 -0.0654
  331MPD2     C 5018   0.920   2.133  12.881 -0.1432 -0.5677  0.5171
  331MPD2    C1 5019   0.952   2.099  12.749  0.0077 -0.2436 -0.3779
  331MPD2    C2 5020   0.941   1.970  12.713 -0.3482 -0.0373  0.2137
  331MPD2    C3 5021   0.914   1.870  12.798 -0.1188  0.0030  0.0225
  331MPD2    C4 5022   0.893   1.900  12.932 -0.6341 -0.3387 -0.4267
  331MPD2    C5 5023   0.885   2.032  12.968  0.5336 -0.0301 -0.2623
  331MPD2     H 5024   0.966   1.936  12.613 -0.7263 -1.3134  0.5512
  331MPD2    H1 5025   0.871   1.823  13.005 -1.6250  0.1143 -0.2427
  331MPD2    H2 5026   0.924   2.230  12.930  0.6421 -0.9783  1.2745
  331MPD2    H3 5027   0.863   2.055  13.071 -1.8392 -2.0846 -0.3059
  331MPD2     N 5028   0.908   1.736  12.743  0.5736  0.7011 -0.3018
  331MPD2    H5 5029   0.895   1.719  12.644  2.0594 -1.2185 -0.1716
  331MPD2    N1 5030   0.995   2.195  12.661 -0.1250 -0.5100 -0.0794
  331MPD2    H7 5031   0.984   2.292  12.689 -1.2268 -0.4088 -0.8425
  332TMC3    C1 5032   0.871   1.498  12.738  0.2389  0.6904 -0.1745
  332TMC3    C2 5033   0.805   1.499  12.616  0.4860  0.2527 -0.4379
  332TMC3    C3 5034   0.778   1.370  12.559 -0.0852 -0.1277  0.0358
  332TMC3    C4 5035   0.905   1.374  12.805 -0.5160 -0.0074  0.2021
  332TMC3    C5 5036   0.878   1.261  12.732  0.5791 -0.1221  0.7806
  332TMC3    C6 5037   0.822   1.253  12.613  0.3560  0.2949 -0.0109
  332TMC3     C 5038   0.896   1.623  12.819 -0.3415 -0.0899 -0.0964
  332TMC3     O 5039   0.912   1.614  12.938  0.5452 -0.3401  0.5251
  332TMC3     H 5040   0.769   1.586  12.563  0.4670 -0.0066 -0.8449
  332TMC3    H1 5041   0.962   1.366  12.896 -1.8736 -0.4717  1.0123
  332TMC3    H2 5042   0.822   1.159  12.559  0.4479  0.8408 -0.9731
  332TMC3    C7 5043   0.963   1.146  12.752 -0.4717 -0.0596  0.3005
  332TMC3    C8 5044   0.728   1.366  12.417 -0.5164  0.1674 -0.4056
  332TMC3    O1 5045   0.911   1.035  12.749 -0.2854 -0.4782 -0.1850
  332TMC3    O2 5046   0.714   1.475  12.367  0.1080  0.1751 -0.1742
  333MPD2     C 5047   0.178   1.684  10.682 -0.1195 -0.5214 -0.3510
  333MPD2    C1 5048   0.299   1.622  10.667  0.1729 -0.3549 -0.7223
  333MPD2    C2 5049   0.383   1.612  10.779 -0.2688 -0.1465 -0.0275
  333MPD2    C3 5050   0.326   1.632  10.904  0.4236 -0.3651 -0.0427
  333MPD2    C4 5051   0.193   1.671  10.919  0.8672 -0.2576  0.8540
  333MPD2    C5 5052   0.120   1.708  10.807  0.2182 -0.0330  0.2349
  333MPD2     H 5053   0.487   1.585  10.764  0.1586  1.8050 -0.5296
  333MPD2    H1 5054   0.148   1.680  11.017 -0.0267  2.1187  0.2350
  333MPD2    H2 5055   0.129   1.725  10.594  0.8049 -0.7400 -0.9649
  333MPD2    H3 5056   0.026   1.761  10.814  0.7442  0.8024  0.9681
  333MPD2     N 5057   0.400   1.622  11.023 -0.1709 -0.2608 -0.6466
  333MPD2    H5 5058   0.343   1.620  11.107  1.5298 -0.1489  0.4986
  333MPD2    N1 5059   0.340   1.571  10.543  0.5416  0.0109  0.3581
  333MPD2    H7 5060   0.288   1.594  10.460 -0.0128 -1.0769  0.4120
  334TMC3    C1 5061   0.495   1.453  10.400 -0.1904  0.4289  0.1262
  334TMC3    C2 5062   0.582   1.346  10.385  0.2696  0.3635 -0.0547
  334TMC3    C3 5063   0.704   1.364  10.327  0.0663  0.5212  0.5274
  334TMC3    C4 5064   0.536   1.574  10.347  0.8000  0.3878 -0.6096
  334TMC3    C5 5065   0.666   1.584  10.285  0.0294 -0.3188  0.2006
  334TMC3    C6 5066   0.753   1.483  10.272 -0.1794  0.2752 -0.4401
  334TMC3     C 5067   0.433   1.469  10.533  0.6573  0.7974 -0.4314
  334TMC3     O 5068   0.471   1.386  10.611 -0.4776  0.3505  0.0451
  334TMC3     H 5069   0.550   1.250  10.424 -0.3217  0.3300 -0.6176
  334TMC3    H1 5070   0.482   1.661  10.381 -0.0131  0.1982 -1.4072
  334TMC3    H2 5071   0.834   1.484  10.200  1.4472  0.3502  1.4180
  334TMC3    C7 5072   0.740   1.706  10.290 -0.4275  0.4679  0.2548
  334TMC3    C8 5073   0.801   1.266  10.362  1.4171  0.6579  0.3247
  334TMC3    O1 5074   0.861   1.695  10.316 -0.2789  0.0215  0.5141
  334TMC3    O2 5075   0.770   1.155  10.403 -0.0797 -0.1024 -0.2251
  335TMC3    C1 5076   0.540   3.817  17.476 -0.3650 -0.5496  0.3264
  335TMC3    C2 5077   0.479   3.728  17.395  0.4887  0.0360  0.2559
  335TMC3    C3 5078   0.532   3.604  17.392 -0.8522 -0.1503  0.1089
  335TMC3    C4 5079   0.667   3.790  17.530 -0.6781 -0.7785  0.3256
  335TMC3    C5 5080   0.721   3.668  17.500 -0.1845 -0.7719  0.0821
  335TMC3    C6 5081   0.655   3.568  17.437  0.3785  0.0482 -0.3929
  335TMC3     C 5082   0.456   3.929  17.524  0.5143  0.0812  0.2291
  335TMC3     O 5083   0.366   3.961  17.450  0.2377  0.3301  1.2422
  335TMC3     H 5084   0.378   3.752  17.364  0.5699 -0.7174 -0.5775
  335TMC3    H1 5085   0.718   3.869  17.585 -0.3547  0.1715 -1.3286
  335TMC3    H2 5086   0.699   3.470  17.425  1.3899  0.1781  2.1727
  335TMC3    C7 5087   0.861   3.641  17.535 -0.1280 -0.3746  0.2609
  335TMC3    C8 5088   0.454   3.513  17.304  0.1317 -0.0350 -0.0443
  335TMC3    O1 5089   0.909   3.545  17.479 -0.2879  0.1166 -0.4066
  335TMC3    O2 5090   0.414   3.567  17.199 -0.3997  0.1253  0.0855
  336MPD2     C 5091   0.053   1.177  16.240 -0.0952 -0.1316 -0.4440
  336MPD2    C1 5092   0.034   1.118  16.114 -0.9267 -0.2326  0.4691
  336MPD2    C2 5093   0.063   0.983  16.107  0.3862  0.5851 -0.2583
  336MPD2    C3 5094   0.102   0.904  16.222  0.4538 -0.7003  0.0428
  336MPD2    C4 5095   0.111   0.966  16.349  0.3171  0.3250 -0.0632
  336MPD2    C5 5096   0.084   1.098  16.352  0.1597 -0.0149  0.6095
  336MPD2     H 5097   0.060   0.937  16.009  2.1116  0.6584 -0.3484
  336MPD2    H1 5098   0.144   0.914  16.438  0.1204  1.5963  0.7445
  336MPD2    H2 5099   0.038   1.282  16.260  0.5179 -0.0841 -0.2315
  336MPD2    H3 5100   0.074   1.150  16.446  0.8082  0.2696  0.5237
  336MPD2     N 5101   0.134   0.765  16.220  0.0178  0.0220  0.7294
  336MPD2    H5 5102   0.149   0.712  16.306  0.0776 -0.6941  0.2778
  336MPD2    N1 5103   4.726   1.189  15.997  0.3574  0.0725  0.4236
  336MPD2    H7 5104   4.714   1.129  15.916 -1.5582  1.1229 -0.0698
  337TMC3    C1 5105   4.682   1.346  15.844 -0.0016 -0.5907 -0.1942
  337TMC3    C2 5106   4.556   1.300  15.819 -0.4282 -0.9846 -0.0038
  337TMC3    C3 5107   4.459   1.381  15.764 -0.3372 -0.2243 -0.0578
  337TMC3    C4 5108   4.714   1.478  15.817 -0.5285 -0.0272  0.1524
  337TMC3    C5 5109   4.614   1.555  15.768 -0.2520  0.1990  0.0544
  337TMC3    C6 5110   4.486   1.509  15.729 -0.1837  0.6800  0.2405
  337TMC3     C 5111   4.722   1.321  15.978 -0.6923  0.5767 -0.4561
  337TMC3     O 5112   0.022   1.419  16.044  0.3371  0.2846  0.0468
  337TMC3     H 5113   4.532   1.197  15.845  0.6298 -1.5843 -1.4341
  337TMC3    H1 5114   0.079   1.515  15.831 -0.7889  0.1972  1.4387
  337TMC3    H2 5115   4.420   1.583  15.685 -1.1263  0.7669  1.7850
  337TMC3    C7 5116   4.628   1.698  15.784 -0.1494  0.6607  0.0494
  337TMC3    C8 5117   4.329   1.320  15.735 -0.3235  0.1891  0.6767
  337TMC3    O1 5118   4.527   1.767  15.771 -0.5191 -0.5356  0.2676
  337TMC3    O2 5119   4.303   1.224  15.803  0.6054 -0.3313  0.0711
  338MPD2     C 5120   0.639   1.146   1.155 -0.4424 -0.2610 -0.0814
  338MPD2    C1 5121   0.595   1.100   1.030 -0.3277  0.1779  0.2435
  338MPD2    C2 5122   0.456   1.084   1.019  0.2574  0.8178  0.4728
  338MPD2    C3 5123   0.363   1.103   1.115 -0.6151  0.3517  0.2644
  338MPD2    C4 5124   0.409   1.148   1.240  0.2146  0.8231 -0.7563
  338MPD2    C5 5125   0.547   1.166   1.258 -0.2904 -0.2758 -0.1794
  338MPD2     H 5126   0.416   1.060   0.921  0.2821 -1.3164  0.9927
  338MPD2    H1 5127   0.349   1.143   1.330 -0.1687 -0.7713 -1.0974
  338MPD2    H2 5128   0.741   1.176   1.178 -0.9823  2.5610 -1.4775
  338MPD2    H3 5129   0.574   1.194   1.360  0.3905 -1.1308 -0.1313
  338MPD2     N 5130   0.226   1.069   1.084 -0.5379  0.2646 -0.1370
  338MPD2    H5 5131   0.200   1.054   0.987 -1.7569 -1.9677  0.5420
  338MPD2    N1 5132   0.677   1.070   0.922 -0.1546 -0.1273 -0.7061
  338MPD2    H7 5133   0.643   1.014   0.845  0.3882 -1.9358  0.3731
  339TMC3    C1 5134   0.010   0.986   1.097 -0.7087 -0.7551 -0.3679
  339TMC3    C2 5135   4.729   0.850   1.110  0.6241  0.1980 -0.3277
  339TMC3    C3 5136   4.698   0.773   1.001 -0.7441  0.3350  0.0809
  339TMC3    C4 5137   4.730   1.049   0.973  0.5157  0.6024 -0.3440
  339TMC3    C5 5138   4.698   0.972   0.862  1.0664 -0.6201  0.2810
  339TMC3    C6 5139   4.675   0.839   0.880 -0.6355 -0.0548  0.1862
  339TMC3     C 5140   0.122   1.047   1.168  0.2541  0.4507 -0.4603
  339TMC3     O 5141   0.141   1.028   1.288  0.0259 -0.2322 -0.2821
  339TMC3     H 5142   0.000   0.805   1.208  0.1580 -0.1193 -0.4422
  339TMC3    H1 5143   0.012   1.156   0.972  1.2063  0.4960  0.1596
  339TMC3    H2 5144   4.656   0.776   0.794  1.1004 -1.9687  1.1983
  339TMC3    C7 5145   4.724   1.030   0.724  0.1560 -0.0490 -0.7118
  339TMC3    C8 5146   0.001   0.632   0.997 -0.0946 -0.4028  0.0018
  339TMC3    O1 5147   4.709   1.151   0.708  0.1742  0.0763 -0.3421
  339TMC3    O2 5148   0.029   0.582   0.889 -0.5648  0.2336  0.0076
  340MPD2     C 5149   0.301   2.265   9.534  0.7105  0.0316  1.4492
  340MPD2    C1 5150   0.366   2.185   9.624 -0.4520  0.3168 -0.2980
  340MPD2    C2 5151   0.388   2.235   9.751 -0.0915  0.6704 -0.6295
  340MPD2    C3 5152   0.347   2.362   9.777 -0.0860  0.1547 -0.6433
  340MPD2    C4 5153   0.284   2.436   9.685 -0.4562 -0.0747 -0.6208
  340MPD2    C5 5154   0.261   2.389   9.561 -0.3668 -0.6379 -0.1637
  340MPD2     H 5155   0.444   2.172   9.819 -2.6780  0.3228  1.1948
  340MPD2    H1 5156   0.268   2.542   9.702  0.8056  0.5299 -3.1770
  340MPD2    H2 5157   0.285   2.243   9.429  2.2144  2.1665  0.7571
  340MPD2    H3 5158   0.225   2.452   9.481 -2.4189 -0.6791  0.7310
  340MPD2     N 5159   0.380   2.433   9.900 -0.3234 -0.5857 -0.3678
  340MPD2    H5 5160   0.343   2.527   9.912 -1.5930 -0.7353 -3.0755
  340MPD2    N1 5161   0.412   2.059   9.576 -0.4258  0.0744 -0.4805
  340MPD2    H7 5162   0.423   2.043   9.476  0.9281 -0.0200 -0.3092
  341TMC3    C1 5163   0.494   1.840   9.580 -0.0019  0.0510  0.3881
  341TMC3    C2 5164   0.442   1.719   9.604 -0.4760  0.2350  0.2986
  341TMC3    C3 5165   0.493   1.611   9.547 -0.9030  0.5271  0.0884
  341TMC3    C4 5166   0.588   1.856   9.484  0.3599 -0.0326 -0.2958
  341TMC3    C5 5167   0.644   1.749   9.428 -0.1259 -0.7134 -0.5035
  341TMC3    C6 5168   0.597   1.622   9.456  0.0255 -0.3567 -0.1995
  341TMC3     C 5169   0.447   1.949   9.659  0.1387 -0.7130  0.4314
  341TMC3     O 5170   0.412   1.927   9.774  0.0875 -0.3119 -0.3244
  341TMC3     H 5171   0.371   1.705   9.684  1.2809  1.3149  2.0395
  341TMC3    H1 5172   0.640   1.950   9.473  1.0513 -0.5349 -1.3940
  341TMC3    H2 5173   0.620   1.533   9.397 -0.8430 -0.4136 -0.4453
  341TMC3    C7 5174   0.776   1.764   9.372 -0.1211 -0.5901 -0.5766
  341TMC3    C8 5175   0.430   1.482   9.551  0.9024 -0.7490  0.2392
  341TMC3    O1 5176   0.810   1.871   9.319  0.7349 -0.3144 -0.3896
  341TMC3    O2 5177   0.497   1.381   9.534  0.0704 -0.2153  0.0128
  342MPD2     C 5178   3.198   1.504  17.382  0.1687  0.0604 -0.1958
  342MPD2    C1 5179   3.255   1.535  17.257  0.1333  0.0921 -0.2479
  342MPD2    C2 5180   3.284   1.672  17.233 -0.6293  0.1680 -0.4021
  342MPD2    C3 5181   3.267   1.770  17.327  0.0281  0.9874 -0.1073
  342MPD2    C4 5182   3.217   1.734  17.456 -0.8416 -0.4781 -0.2065
  342MPD2    C5 5183   3.181   1.605  17.476  0.0211 -0.6722  0.4080
  342MPD2     H 5184   3.331   1.694  17.138  0.7040 -0.2922  0.1524
  342MPD2    H1 5185   3.199   1.809  17.532 -1.9030 -1.7671  0.8080
  342MPD2    H2 5186   3.175   1.401  17.409  3.0814 -1.2962 -2.9230
  342MPD2    H3 5187   3.156   1.578  17.577  1.5197 -0.9631  0.6919
  342MPD2     N 5188   3.303   1.909  17.305  0.0411  0.5971  0.3621
  342MPD2    H5 5189   3.275   1.971  17.380 -0.0096  0.9345  0.0656
  342MPD2    N1 5190   3.278   1.445  17.151 -1.0096 -0.1869 -0.2304
  342MPD2    H7 5191   3.316   1.490  17.068 -0.4739  0.0562  0.1502
  343TMC3    C1 5192   3.257   1.246  17.021  0.7606 -0.3707 -0.1673
  343TMC3    C2 5193   3.380   1.248  16.973  0.7024 -0.7923 -0.0890
  343TMC3    C3 5194   3.411   1.157  16.870 -0.8216 -0.4132 -0.2098
  343TMC3    C4 5195   3.165   1.146  16.985  0.2406  0.1495  0.4333
  343TMC3    C5 5196   3.207   1.047  16.899  0.3257 -0.5999  0.0523
  343TMC3    C6 5197   3.322   1.062  16.831 -0.1033 -0.1025  0.4976
  343TMC3     C 5198   3.232   1.315  17.148  0.2101  0.1288  0.4344
  343TMC3     O 5199   3.173   1.254  17.237  0.3241 -0.6406 -0.2670
  343TMC3     H 5200   3.458   1.318  17.001 -0.5776  0.0860  1.2500
  343TMC3    H1 5201   3.068   1.134  17.033 -0.6374  1.0271 -1.1416
  343TMC3    H2 5202   3.350   0.994  16.752 -1.7789 -0.4615  0.2031
  343TMC3    C7 5203   3.175   0.910  16.931  0.9991  0.1754 -0.0925
  343TMC3    C8 5204   3.559   1.145  16.848  0.7116 -0.0001 -0.5810
  343TMC3    O1 5205   3.173   0.830  16.839 -0.0367  0.2770 -0.0362
  343TMC3    O2 5206   3.633   1.221  16.908  0.4053 -0.4964 -0.4843
  344MPD2     C 5207   4.095   0.614  10.741 -0.4955  0.2074 -0.5847
  344MPD2    C1 5208   4.011   0.534  10.672 -0.6721  0.7618 -0.0174
  344MPD2    C2 5209   4.025   0.521  10.533 -0.2197 -0.0849  0.6297
  344MPD2    C3 5210   4.122   0.598  10.466  0.2775  0.2632 -0.1294
  344MPD2    C4 5211   4.213   0.669  10.545 -0.1627  0.4171 -0.3179
  344MPD2    C5 5212   4.200   0.675  10.683  0.5024  0.4280 -0.1729
  344MPD2     H 5213   3.950   0.463  10.481 -0.0758 -0.8997  1.3256
  344MPD2    H1 5214   4.290   0.731  10.501 -0.5959  1.6118  0.6049
  344MPD2    H2 5215   4.080   0.621  10.848 -0.3464  0.3808 -0.5749
  344MPD2    H3 5216   4.267   0.743  10.736  2.1524 -0.3448 -1.2550
  344MPD2     N 5217   4.127   0.617  10.331  0.5924 -0.0314  0.2967
  344MPD2    H5 5218   4.210   0.658  10.289 -0.0302 -0.0911 -1.0146
  344MPD2    N1 5219   3.906   0.452  10.724 -0.5548 -0.0348  0.5085
  344MPD2    H7 5220   3.851   0.396  10.659 -2.6806  1.3839  1.0944
  345TMC3    C1 5221   4.071   0.583  10.105  0.5579 -0.1364 -0.0715
  345TMC3    C2 5222   4.202   0.580  10.066  0.0823 -0.4244  0.6122
  345TMC3    C3 5223   4.237   0.626   9.943  0.6348  0.3893  0.8845
  345TMC3    C4 5224   3.967   0.616  10.020 -0.0093 -0.6714 -0.2313
  345TMC3    C5 5225   4.002   0.654   9.899 -0.2803 -0.0477  0.0479
  345TMC3    C6 5226   4.134   0.662   9.863 -0.1863  0.5491  0.3082
  345TMC3     C 5227   4.040   0.564  10.239 -0.0752  0.8400 -0.1458
  345TMC3     O 5228   3.931   0.515  10.266 -0.7434  0.0747 -0.9430
  345TMC3     H 5229   4.272   0.560  10.147  0.0241 -1.0348  0.5171
  345TMC3    H1 5230   3.864   0.597  10.050  0.8681 -1.0403  2.4889
  345TMC3    H2 5231   4.155   0.688   9.759  0.7187  0.4506  0.4653
  345TMC3    C7 5232   3.913   0.744   9.825 -0.6353 -1.2100  0.0003
  345TMC3    C8 5233   4.372   0.668   9.907  0.3860  0.1089  0.5529
  345TMC3    O1 5234   3.973   0.834   9.771  0.6608  0.3421 -0.5592
  345TMC3    O2 5235   4.390   0.737   9.806 -0.1391 -0.4965 -0.2579
  346MPD2     C 5236   4.102   2.804  14.529 -0.0681  0.7073 -0.1902
  346MPD2    C1 5237   4.210   2.842  14.456  0.4935 -0.0996  1.0951
  346MPD2    C2 5238   4.324   2.887  14.523  0.4147  0.0231  0.1315
  346MPD2    C3 5239   4.351   2.873  14.660  0.3708  0.3887 -0.0322
  346MPD2    C4 5240   4.242   2.819  14.729 -0.0288  0.4494 -0.3611
  346MPD2    C5 5241   4.122   2.801  14.669  0.1557  0.2409  0.9149
  346MPD2     H 5242   4.411   2.915  14.465 -0.2974 -0.0856 -0.9841
  346MPD2    H1 5243   4.254   2.794  14.834  1.8904 -1.9740 -1.1424
  346MPD2    H2 5244   4.004   2.781  14.490  0.4008 -0.2199 -0.8119
  346MPD2    H3 5245   4.041   2.773  14.735 -0.2397 -0.5543  0.0925
  346MPD2     N 5246   4.470   2.922  14.715 -0.0085  0.2304  0.1241
  346MPD2    H5 5247   4.547   2.962  14.663 -0.0075 -0.3684 -0.3401
  346MPD2    N1 5248   4.203   2.864  14.316  0.5466 -0.2073  0.0427
  346MPD2    H7 5249   4.286   2.900  14.270  1.2490 -2.6061 -0.5781
  347TMC3    C1 5250   4.624   2.978  14.881  0.3546 -0.0416  0.2344
  347TMC3    C2 5251   4.677   3.066  14.792  0.5158  0.2892  0.4804
  347TMC3    C3 5252   0.080   3.079  14.799 -0.0791  0.7054 -0.2656
  347TMC3    C4 5253   4.694   2.917  14.984  0.4193  0.5004  0.4797
  347TMC3    C5 5254   0.089   2.942  14.989 -0.0620  0.8787  0.0407
  347TMC3    C6 5255   0.151   3.025  14.900  0.9786  1.0497 -0.2231
  347TMC3     C 5256   4.500   2.911  14.844 -0.3900 -0.2085  0.1510
  347TMC3     O 5257   4.434   2.871  14.939  0.3427 -0.5067  0.0001
  347TMC3     H 5258   4.611   3.122  14.727  0.9890  1.7727  1.2494
  347TMC3    H1 5259   4.642   2.843  15.044 -2.5711  0.8347 -1.6901
  347TMC3    H2 5260   0.259   3.028  14.901  0.9836  0.9717 -0.6308
  347TMC3    C7 5261   0.169   2.857  15.082 -0.6595 -0.9031  0.7810
  347TMC3    C8 5262   0.141   3.026  14.678 -0.7527  0.7092 -0.0373
  347TMC3    O1 5263   0.119   2.748  15.110  0.4659  0.3861  0.3731
  347TMC3    O2 5264   0.208   2.921  14.688  0.0639  0.1025  0.6801
  348MPD2     C 5265   2.443   2.500  11.919  0.7171  0.4021 -0.6677
  348MPD2    C1 5266   2.553   2.537  11.851 -0.6344  0.3189  0.1767
  348MPD2    C2 5267   2.537   2.602  11.727  0.0605 -0.0135 -0.2626
  348MPD2    C3 5268   2.412   2.627  11.671 -0.0223 -0.4101 -0.2498
  348MPD2    C4 5269   2.302   2.574  11.737 -0.0667  0.0125 -0.1102
  348MPD2    C5 5270   2.321   2.515  11.854  0.0284  0.0037  0.3533
  348MPD2     H 5271   2.620   2.610  11.657 -1.0913  1.3164 -1.4662
  348MPD2    H1 5272   2.200   2.573  11.699  0.1114 -1.1627 -0.5435
  348MPD2    H2 5273   2.444   2.439  12.009  2.8407  0.6616 -0.5078
  348MPD2    H3 5274   2.235   2.470  11.903  0.8341 -0.4836  1.3183
  348MPD2     N 5275   2.410   2.688  11.549  0.2223  0.7593  0.6624
  348MPD2    H5 5276   2.494   2.732  11.511  0.9347 -1.0452  0.1467
  348MPD2    N1 5277   2.682   2.499  11.891 -0.6058  0.6046  0.6252
  348MPD2    H7 5278   2.760   2.535  11.838  0.2382 -0.7022  0.9652
  349TMC3    C1 5279   2.848   2.379  12.020  0.1493  0.4314  0.7931
  349TMC3    C2 5280   2.852   2.245  12.042  0.1253  0.0473 -0.5783
  349TMC3    C3 5281   2.943   2.177  11.968  0.1587 -0.2972  0.3876
  349TMC3    C4 5282   2.923   2.440  11.921 -0.3226 -0.1261 -0.4497
  349TMC3    C5 5283   3.016   2.366  11.854  0.1517  0.4732 -0.1986
  349TMC3    C6 5284   3.040   2.231  11.891  1.2665  0.8173  0.3985
  349TMC3     C 5285   2.713   2.421  12.003  0.0746  0.4386  0.6703
  349TMC3     O 5286   2.640   2.356  12.072 -0.0402  0.7436 -0.1046
  349TMC3     H 5287   2.781   2.194  12.106 -2.1364  1.4674 -1.9342
  349TMC3    H1 5288   2.915   2.548  11.917 -0.3779 -0.0285  2.3866
  349TMC3    H2 5289   3.110   2.175  11.830  0.9013 -0.9601  1.5970
  349TMC3    C7 5290   2.999   2.387  11.710  0.2470  0.1570 -0.2516
  349TMC3    C8 5291   2.914   2.037  11.947 -0.1829 -0.4565 -0.4950
  349TMC3    O1 5292   2.989   2.285  11.643  0.6136 -0.0346 -0.1994
  349TMC3    O2 5293   2.796   2.009  11.936 -0.4930 -0.0849 -0.1037
  350MPD2     C 5294   1.548   0.326   9.958 -0.5977  0.3519  0.0518
  350MPD2    C1 5295   1.574   0.195   9.936  0.1025 -0.1771 -0.6853
  350MPD2    C2 5296   1.684   0.162   9.862 -0.2077  0.6482  0.4050
  350MPD2    C3 5297   1.771   0.252   9.813 -0.2888 -0.3984  0.0540
  350MPD2    C4 5298   1.744   0.384   9.830  0.1261  0.3583  0.1239
  350MPD2    C5 5299   1.626   0.422   9.897 -0.1018  0.0077  0.5495
  350MPD2     H 5300   1.698   0.057   9.839 -1.2239  0.1619  1.9434
  350MPD2    H1 5301   1.804   0.462   9.785 -0.1303  0.6479  0.2808
  350MPD2    H2 5302   1.456   0.359  10.005  0.2490  1.1101  1.1713
  350MPD2    H3 5303   1.598   0.526   9.907  0.5336  0.0627  1.8069
  350MPD2     N 5304   1.897   0.207   9.759 -0.7260  0.5654 -0.0195
  350MPD2    H5 5305   1.920   0.109   9.774 -0.8976  0.3573 -1.1309
  350MPD2    N1 5306   1.494   0.082   9.976  0.3472  0.6295 -0.2105
  350MPD2    H7 5307   1.523   4.730   9.932 -0.5132  1.7046 -2.9501
  351TMC3    C1 5308   1.293   4.708  10.054  0.5722  0.3771  0.1994
  351TMC3    C2 5309   1.349   4.585  10.052 -0.4739 -0.1298  0.1574
  351TMC3    C3 5310   1.267   4.474  10.052 -0.1647 -0.2948 -0.3772
  351TMC3    C4 5311   1.160   4.722  10.051  0.1382  0.8341  0.0059
  351TMC3    C5 5312   1.076   4.618  10.053  0.2303  0.5502 -0.4243
  351TMC3    C6 5313   1.131   4.489  10.046 -0.4894 -0.2993 -0.1318
  351TMC3     C 5314   1.373   0.092  10.042 -0.0545  0.1967  0.5477
  351TMC3     O 5315   1.322   0.187  10.096  0.1553  0.0097 -0.1062
  351TMC3     H 5316   1.457   4.576  10.056 -0.6410 -2.8658 -1.1961
  351TMC3    H1 5317   1.115   0.085  10.059  0.7014  1.1323 -0.4227
  351TMC3    H2 5318   1.071   4.400  10.036 -1.7190  0.3818  1.1518
  351TMC3    C7 5319   0.943   4.637  10.004 -0.3690 -0.3215 -0.0071
  351TMC3    C8 5320   1.328   4.341  10.043 -0.1048 -0.4482  0.4691
  351TMC3    O1 5321   0.909   0.010   9.960 -0.2283  0.2598 -0.2272
  351TMC3    O2 5322   1.254   4.248  10.073 -0.4738 -0.0239 -0.0176
  352MPD2     C 5323   1.252   2.918   1.146  0.0994 -0.3440  0.9362
  352MPD2    C1 5324   1.173   2.809   1.108 -0.0062  0.0604  0.8753
  352MPD2    C2 5325   1.231   2.704   1.041  0.0525 -0.2312  0.0452
  352MPD2    C3 5326   1.362   2.705   1.003 -0.3011 -0.1930 -0.1003
  352MPD2    C4 5327   1.442   2.809   1.044  0.0338 -0.2474  0.0640
  352MPD2    C5 5328   1.386   2.908   1.116  0.8676  0.4732  0.3958
  352MPD2     H 5329   1.170   2.628   0.994  0.2431 -1.8226  2.3630
  352MPD2    H1 5330   1.548   2.807   1.025  0.0725  0.3240  0.2208
  352MPD2    H2 5331   1.210   3.005   1.195 -0.4739  1.0157 -1.9693
  352MPD2    H3 5332   1.453   2.991   1.139  1.9896 -0.6394  1.1642
  352MPD2     N 5333   1.429   2.613   0.915 -0.1859  0.3872  0.6496
  352MPD2    H5 5334   1.530   2.615   0.903  0.0151 -1.1304  1.9951
  352MPD2    N1 5335   1.032   2.821   1.135 -0.3032 -0.4789  0.1422
  352MPD2    H7 5336   1.002   2.914   1.163 -1.2096 -0.6040 -0.4443
  353TMC3    C1 5337   1.455   2.415   0.783  0.6233  0.6770  0.5721
  353TMC3    C2 5338   1.538   2.357   0.879  0.1546 -0.3023  0.0705
  353TMC3    C3 5339   1.534   2.221   0.897  0.1480  0.2528  0.5912
  353TMC3    C4 5340   1.373   2.336   0.701  0.6622 -0.3145 -0.2945
  353TMC3    C5 5341   1.388   2.201   0.711  0.3098 -0.4412 -0.5518
  353TMC3    C6 5342   1.466   2.145   0.809  0.4027  0.2180 -0.7347
  353TMC3     C 5343   1.365   2.515   0.836  0.2018  0.0624  0.3572
  353TMC3     O 5344   1.249   2.483   0.824 -0.3779 -0.2711  1.0255
  353TMC3     H 5345   1.607   2.415   0.938  0.8347 -1.2776  0.2227
  353TMC3    H1 5346   1.326   2.389   0.620  0.2854  1.1299  0.8602
  353TMC3    H2 5347   1.467   2.037   0.814 -1.7939  0.2397  0.1917
  353TMC3    C7 5348   1.266   2.129   0.698  0.0169 -0.0906  0.5718
  353TMC3    C8 5349   1.634   2.175   0.985  0.8258 -0.4337 -0.0601
  353TMC3    O1 5350   1.257   2.010   0.674 -0.1986  0.4239  0.0295
  353TMC3    O2 5351   1.736   2.239   1.010 -0.0645 -0.1696  0.3715
  354TMC3    C1 5352   2.118   3.637  13.250 -0.6767 -0.1418 -0.2937
  354TMC3    C2 5353   2.072   3.770  13.241  0.5409  0.5212 -0.0835
  354TMC3    C3 5354   2.088   3.831  13.117  0.5111  0.3318  0.0702
  354TMC3    C4 5355   2.175   3.567  13.144  0.6032  0.0119 -0.1429
  354TMC3    C5 5356   2.189   3.638  13.025 -0.2304  0.5325  0.0440
  354TMC3    C6 5357   2.144   3.766  13.011 -0.1823  0.2172  0.2234
  354TMC3     C 5358   2.118   3.574  13.380 -0.7752  0.8834 -0.2474
  354TMC3     O 5359   2.040   3.615  13.467 -0.1415 -0.0054 -0.3033
  354TMC3     H 5360   2.031   3.821  13.328  0.8744 -0.9932  0.9687
  354TMC3    H1 5361   2.222   3.470  13.158  0.9336  0.4959  2.1259
  354TMC3    H2 5362   2.149   3.817  12.916  0.6576 -0.6610 -0.2065
  354TMC3    C7 5363   2.134   3.555  12.922 -0.2343 -0.1504  0.0369
  354TMC3    C8 5364   2.023   3.956  13.093  0.3212  0.3614  0.4686
  354TMC3    O1 5365   2.086   3.446  12.950 -0.0904  0.2057 -0.2895
  354TMC3    O2 5366   2.055   4.017  12.988 -0.2065 -0.4168  1.0974
  355MPD2     C 5367   2.525   4.075  11.851  0.3611 -0.3453  0.8391
  355MPD2    C1 5368   2.477   4.189  11.899  0.1712  0.9762  0.8767
  355MPD2    C2 5369   2.540   4.245  12.010 -0.2229  0.2807 -0.0432
  355MPD2    C3 5370   2.659   4.194  12.061  0.4120  0.8430  0.1970
  355MPD2    C4 5371   2.721   4.090  11.999  0.4360  0.7406 -0.1175
  355MPD2    C5 5372   2.651   4.027  11.893 -0.5540 -0.1291  0.9982
  355MPD2     H 5373   2.489   4.335  12.042 -1.0453  0.4548 -1.8443
  355MPD2    H1 5374   2.813   4.043  12.031  0.6792  1.1927 -0.1565
  355MPD2    H2 5375   2.474   4.023  11.771 -0.9458  0.1711  1.3366
  355MPD2    H3 5376   2.683   3.936  11.844  2.6500  1.2169  0.5887
  355MPD2     N 5377   2.730   4.260  12.165  0.3883 -0.5287  0.6046
  355MPD2    H5 5378   2.824   4.228  12.187  0.9727  0.1302 -0.9391
  355MPD2    N1 5379   2.359   4.263  11.863  0.4362 -0.3460  0.3974
  355MPD2    H7 5380   2.332   4.345  11.917 -2.2129 -0.2763 -1.0297
  356TMC3    C1 5381   2.777   4.470  12.266 -0.3169 -0.1835  0.4625
  356TMC3    C2 5382   2.870   4.482  12.174  0.7637 -0.4174  0.4119
  356TMC3    C3 5383   2.885   4.607  12.110  0.1744 -0.5695  0.1465
  356TMC3    C4 5384   2.714   4.574  12.323 -0.0703  0.2337 -0.1954
  356TMC3    C5 5385   2.746   4.696  12.272 -0.0455  0.5796 -0.3566
  356TMC3    C6 5386   2.818   4.708  12.165  0.4864  0.3687  0.3002
  356TMC3     C 5387   2.677   4.369  12.233 -0.6889  0.1627 -0.6283
  356TMC3     O 5388   2.562   4.407  12.246 -0.0924  0.2186 -0.3146
  356TMC3     H 5389   2.931   4.408  12.122 -2.6605 -1.6081 -1.9284
  356TMC3    H1 5390   2.647   4.557  12.407 -0.3291 -0.9810 -0.6424
  356TMC3    H2 5391   2.837   0.070  12.120  0.2262  0.4279  0.3147
  356TMC3    C7 5392   2.702   0.081  12.340  1.3650 -0.3903  0.0828
  356TMC3    C8 5393   2.889   4.592  11.969  0.3046 -0.1549  0.0612
  356TMC3    O1 5394   2.599   0.063  12.402 -0.1025 -0.3911 -0.3458
  356TMC3    O2 5395   2.867   4.482  11.917 -0.1420  0.5534 -0.0326
  357MPD2     C 5396   2.705   3.944   1.741  0.1370 -0.0600  0.0611
  357MPD2    C1 5397   2.824   3.913   1.683 -0.3332  0.4696 -0.1337
  357MPD2    C2 5398   2.945   3.950   1.749  0.3826  0.4210  0.2834
  357MPD2    C3 5399   2.938   4.018   1.872  0.3996  0.0193  0.8033
  357MPD2    C4 5400   2.815   4.044   1.929 -0.0207 -0.4219  0.5878
  357MPD2    C5 5401   2.697   4.006   1.863  0.0691 -0.3468  0.1891
  357MPD2     H 5402   3.042   3.912   1.720  0.9710  0.1190  2.6812
  357MPD2    H1 5403   2.803   4.104   2.018  3.3124 -1.6866  1.9097
  357MPD2    H2 5404   2.616   3.918   1.685  0.7356 -2.0155  0.0046
  357MPD2    H3 5405   2.603   4.032   1.909 -0.2779  1.7936 -1.7298
  357MPD2     N 5406   3.050   4.062   1.944  0.3817  0.3271  0.5299
  357MPD2    H5 5407   3.036   4.093   2.039 -0.4095 -0.0520  0.5382
  357MPD2    N1 5408   2.822   3.842   1.560 -0.2270 -0.2349 -0.4103
  357MPD2    H7 5409   2.734   3.824   1.514 -0.5361 -0.3279  0.2148
  358TMC3    C1 5410   2.899   3.720   1.369 -0.0852 -0.0070 -0.3748
  358TMC3    C2 5411   2.772   3.707   1.326 -0.0958 -0.2844 -0.7778
  358TMC3    C3 5412   2.748   3.608   1.234 -0.4073  0.0342  0.2360
  358TMC3    C4 5413   3.001   3.660   1.304  0.8204 -0.2483  0.6146
  358TMC3    C5 5414   2.977   3.573   1.201  0.3706  0.3944 -0.0969
  358TMC3    C6 5415   2.847   3.540   1.169  0.5189  0.4012 -0.3383
  358TMC3     C 5416   2.933   3.802   1.487 -0.5846 -0.6716  0.0429
  358TMC3     O 5417   3.055   3.809   1.510 -0.7852 -0.2755 -0.4471
  358TMC3     H 5418   2.683   3.756   1.365 -1.3969  0.1776 -4.3686
  358TMC3    H1 5419   3.103   3.655   1.341  1.1011 -1.9531 -0.3874
  358TMC3    H2 5420   2.824   3.472   1.088  0.1291  1.1813 -0.8891
  358TMC3    C7 5421   3.078   3.489   1.139  0.2936 -0.8213  0.2169
  358TMC3    C8 5422   2.619   3.599   1.168 -0.0790 -0.6261  0.0796
  358TMC3    O1 5423   3.029   3.393   1.086 -0.2847 -0.3874  0.0823
  358TMC3    O2 5424   2.627   3.585   1.047 -0.0152 -0.3009 -0.2840
  359MPD2     C 5425   2.862   2.765  12.805 -0.3770 -0.4584  0.5960
  359MPD2    C1 5426   2.788   2.734  12.690 -0.5877  0.1734 -0.3796
  359MPD2    C2 5427   2.720   2.613  12.694  0.6910  0.8253 -0.1919
  359MPD2    C3 5428   2.715   2.533  12.804 -0.8065  0.5841  0.3694
  359MPD2    C4 5429   2.780   2.568  12.919  0.0430  0.2505 -0.4105
  359MPD2    C5 5430   2.845   2.690  12.922  0.2139  0.3650 -0.1930
  359MPD2     H 5431   2.680   2.582  12.598  1.8610 -2.4691  0.3869
  359MPD2    H1 5432   2.778   2.503  13.007  0.9022 -0.8262 -1.1870
  359MPD2    H2 5433   2.918   2.857  12.814 -1.9684  0.5571  0.0881
  359MPD2    H3 5434   2.890   2.722  13.016 -0.7196  1.1162  0.0036
  359MPD2     N 5435   2.651   2.408  12.804 -0.2955 -0.6250 -0.7677
  359MPD2    H5 5436   2.648   2.361  12.894 -1.3576  3.0327  1.1013
  359MPD2    N1 5437   2.803   2.793  12.567 -0.0334 -0.1000  0.6060
  359MPD2    H7 5438   2.771   2.749  12.482 -0.5028 -1.7065  1.6344
  360TMC3    C1 5439   2.870   2.931  12.395 -1.0034 -0.2693  0.6116
  360TMC3    C2 5440   2.973   3.000  12.339 -0.4254  0.0158 -0.5271
  360TMC3    C3 5441   2.946   3.060  12.214  0.1312  0.4631 -0.4856
  360TMC3    C4 5442   2.740   2.949  12.353 -0.0943  0.0458 -0.6983
  360TMC3    C5 5443   2.722   3.014  12.236 -0.2831 -0.0109  0.3650
  360TMC3    C6 5444   2.819   3.073  12.166 -0.3932 -0.0803 -0.8159
  360TMC3     C 5445   2.880   2.900  12.536 -0.4498 -0.1220  0.0836
  360TMC3     O 5446   2.970   2.952  12.603 -0.1451 -0.1571 -0.0162
  360TMC3     H 5447   3.074   2.968  12.364  0.3683  1.9422 -1.2174
  360TMC3    H1 5448   2.654   2.907  12.403  0.2150  0.1804 -0.0626
  360TMC3    H2 5449   2.806   3.103  12.063 -0.4111  1.5837 -0.3282
  360TMC3    C7 5450   2.600   3.001  12.156  0.1211  0.4362 -0.2843
  360TMC3    C8 5451   3.057   3.052  12.110 -0.0515  0.2755  0.2629
  360TMC3    O1 5452   2.591   3.076  12.060  0.4424 -0.1682 -0.3225
  360TMC3    O2 5453   3.015   3.016  12.003 -0.4470 -0.2270  0.2725
  361MPD2     C 5454   4.517   2.432  17.247  0.1810  1.0293  0.8798
  361MPD2    C1 5455   4.457   2.322  17.190 -0.3369  1.0700 -0.0567
  361MPD2    C2 5456   4.499   2.193  17.221  0.2492  0.0295 -0.4218
  361MPD2    C3 5457   4.591   2.172  17.323 -0.4779  0.7453  0.2238
  361MPD2    C4 5458   4.648   2.284  17.381 -0.0358 -0.1499 -0.4082
  361MPD2    C5 5459   4.616   2.412  17.334 -0.4634  0.0338  0.0247
  361MPD2     H 5460   4.445   2.114  17.169  0.7937  0.6191 -1.8834
  361MPD2    H1 5461   4.726   2.277  17.456 -1.5520 -0.9845  1.0911
  361MPD2    H2 5462   4.497   2.536  17.220  1.3710  0.5364 -1.8634
  361MPD2    H3 5463   4.670   2.496  17.375 -0.1514  0.7823 -1.9219
  361MPD2     N 5464   4.632   2.039  17.347  0.1051  0.1065 -0.2186
  361MPD2    H5 5465   4.700   2.028  17.422 -0.0135  0.9288  0.0144
  361MPD2    N1 5466   4.356   2.333  17.088  0.3394 -0.2765  0.1547
  361MPD2    H7 5467   4.324   2.248  17.043 -0.6329 -0.0319  0.3969
  362TMC3    C1 5468   4.216   2.438  16.918 -0.1063 -0.1619 -1.4091
  362TMC3    C2 5469   4.102   2.362  16.939 -0.2728 -0.0971  0.3789
  362TMC3    C3 5470   3.992   2.396  16.868 -0.5377  0.4591 -0.5490
  362TMC3    C4 5471   4.218   2.539  16.825  0.2298  0.6034  0.1450
  362TMC3    C5 5472   4.107   2.573  16.753  0.2847  0.4660 -0.6544
  362TMC3    C6 5473   3.987   2.504  16.779 -0.1407  0.3541 -0.7340
  362TMC3     C 5474   4.320   2.456  17.019  0.2002  0.2334  0.5840
  362TMC3     O 5475   4.365   2.572  17.040 -0.3904  0.0856 -0.3760
  362TMC3     H 5476   4.087   2.289  17.017  1.1009 -0.9456 -0.1617
  362TMC3    H1 5477   4.299   2.611  16.824 -0.2882  1.1877  0.0409
  362TMC3    H2 5478   3.896   2.521  16.722  0.3703 -0.4057 -1.7796
  362TMC3    C7 5479   4.098   2.675  16.653  0.7363  0.4812  0.2294
  362TMC3    C8 5480   3.866   2.322  16.900 -0.5572  0.0332 -0.3733
  362TMC3    O1 5481   3.987   2.707  16.610  0.0430 -0.7785 -0.2214
  362TMC3    O2 5482   3.864   2.202  16.923  0.0053  0.7441  0.3781
  363TMC3    C1 5483   2.221   4.238   9.315  0.8774 -0.2956 -0.2293
  363TMC3    C2 5484   2.303   4.212   9.427 -0.5354  0.3513  0.3543
  363TMC3    C3 5485   2.318   4.313   9.519 -0.3849 -0.6109 -0.1271
  363TMC3    C4 5486   2.173   4.361   9.288 -0.5958 -0.1953 -0.4323
  363TMC3    C5 5487   2.203   4.465   9.367 -0.2519  0.2798  0.1493
  363TMC3    C6 5488   2.274   4.441   9.488  0.0387 -0.1141 -0.3899
  363TMC3     C 5489   2.170   4.132   9.233 -0.5238  0.2676 -0.0398
  363TMC3     O 5490   2.139   4.150   9.117 -0.1447 -0.4901 -0.3460
  363TMC3     H 5491   2.334   4.111   9.450  1.4121  1.1782  1.3131
  363TMC3    H1 5492   2.099   4.372   9.209  0.0884  0.6169 -0.9562
  363TMC3    H2 5493   2.307   4.522   9.553 -1.9462 -0.4730  1.0702
  363TMC3    C7 5494   2.146   4.598   9.349  0.2966 -0.6739 -0.3728
  363TMC3    C8 5495   2.416   4.296   9.614  0.5866  0.0456  0.2078
  363TMC3    O1 5496   2.049   4.621   9.280  0.6597  0.0142  0.2373
  363TMC3    O2 5497   2.468   4.392   9.667 -0.1624 -0.5906  0.9716
  364MPD2     C 5498   1.127   3.659  10.256  0.1822  0.4660  0.4314
  364MPD2    C1 5499   1.264   3.662  10.281 -0.0223 -0.3988  0.7257
  364MPD2    C2 5500   1.326   3.554  10.341  0.0179  0.1092 -0.0415
  364MPD2    C3 5501   1.254   3.439  10.368  0.4154  0.5677 -0.5357
  364MPD2    C4 5502   1.119   3.448  10.352  0.3243  0.2446  0.2958
  364MPD2    C5 5503   1.053   3.553  10.291  0.0827  0.0622 -0.1503
  364MPD2     H 5504   1.430   3.568  10.368 -0.4668  2.3760  0.7003
  364MPD2    H1 5505   1.051   3.367  10.372 -0.1428  0.3328 -0.9359
  364MPD2    H2 5506   1.077   3.751  10.226  0.9808  1.1499  1.1826
  364MPD2    H3 5507   0.945   3.557  10.285 -0.0835 -2.3384  1.5487
  364MPD2     N 5508   1.321   3.331  10.431 -0.0487  0.3509  0.6930
  364MPD2    H5 5509   1.263   3.258  10.472 -0.4294 -0.6420 -1.6130
  364MPD2    N1 5510   1.334   3.785  10.252  0.5733 -0.0615  0.3986
  364MPD2    H7 5511   1.287   3.870  10.223  0.3669 -0.0849  0.6646
  365TMC3    C1 5512   1.529   3.929  10.238  0.8723  0.2013 -0.4590
  365TMC3    C2 5513   1.650   3.943  10.185  0.2989  0.4099  0.5017
  365TMC3    C3 5514   1.730   4.048  10.220 -0.0678 -0.0473 -0.0384
  365TMC3    C4 5515   1.481   4.019  10.329 -0.6655 -0.4517  0.1212
  365TMC3    C5 5516   1.552   4.134  10.344 -0.0029  0.1634  0.0050
  365TMC3    C6 5517   1.684   4.151  10.294 -0.1069 -0.4063 -0.4804
  365TMC3     C 5518   1.474   3.792  10.250  0.5303  0.0446  0.5236
  365TMC3     O 5519   1.552   3.699  10.254 -0.5949 -0.4578  0.0569
  365TMC3     H 5520   1.694   3.867  10.120 -0.4989  0.4030 -0.0262
  365TMC3    H1 5521   1.385   4.007  10.378 -0.6132  1.4185  0.6711
  365TMC3    H2 5522   1.743   4.240  10.315  0.6864 -1.0497 -0.0076
  365TMC3    C7 5523   1.519   4.243  10.431 -0.4260  1.0366 -0.1088
  365TMC3    C8 5524   1.870   4.053  10.184 -0.0029 -0.3346 -0.1293
  365TMC3    O1 5525   1.524   4.357  10.386 -0.3205  0.1627  0.2610
  365TMC3    O2 5526   1.931   4.164  10.196  0.5552 -0.1300  0.4466
  366MPD2     C 5527   4.205   0.935  15.434 -0.0451  0.3726  0.0743
  366MPD2    C1 5528   4.336   0.910  15.445 -0.3269  0.2864 -0.4193
  366MPD2    C2 5529   4.370   0.777  15.429 -0.2971  0.0520 -0.2410
  366MPD2    C3 5530   4.274   0.675  15.396 -0.6379  0.5643 -0.4669
  366MPD2    C4 5531   4.139   0.710  15.391 -0.4404 -0.8724 -0.7946
  366MPD2    C5 5532   4.111   0.843  15.405 -0.5314 -0.1815 -0.4668
  366MPD2     H 5533   4.472   0.742  15.439 -2.1737 -4.9690  1.3317
  366MPD2    H1 5534   4.058   0.640  15.375 -0.2629 -1.7171  1.9533
  366MPD2    H2 5535   4.164   1.033  15.457  0.5888  1.0591 -1.7621
  366MPD2    H3 5536   4.012   0.881  15.383 -0.3102 -0.3856 -1.8552
  366MPD2     N 5537   4.326   0.544  15.371 -0.2781 -1.2922  0.4018
  366MPD2    H5 5538   4.425   0.526  15.379 -0.3797 -2.2532 -0.5045
  366MPD2    N1 5539   4.425   1.016  15.459 -0.3813  0.1555 -0.6134
  366MPD2    H7 5540   4.380   1.106  15.464  1.1129  0.9257 -1.0974
  367TMC3    C1 5541   4.620   1.138  15.434 -0.0075 -0.2687 -0.0189
  367TMC3    C2 5542   0.022   1.150  15.425  0.0984 -0.0100  0.4460
  367TMC3    C3 5543   0.093   1.262  15.418  0.5484  0.7656 -0.4098
  367TMC3    C4 5544   4.544   1.250  15.421 -0.0757 -0.0210  0.2741
  367TMC3    C5 5545   4.616   1.365  15.392  0.6661 -0.7616 -0.1940
  367TMC3    C6 5546   0.019   1.373  15.396  0.0199 -0.8631  0.2199
  367TMC3     C 5547   4.558   1.010  15.443  0.4771 -0.1039  0.3763
  367TMC3     O 5548   4.635   0.910  15.450  0.0030  0.1553  0.2485
  367TMC3     H 5549   0.081   1.061  15.445 -0.4205 -0.7599 -1.3668
  367TMC3    H1 5550   4.439   1.248  15.395  0.0534 -0.4942 -0.2125
  367TMC3    H2 5551   0.062   1.471  15.385  0.3473 -0.8266  1.7474
  367TMC3    C7 5552   4.542   1.475  15.339 -0.2995  0.2703  0.7782
  367TMC3    C8 5553   0.182   1.260  15.531  0.7071 -0.3560  0.0923
  367TMC3    O1 5554   4.440   1.501  15.400  0.3044 -0.0689  0.2904
  367TMC3    O2 5555   0.167   1.172  15.619 -0.3170 -0.4631 -0.3596
  368MPD2     C 5556   0.887   2.493  13.215  0.2544 -0.5895 -0.4002
  368MPD2    C1 5557   0.941   2.550  13.099  0.7080 -0.9177 -0.1809
  368MPD2    C2 5558   1.057   2.507  13.039  0.6652 -0.5049 -0.0913
  368MPD2    C3 5559   1.133   2.400  13.093 -0.0211  0.2662 -0.7567
  368MPD2    C4 5560   1.079   2.339  13.202 -0.1169 -0.5907  0.5627
  368MPD2    C5 5561   0.953   2.377  13.256 -0.5366 -0.2330 -0.2173
  368MPD2     H 5562   1.104   2.563  12.958  1.1495 -0.7319  0.0328
  368MPD2    H1 5563   1.135   2.264  13.256 -1.7873 -2.3635 -0.1737
  368MPD2    H2 5564   0.801   2.526  13.273 -0.2228 -0.9980 -0.8756
  368MPD2    H3 5565   0.920   2.328  13.347 -1.7749 -0.5573 -0.8488
  368MPD2     N 5566   1.257   2.352  13.037  0.1942  0.2671  0.6285
  368MPD2    H5 5567   1.293   2.276  13.092 -1.2876  0.3796  1.7644
  368MPD2    N1 5568   0.865   2.653  13.041 -0.1665  0.1471 -0.4099
  368MPD2    H7 5569   0.789   2.690  13.097  0.8284  2.2228 -0.4225
  369TMC3    C1 5570   0.770   2.803  12.897  0.4050 -0.6612 -0.0458
  369TMC3    C2 5571   0.788   2.896  12.803 -0.1236 -0.0985 -0.0650
  369TMC3    C3 5572   0.678   2.916  12.723 -0.3246 -0.2308 -0.5812
  369TMC3    C4 5573   0.652   2.734  12.904  0.5258  0.1366 -0.1368
  369TMC3    C5 5574   0.541   2.767  12.834 -0.8083  0.2978  0.5832
  369TMC3    C6 5575   0.559   2.860  12.743 -0.5313  0.2503  0.2245
  369TMC3     C 5576   0.886   2.725  12.925  0.3058  0.2489 -0.9028
  369TMC3     O 5577   0.970   2.713  12.833 -0.4031  0.8180  0.0567
  369TMC3     H 5578   0.881   2.951  12.811 -0.4331  0.6368 -1.6010
  369TMC3    H1 5579   0.633   2.653  12.974  3.0945  0.4748  0.9492
  369TMC3    H2 5580   0.470   2.900  12.695 -1.9848 -1.9250  1.1497
  369TMC3    C7 5581   0.421   2.691  12.861 -0.7488 -0.2492  0.2359
  369TMC3    C8 5582   0.712   2.949  12.586  0.3473  0.9705  0.6582
  369TMC3    O1 5583   0.437   2.572  12.882 -0.8857 -0.8165  0.3189
  369TMC3    O2 5584   0.619   2.943  12.506  0.0193  0.3233 -0.2571
  370TMC3    C1 5585   0.951   2.884  16.460  0.3827 -0.9293  0.2310
  370TMC3    C2 5586   0.901   2.804  16.563 -0.2480 -0.1502  0.2794
  370TMC3    C3 5587   0.832   2.690  16.530  0.5061  0.5703  0.5964
  370TMC3    C4 5588   0.956   2.850  16.328 -0.1632 -0.0258 -1.2983
  370TMC3    C5 5589   0.877   2.735  16.298  0.4562  0.2904  0.1265
  370TMC3    C6 5590   0.813   2.658  16.392 -0.2250 -0.3570 -0.5707
  370TMC3     C 5591   1.064   2.960  16.516 -0.2252  0.0274  1.0955
  370TMC3     O 5592   1.127   2.909  16.609 -0.0067 -0.0457  0.7908
  370TMC3     H 5593   0.896   2.839  16.666  1.5428  3.7044 -0.9486
  370TMC3    H1 5594   0.992   2.922  16.256  0.7517  2.0675  1.2374
  370TMC3    H2 5595   0.763   2.564  16.375 -1.2645 -0.0506  0.8621
  370TMC3    C7 5596   0.883   2.686  16.166  0.2203 -0.3898 -0.3169
  370TMC3    C8 5597   0.786   2.595  16.630 -0.6380  0.4390  0.6971
  370TMC3    O1 5598   0.897   2.764  16.074 -0.3445 -0.0839  0.2044
  370TMC3    O2 5599   0.752   2.480  16.604 -0.1608 -0.2883  0.1568
  371TMC3    C1 5600   1.851   1.098  15.409 -0.6766 -0.6313  0.3410
  371TMC3    C2 5601   1.712   1.087  15.408  0.3215  0.6617  0.1788
  371TMC3    C3 5602   1.639   1.198  15.432  0.1183  0.2863 -0.9885
  371TMC3    C4 5603   1.914   1.221  15.413  0.0981  0.4179  0.0720
  371TMC3    C5 5604   1.833   1.330  15.417  0.0130 -0.0726  0.8892
  371TMC3    C6 5605   1.695   1.321  15.436 -0.3559 -0.1227 -0.3329
  371TMC3     C 5606   1.944   0.980  15.402 -0.0809  0.4849  0.4178
  371TMC3     O 5607   2.060   0.998  15.351 -0.5330 -0.2030  0.0308
  371TMC3     H 5608   1.674   0.986  15.414  2.0304  0.0401  0.7423
  371TMC3    H1 5609   2.021   1.230  15.426  0.5558 -0.1253 -3.1206
  371TMC3    H2 5610   1.634   1.408  15.456  0.5272  0.0931  1.4340
  371TMC3    C7 5611   1.891   1.463  15.397  0.4210 -0.2854 -0.0561
  371TMC3    C8 5612   1.506   1.185  15.477 -0.7285 -0.1670  0.7384
  371TMC3    O1 5613   1.810   1.553  15.397 -1.0666 -0.5171  0.1234
  371TMC3    O2 5614   1.460   1.075  15.478 -0.4975  0.1956 -0.5598
  372MPD2     C 5615   1.413   2.858  12.975 -0.7784 -0.5251 -0.0621
  372MPD2    C1 5616   1.508   2.780  13.040  0.1111  0.4052  0.2478
  372MPD2    C2 5617   1.467   2.702  13.144  0.1887  0.8519  0.1586
  372MPD2    C3 5618   1.332   2.695  13.185  0.5303  0.8450 -0.1513
  372MPD2    C4 5619   1.244   2.785  13.126 -0.1020  0.5287  1.2497
  372MPD2    C5 5620   1.285   2.862  13.027 -0.0618 -0.8435 -0.2424
  372MPD2     H 5621   1.546   2.640  13.186 -1.8045 -0.5509  1.8489
  372MPD2    H1 5622   1.140   2.779  13.157 -1.2214 -3.7587 -3.2064
  372MPD2    H2 5623   1.438   2.930  12.898  3.4578  0.5056  2.2884
  372MPD2    H3 5624   1.214   2.923  12.973 -0.3396 -0.1955  0.8495
  372MPD2     N 5625   1.301   2.616  13.297 -0.0033 -0.2420  0.0010
  372MPD2    H5 5626   1.380   2.563  13.334 -0.5561  0.9508  2.9054
  372MPD2    N1 5627   1.642   2.774  12.994 -0.1100 -0.3997 -0.0112
  372MPD2    H7 5628   1.706   2.718  13.049 -0.1072  0.1186  0.5015
  373TMC3    C1 5629   1.171   2.514  13.472 -0.0321 -0.1252 -0.0537
  373TMC3    C2 5630   1.053   2.498  13.534 -0.8091 -0.1673 -0.3889
  373TMC3    C3 5631   1.036   2.388  13.616 -0.1972 -0.2834  0.2314
  373TMC3    C4 5632   1.277   2.427  13.498 -0.4637 -0.5914 -1.0927
  373TMC3    C5 5633   1.248   2.312  13.566  0.3007 -0.0569 -0.1449
  373TMC3    C6 5634   1.132   2.296  13.638  0.4449 -0.1504 -0.1271
  373TMC3     C 5635   1.180   2.618  13.367  0.1763 -0.2193  0.0413
  373TMC3     O 5636   1.089   2.699  13.358  0.1259  0.2395 -0.4184
  373TMC3     H 5637   0.977   2.575  13.536 -0.0178  0.6462 -1.2259
  373TMC3    H1 5638   1.371   2.438  13.446 -0.0366  1.1744  0.0388
  373TMC3    H2 5639   1.118   2.211  13.704 -0.4132 -1.2110 -1.6737
  373TMC3    C7 5640   1.360   2.231  13.618 -0.2754  0.1246 -1.1067
  373TMC3    C8 5641   0.899   2.382  13.670  0.1450 -0.3319  0.5395
  373TMC3    O1 5642   1.330   2.124  13.666 -0.1802  0.3832 -0.0957
  373TMC3    O2 5643   0.808   2.376  13.586 -0.2777 -0.4388  0.3481
  374TMC3    C1 5644   1.753   2.659   9.362  0.3668  0.3620  1.4021
  374TMC3    C2 5645   1.871   2.700   9.414  0.1904  0.1690  0.5778
  374TMC3    C3 5646   1.978   2.687   9.323  0.0973  0.5241 -0.4378
  374TMC3    C4 5647   1.728   2.603   9.240  0.0987 -0.2878  0.3146
  374TMC3    C5 5648   1.841   2.594   9.153 -0.8709  0.4368  0.2385
  374TMC3    C6 5649   1.965   2.636   9.193  0.4434 -0.1144  0.1065
  374TMC3     C 5650   1.642   2.658   9.452 -0.1682  0.6117  0.5973
  374TMC3     O 5651   1.532   2.685   9.408  0.2042 -0.1523  0.5656
  374TMC3     H 5652   1.873   2.770   9.497 -1.1443 -1.8611  2.3241
  374TMC3    H1 5653   1.626   2.579   9.214 -0.1708  1.5004 -0.2858
  374TMC3    H2 5654   2.056   2.624   9.136  0.3809  1.3176 -0.2887
  374TMC3    C7 5655   1.821   2.563   9.015  0.3378 -0.4701 -0.4949
  374TMC3    C8 5656   2.109   2.751   9.353  0.2879  0.2782 -0.8927
  374TMC3    O1 5657   1.906   2.594   8.932 -0.7344 -0.3693 -0.5088
  374TMC3    O2 5658   2.177   2.789   9.257 -0.0327  0.2611 -0.2374
  375MPD2     C 5659   2.190   3.451  17.221  0.4063 -0.7319  0.6385
  375MPD2    C1 5660   2.083   3.395  17.158  0.3529  0.8185 -0.6055
  375MPD2    C2 5661   2.092   3.327  17.035  0.9872 -0.1970  0.2201
  375MPD2    C3 5662   2.212   3.331  16.963  0.3139  0.4052 -0.4072
  375MPD2    C4 5663   2.324   3.373  17.029 -0.1969 -0.1894 -0.3048
  375MPD2    C5 5664   2.310   3.436  17.153  0.3637 -0.3756  0.1445
  375MPD2     H 5665   2.004   3.287  16.987  1.3701 -2.4575  1.3968
  375MPD2    H1 5666   2.421   3.369  16.981 -0.1804  0.2949 -0.3163
  375MPD2    H2 5667   2.182   3.509  17.313  1.5509 -0.6478  0.6847
  375MPD2    H3 5668   2.403   3.475  17.194 -0.2305  2.0577 -0.7995
  375MPD2     N 5669   2.229   3.283  16.829 -0.3929 -0.0981  0.1593
  375MPD2    H5 5670   2.325   3.283  16.797 -0.8156 -3.9849 -1.1396
  375MPD2    N1 5671   1.952   3.391  17.211  0.1507  0.3004 -0.4916
  375MPD2    H7 5672   1.882   3.342  17.157 -1.9225  0.4482  2.0302
  376TMC3    C1 5673   2.180   3.234  16.613  0.2284  0.1394 -0.1215
  376TMC3    C2 5674   2.304   3.186  16.590 -0.5856 -0.8813  0.0179
  376TMC3    C3 5675   2.325   3.146  16.462  0.6950  0.0807  0.3325
  376TMC3    C4 5676   2.078   3.239  16.524  0.0310  0.4643 -0.0931
  376TMC3    C5 5677   2.107   3.200  16.395 -0.0217 -0.4367  0.0177
  376TMC3    C6 5678   2.235   3.158  16.367  0.0437 -0.2595  0.1578
  376TMC3     C 5679   2.125   3.265  16.742  0.2869  0.7640  0.1578
  376TMC3     O 5680   2.003   3.249  16.766  0.6214  0.2145 -0.2665
  376TMC3     H 5681   2.364   3.159  16.676 -0.7054  0.4801  0.5340
  376TMC3    H1 5682   1.982   3.281  16.549  0.4061  0.4437  1.3816
  376TMC3    H2 5683   2.247   3.136  16.261 -3.8477  2.0748 -0.7617
  376TMC3    C7 5684   2.016   3.230  16.285  0.1116  0.1851  0.6729
  376TMC3    C8 5685   2.460   3.151  16.414  0.2440 -0.7500  0.4377
  376TMC3    O1 5686   2.072   3.232  16.174 -0.1471 -0.3494  0.3515
  376TMC3    O2 5687   2.464   3.129  16.293 -0.5410  0.4800 -0.2473
  377MPD2     C 5688   0.139   3.112  12.453  0.6486  0.7008  0.2327
  377MPD2    C1 5689   0.202   3.045  12.352  0.1714  0.2915 -0.4741
  377MPD2    C2 5690   0.231   2.912  12.369  0.0220 -0.2442  0.2459
  377MPD2    C3 5691   0.206   2.850  12.492  0.7659 -0.3485  0.0885
  377MPD2    C4 5692   0.145   2.918  12.596 -0.4111  0.4788  0.1242
  377MPD2    C5 5693   0.118   3.052  12.573  0.1110  0.0769  0.2533
  377MPD2     H 5694   0.277   2.863  12.284 -0.7891 -0.6364  0.0305
  377MPD2    H1 5695   0.119   2.872  12.690 -0.6680 -0.3079 -0.3311
  377MPD2    H2 5696   0.119   3.219  12.446  0.8991  0.7007 -0.4556
  377MPD2    H3 5697   0.073   3.103  12.656  0.1798  2.8575 -1.4154
  377MPD2     N 5698   0.228   2.714  12.508 -0.4898  0.5701  0.4803
  377MPD2    H5 5699   0.195   2.684  12.599 -1.0928 -2.1699 -0.6621
  377MPD2    N1 5700   0.234   3.095  12.221 -0.6566  0.4315 -0.5847
  377MPD2    H7 5701   0.294   3.044  12.157 -1.0050 -0.6418 -0.0441
  378TMC3    C1 5702   0.208   3.312  11.814 -0.2653  0.1318 -0.5844
  378TMC3    C2 5703   0.163   3.310  11.945 -1.1275  0.1248  0.3340
  378TMC3    C3 5704   0.242   3.251  12.040  0.6716  0.7636 -0.6794
  378TMC3    C4 5705   0.330   3.266  11.784  0.8284  0.1111  0.7379
  378TMC3    C5 5706   0.421   3.238  11.889 -1.0075  0.4667 -0.0194
  378TMC3    C6 5707   0.375   3.211  12.014  0.5498  0.1702  0.6929
  378TMC3     C 5708   0.097   3.262  11.735 -0.3583  0.3322 -0.2022
  378TMC3     O 5709   4.717   3.275  11.778  0.3970 -0.3393 -0.2058
  378TMC3     H 5710   0.059   3.332  11.965 -0.8095  1.9097 -0.0297
  378TMC3    H1 5711   0.374   3.277  11.685 -1.9061 -0.4916 -0.5551
  378TMC3    H2 5712   0.439   3.155  12.081 -1.0029 -2.7628 -0.2685
  378TMC3    C7 5713   0.564   3.237  11.882 -0.1152  0.3033  0.1904
  378TMC3    C8 5714   0.191   3.220  12.177 -0.0832 -0.3347 -0.2577
  378TMC3    O1 5715   0.632   3.199  11.977 -0.4257 -0.0293  0.3693
  378TMC3    O2 5716   0.115   3.306  12.225 -0.4926 -0.3969 -0.2281
  379MPD2     C 5717   1.093   0.829  16.178 -0.3400  0.4177 -0.4096
  379MPD2    C1 5718   0.987   0.793  16.255 -0.0794  0.8113 -0.0781
  379MPD2    C2 5719   0.992   0.688  16.349  1.2632 -0.3469 -0.3674
  379MPD2    C3 5720   1.107   0.620  16.365  0.1686 -0.1564 -0.1384
  379MPD2    C4 5721   1.212   0.655  16.288  0.3004 -0.0163  0.2225
  379MPD2    C5 5722   1.205   0.756  16.187 -0.2510 -0.0474 -0.1252
  379MPD2     H 5723   0.908   0.655  16.410  1.8521  0.9176  1.1376
  379MPD2    H1 5724   1.312   0.614  16.296 -0.3024 -1.1582  1.8419
  379MPD2    H2 5725   1.102   0.916  16.114 -0.8725  1.0074  0.3181
  379MPD2    H3 5726   1.296   0.772  16.131 -1.0017  0.9588 -1.0390
  379MPD2     N 5727   1.127   0.516  16.460 -0.3398  0.2125 -0.1609
  379MPD2    H5 5728   1.224   0.488  16.471 -0.3139  0.1772 -0.4803
  379MPD2    N1 5729   0.876   0.879  16.236  0.3310 -0.3310  0.4642
  379MPD2    H7 5730   0.870   0.953  16.167  1.6921 -0.7208 -0.0604
  380TMC3    C1 5731   0.650   0.956  16.276 -0.0704  0.2299  0.9135
  380TMC3    C2 5732   0.527   0.896  16.282 -0.0519 -0.4673 -0.6362
  380TMC3    C3 5733   0.435   0.932  16.196 -0.3402 -0.9796 -0.0754
  380TMC3    C4 5734   0.676   1.063  16.194  0.2002  0.7230 -0.4724
  380TMC3    C5 5735   0.572   1.114  16.126  0.2849 -1.0206  0.1732
  380TMC3    C6 5736   0.443   1.053  16.131 -0.1705  0.1549 -0.6492
  380TMC3     C 5737   0.763   0.872  16.323  0.7769  0.4831 -0.2409
  380TMC3     O 5738   0.736   0.788  16.405 -0.1202 -0.0667 -0.2639
  380TMC3     H 5739   0.526   0.800  16.334 -0.4345 -0.4086 -0.5343
  380TMC3    H1 5740   0.770   1.116  16.200  0.5387 -0.0259  0.9269
  380TMC3    H2 5741   0.360   1.088  16.070 -0.4428 -0.3455 -0.5667
  380TMC3    C7 5742   0.590   1.235  16.046  0.2119  0.7020 -0.5512
  380TMC3    C8 5743   0.424   0.834  16.085  0.1110 -0.7532 -0.2660
  380TMC3    O1 5744   0.688   1.307  16.058 -0.1771 -0.3907  0.0477
  380TMC3    O2 5745   0.395   0.886  15.978  0.5385 -0.5473 -0.2925
  381TMC3    C1 5746   0.683   1.921  16.379 -0.7268 -0.0804 -0.4920
  381TMC3    C2 5747   0.778   2.013  16.339 -0.8721  0.5378  0.3971
  381TMC3    C3 5748   0.832   2.085  16.441 -0.1444 -0.1977  0.2041
  381TMC3    C4 5749   0.628   1.915  16.507  0.2967 -0.6438 -0.0976
  381TMC3    C5 5750   0.675   2.005  16.604  0.4666  0.2880 -0.0878
  381TMC3    C6 5751   0.790   2.084  16.571  0.4637  0.6671  0.2940
  381TMC3     C 5752   0.633   1.837  16.276 -0.3799  0.1969 -0.8148
  381TMC3     O 5753   0.616   1.883  16.168 -0.2475  0.6470  0.1988
  381TMC3     H 5754   0.811   2.022  16.237 -3.0819  0.1424 -0.3620
  381TMC3    H1 5755   0.548   1.844  16.526 -0.1895 -0.4016 -1.1844
  381TMC3    H2 5756   0.833   2.149  16.647  1.5728  0.3295 -0.0369
  381TMC3    C7 5757   0.646   1.963  16.738  0.3621  0.2777  0.4772
  381TMC3    C8 5758   0.960   2.137  16.400  0.8453  0.0978  0.6718
  381TMC3    O1 5759   0.634   1.842  16.761  0.0471  0.5518  0.7529
  381TMC3    O2 5760   1.005   2.095  16.295  0.3872 -0.0478  0.2473
  382MPD2     C 5761   4.664   4.454  17.020  0.2090  0.1395  0.4019
  382MPD2    C1 5762   0.004   4.460  17.135 -0.7664  0.3031  0.1660
  382MPD2    C2 5763   0.017   4.347  17.216 -0.2854 -0.0896 -0.2792
  382MPD2    C3 5764   4.693   4.230  17.178 -0.3489  1.3565  0.2909
  382MPD2    C4 5765   4.617   4.226  17.062 -0.0251  0.0774 -0.6881
  382MPD2    C5 5766   4.606   4.334  16.982 -0.7026  0.1332 -0.1684
  382MPD2     H 5767   0.076   4.341  17.307 -1.6957 -1.9256  0.5099
  382MPD2    H1 5768   4.569   4.135  17.028  0.7554 -0.3237 -0.7051
  382MPD2    H2 5769   4.643   4.543  16.962 -0.3190  0.3397  0.8999
  382MPD2    H3 5770   4.548   4.331  16.891  0.5876  1.0893 -1.0364
  382MPD2     N 5771   4.688   4.122  17.267 -0.1414 -0.2307  0.4886
  382MPD2    H5 5772   4.639   4.039  17.233  0.7568 -0.5417 -0.0572
  382MPD2    N1 5773   0.086   4.566  17.162  0.0738 -0.2271 -0.1966
  382MPD2    H7 5774   0.149   4.551  17.241 -0.1644 -0.4493 -0.0474
  383TMC3    C1 5775   4.692   3.981  17.457  0.5032 -0.0244  0.0765
  383TMC3    C2 5776   4.577   3.928  17.413 -1.4353  0.3222 -0.8799
  383TMC3    C3 5777   4.556   3.795  17.430  0.3796  0.2051 -1.0376
  383TMC3    C4 5778   0.050   3.906  17.531  0.4248  0.1555  0.3590
  383TMC3    C5 5779   0.030   3.768  17.527  0.3375  0.0601 -0.8884
  383TMC3    C6 5780   4.653   3.715  17.472 -0.2131 -0.5211 -0.1229
  383TMC3     C 5781   0.003   4.107  17.396  0.4037  0.2721  0.4371
  383TMC3     O 5782   0.086   4.165  17.461  0.4360  0.2667  0.3938
  383TMC3     H 5783   4.502   3.994  17.372 -0.1058  1.0362 -2.1510
  383TMC3    H1 5784   0.143   3.956  17.557  1.1777 -1.6545  1.1262
  383TMC3    H2 5785   4.650   3.606  17.466  2.0888 -0.5293 -0.9647
  383TMC3    C7 5786   0.148   3.677  17.550 -0.1386 -0.0382 -0.0001
  383TMC3    C8 5787   4.450   3.744  17.343  0.1511 -0.8162 -0.7771
  383TMC3    O1 5788   0.161   3.599  17.459  0.1891 -0.3371  0.3661
  383TMC3    O2 5789   4.373   3.824  17.301 -0.0297 -0.2046  0.8050
  384MPD2     C 5790   1.155   0.476  12.254 -0.3387  0.0331  0.6956
  384MPD2    C1 5791   1.225   0.405  12.348 -0.3286  0.0257  0.3336
  384MPD2    C2 5792   1.271   0.278  12.313 -0.0259  0.5787 -0.9443
  384MPD2    C3 5793   1.262   0.235  12.182  0.5088 -0.2599 -0.1860
  384MPD2    C4 5794   1.209   0.311  12.081 -0.0440  0.4507  0.4790
  384MPD2    C5 5795   1.154   0.436  12.121  0.3308  0.4930  0.0531
  384MPD2     H 5796   1.310   0.211  12.389  2.2722  1.9038 -0.9321
  384MPD2    H1 5797   1.206   0.286  11.975 -0.8855  1.5504  0.2412
  384MPD2    H2 5798   1.106   0.569  12.281 -1.2529 -0.3586  0.3890
  384MPD2    H3 5799   1.114   0.504  12.047 -1.0563  0.5799  0.8844
  384MPD2     N 5800   1.299   0.097  12.156  0.7653 -0.2335 -0.8165
  384MPD2    H5 5801   1.343   0.045  12.231 -1.6464 -0.4813  0.4233
  384MPD2    N1 5802   1.231   0.443  12.487  0.0429 -0.6755 -0.3231
  384MPD2    H7 5803   1.272   0.379  12.554  2.2585 -0.0688 -1.0830
  385TMC3    C1 5804   1.376   4.636  12.047  0.4864  0.3903  0.3029
  385TMC3    C2 5805   1.294   4.528  12.010  0.4637 -0.1702 -0.3233
  385TMC3    C3 5806   1.299   4.425  12.093 -0.1944 -0.5268  0.2925
  385TMC3    C4 5807   1.449   4.638  12.163  0.2962  0.2738  0.6210
  385TMC3    C5 5808   1.433   4.539  12.250  0.1522  0.1642  0.0561
  385TMC3    C6 5809   1.365   4.423  12.211 -0.0746  0.1536  0.3909
  385TMC3     C 5810   1.296   0.023  12.033 -0.1743 -0.6753 -0.2425
  385TMC3     O 5811   1.245   0.059  11.928  0.3458  0.7413  0.1894
  385TMC3     H 5812   1.243   4.542  11.916  1.0118 -0.5341 -0.6756
  385TMC3    H1 5813   1.523   4.715  12.180 -0.0048  0.6613  0.1836
  385TMC3    H2 5814   1.345   4.342  12.281 -0.1778 -0.0113  0.1702
  385TMC3    C7 5815   1.409   4.599  12.383 -0.2797  0.3192 -0.5636
  385TMC3    C8 5816   1.224   4.305  12.059  0.5305 -0.1442 -0.0552
  385TMC3    O1 5817   1.423   4.719  12.386  0.2014 -0.1238 -0.2862
  385TMC3    O2 5818   1.190   4.233  12.151 -0.2555 -0.3892 -0.1073
  386TMC3    C1 5819   1.551   2.035  11.745 -0.1333  0.0375 -0.1057
  386TMC3    C2 5820   1.571   1.961  11.627 -0.1791  0.4107 -0.0583
  386TMC3    C3 5821   1.466   1.945  11.530  0.2032 -0.6903 -0.0057
  386TMC3    C4 5822   1.434   2.100  11.760 -0.0122  0.3927 -0.9970
  386TMC3    C5 5823   1.340   2.089  11.663 -0.1547 -0.0738  0.2385
  386TMC3    C6 5824   1.352   2.009  11.561  0.5711  0.0056 -0.2364
  386TMC3     C 5825   1.662   2.077  11.828 -0.2650 -0.2798  0.1974
  386TMC3     O 5826   1.678   2.192  11.866 -0.2018  0.2718 -0.4830
  386TMC3     H 5827   1.667   1.912  11.615  0.2253  1.0582  0.5076
  386TMC3    H1 5828   1.425   2.163  11.847  0.5510  0.5081 -1.0241
  386TMC3    H2 5829   1.266   2.013  11.495 -0.9167  0.2075  1.7036
  386TMC3    C7 5830   1.261   2.209  11.638  0.0004 -0.4167 -0.2269
  386TMC3    C8 5831   1.498   1.977  11.395  0.5053  0.0513  1.2860
  386TMC3    O1 5832   1.201   2.256  11.731 -0.1692  0.0007  0.0194
  386TMC3    O2 5833   1.464   2.088  11.355 -0.0115  0.3333 -0.4705
  387MPD2     C 5834   3.470   2.088   9.952 -0.0732  0.6630 -0.1056
  387MPD2    C1 5835   3.580   2.094   9.868  0.2557 -1.4378 -0.5768
  387MPD2    C2 5836   3.598   1.989   9.781  0.1168  0.7810 -1.0292
  387MPD2    C3 5837   3.503   1.888   9.774  0.3894 -0.2436 -0.3662
  387MPD2    C4 5838   3.383   1.898   9.841 -0.1689 -0.2081 -0.6328
  387MPD2    C5 5839   3.367   2.007   9.927 -0.7516  0.6589 -0.0570
  387MPD2     H 5840   3.684   1.983   9.715  0.4870  1.0361 -0.5608
  387MPD2    H1 5841   3.304   1.827   9.821 -1.4347  0.3211  2.5602
  387MPD2    H2 5842   3.434   2.160  10.025 -0.2839  0.4811 -0.0284
  387MPD2    H3 5843   3.277   2.016   9.986 -0.6903 -0.4466  0.2093
  387MPD2     N 5844   3.531   1.783   9.687 -0.0533 -0.3512 -0.7871
  387MPD2    H5 5845   3.617   1.785   9.634  0.5616 -1.7629  0.1455
  387MPD2    N1 5846   3.685   2.184   9.874  0.5138 -0.0890  0.3605
  387MPD2    H7 5847   3.760   2.166   9.808 -0.1166  0.2856 -0.4472
  388TMC3    C1 5848   3.842   2.311   9.994  1.0216 -0.2537 -0.2837
  388TMC3    C2 5849   3.886   2.433  10.042 -0.0945  0.2566 -0.2047
  388TMC3    C3 5850   4.025   2.442  10.064  0.3203  0.4734 -0.0258
  388TMC3    C4 5851   3.928   2.209   9.977  0.4080  0.0010 -0.2469
  388TMC3    C5 5852   4.061   2.223  10.011  0.3921  0.1372  0.4890
  388TMC3    C6 5853   4.111   2.342  10.043 -0.3928 -0.8437  0.1575
  388TMC3     C 5854   3.703   2.272   9.980  0.4248 -0.4262  0.5141
  388TMC3     O 5855   3.623   2.319  10.059  0.2024  0.1014  0.6387
  388TMC3     H 5856   3.829   2.525  10.035 -0.5407 -0.0243 -0.2790
  388TMC3    H1 5857   3.890   2.116   9.935 -1.4240  0.6757 -0.0604
  388TMC3    H2 5858   4.218   2.352  10.055 -0.4925 -0.6624  0.9057
  388TMC3    C7 5859   4.149   2.110   9.964 -0.0995 -0.9156  0.5142
  388TMC3    C8 5860   4.073   2.564  10.131 -0.5047 -0.1309 -0.4623
  388TMC3    O1 5861   4.244   2.122   9.886  0.4940  0.1850  0.0105
  388TMC3    O2 5862   4.004   2.658  10.103  0.5328  0.3310  0.5828
  389MPD2     C 5863   3.130   1.030  11.350 -0.2677 -0.0458 -0.6491
  389MPD2    C1 5864   3.067   0.905  11.344 -0.3662 -0.3218 -0.3869
  389MPD2    C2 5865   3.019   0.851  11.463  0.0877 -0.4433  0.7002
  389MPD2    C3 5866   3.018   0.920  11.582  0.0210  0.2560  0.4648
  389MPD2    C4 5867   3.076   1.040  11.586 -0.4564 -0.1959  0.4594
  389MPD2    C5 5868   3.137   1.092  11.473 -0.0325 -0.4071 -0.3101
  389MPD2     H 5869   2.985   0.748  11.460  3.2640 -1.3706 -2.7715
  389MPD2    H1 5870   3.081   1.096  11.679  0.2728 -0.6585  0.6932
  389MPD2    H2 5871   3.156   1.081  11.258 -1.4629  0.8861 -0.4658
  389MPD2    H3 5872   3.186   1.188  11.485 -1.4961  0.7641 -3.7733
  389MPD2     N 5873   2.932   0.882  11.691 -0.2324  0.3614  0.3853
  389MPD2    H5 5874   2.930   0.941  11.773 -0.4552  0.0292  0.6167
  389MPD2    N1 5875   3.055   0.831  11.227 -0.2516 -0.7673  0.2019
  389MPD2    H7 5876   2.999   0.747  11.240  0.2202 -1.0541  0.3654
  390TMC3    C1 5877   2.762   0.791  11.810  0.0429  0.1997  0.0991
  390TMC3    C2 5878   2.698   0.668  11.831  0.1109  1.1791  0.5754
  390TMC3    C3 5879   2.562   0.669  11.849 -0.0151  0.3231 -0.0801
  390TMC3    C4 5880   2.689   0.908  11.815  0.1835 -0.1811 -0.6426
  390TMC3    C5 5881   2.557   0.903  11.851 -0.0427 -0.0665 -0.3398
  390TMC3    C6 5882   2.487   0.782  11.863 -0.3412  0.1477  0.3743
  390TMC3     C 5883   2.845   0.782  11.695 -0.0486  0.3460  0.2485
  390TMC3     O 5884   2.835   0.676  11.633  0.1747 -0.1389  0.4279
  390TMC3     H 5885   2.748   0.575  11.809 -2.8373  0.3979 -2.8112
  390TMC3    H1 5886   2.724   1.001  11.773 -1.4185  0.4937 -0.4836
  390TMC3    H2 5887   2.379   0.771  11.865 -0.2912 -0.4590 -0.1028
  390TMC3    C7 5888   2.487   1.024  11.861  0.3130  0.1394 -0.3345
  390TMC3    C8 5889   2.504   0.538  11.860 -0.4460 -0.3245  0.1524
  390TMC3    O1 5890   2.545   1.120  11.810  0.2861  0.0286  0.2815
  390TMC3    O2 5891   2.557   0.456  11.785 -0.0689 -0.4419  0.1283
  391MPD2     C 5892   2.079   2.457  10.913 -0.2242 -0.9386 -1.0783
  391MPD2    C1 5893   2.144   2.581  10.920  0.0258 -0.0342 -0.0527
  391MPD2    C2 5894   2.186   2.620  10.793 -0.1265 -0.1441 -0.6522
  391MPD2    C3 5895   2.174   2.555  10.674  0.4195  0.2980  0.0583
  391MPD2    C4 5896   2.095   2.436  10.675 -1.1618  0.0199 -0.4691
  391MPD2    C5 5897   2.053   2.391  10.797 -0.3859 -0.2776 -0.1187
  391MPD2     H 5898   2.247   2.709  10.792  1.7483 -1.4221 -0.3556
  391MPD2    H1 5899   2.066   2.381  10.586  0.1589 -0.3610 -0.6758
  391MPD2    H2 5900   2.047   2.412  11.006  0.8799 -1.8552 -1.1315
  391MPD2    H3 5901   1.998   2.297  10.802 -0.2494 -0.3219  0.5925
  391MPD2     N 5902   2.242   2.605  10.558 -0.7392 -0.0158  0.3800
  391MPD2    H5 5903   2.298   2.689  10.570 -0.9153  0.3340 -1.3381
  391MPD2    N1 5904   2.150   2.653  11.038  0.4862 -0.7747  0.1767
  391MPD2    H7 5905   2.133   2.608  11.128  0.3319 -0.9294  0.0725
  392TMC3    C1 5906   2.302   2.652  10.332 -0.2924  0.0240 -0.3874
  392TMC3    C2 5907   2.259   2.655  10.205  0.0078  0.2252  0.7975
  392TMC3    C3 5908   2.322   2.751  10.126 -0.4564 -0.9623  0.0400
  392TMC3    C4 5909   2.398   2.736  10.385  0.0494 -0.9657  0.3556
  392TMC3    C5 5910   2.451   2.820  10.303 -0.8765 -0.2949 -0.7516
  392TMC3    C6 5911   2.416   2.840  10.171 -0.4548  0.5263  0.4523
  392TMC3     C 5912   2.235   2.562  10.428 -0.1378 -0.9103  0.0331
  392TMC3     O 5913   2.164   2.477  10.373  0.1140 -0.2548  0.2687
  392TMC3     H 5914   2.198   2.584  10.152 -2.3179  1.0522  2.3877
  392TMC3    H1 5915   2.437   2.731  10.486 -1.7423  1.0973  1.1551
  392TMC3    H2 5916   2.464   2.917  10.113  2.2820 -0.3128  1.6129
  392TMC3    C7 5917   2.584   2.879  10.351 -0.6637 -0.1893 -0.2958
  392TMC3    C8 5918   2.290   2.754   9.983  0.0538  0.7553 -0.4958
  392TMC3    O1 5919   2.631   2.832  10.451  0.1732 -0.0010 -0.1897
  392TMC3    O2 5920   2.179   2.715   9.959  0.5286 -0.6407 -0.1582
  393TMC3    C1 5921   1.342   0.382  10.351 -0.1629  0.9687  0.1945
  393TMC3    C2 5922   1.248   0.382  10.448 -0.3962 -0.0349  0.2725
  393TMC3    C3 5923   1.262   0.300  10.556  0.0149  0.5882 -0.3287
  393TMC3    C4 5924   1.450   0.300  10.361 -0.1207  0.2683  0.6182
  393TMC3    C5 5925   1.464   0.217  10.472  0.4833  0.0814  0.7224
  393TMC3    C6 5926   1.373   0.215  10.571 -0.1122 -0.0736  0.3699
  393TMC3     C 5927   1.327   0.486  10.250  0.0265 -0.1315 -0.4744
  393TMC3     O 5928   1.213   0.527  10.226 -0.3048 -0.3789 -0.0822
  393TMC3     H 5929   1.173   0.461  10.444 -0.6583 -0.1178  3.0362
  393TMC3    H1 5930   1.509   0.288  10.271  0.5685  0.4688  1.0436
  393TMC3    H2 5931   1.380   0.145  10.653  0.1043  0.2968  0.6653
  393TMC3    C7 5932   1.533   0.090  10.446 -0.4112  0.1925 -0.0644
  393TMC3    C8 5933   1.134   0.264  10.622  0.0924  0.4848  0.0533
  393TMC3    O1 5934   1.500   4.729  10.514 -0.0678  0.1029 -0.5128
  393TMC3    O2 5935   1.030   0.290  10.563 -0.3190  0.0152  0.7421
  394TMC3    C1 5936   3.078   0.768  11.001  0.4104  0.1494 -0.0895
  394TMC3    C2 5937   2.940   0.727  10.986  0.2114  0.2696  0.5565
  394TMC3    C3 5938   2.903   0.673  10.867  0.5196 -0.0011  0.4285
  394TMC3    C4 5939   3.169   0.748  10.902  0.1203 -0.8241  0.7334
  394TMC3    C5 5940   3.122   0.693  10.784 -0.3684  0.9811 -0.1010
  394TMC3    C6 5941   2.988   0.668  10.760  0.8206 -0.3192  0.1514
  394TMC3     C 5942   3.115   0.859  11.108  0.2049  0.4345  0.3649
  394TMC3     O 5943   3.208   0.933  11.088 -0.2539  0.3328  0.2403
  394TMC3     H 5944   2.871   0.739  11.069  0.0108 -1.9868  0.7246
  394TMC3    H1 5945   3.274   0.769  10.921  0.4746  0.3625 -2.5149
  394TMC3    H2 5946   2.951   0.650  10.660 -0.2532  0.4233  0.4160
  394TMC3    C7 5947   3.214   0.703  10.676  0.1693  1.0737  1.1362
  394TMC3    C8 5948   2.765   0.611  10.857  0.5041  0.1322  0.1189
  394TMC3    O1 5949   3.315   0.767  10.695 -0.0415 -0.1455  0.2950
  394TMC3    O2 5950   2.678   0.652  10.932  0.7794  0.0258  0.6129
  395TMC3    C1 5951   3.194   2.923  14.565 -1.0692 -0.2433 -0.7358
  395TMC3    C2 5952   3.070   2.939  14.516  1.0082 -0.5875  0.5692
  395TMC3    C3 5953   3.039   3.053  14.445 -0.8059  0.5119  0.3321
  395TMC3    C4 5954   3.292   3.021  14.559  0.6703 -0.1197  0.1914
  395TMC3    C5 5955   3.262   3.137  14.493  0.0251  0.8777  0.2914
  395TMC3    C6 5956   3.136   3.151  14.436  0.4023 -0.1616 -0.0997
  395TMC3     C 5957   3.214   2.824  14.668  0.9158  0.2460 -0.6965
  395TMC3     O 5958   3.325   2.768  14.671  0.4099 -0.3772  0.3353
  395TMC3     H 5959   3.001   2.858  14.538 -1.5327  1.3038 -0.3995
  395TMC3    H1 5960   3.395   3.009  14.593  0.2309 -0.0982  1.5258
  395TMC3    H2 5961   3.118   3.242  14.380  0.6201  0.0832  0.2248
  395TMC3    C7 5962   3.356   3.251  14.495 -0.9261  0.2805  0.7514
  395TMC3    C8 5963   2.899   3.100  14.440 -0.2030 -0.0922 -0.0129
  395TMC3    O1 5964   3.459   3.236  14.558 -0.0562  0.2603  0.0533
  395TMC3    O2 5965   2.893   3.204  14.374 -0.5477 -1.0631 -0.1737
  396MPD2     C 5966   2.780   3.554  16.760 -0.0631 -0.0394  0.5465
  396MPD2    C1 5967   2.838   3.634  16.856  0.3566  0.8113 -0.0720
  396MPD2    C2 5968   2.841   3.769  16.836 -0.2337 -1.0217 -0.6121
  396MPD2    C3 5969   2.836   3.813  16.707  0.3685 -0.4289 -0.3239
  396MPD2    C4 5970   2.789   3.728  16.610 -0.1713 -0.4285  0.8563
  396MPD2    C5 5971   2.752   3.603  16.640 -0.2580 -0.2031 -0.5261
  396MPD2     H 5972   2.872   3.832  16.917  0.5433 -2.0806 -0.0869
  396MPD2    H1 5973   2.773   3.761  16.508 -0.9395 -2.4706  0.3128
  396MPD2    H2 5974   2.764   3.451  16.789 -0.5069  0.1292  0.8866
  396MPD2    H3 5975   2.713   3.540  16.561 -1.7898 -2.1108  1.7760
  396MPD2     N 5976   2.864   3.946  16.683  0.0654 -0.3119  0.3622
  396MPD2    H5 5977   2.903   4.002  16.759 -0.3580 -0.3288  0.5895
  396MPD2    N1 5978   2.867   3.564  16.980  0.4511 -0.7297 -0.1121
  396MPD2    H7 5979   2.849   3.465  16.986 -0.0247 -0.6428 -0.0857
  397TMC3    C1 5980   2.992   3.521  17.160 -0.2633 -0.2142  0.3525
  397TMC3    C2 5981   3.128   3.526  17.179  0.3470 -0.3183 -0.4343
  397TMC3    C3 5982   3.181   3.557  17.304  0.3354 -0.2559  0.7955
  397TMC3    C4 5983   2.912   3.526  17.265 -0.4075  0.2525 -0.3258
  397TMC3    C5 5984   2.964   3.543  17.391  0.1613 -0.7360 -0.0749
  397TMC3    C6 5985   3.100   3.569  17.413  0.4223 -0.0789  0.1047
  397TMC3     C 5986   2.960   3.618  17.066  0.4812 -0.1859 -0.2118
  397TMC3     O 5987   3.029   3.718  17.059 -0.3622  0.0005  0.3103
  397TMC3     H 5988   3.191   3.554  17.096 -3.3323  1.0908 -2.7332
  397TMC3    H1 5989   2.806   3.515  17.246 -0.6989 -0.9806  1.9571
  397TMC3    H2 5990   3.146   3.571  17.511  0.7473 -0.1227 -0.0486
  397TMC3    C7 5991   2.873   3.537  17.498 -0.2617  0.0185  0.0965
  397TMC3    C8 5992   3.293   3.647  17.296  0.6161  0.3113 -0.3760
  397TMC3    O1 5993   2.762   3.497  17.479  0.1594 -0.0486 -0.2403
  397TMC3    O2 5994   3.374   3.624  17.212  0.1496 -0.1253  0.6334
  398MPD2     C 5995   0.996   0.819   0.217  1.0456 -0.0881  0.4426
  398MPD2    C1 5996   1.116   0.815   0.277  0.1249  0.3781 -0.6431
  398MPD2    C2 5997   1.194   0.935   0.298  0.1056  0.1927  0.5954
  398MPD2    C3 5998   1.144   1.052   0.263  0.1482  0.6146 -0.9404
  398MPD2    C4 5999   1.021   1.052   0.194  0.2058  0.2083 -0.1579
  398MPD2    C5 6000   0.948   0.939   0.166  0.5609 -0.6934  0.2630
  398MPD2     H 6001   1.286   0.926   0.355  0.1480 -2.8325  0.0506
  398MPD2    H1 6002   0.975   1.145   0.161 -0.5476  0.0739  0.5059
  398MPD2    H2 6003   0.938   0.729   0.199  0.8247  0.1883 -0.1997
  398MPD2    H3 6004   0.856   0.945   0.108 -0.1036 -1.1210  1.2665
  398MPD2     N 6005   1.233   1.160   0.282  0.6059  0.2984  0.7433
  398MPD2    H5 6006   1.330   1.139   0.301  0.0657 -2.0873  0.8250
  398MPD2    N1 6007   1.180   0.695   0.315  0.3011  0.1767  0.2946
  398MPD2    H7 6008   1.277   0.692   0.343 -0.2564 -1.2191  2.1374
  399TMC3    C1 6009   1.183   0.472   0.402  0.1379  0.5079  0.5937
  399TMC3    C2 6010   1.308   0.502   0.463  0.5527 -0.3534 -0.6962
  399TMC3    C3 6011   1.382   0.398   0.500 -0.3253  0.6772 -0.1526
  399TMC3    C4 6012   1.141   0.345   0.391 -0.1091  0.5482  0.4854
  399TMC3    C5 6013   1.224   0.242   0.436 -0.2006 -0.1664 -0.3808
  399TMC3    C6 6014   1.341   0.270   0.498  0.1886  0.9263 -0.0105
  399TMC3     C 6015   1.116   0.570   0.324  0.1547  0.2927  0.0209
  399TMC3     O 6016   1.001   0.540   0.295 -0.3975 -0.5260  0.1341
  399TMC3     H 6017   1.339   0.602   0.491 -0.9163 -0.4548  1.2725
  399TMC3    H1 6018   1.047   0.329   0.341 -0.2032  1.0720  0.4974
  399TMC3    H2 6019   1.411   0.196   0.535  0.0913  0.4001 -0.8765
  399TMC3    C7 6020   1.206   0.102   0.420 -0.2060  0.1163  0.0741
  399TMC3    C8 6021   1.503   0.418   0.577  0.0643  0.0370  0.3719
  399TMC3    O1 6022   1.281   0.018   0.469  0.1021  0.1632 -0.4723
  399TMC3    O2 6023   1.539   0.322   0.639  0.4346  0.4548  0.5394
  400TMC3    C1 6024   4.293   3.847  16.886  1.0113 -0.0562  0.2801
  400TMC3    C2 6025   4.241   3.834  16.755 -0.0705 -0.8797 -0.8821
  400TMC3    C3 6026   4.167   3.936  16.710  0.5592 -0.7745 -0.2753
  400TMC3    C4 6027   4.266   3.959  16.966 -0.4396 -0.0018 -0.8832
  400TMC3    C5 6028   4.192   4.060  16.913 -0.2006  0.9740  0.3431
  400TMC3    C6 6029   4.143   4.054  16.782 -0.4085 -0.5452 -0.5135
  400TMC3     C 6030   4.403   3.761  16.915 -0.8525 -0.3065  0.3041
  400TMC3     O 6031   4.407   3.643  16.884 -0.1185 -0.1660  0.5697
  400TMC3     H 6032   4.270   3.751  16.691  0.2312 -2.3321  1.1280
  400TMC3    H1 6033   4.310   3.964  17.065  0.8472 -2.0419 -1.3605
  400TMC3    H2 6034   4.101   4.144  16.740  0.5237 -0.3704 -1.0704
  400TMC3    C7 6035   4.219   4.193  16.961 -0.3843 -0.1249 -0.3322
  400TMC3    C8 6036   4.074   3.916  16.603 -0.0186  0.5599  0.1084
  400TMC3    O1 6037   4.224   4.287  16.883  0.8170 -0.3201 -0.6281
  400TMC3    O2 6038   4.028   4.019  16.565 -0.0173 -0.4478 -0.1385
  401MPD2     C 6039   2.713   2.658   0.494  0.1345  0.6188  0.2379
  401MPD2    C1 6040   2.792   2.606   0.593 -0.0572 -0.2354  0.1041
  401MPD2    C2 6041   2.823   2.475   0.581  0.0991 -0.0864  0.0319
  401MPD2    C3 6042   2.795   2.397   0.469  0.2742  0.4103  0.7795
  401MPD2    C4 6043   2.719   2.454   0.365 -0.3536 -0.2382  0.6329
  401MPD2    C5 6044   2.682   2.581   0.387 -0.0784 -0.4824  0.0871
  401MPD2     H 6045   2.872   2.423   0.663 -0.9345  0.3300  0.9197
  401MPD2    H1 6046   2.689   2.408   0.272 -1.4381  0.3683  0.6790
  401MPD2    H2 6047   2.686   2.762   0.500 -3.0449 -0.3221  1.8345
  401MPD2    H3 6048   2.628   2.633   0.309  0.0138  3.7669  2.8920
  401MPD2     N 6049   2.852   2.266   0.455 -0.4328 -0.0561 -0.1069
  401MPD2    H5 6050   2.892   2.230   0.540 -4.0165 -2.5666  0.4941
  401MPD2    N1 6051   2.840   2.673   0.704 -0.6089  0.1145 -0.1838
  401MPD2    H7 6052   2.908   2.623   0.761  0.3111  2.0391  0.3969
  402TMC3    C1 6053   2.927   2.064   0.344 -0.6155  0.0278  0.5475
  402TMC3    C2 6054   3.019   2.047   0.444  0.1650  0.1235 -0.1859
  402TMC3    C3 6055   3.105   1.947   0.440 -0.0561 -0.8662  0.5774
  402TMC3    C4 6056   2.924   1.981   0.232  0.2461 -0.6002 -0.7624
  402TMC3    C5 6057   3.015   1.880   0.229  0.0314  0.3152 -0.2862
  402TMC3    C6 6058   3.105   1.861   0.332  0.1174 -0.2159  0.1454
  402TMC3     C 6059   2.854   2.191   0.340 -0.3143 -0.0098 -0.2554
  402TMC3     O 6060   2.806   2.217   0.225 -0.3557  0.0252  0.1799
  402TMC3     H 6061   3.022   2.122   0.523 -1.2211 -0.8052  0.7526
  402TMC3    H1 6062   2.856   2.000   0.150  0.9242  0.8878 -0.9906
  402TMC3    H2 6063   3.182   1.785   0.334 -2.0222 -2.4475 -2.9702
  402TMC3    C7 6064   2.988   1.787   0.126  0.2461  1.0813 -0.1075
  402TMC3    C8 6065   3.185   1.913   0.556 -1.0478 -0.4268  0.1658
  402TMC3    O1 6066   2.908   1.820   0.040 -0.4753 -0.4115  0.2250
  402TMC3    O2 6067   3.279   1.837   0.537 -0.9984 -0.2912  0.3089
  403MPD2     C 6068   0.364   0.474  13.451 -0.2758  0.0357  0.2517
  403MPD2    C1 6069   0.473   0.399  13.399 -0.0182  0.8428  0.1849
  403MPD2    C2 6070   0.598   0.428  13.439 -0.4921  0.6209  0.0839
  403MPD2    C3 6071   0.619   0.528  13.533 -0.2625  0.3528  0.0906
  403MPD2    C4 6072   0.507   0.599  13.586 -0.1702  0.3085  0.2625
  403MPD2    C5 6073   0.384   0.566  13.546  0.3793  0.0849  0.2603
  403MPD2     H 6074   0.684   0.375  13.400 -2.6677 -0.8056 -2.8518
  403MPD2    H1 6075   0.521   0.667  13.669 -0.0343  1.8202 -1.0012
  403MPD2    H2 6076   0.263   0.452  13.418 -0.3127  0.6364 -0.0257
  403MPD2    H3 6077   0.303   0.623  13.592  0.8603 -2.0384  3.6997
  403MPD2     N 6078   0.746   0.568  13.587  0.1665  0.0712 -0.3185
  403MPD2    H5 6079   0.739   0.640  13.658 -0.8078 -0.9071  0.5820
  403MPD2    N1 6080   0.449   0.298  13.301 -0.5570  0.0383 -0.3783
  403MPD2    H7 6081   0.351   0.269  13.298  0.0783 -2.1736  0.4087
  404TMC3    C1 6082   0.526   0.114  13.171  0.2859  0.0841  0.3660
  404TMC3    C2 6083   0.469   0.015  13.258 -0.3228 -0.9492  0.0453
  404TMC3    C3 6084   0.464   4.626  13.206 -0.3384 -0.2882 -0.1447
  404TMC3    C4 6085   0.584   0.080  13.054 -0.1514 -0.1545 -0.4951
  404TMC3    C5 6086   0.566   4.688  13.004 -0.1700 -0.0614  0.4343
  404TMC3    C6 6087   0.502   4.592  13.076  0.7730 -0.1782  0.0341
  404TMC3     C 6088   0.541   0.254  13.215  0.1067  0.2325 -0.0020
  404TMC3     O 6089   0.638   0.310  13.167  0.0131  0.2052 -0.2979
  404TMC3     H 6090   0.441   0.046  13.358  1.7441 -2.2154  1.0209
  404TMC3    H1 6091   0.618   0.158  12.988  1.0461 -0.4065 -0.1802
  404TMC3    H2 6092   0.477   4.499  13.026  0.3687 -1.4978  2.6911
  404TMC3    C7 6093   0.572   4.668  12.856  0.7175  0.2150  0.2687
  404TMC3    C8 6094   0.475   4.509  13.299  0.2050 -0.2806 -0.6772
  404TMC3    O1 6095   0.503   4.578  12.802 -0.5444  0.2963  0.1511
  404TMC3    O2 6096   0.500   4.396  13.255 -0.1146  0.3286 -0.6886
  405MPD2     C 6097   1.184   0.723  14.969  0.1341  0.3370 -0.1132
  405MPD2    C1 6098   1.072   0.638  14.961 -0.4189  0.2844 -0.1260
  405MPD2    C2 6099   0.975   0.669  14.870  0.5705 -1.3814 -0.1740
  405MPD2    C3 6100   0.984   0.785  14.802  0.3453 -0.3984 -0.2133
  405MPD2    C4 6101   1.092   0.867  14.805  0.9184  0.0827 -0.1081
  405MPD2    C5 6102   1.202   0.828  14.883 -0.5752 -0.3156 -1.3092
  405MPD2     H 6103   0.880   0.618  14.864  0.0058 -0.5644  2.0846
  405MPD2    H1 6104   1.105   0.951  14.738 -0.8129  1.2918  1.0774
  405MPD2    H2 6105   1.266   0.720  15.040 -1.8241  0.1716  2.1537
  405MPD2    H3 6106   1.291   0.889  14.889  0.7434 -2.5291  1.5612
  405MPD2     N 6107   0.869   0.807  14.723  0.5775  0.1604 -0.3682
  405MPD2    H5 6108   0.805   0.731  14.704  1.0968 -0.0849 -1.1290
  405MPD2    N1 6109   1.059   0.521  15.043  0.6640 -0.3341  0.0680
  405MPD2    H7 6110   1.134   0.507  15.110  0.5746 -2.0879 -0.2021
  406TMC3    C1 6111   0.503   1.061  14.612  0.4707 -0.4594  0.0100
  406TMC3    C2 6112   0.418   0.966  14.665  0.6314  0.0793  0.1009
  406TMC3    C3 6113   0.479   0.859  14.728 -0.5839 -0.3223  0.7722
  406TMC3    C4 6114   0.638   1.050  14.617 -0.4699 -0.0831 -0.3006
  406TMC3    C5 6115   0.688   0.943  14.680 -0.0917 -0.5307 -0.3292
  406TMC3    C6 6116   0.613   0.847  14.741 -0.2051 -0.3016  0.1345
  406TMC3     C 6117   0.444   1.181  14.545 -0.2330 -0.5853 -0.2166
  406TMC3     O 6118   0.513   1.240  14.460 -0.2868  0.3552  0.0628
  406TMC3     H 6119   0.310   0.970  14.655  0.7790  1.0778 -1.1143
  406TMC3    H1 6120   0.701   1.123  14.568 -0.0884  0.8464  1.5480
  406TMC3    H2 6121   0.661   0.780  14.812 -0.6420 -0.3234  0.4115
  406TMC3    C7 6122   0.830   0.933  14.680  0.2612 -0.3428 -0.4092
  406TMC3    C8 6123   0.394   0.737  14.743 -0.4650  0.0042  0.4823
  406TMC3    O1 6124   0.900   1.021  14.635 -0.2080 -0.0924 -0.4988
  406TMC3    O2 6125   0.273   0.754  14.764  0.2723 -0.0834  0.3132
  407MPD2     C 6126   2.885   1.996   9.810  0.2011  0.8388 -0.0154
  407MPD2    C1 6127   3.011   2.057   9.815  0.1243  0.3147 -0.4127
  407MPD2    C2 6128   3.034   2.149   9.916 -0.3642 -0.5093 -0.2786
  407MPD2    C3 6129   2.940   2.184  10.005  0.3764 -0.2014  0.6745
  407MPD2    C4 6130   2.813   2.128   9.992 -0.0339  0.1405 -0.0737
  407MPD2    C5 6131   2.787   2.028   9.901 -0.3789 -0.4369 -0.4533
  407MPD2     H 6132   3.128   2.203   9.917 -0.0037 -1.1435 -0.5152
  407MPD2    H1 6133   2.728   2.156  10.052  1.0262 -1.1810  2.0729
  407MPD2    H2 6134   2.858   1.927   9.731  0.9545  0.6126 -0.0693
  407MPD2    H3 6135   2.692   1.974   9.905 -1.1054  0.7906 -1.1889
  407MPD2     N 6136   2.959   2.283  10.104 -0.1900  0.0795  0.6966
  407MPD2    H5 6137   2.874   2.306  10.155 -1.3085 -0.8022 -0.7452
  407MPD2    N1 6138   3.114   2.033   9.725  0.6437 -0.0235  0.1327
  407MPD2    H7 6139   3.190   2.099   9.737  0.0735  0.9468 -1.7246
  408TMC3    C1 6140   3.219   1.982   9.522  0.5830  0.6338  0.6047
  408TMC3    C2 6141   3.251   1.879   9.440 -0.6966  0.3884  0.3830
  408TMC3    C3 6142   3.375   1.866   9.383  0.4612 -0.8453 -0.2377
  408TMC3    C4 6143   3.313   2.082   9.549 -0.1393  0.2668 -0.6429
  408TMC3    C5 6144   3.430   2.069   9.482  0.1535 -0.9999 -0.0043
  408TMC3    C6 6145   3.470   1.966   9.399  0.0269  0.6027  0.3282
  408TMC3     C 6146   3.105   1.962   9.611 -0.4985 -0.1770  0.0671
  408TMC3     O 6147   3.014   1.894   9.566  0.1951 -0.3635  0.2975
  408TMC3     H 6148   3.186   1.792   9.444 -0.0393 -0.0909  0.7752
  408TMC3    H1 6149   3.276   2.171   9.600  0.7438  1.1113 -1.4748
  408TMC3    H2 6150   3.567   1.965   9.350 -0.7139  2.1890 -1.1664
  408TMC3    C7 6151   3.531   2.167   9.503  0.3100 -0.1654  0.2522
  408TMC3    C8 6152   3.414   1.736   9.333  0.2254 -0.6355 -0.7343
  408TMC3    O1 6153   3.639   2.134   9.463  0.2697  0.4853 -0.2667
  408TMC3    O2 6154   3.324   1.661   9.307 -0.3998 -0.3601  0.0600
  409MPD2     C 6155   3.083   3.339  16.804 -0.1411 -0.1992  0.4449
  409MPD2    C1 6156   3.186   3.287  16.881 -0.3187  0.0466  0.9728
  409MPD2    C2 6157   3.301   3.360  16.907  0.2977 -0.0084 -0.5392
  409MPD2    C3 6158   3.317   3.484  16.852 -0.8464 -0.1813 -0.3412
  409MPD2    C4 6159   3.214   3.540  16.785 -0.1054  0.7594 -0.5871
  409MPD2    C5 6160   3.103   3.466  16.754  0.5124 -0.4038  0.0209
  409MPD2     H 6161   3.380   3.311  16.962 -1.0156 -0.5372  0.8671
  409MPD2    H1 6162   3.235   3.633  16.733 -0.5084  1.2413  0.1120
  409MPD2    H2 6163   2.995   3.278  16.785 -0.4534 -0.1534  1.7780
  409MPD2    H3 6164   3.034   3.506  16.681  0.6517  1.4776  0.9024
  409MPD2     N 6165   3.437   3.558  16.881  1.1039  0.1611 -0.4135
  409MPD2    H5 6166   3.432   3.656  16.854  0.2602 -0.3361 -2.0760
  409MPD2    N1 6167   3.188   3.149  16.924  0.1626  0.0395  0.6358
  409MPD2    H7 6168   3.274   3.124  16.972 -0.4864 -1.7720  0.8602
  410TMC3    C1 6169   3.649   3.620  16.943  0.3128 -0.0062 -0.0503
  410TMC3    C2 6170   3.767   3.597  16.999 -0.3639  1.0408  0.0151
  410TMC3    C3 6171   3.862   3.694  16.984  0.5170  0.0675  0.3485
  410TMC3    C4 6172   3.631   3.739  16.872  0.0840 -0.0861 -0.8665
  410TMC3    C5 6173   3.728   3.839  16.876  0.3355  0.3782  0.6247
  410TMC3    C6 6174   3.844   3.821  16.940  0.7417 -0.2752  0.1385
  410TMC3     C 6175   3.550   3.515  16.940 -0.3335 -0.4444 -0.7238
  410TMC3     O 6176   3.582   3.408  16.988  0.3434  0.3002  0.0659
  410TMC3     H 6177   3.791   3.502  17.046  2.4726  1.2182 -1.1181
  410TMC3    H1 6178   3.533   3.776  16.844 -0.8273 -1.0531  1.0951
  410TMC3    H2 6179   3.917   3.900  16.947  0.6938 -0.2070 -0.1497
  410TMC3    C7 6180   3.709   3.964  16.799 -0.2295  0.4763 -0.0547
  410TMC3    C8 6181   3.993   3.681  17.049 -0.0657  0.3709 -0.1015
  410TMC3    O1 6182   3.627   3.963  16.710 -0.0456  0.6055 -0.5775
  410TMC3    O2 6183   4.061   3.779  17.070  0.2128  0.7439 -0.0837
  411MPD2     C 6184   2.913   3.721  14.357 -0.8250  0.0939  0.2425
  411MPD2    C1 6185   2.961   3.803  14.258  0.4347 -0.1720  0.9785
  411MPD2    C2 6186   2.914   3.791  14.132 -0.1537  0.8078  0.1028
  411MPD2    C3 6187   2.815   3.702  14.101 -0.4738  0.3781 -0.2078
  411MPD2    C4 6188   2.745   3.638  14.203 -0.4204 -0.2061  0.3393
  411MPD2    C5 6189   2.801   3.643  14.327 -0.6480 -0.1132 -0.2503
  411MPD2     H 6190   2.953   3.852  14.051 -2.1195  1.2854 -0.4782
  411MPD2    H1 6191   2.663   3.569  14.186  1.2566 -2.1289  0.2277
  411MPD2    H2 6192   2.951   3.718  14.459  1.9092 -1.0301 -0.8145
  411MPD2    H3 6193   2.766   3.579  14.406  0.1789  1.3595  1.3096
  411MPD2     N 6194   2.773   3.674  13.966 -0.0718 -0.6962  0.5021
  411MPD2    H5 6195   2.684   3.625  13.961 -0.5167  0.1343  0.2535
  411MPD2    N1 6196   3.067   3.889  14.292 -0.4497  0.7433 -0.1348
  411MPD2    H7 6197   3.112   3.884  14.383 -1.9557  1.4355  0.6488
  412TMC3    C1 6198   2.775   3.676  13.734  0.1299 -0.7267 -0.5706
  412TMC3    C2 6199   2.644   3.697  13.732  0.1595 -0.7373 -0.2691
  412TMC3    C3 6200   2.576   3.642  13.626  0.7602 -0.1847  0.6790
  412TMC3    C4 6201   2.844   3.596  13.644 -0.4910 -0.7554  0.1525
  412TMC3    C5 6202   2.766   3.523  13.556  0.1887 -0.4595  0.2011
  412TMC3    C6 6203   2.631   3.552  13.550 -0.7382  0.5200 -0.5732
  412TMC3     C 6204   2.849   3.697  13.854  0.4001  0.2597  0.2174
  412TMC3     O 6205   2.971   3.711  13.847 -0.4589  0.1827 -0.6809
  412TMC3     H 6206   2.596   3.780  13.783  0.0828 -1.6032  1.0593
  412TMC3    H1 6207   2.949   3.575  13.662 -0.2731  1.2968  1.1764
  412TMC3    H2 6208   2.576   3.500  13.473  0.9519  0.2295 -1.5948
  412TMC3    C7 6209   2.812   3.514  13.422  0.2598 -1.0457  0.3137
  412TMC3    C8 6210   2.496   3.742  13.556  0.1655  0.1041  0.1688
  412TMC3    O1 6211   2.741   3.557  13.332 -0.1262  0.3449  0.4791
  412TMC3    O2 6212   2.423   3.816  13.623 -0.5640 -0.2856 -0.3480
  413MPD2     C 6213   0.008   1.823  15.473  0.6105 -0.4788  0.6008
  413MPD2    C1 6214   4.707   1.842  15.344  0.1950  0.3872  0.1064
  413MPD2    C2 6215   0.056   1.805  15.246  0.3752  0.0570 -0.9738
  413MPD2    C3 6216   0.177   1.742  15.267  0.2965  0.6761  0.5321
  413MPD2    C4 6217   0.220   1.735  15.399 -0.2022 -0.2331 -0.1861
  413MPD2    C5 6218   0.128   1.765  15.500  0.2187  0.3319 -0.1557
  413MPD2     H 6219   0.028   1.807  15.141  0.4812 -0.6596 -1.0119
  413MPD2    H1 6220   0.313   1.692  15.433  1.0123  2.2767 -0.3688
  413MPD2    H2 6221   4.680   1.859  15.552 -0.5900 -0.7973 -0.2088
  413MPD2    H3 6222   0.160   1.742  15.602  1.6215  2.9978 -0.0157
  413MPD2     N 6223   0.244   1.678  15.165  0.5281  0.0889 -0.1743
  413MPD2    H5 6224   0.223   1.707  15.070 -2.3681 -1.0964  0.1134
  413MPD2    N1 6225   4.576   1.896  15.315 -0.2119  1.0140  0.0424
  413MPD2    H7 6226   4.504   1.906  15.386  1.3549  0.9151  1.6188
  414TMC3    C1 6227   0.356   1.519  15.043  0.5204 -0.2697  0.3295
  414TMC3    C2 6228   0.373   1.386  15.027  0.0664  0.0265  0.1276
  414TMC3    C3 6229   0.466   1.348  14.932 -0.9658 -0.7983  0.3221
  414TMC3    C4 6230   0.421   1.615  14.966 -1.3000  0.3463  0.0817
  414TMC3    C5 6231   0.518   1.571  14.889  0.4378  0.6755 -0.6475
  414TMC3    C6 6232   0.544   1.440  14.860  0.3205  0.1415  0.1076
  414TMC3     C 6233   0.306   1.560  15.177  0.2704  0.3923  0.5488
  414TMC3     O 6234   0.315   1.482  15.267  0.2186 -0.3772  0.5461
  414TMC3     H 6235   0.328   1.317  15.098 -2.2379  0.0817 -1.2745
  414TMC3    H1 6236   0.425   1.720  14.992  0.3161  0.9424 -2.5843
  414TMC3    H2 6237   0.626   1.402  14.801 -0.5136 -1.9686  0.3034
  414TMC3    C7 6238   0.604   1.681  14.835 -0.0382 -0.1827 -0.3554
  414TMC3    C8 6239   0.506   1.210  14.942  0.1085  0.5096  0.4179
  414TMC3    O1 6240   0.605   1.786  14.900 -0.3201  0.5507  0.1936
  414TMC3    O2 6241   0.413   1.133  14.953  0.5627 -0.2527 -0.1252
  415TMC3    C1 6242   0.588   0.056  10.229  0.2615  0.2541  0.3498
  415TMC3    C2 6243   0.627   0.117  10.114  0.0844 -0.7111  0.3770
  415TMC3    C3 6244   0.525   0.149  10.024 -0.3380  0.3119 -1.2237
  415TMC3    C4 6245   0.461   0.014  10.255 -1.1409 -0.3101 -0.4872
  415TMC3    C5 6246   0.367   0.059  10.166 -0.1238 -1.2567  0.0325
  415TMC3    C6 6247   0.394   0.133  10.050  0.0621 -0.4798  0.2522
  415TMC3     C 6248   0.679   4.733  10.329  1.0642  0.9321 -0.1695
  415TMC3     O 6249   0.630   4.644  10.396  0.3667  0.2189  0.5028
  415TMC3     H 6250   0.727   0.153  10.090 -1.4271  3.6859  0.6907
  415TMC3    H1 6251   0.428   4.726  10.355 -1.2647  1.7601 -0.0637
  415TMC3    H2 6252   0.322   0.161   9.975 -0.1176 -0.1060  0.5604
  415TMC3    C7 6253   0.238   4.725  10.149  0.0822  0.2678 -0.0967
  415TMC3    C8 6254   0.550   0.223   9.904  0.2573  0.0632 -0.3273
  415TMC3    O1 6255   0.157   0.042  10.073  0.1735  0.1999 -0.3718
  415TMC3    O2 6256   0.476   0.201   9.810  0.0797 -0.1635 -0.2068
  416MPD2     C 6257   1.782   3.622  12.067  0.3105 -0.2076 -0.0984
  416MPD2    C1 6258   1.794   3.634  11.929  0.4222  0.5771  0.0021
  416MPD2    C2 6259   1.812   3.522  11.852  0.7591 -0.1583 -0.5430
  416MPD2    C3 6260   1.828   3.397  11.915 -0.4989 -0.1359 -0.0558
  416MPD2    C4 6261   1.830   3.392  12.052  0.2877  0.2037  0.0911
  416MPD2    C5 6262   1.793   3.499  12.126  0.4006  0.3530 -0.2487
  416MPD2     H 6263   1.795   3.529  11.745  2.1444 -1.6620 -0.8576
  416MPD2    H1 6264   1.830   3.296  12.103 -1.2357  0.8303  1.2752
  416MPD2    H2 6265   1.777   3.715  12.123  1.8931 -0.6254  0.7423
  416MPD2    H3 6266   1.766   3.488  12.230  0.8992 -1.3779 -0.3047
  416MPD2     N 6267   1.861   3.276  11.845 -0.3795 -0.4008  0.7067
  416MPD2    H5 6268   1.904   3.198  11.894  1.9528  0.2586 -0.3098
  416MPD2    N1 6269   1.783   3.768  11.873  0.4325 -0.4821  0.0945
  416MPD2    H7 6270   1.757   3.847  11.932  2.7641 -1.1958  2.0737
  417TMC3    C1 6271   1.771   3.929  11.700 -0.3569  0.4238 -0.1555
  417TMC3    C2 6272   1.795   4.015  11.810  0.8225  0.2202  1.0594
  417TMC3    C3 6273   1.774   4.144  11.780 -0.7925  0.2092 -0.3376
  417TMC3    C4 6274   1.721   3.959  11.574  0.4112  0.2129  0.4242
  417TMC3    C5 6275   1.689   4.088  11.560  1.0987 -0.7517  0.8278
  417TMC3    C6 6276   1.709   4.178  11.660  0.3637  1.3909 -0.6303
  417TMC3     C 6277   1.789   3.790  11.735 -0.8116  0.0236 -0.9771
  417TMC3     O 6278   1.832   3.719  11.645  0.2819  0.0931  0.5074
  417TMC3     H 6279   1.872   3.992  11.883  1.0538 -3.0381 -0.2222
  417TMC3    H1 6280   1.715   3.883  11.498 -1.2821 -2.0454  2.8012
  417TMC3    H2 6281   1.670   4.279  11.655  1.3538  1.7715 -0.6265
  417TMC3    C7 6282   1.642   4.136  11.428  0.1986 -0.1350 -0.5077
  417TMC3    C8 6283   1.783   4.237  11.897 -0.0636  0.5723 -0.2336
  417TMC3    O1 6284   1.643   4.256  11.411  0.4432 -0.2332 -0.3767
  417TMC3    O2 6285   1.792   4.189  12.008 -0.5484 -0.3868 -0.4423
  418TMC3    C1 6286   1.523   1.426   0.227 -0.0980  0.1017 -0.3306
  418TMC3    C2 6287   1.391   1.413   0.204 -0.4779  0.0460 -0.4939
  418TMC3    C3 6288   1.309   1.387   0.310 -0.8291 -0.5834  0.2098
  418TMC3    C4 6289   1.575   1.414   0.350 -0.2429 -0.4048 -0.4146
  418TMC3    C5 6290   1.491   1.393   0.461  0.4394 -0.2261 -0.3215
  418TMC3    C6 6291   1.357   1.368   0.441 -0.0628 -0.3077 -0.1877
  418TMC3     C 6292   1.608   1.424   0.111 -0.2909 -0.0848  0.0307
  418TMC3     O 6293   1.554   1.410   0.004  0.3043  0.2404  0.3651
  418TMC3     H 6294   1.358   1.406   0.101 -2.5832 -1.8544  0.3141
  418TMC3    H1 6295   1.682   1.426   0.364 -0.5435  0.3236  1.2440
  418TMC3    H2 6296   1.290   1.333   0.518 -0.6536  0.8459 -0.1761
  418TMC3    C7 6297   1.561   1.341   0.575  1.5118  0.0079 -0.1663
  418TMC3    C8 6298   1.200   1.296   0.271  0.4638 -0.2212 -0.5388
  418TMC3    O1 6299   1.516   1.238   0.623 -0.5083  0.3820  0.4964
  418TMC3    O2 6300   1.089   1.348   0.258 -0.0209 -0.2917 -0.0664
  419MPD2     C 6301   0.285   3.445  12.528 -0.5999 -0.1682  0.2011
  419MPD2    C1 6302   0.207   3.559  12.505 -0.1192 -0.3301 -1.0564
  419MPD2    C2 6303   0.110   3.598  12.596 -0.3397 -0.0147 -0.1429
  419MPD2    C3 6304   0.092   3.523  12.708  0.5726  0.6903 -0.4656
  419MPD2    C4 6305   0.166   3.411  12.737 -0.1894 -0.4598 -0.1861
  419MPD2    C5 6306   0.267   3.372  12.646  0.5894 -0.6593  0.3602
  419MPD2     H 6307   0.053   3.685  12.567  0.6536  0.9088  0.6912
  419MPD2    H1 6308   0.153   3.349  12.825 -1.2531 -1.7157 -1.2348
  419MPD2    H2 6309   0.364   3.411  12.461  0.4138  0.8005  0.8980
  419MPD2    H3 6310   0.331   3.287  12.667  1.9936  0.3462  0.1615
  419MPD2     N 6311   4.726   3.574  12.795 -0.4337 -0.6703 -0.4139
  419MPD2    H5 6312   4.692   3.668  12.775  3.4309  0.5164 -1.5307
  419MPD2    N1 6313   0.215   3.638  12.383 -0.1069 -0.0190 -0.0169
  419MPD2    H7 6314   0.143   3.709  12.373 -3.3940 -3.5235 -1.3235
  420TMC3    C1 6315   4.579   3.588  12.976 -0.3625  0.1211 -0.4164
  420TMC3    C2 6316   4.499   3.684  12.915  0.6599  0.3879 -0.7009
  420TMC3    C3 6317   4.415   3.762  12.991  0.3210  0.6128 -0.1061
  420TMC3    C4 6318   4.581   3.579  13.113  0.4296  0.1598 -0.6147
  420TMC3    C5 6319   4.505   3.661  13.189 -0.9291 -0.0977  0.0658
  420TMC3    C6 6320   4.424   3.746  13.129 -0.2545  0.8531 -0.7407
  420TMC3     C 6321   4.674   3.507  12.904 -0.2271 -0.1716  0.3057
  420TMC3     O 6322   4.705   3.394  12.949 -0.4957 -0.6680 -0.0286
  420TMC3     H 6323   4.488   3.689  12.807  2.1463 -0.4328 -0.8857
  420TMC3    H1 6324   4.651   3.513  13.163 -0.8172 -0.3696  0.4490
  420TMC3    H2 6325   4.368   3.813  13.192 -1.2126 -0.3652 -0.3061
  420TMC3    C7 6326   4.538   3.685  13.328 -0.1212 -0.3972  0.5559
  420TMC3    C8 6327   4.373   3.891  12.948  0.0422  0.3016 -0.8221
  420TMC3    O1 6328   4.571   3.589  13.400 -0.5299  1.0156 -0.3843
  420TMC3    O2 6329   4.284   3.944  13.007 -0.1444 -0.3241 -0.0576
  421TMC3    C1 6330   0.973   0.563  13.660  0.8190 -0.3006 -0.2431
  421TMC3    C2 6331   0.974   0.702  13.679 -0.3754  0.0722  0.1430
  421TMC3    C3 6332   1.077   0.765  13.733 -0.1122  0.0399  0.0407
  421TMC3    C4 6333   1.082   0.490  13.691  0.1231 -0.2673 -0.3610
  421TMC3    C5 6334   1.186   0.557  13.757  1.1526 -0.3156 -0.3566
  421TMC3    C6 6335   1.190   0.694  13.774 -0.1709  0.2815  0.3306
  421TMC3     C 6336   0.869   0.512  13.569  0.4206 -0.5007 -0.0219
  421TMC3     O 6337   0.902   0.416  13.502  0.0623 -0.5602 -0.5322
  421TMC3     H 6338   0.888   0.768  13.672  0.3190  0.9905  0.3965
  421TMC3    H1 6339   1.088   0.388  13.655 -1.7535 -1.0526  1.6013
  421TMC3    H2 6340   1.274   0.749  13.815 -0.0805  1.0636 -0.9071
  421TMC3    C7 6341   1.301   0.492  13.799 -0.4082 -0.0266  1.0775
  421TMC3    C8 6342   1.079   0.908  13.743  0.6465  0.5311  0.3333
  421TMC3    O1 6343   1.391   0.561  13.842  0.3711  0.5454 -0.3842
  421TMC3    O2 6344   1.144   0.958  13.833 -0.2018  0.3917 -0.3298
  422TMC3    C1 6345   3.708   2.019  12.095  0.0442  0.1203 -0.8598
  422TMC3    C2 6346   3.752   2.125  12.167 -0.5971  0.6556 -0.2233
  422TMC3    C3 6347   3.710   2.128  12.298 -0.3977  0.1714 -0.0847
  422TMC3    C4 6348   3.629   1.922  12.150 -0.7253 -0.0664  0.0480
  422TMC3    C5 6349   3.576   1.933  12.274  0.7979  0.1229 -0.0488
  422TMC3    C6 6350   3.621   2.032  12.353 -0.0006  0.0530  0.4019
  422TMC3     C 6351   3.783   1.995  11.974  0.3527 -0.3351  0.2180
  422TMC3     O 6352   3.866   2.078  11.943  0.1267 -0.0581 -0.2994
  422TMC3     H 6353   3.815   2.201  12.123  0.9225 -0.2782  0.3577
  422TMC3    H1 6354   3.591   1.840  12.091  2.3760 -1.4456 -0.0624
  422TMC3    H2 6355   3.597   2.033  12.459  3.0748 -2.2032  1.1146
  422TMC3    C7 6356   3.469   1.846  12.323  0.7335 -0.4747 -0.7173
  422TMC3    C8 6357   3.703   2.257  12.366  0.0340  0.1229 -0.7410
  422TMC3    O1 6358   3.427   1.769  12.235 -0.1948 -0.7726 -0.0874
  422TMC3    O2 6359   3.724   2.258  12.487 -0.4190 -0.7745  0.3176
  423MPD2     C 6360   0.327   2.557   0.780 -0.1446 -0.7678 -0.3487
  423MPD2    C1 6361   0.444   2.613   0.753 -0.3436 -0.1467 -0.5168
  423MPD2    C2 6362   0.497   2.610   0.622 -0.6133  0.5101  0.6889
  423MPD2    C3 6363   0.418   2.547   0.520 -0.0866  0.5325  0.5206
  423MPD2    C4 6364   0.294   2.502   0.559 -1.0540  0.2624 -0.1034
  423MPD2    C5 6365   0.251   2.500   0.684 -0.8729  0.0455  0.0113
  423MPD2     H 6366   0.593   2.655   0.596 -0.7231  0.3976  0.0815
  423MPD2    H1 6367   0.231   2.448   0.488 -0.2466 -1.0588  0.1819
  423MPD2    H2 6368   0.287   2.554   0.880 -0.2557  0.4608 -0.3538
  423MPD2    H3 6369   0.153   2.458   0.704 -1.1986  0.1153 -1.4189
  423MPD2     N 6370   0.451   2.535   0.381  0.1194  0.0646 -0.3253
  423MPD2    H5 6371   0.390   2.478   0.323 -0.5590 -0.3735  0.7967
  423MPD2    N1 6372   0.518   2.675   0.854 -0.2274  0.1144  0.6959
  423MPD2    H7 6373   0.606   2.714   0.824 -0.0189 -0.2840  0.7835
  424TMC3    C1 6374   0.580   2.763   1.055  0.0559 -0.2019  1.0370
  424TMC3    C2 6375   0.718   2.739   1.032 -0.3090  0.3382  0.0293
  424TMC3    C3 6376   0.800   2.780   1.137 -0.2389 -0.2402 -0.4178
  424TMC3    C4 6377   0.539   2.847   1.158  0.2505  0.4725 -0.0332
  424TMC3    C5 6378   0.633   2.887   1.253  0.1144  0.4221 -0.0128
  424TMC3    C6 6379   0.767   2.863   1.244 -0.5029 -0.3111  0.2000
  424TMC3     C 6380   0.474   2.701   0.983  0.3376 -0.3718  0.1852
  424TMC3     O 6381   0.367   2.681   1.040 -0.3824  0.4619  0.1415
  424TMC3     H 6382   0.747   2.663   0.959 -2.7568 -2.9855  2.5123
  424TMC3    H1 6383   0.434   2.843   1.183  0.8661  1.2334  2.6719
  424TMC3    H2 6384   0.838   2.888   1.321  0.4905  2.6052 -1.6413
  424TMC3    C7 6385   0.596   2.978   1.358 -0.8067  0.3880  0.1191
  424TMC3    C8 6386   0.935   2.737   1.106  0.8109  0.0442  0.7403
  424TMC3    O1 6387   0.685   3.036   1.418  0.1900  0.2507 -0.3701
  424TMC3    O2 6388   0.935   2.623   1.063 -0.1786 -0.2407 -0.2659
  425MPD2     C 6389   4.153   1.937  17.248  0.4024  0.4183  0.6801
  425MPD2    C1 6390   4.047   1.854  17.285 -0.4964 -0.2809  0.5156
  425MPD2    C2 6391   3.928   1.919  17.308 -0.4130 -0.6380  0.4081
  425MPD2    C3 6392   3.910   2.052  17.290 -0.1216  1.3679 -0.1012
  425MPD2    C4 6393   4.015   2.133  17.243  0.4131 -0.7118 -0.2326
  425MPD2    C5 6394   4.140   2.071  17.242  0.2550 -0.6425 -0.9380
  425MPD2     H 6395   3.838   1.869  17.342 -0.3339  0.2506  1.9387
  425MPD2    H1 6396   4.011   2.240  17.229  2.0473 -0.6961 -0.6214
  425MPD2    H2 6397   4.252   1.894  17.243 -0.4076 -1.4643  0.4777
  425MPD2    H3 6398   4.231   2.128  17.230 -1.5330  2.7310  1.6355
  425MPD2     N 6399   3.777   2.099  17.303  0.4855  0.2776  0.0927
  425MPD2    H5 6400   3.704   2.037  17.335  0.6732 -1.5826 -3.0787
  425MPD2    N1 6401   4.063   1.716  17.297  0.4663 -0.0008  0.0797
  425MPD2    H7 6402   4.153   1.680  17.266  1.1311  1.7183 -0.0368
  426TMC3    C1 6403   3.981   1.498  17.316  0.1612 -0.3530  0.2763
  426TMC3    C2 6404   4.016   1.478  17.186  0.4066  0.4302  0.4520
  426TMC3    C3 6405   4.000   1.344  17.139  0.1917 -0.4820  0.2516
  426TMC3    C4 6406   3.910   1.407  17.392  0.6431 -0.8096 -0.3303
  426TMC3    C5 6407   3.893   1.281  17.340 -0.7235  0.0766 -0.3480
  426TMC3    C6 6408   3.932   1.249  17.210  0.3184 -0.3492  0.5805
  426TMC3     C 6409   3.972   1.636  17.354  0.0497 -0.3072 -0.1653
  426TMC3     O 6410   3.903   1.666  17.454 -0.0677 -0.3068 -0.7517
  426TMC3     H 6411   4.075   1.540  17.119  0.3372 -1.5721 -1.4784
  426TMC3    H1 6412   3.896   1.428  17.497  2.4242 -0.2537 -0.1998
  426TMC3    H2 6413   3.900   1.156  17.165  1.5925  0.1017 -1.3022
  426TMC3    C7 6414   3.828   1.179  17.411  0.2626  1.2809 -0.7150
  426TMC3    C8 6415   4.005   1.326  16.996  0.4351 -0.0825 -0.1130
  426TMC3    O1 6416   3.852   1.067  17.367  0.0646 -0.2968  0.6852
  426TMC3    O2 6417   4.039   1.219  16.952 -0.2243 -0.4449  0.1344
  427MPD2     C 6418   2.598   4.011  14.445  0.2768 -0.1319  0.0277
  427MPD2    C1 6419   2.558   3.985  14.575 -0.1203 -0.2221  1.3414
  427MPD2    C2 6420   2.424   4.006  14.623 -0.1044 -0.1798 -0.2669
  427MPD2    C3 6421   2.337   4.064  14.533  0.6711  0.3087 -0.1617
  427MPD2    C4 6422   2.387   4.103  14.412  0.2538 -0.4005 -0.0383
  427MPD2    C5 6423   2.514   4.082  14.364 -0.1321  0.3797  0.3702
  427MPD2     H 6424   2.398   3.977  14.724 -0.1869  1.2684  0.1370
  427MPD2    H1 6425   2.314   4.154  14.349 -0.0640  1.2110  1.6503
  427MPD2    H2 6426   2.692   3.975  14.406 -0.2069  0.9254 -2.0821
  427MPD2    H3 6427   2.542   4.104  14.261 -1.3949 -0.1186 -0.0772
  427MPD2     N 6428   2.204   4.103  14.557 -0.0945 -0.2925 -0.1063
  427MPD2    H5 6429   2.164   4.161  14.484 -1.7511  0.8400  1.7025
  427MPD2    N1 6430   2.647   3.941  14.679  0.4679  0.2015 -0.2379
  427MPD2    H7 6431   2.613   3.932  14.774 -0.1422  0.3226 -0.4426
  428TMC3    C1 6432   2.846   3.853  14.766 -0.6901 -0.4853 -0.3821
  428TMC3    C2 6433   2.782   3.775  14.859 -0.4230  0.7084 -0.3361
  428TMC3    C3 6434   2.854   3.709  14.955 -0.0550  0.2751  0.1029
  428TMC3    C4 6435   2.984   3.873  14.778 -0.2509  0.0854  0.2829
  428TMC3    C5 6436   3.053   3.810  14.878  0.4565 -0.3817  0.2921
  428TMC3    C6 6437   2.991   3.723  14.964 -0.8613  0.3132  0.5750
  428TMC3     C 6438   2.781   3.921  14.657 -0.4283 -0.3396 -0.5566
  428TMC3     O 6439   2.857   3.974  14.579 -0.3020 -0.7021 -0.4980
  428TMC3     H 6440   2.675   3.758  14.850 -0.2245 -1.8696  1.8787
  428TMC3    H1 6441   3.045   3.935  14.714  0.7611 -0.2460  0.9384
  428TMC3    H2 6442   3.053   3.674  15.039  0.9280  1.4461 -0.1548
  428TMC3    C7 6443   3.189   3.849  14.910 -1.0636 -0.4792  0.1673
  428TMC3    C8 6444   2.792   3.626  15.050 -0.0709 -0.3993  0.2572
  428TMC3    O1 6445   3.230   3.819  15.021  0.0054 -0.4192 -0.1420
  428TMC3    O2 6446   2.694   3.552  15.033 -0.4039  0.1798  0.0078
  429MPD2     C 6447   3.722   4.103   0.189  0.1013 -0.0427  0.0920
  429MPD2    C1 6448   3.816   4.034   0.121 -0.0628 -0.3793  0.2798
  429MPD2    C2 6449   3.945   4.074   0.109 -0.5792  0.0415 -0.1561
  429MPD2    C3 6450   3.983   4.190   0.162  0.6677  0.4783  0.3276
  429MPD2    C4 6451   3.890   4.266   0.232 -0.2353 -0.1592 -0.1901
  429MPD2    C5 6452   3.761   4.225   0.244 -0.0199  0.1792 -0.1722
  429MPD2     H 6453   4.022   4.016   0.059  1.5061  1.5772  1.2680
  429MPD2    H1 6454   3.922   4.355   0.283  1.0938 -0.7424 -0.0195
  429MPD2    H2 6455   3.616   4.081   0.197  0.0028  0.3929 -0.0343
  429MPD2    H3 6456   3.685   4.285   0.293  2.7535  2.7920  0.9157
  429MPD2     N 6457   4.117   4.221   0.158 -1.1803  0.3766  0.3471
  429MPD2    H5 6458   4.181   4.155   0.114 -2.7483 -0.2879 -0.9400
  429MPD2    N1 6459   3.790   3.919   0.043 -0.3469 -0.4915 -1.1116
  429MPD2    H7 6460   3.865   3.891  17.719  0.1475  0.2959 -0.8718
  430TMC3    C1 6461   4.315   4.347   0.144 -0.4542  0.6249 -0.0557
  430TMC3    C2 6462   4.375   4.474   0.152  0.5133 -0.0487 -0.2564
  430TMC3    C3 6463   4.469   4.502   0.064 -0.8055  0.0168 -0.5247
  430TMC3    C4 6464   4.359   4.254   0.055  0.3871  0.0368  0.1351
  430TMC3    C5 6465   4.470   4.288  17.718  0.9312  0.3055 -1.2560
  430TMC3    C6 6466   4.533   4.409  17.732  0.3371  0.3082  0.2553
  430TMC3     C 6467   4.178   4.340   0.186  0.5938  0.2114  0.0264
  430TMC3     O 6468   4.135   4.443   0.230  0.0321  0.3162  0.0428
  430TMC3     H 6469   4.332   4.549   0.218  1.3824 -0.3349  0.6321
  430TMC3    H1 6470   4.321   4.153   0.042  1.3804 -0.0225 -2.2496
  430TMC3    H2 6471   4.618   4.438  17.671 -0.3071  1.6027 -0.0256
  430TMC3    C7 6472   4.446   4.261  17.579 -0.1251  0.0979  0.2058
  430TMC3    C8 6473   4.457   4.617  17.721  0.7906  0.4662 -0.0852
  430TMC3    O1 6474   4.385   4.155  17.560  0.4628  0.0983  0.3887
  430TMC3    O2 6475   4.512   4.613  17.613 -0.2907 -0.3985  0.4262
  431MPD2     C 6476   4.554   4.384  11.884 -0.2679  0.0094  0.6275
  431MPD2    C1 6477   4.654   4.384  11.973 -0.8528  0.2910 -0.0756
  431MPD2    C2 6478   4.727   4.269  12.001 -0.0826  0.6723  0.3185
  431MPD2    C3 6479   4.676   4.150  11.950 -0.0102 -0.4761 -0.9297
  431MPD2    C4 6480   4.569   4.144  11.862  0.3385  0.4105  0.3954
  431MPD2    C5 6481   4.501   4.263  11.834  0.1617 -0.3243  0.0801
  431MPD2     H 6482   0.082   4.272  12.060  0.1227 -2.3749  0.1691
  431MPD2    H1 6483   4.537   4.053  11.814  0.6640 -0.0612  1.0862
  431MPD2    H2 6484   4.515   4.475  11.841  1.7808  0.2528 -0.7373
  431MPD2    H3 6485   4.427   4.256  11.755  0.2627  0.0798 -0.0539
  431MPD2     N 6486   4.733   4.028  11.982 -0.3453 -0.6553 -0.2685
  431MPD2    H5 6487   4.677   3.948  11.953  0.2339 -0.2443 -2.4761
  431MPD2    N1 6488   4.697   4.511  12.011  0.5645 -0.2262  0.3913
  431MPD2    H7 6489   4.661   4.591  11.960  1.2781 -0.5371 -0.6088
  432TMC3    C1 6490   0.133   3.862  12.062 -0.4574  0.3387 -0.2168
  432TMC3    C2 6491   0.162   3.806  11.937  0.0748 -0.9434  0.4521
  432TMC3    C3 6492   0.256   3.707  11.937 -0.2496 -1.0858 -0.1692
  432TMC3    C4 6493   0.189   3.818  12.179 -0.0430 -0.3696 -0.0319
  432TMC3    C5 6494   0.282   3.710  12.169  0.4863 -0.3865 -0.4511
  432TMC3    C6 6495   0.322   3.655  12.047  0.3260 -0.3331  0.2264
  432TMC3     C 6496   0.093   4.000  12.078  0.5265  0.1499  0.2083
  432TMC3     O 6497   0.161   4.072  12.149 -0.0392 -0.7601 -0.0591
  432TMC3     H 6498   0.118   3.853  11.849 -2.4846 -0.7047  1.8554
  432TMC3    H1 6499   0.152   3.867  12.268 -0.5941  3.0081 -2.1497
  432TMC3    H2 6500   0.373   3.562  12.028  0.6821 -0.7026  3.1352
  432TMC3    C7 6501   0.300   3.621  12.279 -0.8157 -0.2598  0.2198
  432TMC3    C8 6502   0.321   3.696  11.808  0.4617  0.2394  0.5131
  432TMC3    O1 6503   0.388   3.540  12.264 -0.5197  0.0921 -0.3023
  432TMC3    O2 6504   0.255   3.726  11.706 -0.6331 -0.4018  0.0532
  433MPD2     C 6505   2.918   2.537  10.843 -0.3306  0.2987  0.3612
  433MPD2    C1 6506   2.878   2.446  10.941  0.6383 -0.6577  0.4508
  433MPD2    C2 6507   2.923   2.475  11.072  0.4913 -0.4802 -0.5111
  433MPD2    C3 6508   3.010   2.579  11.094  0.6186  0.6463  0.2575
  433MPD2    C4 6509   3.031   2.670  11.001  0.1853 -0.1581  0.2566
  433MPD2    C5 6510   2.986   2.653  10.872  0.4528 -0.0383  0.2373
  433MPD2     H 6511   2.895   2.400  11.145  0.1465  2.3510  2.2829
  433MPD2    H1 6512   3.097   2.755  11.018 -0.1456 -0.2208  1.8443
  433MPD2    H2 6513   2.888   2.514  10.741 -1.3170 -0.5093  0.8325
  433MPD2    H3 6514   3.018   2.715  10.789  0.6266 -2.7888 -1.7680
  433MPD2     N 6515   3.077   2.573  11.220 -0.0505  0.3160  0.2396
  433MPD2    H5 6516   3.064   2.491  11.278  0.0200  0.5128  0.5336
  433MPD2    N1 6517   2.805   2.335  10.899 -0.3731  0.0487 -0.0469
  433MPD2    H7 6518   2.785   2.337  10.800  0.6332 -1.0865 -0.2663
  434TMC3    C1 6519   2.754   2.107  10.887  0.0031  0.4578  0.2161
  434TMC3    C2 6520   2.797   1.989  10.946  0.1434  0.1595  0.5159
  434TMC3    C3 6521   2.845   1.887  10.870  0.3948 -0.4772  0.2975
  434TMC3    C4 6522   2.755   2.115  10.749 -0.4799  0.6452 -0.0163
  434TMC3    C5 6523   2.785   2.002  10.678 -0.1808 -0.4562  0.2767
  434TMC3    C6 6524   2.844   1.898  10.733  0.0850  0.5829 -0.3963
  434TMC3     C 6525   2.770   2.220  10.979 -0.7191 -0.4877  0.3452
  434TMC3     O 6526   2.787   2.206  11.100  0.6382  0.1156 -0.1621
  434TMC3     H 6527   2.827   1.994  11.050  0.1389  0.5374  0.4985
  434TMC3    H1 6528   2.715   2.200  10.695  0.7362  0.7370 -0.7901
  434TMC3    H2 6529   2.877   1.809  10.679 -2.2514  0.6313 -1.8990
  434TMC3    C7 6530   2.719   1.998  10.548 -0.0963  0.5915  0.2910
  434TMC3    C8 6531   2.941   1.809  10.944 -0.4801  0.5791 -0.8021
  434TMC3    O1 6532   2.622   2.071  10.528 -0.2161  0.0436 -0.4955
  434TMC3    O2 6533   2.894   1.767  11.046  0.2631 -0.3169  0.1926
  435MPD2     C 6534   1.029   2.944  15.615 -0.2037 -0.7434 -0.2393
  435MPD2    C1 6535   1.009   2.879  15.742 -0.5733 -0.6466 -0.1239
  435MPD2    C2 6536   1.107   2.799  15.798  0.2711  0.0459  0.0734
  435MPD2    C3 6537   1.228   2.775  15.730 -0.1192  0.0917  0.4938
  435MPD2    C4 6538   1.242   2.828  15.605  0.1950  0.2750 -0.3546
  435MPD2    C5 6539   1.143   2.905  15.549 -0.4659  0.3206  0.4058
  435MPD2     H 6540   1.081   2.751  15.892  1.2033 -1.4465 -0.4316
  435MPD2    H1 6541   1.335   2.821  15.549  1.7177  0.3863  2.1799
  435MPD2    H2 6542   0.956   3.011  15.571  0.5997  1.0014  1.0989
  435MPD2    H3 6543   1.168   2.956  15.457  0.7849 -0.2067  0.4560
  435MPD2     N 6544   1.319   2.685  15.791 -0.2661 -0.3409 -0.1945
  435MPD2    H5 6545   1.289   2.666  15.886  0.0273  0.8696  0.1342
  435MPD2    N1 6546   0.893   2.894  15.816 -0.3596  0.1589  0.2936
  435MPD2    H7 6547   0.903   2.879  15.916 -0.3869  1.0685  0.4285
  436TMC3    C1 6548   0.557   2.984  16.066 -0.3071 -0.0946  0.1721
  436TMC3    C2 6549   0.672   2.970  15.995  0.0055 -0.3384  0.1347
  436TMC3    C3 6550   0.660   2.929  15.862 -0.8486 -0.1615 -0.1318
  436TMC3    C4 6551   0.439   2.945  16.018  0.5907  0.5711  0.1417
  436TMC3    C5 6552   0.436   2.905  15.889  0.7195 -0.5656  0.2547
  436TMC3    C6 6553   0.541   2.901  15.807 -1.2674 -0.6314  0.2549
  436TMC3     C 6554   0.574   3.057  16.193  0.4213 -0.0443 -0.5877
  436TMC3     O 6555   0.683   3.070  16.236  0.0661  0.5191 -0.1902
  436TMC3     H 6556   0.768   2.991  16.040 -0.1635  0.6639  0.0369
  436TMC3    H1 6557   0.341   2.947  16.066  0.0548  0.0788 -0.9469
  436TMC3    H2 6558   0.528   2.860  15.708  1.8515  0.2036 -0.4922
  436TMC3    C7 6559   0.338   2.806  15.862 -0.0464 -0.1868 -0.2312
  436TMC3    C8 6560   0.772   2.932  15.761 -0.2552  0.2040 -0.1091
  436TMC3    O1 6561   0.223   2.818  15.915 -0.4029  0.4388  0.0341
  436TMC3    O2 6562   0.736   2.923  15.645  0.2192 -0.2793 -0.3918
  437TMC3    C1 6563   3.860   0.166  12.644 -0.0863 -0.2564  0.0689
  437TMC3    C2 6564   3.769   0.248  12.583  0.2790 -0.0211 -0.4864
  437TMC3    C3 6565   3.779   0.269  12.442  0.3591  0.0990  0.6710
  437TMC3    C4 6566   3.958   0.104  12.566 -0.4100  0.6914 -0.3756
  437TMC3    C5 6567   3.958   0.128  12.429  0.0424  0.7582  0.3321
  437TMC3    C6 6568   3.875   0.214  12.365 -0.8624 -0.2370  0.1343
  437TMC3     C 6569   3.815   0.105  12.766  0.8667 -0.6119 -0.1226
  437TMC3     O 6570   3.696   0.092  12.781  0.3918 -0.5540 -0.1806
  437TMC3     H 6571   3.682   0.290  12.631 -0.5763 -2.5359  0.1965
  437TMC3    H1 6572   4.021   0.031  12.614 -2.4950 -1.0200 -0.2562
  437TMC3    H2 6573   3.878   0.226  12.257 -0.1463 -1.7548 -0.0200
  437TMC3    C7 6574   4.076   0.103  12.353  0.6099  0.1935  0.3445
  437TMC3    C8 6575   3.667   0.318  12.375 -0.0627  0.2209  0.4021
  437TMC3    O1 6576   4.073   0.110  12.229 -0.3949  0.0916 -0.1633
  437TMC3    O2 6577   3.560   0.299  12.437  0.1192 -0.2768 -0.4953
  438MPD2     C 6578   1.921   0.753  16.500 -0.0830 -0.5308 -0.1532
  438MPD2    C1 6579   1.970   0.660  16.597  0.6545  0.2625 -0.2418
  438MPD2    C2 6580   1.990   0.707  16.724 -0.6128 -0.6092 -0.3277
  438MPD2    C3 6581   1.968   0.836  16.766  0.0321  0.1481  0.1634
  438MPD2    C4 6582   1.929   0.925  16.669  0.1832 -0.0859  0.0624
  438MPD2    C5 6583   1.908   0.881  16.541 -0.1504  0.5601 -0.2805
  438MPD2     H 6584   2.045   0.643  16.793  0.1529  1.5591  1.0598
  438MPD2    H1 6585   1.909   1.029  16.693 -0.6069 -0.3844  0.7075
  438MPD2    H2 6586   1.898   0.731  16.397 -3.1456 -0.7594  0.5892
  438MPD2    H3 6587   1.865   0.951  16.469 -0.5955  2.8939  2.2515
  438MPD2     N 6588   2.001   0.895  16.892  0.4334 -0.5367  0.6594
  438MPD2    H5 6589   2.003   0.996  16.905 -2.3437 -0.5281  0.8909
  438MPD2    N1 6590   2.004   0.528  16.564 -0.0192 -0.6590  0.6375
  438MPD2    H7 6591   2.034   0.473  16.643 -0.2446 -0.1305  1.0890
  439TMC3    C1 6592   2.044   0.332  16.437 -0.3800  0.2996  0.5124
  439TMC3    C2 6593   1.991   0.267  16.323 -0.3313 -0.0727 -0.0909
  439TMC3    C3 6594   2.057   0.159  16.282  0.0685  0.3917  0.3728
  439TMC3    C4 6595   2.152   0.284  16.499 -0.3581 -0.5898 -0.8429
  439TMC3    C5 6596   2.221   0.181  16.443 -0.7458 -0.0225 -0.5321
  439TMC3    C6 6597   2.178   0.114  16.331 -0.5829 -0.2416  0.3764
  439TMC3     C 6598   1.996   0.467  16.439 -1.0384  0.1794  0.0248
  439TMC3     O 6599   1.939   0.509  16.334 -0.5398 -0.0453 -0.5535
  439TMC3     H 6600   1.894   0.295  16.283 -0.3631 -0.3062 -0.1743
  439TMC3    H1 6601   2.193   0.339  16.583 -1.3003 -0.1192 -0.6876
  439TMC3    H2 6602   2.230   0.025  16.296 -1.0696 -0.5739  0.5057
  439TMC3    C7 6603   2.358   0.163  16.497  0.6350  0.3734 -0.5585
  439TMC3    C8 6604   2.051   0.123  16.147  0.1898  0.4352 -0.0996
  439TMC3    O1 6605   2.372   0.192  16.617 -0.6154 -0.8052 -0.0241
  439TMC3    O2 6606   2.104   0.018  16.113  0.2192  0.3821  0.1048
  440MPD2     C 6607   4.543   0.749  14.991 -0.3947  0.0579  0.2365
  440MPD2    C1 6608   4.671   0.767  14.938 -0.0149 -0.6961  0.3901
  440MPD2    C2 6609   0.040   0.716  15.013  0.3210 -0.0817 -0.2744
  440MPD2    C3 6610   0.024   0.658  15.139  0.1523  0.1914 -0.1133
  440MPD2    C4 6611   4.631   0.641  15.187  0.0650 -0.5622 -0.4003
  440MPD2    C5 6612   4.529   0.694  15.116  0.7130 -0.0628  0.2325
  440MPD2     H 6613   0.140   0.725  14.973  0.1504 -0.9011 -0.8764
  440MPD2    H1 6614   4.618   0.599  15.286 -0.5164  2.9049  0.9911
  440MPD2    H2 6615   4.450   0.776  14.943 -0.2875 -1.4888 -0.8313
  440MPD2    H3 6616   4.428   0.688  15.156  0.4298  3.3408  0.0436
  440MPD2     N 6617   0.136   0.601  15.204  0.2458  0.1243 -0.1364
  440MPD2    H5 6618   0.126   0.534  15.279  0.5048 -0.0092 -0.2234
  440MPD2    N1 6619   4.691   0.822  14.808 -0.3722  0.0567 -0.5312
  440MPD2    H7 6620   0.056   0.821  14.788 -0.2056 -0.8300  0.3506
  441TMC3    C1 6621   0.364   0.555  15.249 -0.4014 -0.4616  0.0145
  441TMC3    C2 6622   0.483   0.549  15.184  0.3173 -0.2397  0.4438
  441TMC3    C3 6623   0.598   0.547  15.262  0.0693 -0.6341 -0.0466
  441TMC3    C4 6624   0.357   0.555  15.385 -0.2057 -0.2080 -0.0306
  441TMC3    C5 6625   0.473   0.545  15.453  0.2323 -0.0083 -0.2329
  441TMC3    C6 6626   0.597   0.536  15.400  0.4316 -0.7051 -0.2340
  441TMC3     C 6627   0.269   0.634  15.175  0.5064  0.7690 -0.2176
  441TMC3     O 6628   0.319   0.719  15.097 -0.2882  0.6304  0.1708
  441TMC3     H 6629   0.485   0.565  15.077 -0.5507 -0.3647  0.4081
  441TMC3    H1 6630   0.261   0.564  15.436  0.7531 -0.6243  1.8230
  441TMC3    H2 6631   0.683   0.570  15.458 -1.3894  1.2752  1.2986
  441TMC3    C7 6632   0.469   0.584  15.595 -0.6625  0.1292  0.2383
  441TMC3    C8 6633   0.699   0.644  15.218  0.3950  0.0432  0.4150
  441TMC3    O1 6634   0.376   0.657  15.629 -0.2975  0.3004  0.1679
  441TMC3    O2 6635   0.813   0.631  15.259 -1.0554  0.4572  0.5780
  442MPD2     C 6636   3.392   1.444  16.668 -0.2689 -0.0321 -0.4102
  442MPD2    C1 6637   3.261   1.402  16.641 -0.1016  0.1200 -0.0654
  442MPD2    C2 6638   3.246   1.307  16.541  0.4864 -0.4327  0.4858
  442MPD2    C3 6639   3.356   1.249  16.477  0.0773  0.0435  0.5088
  442MPD2    C4 6640   3.481   1.277  16.524  0.5022 -0.4345 -0.0572
  442MPD2    C5 6641   3.501   1.376  16.613 -0.4029  0.1378 -0.0124
  442MPD2     H 6642   3.149   1.286  16.498  0.7556  0.9808 -0.8094
  442MPD2    H1 6643   3.557   1.219  16.473  0.1463 -0.5162 -0.4887
  442MPD2    H2 6644   3.412   1.516  16.747 -2.0137  0.1973 -0.1748
  442MPD2    H3 6645   3.605   1.397  16.638 -0.5420  2.2505 -1.1502
  442MPD2     N 6646   3.355   1.167  16.358  0.0683  0.1958 -0.3261
  442MPD2    H5 6647   3.448   1.139  16.329  0.3389  1.3676 -0.6056
  442MPD2    N1 6648   3.148   1.459  16.693 -0.1176  0.5330 -0.1706
  442MPD2    H7 6649   3.059   1.436  16.652 -0.5243 -0.2005  1.1053
  443TMC3    C1 6650   3.002   1.598  16.814 -0.1130  0.5729  0.2393
  443TMC3    C2 6651   2.940   1.635  16.704  0.4472  0.0370 -0.0254
  443TMC3    C3 6652   2.809   1.605  16.693  0.2742  0.0418  0.1791
  443TMC3    C4 6653   2.944   1.545  16.927 -0.1537 -0.5010 -0.0250
  443TMC3    C5 6654   2.820   1.503  16.900  0.3768 -0.1441  0.4460
  443TMC3    C6 6655   2.749   1.526  16.789  0.4032  0.0215  0.5713
  443TMC3     C 6656   3.139   1.541  16.801 -0.2879 -0.3051 -0.2896
  443TMC3     O 6657   3.224   1.572  16.887 -0.0868 -0.2243 -0.2944
  443TMC3     H 6658   2.999   1.676  16.623 -1.0231  1.2293 -0.4830
  443TMC3    H1 6659   2.998   1.514  17.015 -1.7804 -0.0975  1.1237
  443TMC3    H2 6660   2.647   1.492  16.778 -0.7829  3.3648  1.2630
  443TMC3    C7 6661   2.790   1.375  16.958  0.0241  0.0957 -0.2394
  443TMC3    C8 6662   2.760   1.597  16.556 -0.1641  0.1000  0.8905
  443TMC3    O1 6663   2.726   1.299  16.884  0.4257 -0.0625 -0.4721
  443TMC3    O2 6664   2.844   1.609  16.468  0.1985 -0.1174 -0.0657
  444MPD2     C 6665   3.845   1.054  16.777 -0.0049  0.1036 -0.1584
  444MPD2    C1 6666   3.729   0.977  16.761 -0.6096  0.4264  0.0879
  444MPD2    C2 6667   3.737   0.852  16.703 -0.1017 -0.1484 -0.2815
  444MPD2    C3 6668   3.858   0.804  16.660 -0.0473 -0.5701 -0.1534
  444MPD2    C4 6669   3.974   0.881  16.674 -0.1532  0.7705  0.3382
  444MPD2    C5 6670   3.963   0.999  16.740 -0.2803  0.1638  0.1785
  444MPD2     H 6671   3.649   0.792  16.683  0.2146 -0.9066  0.5965
  444MPD2    H1 6672   4.072   0.852  16.638 -0.6439 -1.4534  0.7840
  444MPD2    H2 6673   3.838   1.157  16.809  1.3673 -0.5068  2.1736
  444MPD2    H3 6674   4.051   1.061  16.752 -1.5066  1.5100  2.3524
  444MPD2     N 6675   3.859   0.683  16.592 -0.7852  0.1267  0.2769
  444MPD2    H5 6676   3.768   0.643  16.572 -0.0988 -1.3296  0.0838
  444MPD2    N1 6677   3.594   1.022  16.792  0.2547 -0.4099  0.7865
  444MPD2    H7 6678   3.527   0.946  16.795 -0.7928  0.4325 -1.5055
  445TMC3    C1 6679   3.955   0.482  16.503 -0.1518  0.4545 -0.1620
  445TMC3    C2 6680   3.855   0.474  16.419  0.3737 -0.0817  0.6889
  445TMC3    C3 6681   3.850   0.354  16.347  0.3948 -0.2063  0.6254
  445TMC3    C4 6682   4.058   0.391  16.514  0.2071  0.0131  0.8422
  445TMC3    C5 6683   4.052   0.277  16.441  0.1530  0.0004 -0.0132
  445TMC3    C6 6684   3.945   0.253  16.362 -0.0938  0.8749 -1.0142
  445TMC3     C 6685   3.973   0.607  16.561  0.3992 -0.4248  0.7234
  445TMC3     O 6686   4.088   0.631  16.591 -0.0898 -0.2829 -0.4434
  445TMC3     H 6687   3.780   0.547  16.392  0.6656 -0.9143 -2.4413
  445TMC3    H1 6688   4.142   0.400  16.582  2.2549  1.0112 -1.8303
  445TMC3    H2 6689   3.953   0.166  16.298 -0.8435 -0.3383  0.5401
  445TMC3    C7 6690   4.159   0.182  16.436  0.6245 -0.0130  0.2885
  445TMC3    C8 6691   3.756   0.348  16.239  0.2086 -0.3514 -0.6258
  445TMC3    O1 6692   4.133   0.071  16.393  0.0066 -0.1567 -0.0733
  445TMC3    O2 6693   3.689   0.449  16.210  0.1025 -0.0667  0.2374
  446MPD2     C 6694   2.905   1.910  11.513  0.0296 -0.7046  0.2419
  446MPD2    C1 6695   2.903   1.912  11.376 -0.1183 -0.2305  0.0490
  446MPD2    C2 6696   3.017   1.944  11.305 -0.0227 -0.2786  0.6976
  446MPD2    C3 6697   3.140   1.969  11.379 -0.5872  0.1518 -0.4779
  446MPD2    C4 6698   3.139   1.959  11.518 -0.8870  0.0898  0.3573
  446MPD2    C5 6699   3.022   1.927  11.581  0.0999 -0.1271  0.4766
  446MPD2     H 6700   3.010   1.937  11.197 -0.2275 -1.4687  0.7916
  446MPD2    H1 6701   3.233   1.963  11.571  0.1001 -0.0982 -1.3677
  446MPD2    H2 6702   2.815   1.902  11.573  0.3165 -0.8043  0.6612
  446MPD2    H3 6703   3.013   1.924  11.689  0.9492 -0.0670  0.5558
  446MPD2     N 6704   3.254   2.001  11.308 -0.3841 -1.0472 -0.3155
  446MPD2    H5 6705   3.245   2.004  11.207 -1.2870 -1.0762 -0.2342
  446MPD2    N1 6706   2.792   1.870  11.300 -0.1162  0.9243  0.1091
  446MPD2    H7 6707   2.797   1.891  11.201  0.5677  0.9568  0.1473
  447TMC3    C1 6708   3.483   1.996  11.237 -0.0718 -0.3871  0.3563
  447TMC3    C2 6709   3.437   2.059  11.126  0.2371  0.8991  0.2003
  447TMC3    C3 6710   3.501   2.032  11.005  0.2075  0.4475  0.2557
  447TMC3    C4 6711   3.575   1.891  11.219  0.2648  1.0682  0.4674
  447TMC3    C5 6712   3.605   1.843  11.097  0.3959  0.3050  0.0294
  447TMC3    C6 6713   3.570   1.915  10.985  0.0020 -0.4465  0.2395
  447TMC3     C 6714   3.389   1.975  11.345  0.0605 -0.3432  0.5586
  447TMC3     O 6715   3.439   1.918  11.441 -0.2881  0.8427  0.0559
  447TMC3     H 6716   3.364   2.139  11.130 -1.9973 -1.1639  0.4404
  447TMC3    H1 6717   3.611   1.842  11.309 -0.2114 -0.3562 -0.1290
  447TMC3    H2 6718   3.612   1.896  10.887 -0.6380 -1.8398  0.2331
  447TMC3    C7 6719   3.720   1.762  11.084  0.0393 -0.7626  0.2186
  447TMC3    C8 6720   3.486   2.133  10.897  0.9271 -0.5512 -0.6134
  447TMC3    O1 6721   3.784   1.781  10.978  0.3036  0.2626  0.0495
  447TMC3    O2 6722   3.499   2.089  10.782 -0.0752  0.1668  0.0897
  448TMC3    C1 6723   2.597   2.190  16.467 -0.7005  0.8173 -0.5708
  448TMC3    C2 6724   2.482   2.111  16.477 -0.4944  0.0695  0.6527
  448TMC3    C3 6725   2.496   1.989  16.543  0.3923  0.4805 -0.9002
  448TMC3    C4 6726   2.716   2.150  16.525  0.0340 -0.3995 -0.1859
  448TMC3    C5 6727   2.723   2.029  16.585 -0.8205  0.3222 -0.6864
  448TMC3    C6 6728   2.616   1.953  16.603 -0.6006  0.4514  0.1372
  448TMC3     C 6729   2.586   2.322  16.413  0.2748  0.2009 -0.0547
  448TMC3     O 6730   2.480   2.345  16.358  0.3686  0.1295 -0.1708
  448TMC3     H 6731   2.384   2.140  16.440 -0.5393  2.3472  2.5114
  448TMC3    H1 6732   2.810   2.201  16.507  1.5058 -3.1478 -0.4236
  448TMC3    H2 6733   2.617   1.857  16.652  2.3929 -0.5144 -1.7635
  448TMC3    C7 6734   2.819   2.001  16.688  0.4994  0.2067 -0.6203
  448TMC3    C8 6735   2.384   1.893  16.551  1.2120 -0.3440  0.3111
  448TMC3    O1 6736   2.935   2.039  16.677 -0.0332  0.3301  0.1802
  448TMC3    O2 6737   2.393   1.804  16.634  0.1018 -0.3720  0.5430
  449MPD2     C 6738   3.402   0.816  13.986  0.6004  0.1159  0.0076
  449MPD2    C1 6739   3.282   0.863  13.924  0.4030  0.0630 -0.1249
  449MPD2    C2 6740   3.161   0.819  13.977  0.8835 -0.2955 -0.5696
  449MPD2    C3 6741   3.154   0.723  14.074 -0.6005  0.1089  0.3631
  449MPD2    C4 6742   3.273   0.688  14.137 -1.0617  0.6816  0.9836
  449MPD2    C5 6743   3.395   0.736  14.096  0.1760  0.3570  0.2918
  449MPD2     H 6744   3.067   0.855  13.937  1.2209 -0.2354 -1.3010
  449MPD2    H1 6745   3.283   0.615  14.216  0.4225  1.0664  1.1600
  449MPD2    H2 6746   3.500   0.850  13.955  0.9105  0.3046  1.1885
  449MPD2    H3 6747   3.480   0.713  14.159  0.3396 -1.1406 -0.4842
  449MPD2     N 6748   3.028   0.685  14.126  0.0137  0.0150  0.4879
  449MPD2    H5 6749   2.945   0.741  14.107  2.2825  2.9777 -0.7395
  449MPD2    N1 6750   3.274   0.964  13.822  0.0183 -0.1603 -0.3830
  449MPD2    H7 6751   3.182   0.987  13.787 -0.4545  0.1588  1.0511
  450TMC3    C1 6752   3.323   1.109  13.651 -0.2477 -0.3627  0.2792
  450TMC3    C2 6753   3.358   1.071  13.523 -0.2751  0.1972  0.0953
  450TMC3    C3 6754   3.261   1.052  13.422  0.0497  0.5098  0.1559
  450TMC3    C4 6755   3.196   1.151  13.673  0.0747  0.0596 -0.2288
  450TMC3    C5 6756   3.102   1.121  13.581  0.1144 -0.3945 -0.1795
  450TMC3    C6 6757   3.132   1.082  13.457 -0.5801 -0.8020 -1.1051
  450TMC3     C 6758   3.375   1.024  13.757  0.2775 -0.2675  0.0158
  450TMC3     O 6759   3.492   0.984  13.757 -0.0629 -0.6775  0.3859
  450TMC3     H 6760   3.464   1.054  13.505 -0.4337 -0.8207  0.0965
  450TMC3    H1 6761   3.166   1.205  13.762 -0.0285  0.7702 -0.6929
  450TMC3    H2 6762   3.054   1.046  13.391 -0.0381 -2.2126 -0.9784
  450TMC3    C7 6763   2.990   1.048  13.642  0.5326  0.1678 -0.1337
  450TMC3    C8 6764   3.308   1.037  13.283 -0.2169  0.2752  0.1947
  450TMC3    O1 6765   3.013   1.007  13.755 -0.0532 -0.5759 -0.0884
  450TMC3    O2 6766   3.407   0.971  13.259 -0.3182  0.8990  0.4508
  451MPD2     C 6767   0.368   3.859   1.387 -0.1466  0.3405 -0.0545
  451MPD2    C1 6768   0.413   3.922   1.275  0.1418  1.1631 -0.1280
  451MPD2    C2 6769   0.514   3.872   1.203  0.0715  0.0169 -0.0008
  451MPD2    C3 6770   0.571   3.748   1.237 -0.1188  0.3809  0.0310
  451MPD2    C4 6771   0.532   3.687   1.354  0.3287 -0.3222  0.0847
  451MPD2    C5 6772   0.432   3.748   1.423  0.7328  0.0563 -0.2498
  451MPD2     H 6773   0.546   3.920   1.111 -1.8081 -0.6458 -0.9863
  451MPD2    H1 6774   0.589   3.604   1.394 -1.2197 -0.9922  0.9227
  451MPD2    H2 6775   0.279   3.887   1.441 -1.4404 -1.8232 -1.1001
  451MPD2    H3 6776   0.392   3.691   1.506  1.6802 -0.3296 -0.0525
  451MPD2     N 6777   0.671   3.686   1.153 -0.7113  1.2285 -0.1969
  451MPD2    H5 6778   0.688   3.586   1.157 -0.3985  1.1747 -3.3738
  451MPD2    N1 6779   0.358   4.048   1.253 -0.0764 -0.2877 -0.5163
  451MPD2    H7 6780   0.287   4.068   1.323  1.5665  0.7342  0.8429
  452TMC3    C1 6781   0.779   3.643   0.954  0.8609 -0.4601  0.2369
  452TMC3    C2 6782   0.694   3.536   0.926 -0.1927 -0.0129 -0.2126
  452TMC3    C3 6783   0.719   3.462   0.811 -0.4035 -0.3235  0.0166
  452TMC3    C4 6784   0.885   3.673   0.868  0.0967  0.1528  0.1487
  452TMC3    C5 6785   0.919   3.585   0.761 -0.2798 -0.0731  0.1470
  452TMC3    C6 6786   0.832   3.484   0.725  0.0745  0.3996  0.8396
  452TMC3     C 6787   0.734   3.744   1.049 -0.6980  0.5660 -0.3080
  452TMC3     O 6788   0.762   3.863   1.036  0.5837 -0.7153 -0.5673
  452TMC3     H 6789   0.608   3.520   0.989  1.4480  1.2348  2.3536
  452TMC3    H1 6790   0.926   3.774   0.869 -0.4910  0.3967 -0.3289
  452TMC3    H2 6791   0.846   3.425   0.636 -1.0416  2.1831 -0.5155
  452TMC3    C7 6792   1.015   3.638   0.664  0.3047  0.5073 -0.1331
  452TMC3    C8 6793   0.628   3.357   0.766 -0.2892  0.2641  0.6652
  452TMC3    O1 6794   1.020   3.761   0.667  0.8784 -0.4709  0.2896
  452TMC3    O2 6795   0.663   3.289   0.670  0.1688 -0.1769  0.4236
  453TMC3    C1 6796   0.995   1.018  11.860  0.4972  0.5175 -0.9483
  453TMC3    C2 6797   0.896   0.925  11.840 -0.3288  0.2933 -0.2559
  453TMC3    C3 6798   0.810   0.942  11.735 -0.0417  0.7731  0.1625
  453TMC3    C4 6799   1.007   1.125  11.778  0.4066 -0.1516 -0.5822
  453TMC3    C5 6800   0.902   1.154  11.691  0.0301 -0.1724 -0.4085
  453TMC3    C6 6801   0.801   1.062  11.659  0.1219  0.2266  0.1566
  453TMC3     C 6802   1.035   1.035  11.998 -0.2343 -0.4808  0.3375
  453TMC3     O 6803   1.035   1.152  12.030  0.5557 -0.2162 -0.5371
  453TMC3     H 6804   0.885   0.842  11.908  1.1607 -0.9039 -1.4866
  453TMC3    H1 6805   1.092   1.188  11.803 -0.4067 -0.6589  3.4791
  453TMC3    H2 6806   0.723   1.068  11.584  1.2089 -1.3668 -1.1150
  453TMC3    C7 6807   0.942   1.254  11.591  0.5421  0.0761  0.3069
  453TMC3    C8 6808   0.701   0.848  11.720 -0.5878 -0.7757 -0.1660
  453TMC3    O1 6809   0.879   1.266  11.488 -0.3413  0.5446  0.1780
  453TMC3    O2 6810   0.596   0.886  11.676  0.1173 -0.2020  0.2547
  454MPD2     C 6811   4.558   0.637  16.258 -0.5390 -0.0615  0.3212
  454MPD2    C1 6812   4.497   0.740  16.190  0.3250 -0.2655  0.0803
  454MPD2    C2 6813   4.490   0.863  16.257  0.4538 -0.4510 -0.6017
  454MPD2    C3 6814   4.516   0.868  16.396 -0.3029  1.0759 -0.5767
  454MPD2    C4 6815   4.573   0.759  16.460 -0.1680  0.1481 -0.2509
  454MPD2    C5 6816   4.599   0.644  16.388 -0.4571  0.0166 -0.2711
  454MPD2     H 6817   4.439   0.942  16.203 -1.1788 -0.8310  0.3927
  454MPD2    H1 6818   4.590   0.763  16.567 -0.0564  0.7799 -0.2889
  454MPD2    H2 6819   4.584   0.550  16.199  1.0541 -0.6439  1.8997
  454MPD2    H3 6820   4.658   0.566  16.436 -1.0117 -0.5413 -0.5036
  454MPD2     N 6821   4.475   0.978  16.482  0.0205 -0.2934 -0.0573
  454MPD2    H5 6822   4.536   1.009  16.557 -1.0806 -1.5091  1.3273
  454MPD2    N1 6823   4.456   0.735  16.057 -0.3194 -0.4719 -0.0582
  454MPD2    H7 6824   4.416   0.819  16.016 -0.5434  0.6562  2.4333
  455TMC3    C1 6825   4.262   1.033  16.389  0.9472 -0.6808 -0.2924
  455TMC3    C2 6826   4.200   1.142  16.336 -0.2560 -1.0413 -0.1917
  455TMC3    C3 6827   4.074   1.127  16.291  0.0734  0.2806  0.6794
  455TMC3    C4 6828   4.205   0.909  16.401  0.1655  0.6731  0.4841
  455TMC3    C5 6829   4.084   0.890  16.337 -0.1645 -0.6516 -0.2538
  455TMC3    C6 6830   4.016   1.001  16.283 -0.3680  0.3426  0.3019
  455TMC3     C 6831   4.385   1.077  16.448  1.2581 -0.5973  0.2923
  455TMC3     O 6832   4.381   1.189  16.497  0.3489  1.0472 -0.1425
  455TMC3     H 6833   4.252   1.236  16.325 -0.4340 -0.7685  1.2599
  455TMC3    H1 6834   4.255   0.834  16.461 -0.2663 -0.9899 -1.2024
  455TMC3    H2 6835   3.920   0.988  16.235  0.8350 -2.1696 -1.4588
  455TMC3    C7 6836   4.048   0.766  16.271  0.9182  0.0116  0.6630
  455TMC3    C8 6837   3.996   1.226  16.360 -0.4033 -0.5222 -0.3272
  455TMC3    O1 6838   3.935   0.765  16.226 -0.4652 -0.4688  0.0621
  455TMC3    O2 6839   3.895   1.247  16.296  0.3238 -0.1378 -0.1434
  456MPD2     C 6840   2.018   0.834  15.747 -0.5514 -0.1375 -0.2942
  456MPD2    C1 6841   2.106   0.768  15.829 -0.1940  0.5501  0.1681
  456MPD2    C2 6842   2.134   0.818  15.959  0.2459  0.0148 -0.1603
  456MPD2    C3 6843   2.067   0.933  16.004  0.2931  0.2034 -0.0188
  456MPD2    C4 6844   1.965   0.986  15.926  0.0198  0.3835 -0.0534
  456MPD2    C5 6845   1.944   0.943  15.797  0.2934 -0.1941 -0.0478
  456MPD2     H 6846   2.215   0.791  16.026  0.0967  0.8841  0.3631
  456MPD2    H1 6847   1.892   1.062  15.953 -2.1390 -1.2941 -1.1551
  456MPD2    H2 6848   1.995   0.813  15.643 -1.0686 -1.7195  0.1462
  456MPD2    H3 6849   1.867   0.987  15.735  1.0972 -1.0830 -1.7054
  456MPD2     N 6850   2.104   0.988  16.130  0.5478 -0.8361 -0.2518
  456MPD2    H5 6851   2.197   0.961  16.161 -0.0231 -0.6986  1.5731
  456MPD2    N1 6852   2.175   0.662  15.760 -0.4745 -0.4365 -0.2092
  456MPD2    H7 6853   2.165   0.662  15.659 -2.1315 -0.7281 -0.0436
  457TMC3    C1 6854   2.103   1.135  16.320  0.2385  0.5448  0.0608
  457TMC3    C2 6855   2.096   1.267  16.351  0.0890  0.5950 -0.0094
  457TMC3    C3 6856   2.126   1.297  16.479 -0.4018  0.0027  0.2755
  457TMC3    C4 6857   2.157   1.042  16.406 -0.1646 -1.1396 -0.4094
  457TMC3    C5 6858   2.194   1.081  16.527 -0.0252  0.5751 -0.1153
  457TMC3    C6 6859   2.180   1.211  16.570  0.0236  0.6842  0.2710
  457TMC3     C 6860   2.046   1.095  16.190  0.6392 -0.1703 -0.2736
  457TMC3     O 6861   1.939   1.141  16.155  0.1634 -0.4730  0.3392
  457TMC3     H 6862   2.052   1.331  16.274 -3.4182 -1.4006  0.3619
  457TMC3    H1 6863   2.158   0.936  16.382 -0.5237 -0.7507 -2.1496
  457TMC3    H2 6864   2.217   1.246  16.666 -2.9641  2.1223  0.9112
  457TMC3    C7 6865   2.265   0.992  16.612 -0.4522 -0.2825 -0.0970
  457TMC3    C8 6866   2.094   1.435  16.527  0.8252 -0.8565  0.1354
  457TMC3    O1 6867   2.294   1.027  16.728 -0.3476  0.2316  0.0885
  457TMC3    O2 6868   2.148   1.476  16.629 -0.3308  0.2388  0.1947
  458MPD2     C 6869   4.583   0.157  12.340 -0.1809  0.0111  0.1528
  458MPD2    C1 6870   4.548   0.124  12.471 -0.3161  0.7072 -0.3756
  458MPD2    C2 6871   4.419   0.101  12.501  0.9304  0.5506  0.1160
  458MPD2    C3 6872   4.327   0.110  12.393  0.2934 -0.0245 -0.6747
  458MPD2    C4 6873   4.367   0.139  12.260 -0.6014  0.7974  0.1489
  458MPD2    C5 6874   4.493   0.166  12.239  0.7665  0.1394  0.2560
  458MPD2     H 6875   4.380   0.089  12.601  1.1895 -1.9877 -0.0907
  458MPD2    H1 6876   4.301   0.144  12.174 -1.5511  1.5303  0.9126
  458MPD2    H2 6877   4.685   0.187  12.319  0.2314 -0.6466  1.2444
  458MPD2    H3 6878   4.515   0.199  12.138  0.5403  1.1311  0.5329
  458MPD2     N 6879   4.191   0.094  12.432  0.0367  0.5243  0.3001
  458MPD2    H5 6880   4.187   0.088  12.534 -0.4941 -1.2297  0.1695
  458MPD2    N1 6881   4.651   0.113  12.562  0.1194 -0.4139 -0.2421
  458MPD2    H7 6882   0.008   0.147  12.538  0.5051 -1.4690 -0.2485
  459TMC3    C1 6883   0.037   0.053  12.749  0.4431  0.0805 -0.3825
  459TMC3    C2 6884   0.124   0.163  12.738  0.6873 -0.3345  0.1113
  459TMC3    C3 6885   0.218   0.187  12.833 -0.0953  0.4815  0.7307
  459TMC3    C4 6886   0.039   4.710  12.863 -0.3489  0.0937 -0.0606
  459TMC3    C5 6887   0.131   0.007  12.959  0.5589 -0.0492  0.3165
  459TMC3    C6 6888   0.223   0.109  12.940  0.1528 -0.8302 -0.0855
  459TMC3     C 6889   4.641   0.044  12.679 -0.3185 -0.7398  0.0458
  459TMC3     O 6890   4.556   4.699  12.713  0.2044 -0.0021  0.5622
  459TMC3     H 6891   0.120   0.210  12.641 -1.9381 -1.6184 -0.4141
  459TMC3    H1 6892   4.697   4.636  12.884  0.4703 -0.5535  0.6585
  459TMC3    H2 6893   0.299   0.133  13.013 -0.7981  0.4039  0.4813
  459TMC3    C7 6894   0.136   4.672  13.083 -0.6050 -0.3501 -0.2716
  459TMC3    C8 6895   0.331   0.270  12.804 -0.4908  0.1505  0.2435
  459TMC3    O1 6896   0.107   4.552  13.080 -0.0254 -0.4595 -0.6536
  459TMC3    O2 6897   0.402   0.301  12.899  0.2207 -0.1335  0.0588
  460MPD2     C 6898   3.449   2.489  10.956  0.5508 -0.3344  0.5358
  460MPD2    C1 6899   3.438   2.374  10.882  0.4596 -0.1800 -0.3515
  460MPD2    C2 6900   3.383   2.379  10.757  0.3533  0.2917 -0.5484
  460MPD2    C3 6901   3.349   2.496  10.695  0.2647 -0.1101  0.5723
  460MPD2    C4 6902   3.375   2.615  10.762 -0.1833 -0.1003  0.5071
  460MPD2    C5 6903   3.411   2.607  10.893  0.0678 -0.5596 -0.3721
  460MPD2     H 6904   3.377   2.284  10.705 -0.1966  1.0974 -1.9503
  460MPD2    H1 6905   3.362   2.716  10.725 -0.6354 -0.8127 -1.2690
  460MPD2    H2 6906   3.489   2.492  11.057  1.7570 -0.5537  0.0630
  460MPD2    H3 6907   3.429   2.703  10.940  0.1777 -0.4516 -0.6346
  460MPD2     N 6908   3.289   2.485  10.569 -0.1569 -0.2141  0.6927
  460MPD2    H5 6909   3.262   2.398  10.524  1.5496 -0.0776 -0.5794
  460MPD2    N1 6910   3.479   2.257  10.947  0.2323 -0.1314  1.0756
  460MPD2    H7 6911   3.513   2.268  11.042  0.8910  1.3852  0.6551
  461TMC3    C1 6912   3.172   2.577  10.384  0.0135 -0.2454 -0.0425
  461TMC3    C2 6913   3.164   2.454  10.324  0.2347 -0.3861  1.0596
  461TMC3    C3 6914   3.064   2.441  10.233 -0.1619 -0.9281 -0.8582
  461TMC3    C4 6915   3.098   2.687  10.350  0.2307 -0.5390  0.0659
  461TMC3    C5 6916   3.002   2.669  10.251  0.7292  0.0317  0.3257
  461TMC3    C6 6917   2.978   2.545  10.202 -0.2920 -0.2683  0.7505
  461TMC3     C 6918   3.269   2.598  10.492  0.2298  0.1237 -0.0387
  461TMC3     O 6919   3.309   2.712  10.508 -0.0545  0.1615 -0.2394
  461TMC3     H 6920   3.229   2.373  10.355 -1.7161 -1.7725  1.5142
  461TMC3    H1 6921   3.117   2.783  10.397  3.8687 -0.8900 -0.7101
  461TMC3    H2 6922   2.899   2.528  10.130  0.3729 -0.4084  0.0663
  461TMC3    C7 6923   2.985   2.783  10.157  0.1760  0.2632 -0.4437
  461TMC3    C8 6924   3.079   2.331  10.133  0.1280  1.3723  0.0591
  461TMC3    O1 6925   2.909   2.769  10.062  0.2012  0.4396  0.1224
  461TMC3    O2 6926   3.193   2.283  10.121  0.6830 -0.4489 -0.0277
  462TMC3    C1 6927   4.391   3.884   0.544 -0.0599 -0.4707 -0.9587
  462TMC3    C2 6928   4.508   3.852   0.495 -0.1439  0.2059 -0.3545
  462TMC3    C3 6929   4.512   3.793   0.373  0.3250  0.7513  0.1749
  462TMC3    C4 6930   4.276   3.875   0.472 -0.8725  0.4807  0.0100
  462TMC3    C5 6931   4.280   3.832   0.343 -0.1504 -0.1683 -0.4775
  462TMC3    C6 6932   4.400   3.792   0.290 -0.1186  0.6498 -0.1493
  462TMC3     C 6933   4.391   3.924   0.685 -0.3498  0.5539  0.5662
  462TMC3     O 6934   4.493   3.899   0.745 -0.0064  0.3667  0.1520
  462TMC3     H 6935   4.586   3.824   0.565  1.3541  2.7044 -0.9889
  462TMC3    H1 6936   4.181   3.909   0.512 -1.0737 -0.8687  0.6671
  462TMC3    H2 6937   4.398   3.732   0.201 -0.2233 -2.4242  1.9356
  462TMC3    C7 6938   4.155   3.817   0.265  0.1668  0.2721 -0.2839
  462TMC3    C8 6939   4.637   3.725   0.336  0.0508 -0.6095 -0.5764
  462TMC3    O1 6940   4.052   3.821   0.325 -0.0918 -0.0439  0.0033
  462TMC3    O2 6941   0.000   3.752   0.410 -0.3879 -0.5767  0.1475
  463MPD2     C 6942   1.363   2.322   1.195  0.0715  0.8872  0.1834
  463MPD2    C1 6943   1.229   2.362   1.227  0.5923 -0.3848  0.5955
  463MPD2    C2 6944   1.212   2.469   1.306 -0.4940  0.3726 -0.0781
  463MPD2    C3 6945   1.321   2.541   1.357 -0.1025  0.0351  0.2108
  463MPD2    C4 6946   1.447   2.494   1.344  0.4126 -0.1280 -0.4887
  463MPD2    C5 6947   1.466   2.387   1.263 -0.1364 -0.6600  0.2686
  463MPD2     H 6948   1.111   2.506   1.303 -1.1952 -1.3474  2.6771
  463MPD2    H1 6949   1.522   2.554   1.394 -1.0483  1.1777  0.1331
  463MPD2    H2 6950   1.384   2.231   1.139 -1.8242  1.7363 -1.8879
  463MPD2    H3 6951   1.564   2.341   1.257  0.4764  0.6164  0.6940
  463MPD2     N 6952   1.307   2.661   1.431 -0.1408 -0.6521  0.1566
  463MPD2    H5 6953   1.391   2.713   1.454 -0.0794 -0.9410  0.5834
  463MPD2    N1 6954   1.113   2.303   1.182 -0.8600 -1.0950  0.5979
  463MPD2    H7 6955   1.030   2.349   1.219 -1.4567  0.9753 -3.3095
  464TMC3    C1 6956   0.968   2.180   1.064 -0.0117 -0.2202  0.4282
  464TMC3    C2 6957   0.873   2.269   1.090  0.1611 -0.1442  0.9296
  464TMC3    C3 6958   0.740   2.225   1.110 -0.7066  0.6787  0.3000
  464TMC3    C4 6959   0.934   2.045   1.056 -0.1163 -0.1676  0.4803
  464TMC3    C5 6960   0.800   2.004   1.056 -0.8432  0.0063 -0.9545
  464TMC3    C6 6961   0.704   2.097   1.098 -0.7031  0.6156  0.1282
  464TMC3     C 6962   1.108   2.198   1.097 -0.3478 -0.2395  0.0494
  464TMC3     O 6963   1.201   2.123   1.063  0.2104  0.3754  0.7402
  464TMC3     H 6964   0.889   2.376   1.097 -0.0149 -0.0336 -0.4725
  464TMC3    H1 6965   1.008   1.977   1.015  1.3642  1.2069  0.8772
  464TMC3    H2 6966   0.609   2.057   1.133 -0.7118  2.1672  1.9171
  464TMC3    C7 6967   0.769   1.867   1.047  0.7500  0.4953  0.1203
  464TMC3    C8 6968   0.640   2.305   1.179  0.2868 -0.6316 -0.1313
  464TMC3    O1 6969   0.863   1.787   1.040  0.1641  0.3796  0.2649
  464TMC3    O2 6970   0.524   2.288   1.140  0.0517 -0.0598  0.0730
  465MPD2     C 6971   1.431   0.557  16.975  0.0901  0.4459  0.1568
  465MPD2    C1 6972   1.356   0.635  17.066 -0.3303 -0.4613  0.0364
  465MPD2    C2 6973   1.244   0.698  17.026 -0.6831 -0.7235  0.0934
  465MPD2    C3 6974   1.203   0.702  16.895  1.1406 -0.4504 -1.4789
  465MPD2    C4 6975   1.288   0.634  16.805 -0.2645  0.4178  0.0849
  465MPD2    C5 6976   1.395   0.562  16.848  0.2157  0.7093 -0.4282
  465MPD2     H 6977   1.189   0.760  17.097 -0.9237 -3.1679  2.0340
  465MPD2    H1 6978   1.270   0.623  16.699  0.5264  3.0272 -0.3293
  465MPD2    H2 6979   1.522   0.502  16.998 -0.5964 -0.8428 -0.1784
  465MPD2    H3 6980   1.450   0.507  16.772  0.1240  2.0034 -1.4223
  465MPD2     N 6981   1.082   0.761  16.850 -0.4228 -0.2914  0.1704
  465MPD2    H5 6982   1.011   0.780  16.920 -0.7238  3.0711 -1.0607
  465MPD2    N1 6983   1.397   0.663  17.201  0.0590  0.5916 -0.0112
  465MPD2    H7 6984   1.347   0.737  17.249 -2.8668 -0.4329 -1.4808
  466TMC3    C1 6985   0.754   0.917  16.861 -0.0821  0.5720 -0.2343
  466TMC3    C2 6986   0.762   1.043  16.808  0.6650 -0.2744 -0.2601
  466TMC3    C3 6987   0.830   1.056  16.688 -0.5545  0.4403 -0.4373
  466TMC3    C4 6988   0.834   0.812  16.820  1.0055 -0.6779  0.1034
  466TMC3    C5 6989   0.911   0.826  16.703 -0.3244 -0.4284 -0.4137
  466TMC3    C6 6990   0.899   0.949  16.634 -0.2372  0.0605 -0.3145
  466TMC3     C 6991   0.708   0.906  16.995 -0.0932  0.0543 -0.1188
  466TMC3     O 6992   0.771   0.827  17.065  0.0586 -0.0759  0.0357
  466TMC3     H 6993   0.701   1.128  16.834  0.4358 -1.3507  2.6771
  466TMC3    H1 6994   0.830   0.711  16.860  0.2239 -0.5331  0.3873
  466TMC3    H2 6995   0.967   0.958  16.550 -0.0114 -1.2457 -0.2672
  466TMC3    C7 6996   1.048   0.786  16.722 -0.4872  0.6790  0.1436
  466TMC3    C8 6997   0.837   1.181  16.609 -0.5691 -0.3764  0.4214
  466TMC3    O1 6998   1.116   0.803  16.620  0.4420  0.0055 -0.0257
  466TMC3    O2 6999   0.865   1.173  16.489 -0.2365 -0.8203  0.7170
  467TMC3    C1 7000   1.780   4.374  13.548  0.3653  0.8084 -0.5196
  467TMC3    C2 7001   1.720   4.497  13.523  0.4085 -0.3223 -0.2421
  467TMC3    C3 7002   1.605   4.518  13.595  0.2638 -0.5074 -0.6938
  467TMC3    C4 7003   1.734   4.284  13.641 -0.3238 -0.4901  0.2629
  467TMC3    C5 7004   1.629   4.321  13.723  0.2926 -0.1058  0.8688
  467TMC3    C6 7005   1.569   4.443  13.700  0.5566 -0.1443  0.1958
  467TMC3     C 7006   1.905   4.338  13.480  0.5428  0.2313 -0.1540
  467TMC3     O 7007   1.978   4.256  13.532 -0.0597  0.2684  0.1637
  467TMC3     H 7008   1.753   4.574  13.454 -0.4568  1.1729  1.0358
  467TMC3    H1 7009   1.779   4.186  13.652  0.5648 -0.2871 -1.5722
  467TMC3    H2 7010   1.473   4.465  13.745  1.5309  0.7629  1.8293
  467TMC3    C7 7011   1.548   4.223  13.795 -0.7418 -0.0591 -0.6402
  467TMC3    C8 7012   1.502   4.583  13.525 -0.1277  0.4825 -0.6541
  467TMC3    O1 7013   1.596   4.108  13.799  0.1594 -0.2905  0.2847
  467TMC3    O2 7014   1.400   4.515  13.517  0.0783  0.9925 -0.2984
  468MPD2     C 7015   0.763   2.212  10.339 -0.6057  0.4247 -0.4339
  468MPD2    C1 7016   0.861   2.115  10.360  0.1684  0.3378  0.4768
  468MPD2    C2 7017   0.824   1.985  10.336  0.3635  0.4109  0.1479
  468MPD2    C3 7018   0.695   1.944  10.314 -0.8592 -0.0099  0.0349
  468MPD2    C4 7019   0.597   2.042  10.290  0.3475  0.1219  0.9545
  468MPD2    C5 7020   0.632   2.176  10.311 -0.6557  0.6362 -0.2455
  468MPD2     H 7021   0.893   1.903  10.349  0.6917  0.6184 -0.2875
  468MPD2    H1 7022   0.494   2.021  10.263  0.7145 -0.4717 -0.0101
  468MPD2    H2 7023   0.786   2.317  10.354  2.4035 -0.0323 -1.6782
  468MPD2    H3 7024   0.565   2.260  10.300 -2.3022 -0.4262  1.5548
  468MPD2     N 7025   0.656   1.807  10.296 -0.2005  0.3299  0.5282
  468MPD2    H5 7026   0.558   1.793  10.274  0.6553 -3.3482 -0.8410
  468MPD2    N1 7027   0.999   2.138  10.394 -0.3328  0.3013  0.5536
  468MPD2    H7 7028   1.056   2.055  10.402  0.0846  0.7512  2.2319
  469TMC3    C1 7029   1.169   2.251  10.515  0.6271  0.4548  0.0983
  469TMC3    C2 7030   1.196   2.134  10.593  0.0629 -0.6925 -0.3260
  469TMC3    C3 7031   1.295   2.147  10.689 -0.0374 -0.1454  0.1092
  469TMC3    C4 7032   1.242   2.368  10.528  0.8757 -0.3245  0.9220
  469TMC3    C5 7033   1.327   2.378  10.634  0.3800  0.7940 -0.7581
  469TMC3    C6 7034   1.363   2.265  10.711 -0.4076  0.6335  0.0070
  469TMC3     C 7035   1.047   2.255  10.433  0.5564  0.0885 -0.2289
  469TMC3     O 7036   1.003   2.365  10.403  0.0010  0.2441  0.0410
  469TMC3     H 7037   1.139   2.043  10.581  2.4989 -2.2870  0.1358
  469TMC3    H1 7038   1.215   2.458  10.473  1.6397  0.9042  2.5726
  469TMC3    H2 7039   1.436   2.287  10.788  2.4023  0.4649 -2.6133
  469TMC3    C7 7040   1.369   2.508  10.682 -0.3423  0.3149  0.3600
  469TMC3    C8 7041   1.341   2.025  10.748  0.1135 -0.2445  0.2591
  469TMC3    O1 7042   1.354   2.605  10.607 -0.1665  0.6458  0.0678
  469TMC3    O2 7043   1.314   1.925  10.685 -0.0300 -0.0896 -0.4001
  470TMC3    C1 7044   3.525   3.852   0.431 -0.0630  1.0130  0.8380
  470TMC3    C2 7045   3.591   3.957   0.489  0.4432  0.3817  0.6535
  470TMC3    C3 7046   3.726   3.938   0.512 -0.0850  0.1887  0.0258
  470TMC3    C4 7047   3.597   3.736   0.396  0.0718  0.0538  0.8077
  470TMC3    C5 7048   3.731   3.731   0.410  0.5367 -0.5217  0.0369
  470TMC3    C6 7049   3.796   3.826   0.483  0.0638  0.0380 -0.4546
  470TMC3     C 7050   3.385   3.864   0.406 -1.2632  0.3880  0.3592
  470TMC3     O 7051   3.321   3.785   0.332  0.6599  0.0585  0.2182
  470TMC3     H 7052   3.543   4.051   0.514  0.4940  0.9215 -1.2611
  470TMC3    H1 7053   3.536   3.653   0.361  0.4745 -0.5842  1.5895
  470TMC3    H2 7054   3.901   3.817   0.510 -0.1242  0.4435  0.4004
  470TMC3    C7 7055   3.791   3.602   0.377  0.7352 -0.3086 -0.6888
  470TMC3    C8 7056   3.801   4.046   0.571 -0.1592 -0.0431  0.2132
  470TMC3    O1 7057   3.736   3.542   0.287  0.1732 -0.4642 -0.1177
  470TMC3    O2 7058   3.737   4.101   0.661 -0.2964  0.4011  0.3610
  471MPD2     C 7059   4.139   0.227  17.514 -0.2177 -0.2570 -0.3800
  471MPD2    C1 7060   4.203   0.122  17.454  0.2077 -0.4257  0.7008
  471MPD2    C2 7061   4.274   0.035  17.542  0.2076  0.3409  0.3666
  471MPD2    C3 7062   4.296   0.068  17.676 -0.2642 -0.1208 -0.1989
  471MPD2    C4 7063   4.227   0.178  17.727 -0.0104 -0.2472 -0.1424
  471MPD2    C5 7064   4.148   0.258  17.651  0.2802 -0.5964 -0.0552
  471MPD2     H 7065   4.330   4.685  17.504 -1.6889 -0.0203 -1.5931
  471MPD2    H1 7066   4.228   0.195   0.095  3.5788 -1.2267 -0.0208
  471MPD2    H2 7067   4.059   0.287  17.472 -0.1085 -1.0090 -1.6537
  471MPD2    H3 7068   4.098   0.344  17.692  0.4726  0.2372 -1.5559
  471MPD2     N 7069   4.371   4.715   0.026  0.3660 -0.0608  0.3652
  471MPD2    H5 7070   4.352   4.722   0.126  0.0183 -0.9459  0.3551
  471MPD2    N1 7071   4.194   0.082  17.318 -0.2341 -0.1662  0.2877
  471MPD2    H7 7072   4.223   4.723  17.293  2.6457  0.1368  2.5410
  472TMC3    C1 7073   4.114   0.101  17.092 -0.7120  0.1760 -1.2007
  472TMC3    C2 7074   4.092   0.188  16.984 -0.3106 -0.1320 -0.2130
  472TMC3    C3 7075   4.081   0.139  16.859 -0.0710 -0.0851 -0.1111
  472TMC3    C4 7076   4.121   4.700  17.078 -0.3692  0.0009  0.2911
  472TMC3    C5 7077   4.114   4.653  16.943 -0.0716  0.2017 -0.3712
  472TMC3    C6 7078   4.100   0.004  16.836  0.6369  0.2080  0.1227
  472TMC3     C 7079   4.159   0.168  17.215 -0.2463 -0.7091  0.0474
  472TMC3     O 7080   4.136   0.291  17.221 -0.5316  0.1040 -0.1519
  472TMC3     H 7081   4.085   0.295  16.999 -1.0941 -0.4156  1.4584
  472TMC3    H1 7082   4.138   4.636  17.164  1.6959 -0.2019 -0.2637
  472TMC3    H2 7083   4.107   4.703  16.734  0.5248  0.9360 -0.1381
  472TMC3    C7 7084   4.041   4.528  16.928  0.6651 -0.0742  0.5080
  472TMC3    C8 7085   3.971   0.195  16.781  0.8919  0.2476 -0.0870
  472TMC3    O1 7086   3.990   4.490  17.034  0.0069 -0.9585  0.3486
  472TMC3    O2 7087   3.954   0.320  16.781  0.1491 -0.1094  0.4606
  473MPD2     C 7088   3.532   1.814  13.890  0.5373  0.5618 -0.3873
  473MPD2    C1 7089   3.597   1.916  13.817  0.4782  0.2007 -0.6066
  473MPD2    C2 7090   3.681   2.008  13.891  0.6084 -0.3390 -0.6473
  473MPD2    C3 7091   3.684   2.006  14.027  0.2086  0.3293  0.0101
  473MPD2    C4 7092   3.613   1.914  14.097  0.3778  0.4144 -0.1685
  473MPD2    C5 7093   3.536   1.820  14.030 -0.3764  0.7375  0.2096
  473MPD2     H 7094   3.741   2.086  13.847 -0.3322 -0.6858 -2.5437
  473MPD2    H1 7095   3.602   1.924  14.204 -0.6472  0.5098 -0.2867
  473MPD2    H2 7096   3.475   1.741  13.835 -1.7770  1.4700  0.8337
  473MPD2    H3 7097   3.479   1.753  14.095 -0.5530  0.1714 -0.5330
  473MPD2     N 7098   3.750   2.103  14.099  0.0983  0.6715  0.3011
  473MPD2    H5 7099   3.725   2.094  14.197 -2.0740 -1.1432 -0.4421
  473MPD2    N1 7100   3.591   1.920  13.676  0.6266 -0.3882  0.1533
  473MPD2    H7 7101   3.648   1.996  13.641  1.4665 -2.0608 -2.1009
  474TMC3    C1 7102   3.872   2.300  14.161 -0.5850 -0.5486  0.7054
  474TMC3    C2 7103   3.772   2.358  14.237 -0.1710  0.2582 -0.4405
  474TMC3    C3 7104   3.788   2.483  14.295  0.7187  0.3247 -0.7765
  474TMC3    C4 7105   3.987   2.366  14.139 -0.4074  0.3207  0.3201
  474TMC3    C5 7106   4.007   2.478  14.210 -0.3609  0.0138  0.1394
  474TMC3    C6 7107   3.920   2.527  14.298 -0.3802 -0.4984  0.9228
  474TMC3     C 7108   3.845   2.192  14.065 -0.2029 -1.2282 -0.3871
  474TMC3     O 7109   3.917   2.201  13.965 -0.3108 -0.3691  0.3323
  474TMC3     H 7110   3.672   2.316  14.233 -0.1422  0.1245  0.1622
  474TMC3    H1 7111   4.067   2.315  14.086 -1.1468 -0.1414 -0.3407
  474TMC3    H2 7112   3.952   2.617  14.349  0.1040 -0.1137 -0.0529
  474TMC3    C7 7113   4.145   2.498  14.250 -0.5831 -0.8422  0.3268
  474TMC3    C8 7114   3.676   2.572  14.313 -0.3558 -0.0929  0.2439
  474TMC3    O1 7115   4.234   2.487  14.167 -0.2061 -0.3093  0.2631
  474TMC3    O2 7116   3.570   2.519  14.289  0.0399 -0.3252  0.0269
  475MPD2     C 7117   1.818   4.548  10.134  0.1531 -0.6828  0.2142
  475MPD2    C1 7118   1.883   4.671  10.138  0.4578 -0.1485 -0.1727
  475MPD2    C2 7119   1.823   0.029  10.219  0.1765  0.6721  0.8123
  475MPD2    C3 7120   1.706   0.002  10.289 -0.2231 -0.2934 -0.1140
  475MPD2    C4 7121   1.652   4.611  10.285 -0.6519 -0.7587 -0.2896
  475MPD2    C5 7122   1.709   4.516  10.213  0.8587 -0.4392 -0.6898
  475MPD2     H 7123   1.871   0.126  10.233 -1.7801  1.8288 -0.5034
  475MPD2    H1 7124   1.558   4.584  10.330 -0.5907 -2.1967 -1.0400
  475MPD2    H2 7125   1.861   4.469  10.074 -1.2057  0.1785 -1.8906
  475MPD2    H3 7126   1.660   4.421  10.195 -1.3384  0.1985  1.9340
  475MPD2     N 7127   1.639   0.108  10.357 -0.0875 -0.4394  0.1717
  475MPD2    H5 7128   1.667   0.205  10.345  0.4301 -0.4553  1.2585
  475MPD2    N1 7129   1.994   4.692  10.050 -0.2589 -0.2543  0.0033
  475MPD2    H7 7130   2.011   4.621   9.980  2.0996 -0.6340  0.9807
  476TMC3    C1 7131   2.171   0.083   9.951 -0.6124 -0.4129  0.1741
  476TMC3    C2 7132   2.106   0.103   9.832  0.0390  0.0829  0.0492
  476TMC3    C3 7133   2.130   0.210   9.749  0.6411 -0.6550 -0.3787
  476TMC3    C4 7134   2.269   0.163   9.986 -0.3828 -0.0345  0.9320
  476TMC3    C5 7135   2.291   0.273   9.906  0.0436 -0.2581  0.2611
  476TMC3    C6 7136   2.234   0.296   9.781 -0.9212 -0.0319  0.2485
  476TMC3     C 7137   2.072   0.065  10.058 -1.0006  0.1516 -0.2259
  476TMC3     O 7138   2.077   0.166  10.132  0.1708  0.1078  0.1124
  476TMC3     H 7139   2.035   0.030   9.795  0.3214  0.1683 -0.6498
  476TMC3    H1 7140   2.318   0.153  10.082  0.0594  2.3642  0.9606
  476TMC3    H2 7141   2.245   0.397   9.741  2.7273  0.5350  2.7541
  476TMC3    C7 7142   2.373   0.382   9.946  0.0067  0.2713  0.3763
  476TMC3    C8 7143   2.006   0.291   9.724  0.2997  0.3989  0.1437
  476TMC3    O1 7144   2.457   0.426   9.867  0.6536  0.2521 -0.4181
  476TMC3    O2 7145   2.011   0.413   9.725 -0.0460  0.2884 -0.3201
  477MPD2     C 7146   3.809   1.133  11.508 -0.0427  0.6333 -0.0072
  477MPD2    C1 7147   3.781   1.249  11.580 -1.1956 -0.6664 -0.5200
  477MPD2    C2 7148   3.887   1.313  11.654 -1.0980 -0.0948 -0.5300
  477MPD2    C3 7149   4.013   1.252  11.649 -0.0861  0.6789  0.5043
  477MPD2    C4 7150   4.037   1.136  11.576  0.3125  0.0492  0.4703
  477MPD2    C5 7151   3.930   1.070  11.511  0.3896  0.0925 -0.1066
  477MPD2     H 7152   3.884   1.393  11.727 -1.1387  1.5095 -2.2885
  477MPD2    H1 7153   4.138   1.096  11.580  1.4655  2.6288 -2.5671
  477MPD2    H2 7154   3.725   1.086  11.458  1.1320 -0.0373 -1.3566
  477MPD2    H3 7155   3.949   0.976  11.459  0.4721  0.6537 -1.0981
  477MPD2     N 7156   4.118   1.326  11.715  0.3955  0.2536 -0.1500
  477MPD2    H5 7157   4.094   1.415  11.758 -0.1734  0.2172 -0.3895
  477MPD2    N1 7158   3.648   1.301  11.586  0.5490  0.2358  0.6538
  477MPD2    H7 7159   3.582   1.250  11.529  0.6726  0.1773  0.5623
  478TMC3    C1 7160   3.468   1.429  11.664 -0.3586 -0.2755 -0.3422
  478TMC3    C2 7161   3.443   1.522  11.757  0.3365 -0.6558  0.5656
  478TMC3    C3 7162   3.389   1.644  11.716 -0.0280  0.5056 -0.7125
  478TMC3    C4 7163   3.420   1.442  11.533  1.1656 -0.2416  0.3073
  478TMC3    C5 7164   3.360   1.557  11.500 -0.1219 -0.0774  0.0396
  478TMC3    C6 7165   3.349   1.658  11.588  0.3596 -0.2424 -0.7147
  478TMC3     C 7166   3.604   1.395  11.673  0.2298 -0.3305  0.0590
  478TMC3     O 7167   3.674   1.450  11.762  0.0190 -0.3859 -0.2634
  478TMC3     H 7168   3.480   1.509  11.858 -1.4826  0.7264  1.4045
  478TMC3    H1 7169   3.460   1.383  11.451 -0.2570 -0.8583  0.0544
  478TMC3    H2 7170   3.301   1.748  11.552 -1.1038 -0.9773 -0.6288
  478TMC3    C7 7171   3.386   1.594  11.357 -0.0031  0.2321  0.7283
  478TMC3    C8 7172   3.409   1.761  11.801 -0.9471 -0.1097  0.5574
  478TMC3    O1 7173   3.507   1.585  11.329 -0.0335  0.1157 -0.5521
  478TMC3    O2 7174   3.449   1.729  11.912  0.4874  0.2650 -0.2222
  479MPD2     C 7175   3.430   4.034  14.703 -0.5355 -0.1787 -0.2252
  479MPD2    C1 7176   3.372   3.985  14.816 -0.1524 -0.1119  0.3888
  479MPD2    C2 7177   3.418   4.037  14.938  0.1544 -0.6782  0.3644
  479MPD2    C3 7178   3.523   4.128  14.943  0.2605 -0.2196  0.3989
  479MPD2    C4 7179   3.571   4.182  14.823 -0.5445  0.2846  0.8645
  479MPD2    C5 7180   3.524   4.132  14.703 -0.2532 -0.0533 -0.0943
  479MPD2     H 7181   3.365   4.008  15.027 -0.3796 -1.4922 -0.2110
  479MPD2    H1 7182   3.649   4.257  14.818  0.1119 -0.4559 -0.1615
  479MPD2    H2 7183   3.407   3.988  14.607 -3.3166 -0.7910  0.7178
  479MPD2    H3 7184   3.556   4.164  14.605  0.5278 -0.4196  0.0405
  479MPD2     N 7185   3.564   4.179  15.063  0.1671 -0.1270 -0.4935
  479MPD2    H5 7186   3.606   4.271  15.055  0.9448 -0.3901  0.6974
  479MPD2    N1 7187   3.253   3.911  14.808 -0.2932 -0.4623  0.2874
  479MPD2    H7 7188   3.214   3.900  14.715 -1.0671  1.4174  0.3921
  480TMC3    C1 7189   3.380   4.221  15.490  0.3499 -0.3133 -0.7126
  480TMC3    C2 7190   3.292   4.303  15.434 -0.0165  0.6867 -0.3357
  480TMC3    C3 7191   3.302   4.355  15.310 -0.0831 -0.0680 -0.3319
  480TMC3    C4 7192   3.484   4.176  15.416 -0.3895 -0.7089 -0.2937
  480TMC3    C5 7193   3.503   4.224  15.287 -0.0746 -0.0371  0.1272
  480TMC3    C6 7194   3.417   4.325  15.244  0.4987  0.4376  0.4292
  480TMC3     C 7195   3.316   4.120  15.575  0.2977  0.1903 -0.3737
  480TMC3     O 7196   3.386   4.052  15.642 -0.3710  0.1842 -0.1914
  480TMC3     H 7197   3.210   4.349  15.487  1.6582  1.0722  1.8815
  480TMC3    H1 7198   3.548   4.098  15.456 -1.0991 -0.7757  0.7125
  480TMC3    H2 7199   3.433   4.382  15.153  1.7351 -0.8024 -0.1386
  480TMC3    C7 7200   3.528   4.123  15.185 -0.1593 -0.6986  0.0461
  480TMC3    C8 7201   3.190   4.307  15.241 -0.2098 -0.3598 -0.0397
  480TMC3    O1 7202   3.496   4.012  15.219 -0.1004  0.6784  0.0800
  480TMC3    O2 7203   3.106   4.247  15.302  0.5066  0.3853 -0.6363
  481MPD2     C 7204   0.361   3.727  14.517 -0.1089 -0.1063  0.7028
  481MPD2    C1 7205   0.243   3.658  14.514 -0.0663  0.5442  0.3823
  481MPD2    C2 7206   0.192   3.610  14.636 -0.5689 -0.1373  0.7383
  481MPD2    C3 7207   0.265   3.638  14.755 -0.4776  0.0962 -0.5107
  481MPD2    C4 7208   0.389   3.699  14.756 -0.3460 -0.3690 -0.7101
  481MPD2    C5 7209   0.429   3.754  14.632 -0.2659  0.5648 -0.0324
  481MPD2     H 7210   0.092   3.568  14.639 -1.0600  0.9837  0.2612
  481MPD2    H1 7211   0.457   3.703  14.840 -1.4537 -0.2207  0.1673
  481MPD2    H2 7212   0.406   3.767  14.427  1.4223  0.3050  1.6405
  481MPD2    H3 7213   0.528   3.799  14.625  0.6515 -1.4437 -0.0689
  481MPD2     N 7214   0.228   3.594  14.876 -0.3404 -0.5794 -0.2545
  481MPD2    H5 7215   0.291   3.617  14.953 -1.8576  1.2865  0.4422
  481MPD2    N1 7216   0.183   3.645  14.387 -0.1995  0.5528  0.1083
  481MPD2    H7 7217   0.234   3.676  14.305  2.4078  0.0533  1.5332
  482TMC3    C1 7218   0.012   3.599  14.225 -0.3486  0.0322  0.1107
  482TMC3    C2 7219   4.638   3.522  14.193  0.6230 -0.7128 -0.4043
  482TMC3    C3 7220   4.550   3.555  14.094  0.2010  0.9629 -0.0990
  482TMC3    C4 7221   0.032   3.703  14.138 -0.5820 -0.3070  0.3461
  482TMC3    C5 7222   4.690   3.722  14.035  0.4774  0.0452  0.0622
  482TMC3    C6 7223   4.576   3.648  14.007  0.9106  0.0360 -0.5225
  482TMC3     C 7224   0.057   3.589  14.366  0.0237 -0.4113  0.0632
  482TMC3     O 7225   4.704   3.547  14.443  0.2666  0.1299 -0.7201
  482TMC3     H 7226   4.591   3.463  14.271 -2.9738  2.0873 -0.4232
  482TMC3    H1 7227   0.103   3.781  14.165  1.9332 -2.4306 -0.0910
  482TMC3    H2 7228   4.510   3.668  13.923 -2.7444 -0.1789  2.3005
  482TMC3    C7 7229   4.719   3.825  13.938  0.6808  0.5477 -0.4460
  482TMC3    C8 7230   4.427   3.476  14.073 -0.2029  0.6404 -0.3137
  482TMC3    O1 7231   0.067   3.913  13.968 -0.0479  0.2891  0.3908
  482TMC3    O2 7232   4.431   3.364  14.121  0.6319 -0.1256 -0.1574
  483TMC3    C1 7233   2.895   2.846   0.850 -0.2153 -0.3001  0.2537
  483TMC3    C2 7234   2.945   2.970   0.822 -0.3121 -0.8215 -0.5540
  483TMC3    C3 7235   3.063   3.008   0.876  0.0382 -0.9592  0.4277
  483TMC3    C4 7236   2.970   2.753   0.915  0.0868  0.4267 -0.5359
  483TMC3    C5 7237   3.091   2.794   0.968 -0.6707  0.3690 -0.4397
  483TMC3    C6 7238   3.143   2.921   0.950  0.0845 -0.5381 -0.1611
  483TMC3     C 7239   2.806   2.798   0.745  0.0796  0.0633  0.3074
  483TMC3     O 7240   2.728   2.879   0.702  0.4964 -0.1096 -0.0980
  483TMC3     H 7241   2.887   3.039   0.762  1.2123  0.7789 -0.1799
  483TMC3    H1 7242   2.927   2.658   0.945 -0.4882  0.8704  0.0429
  483TMC3    H2 7243   3.240   2.946   0.992 -0.5149  0.8215  0.4022
  483TMC3    C7 7244   3.177   2.700   1.037 -0.3984 -0.4846  0.0138
  483TMC3    C8 7245   3.143   3.091   0.790 -1.0458 -1.2731 -0.0482
  483TMC3    O1 7246   3.290   2.735   1.055  0.0127  0.3682  0.1339
  483TMC3    O2 7247   3.253   3.043   0.762 -0.5269 -0.4604 -0.7872
  484MPD2     C 7248   0.441   0.400  12.478  0.4826 -0.6710 -0.1231
  484MPD2    C1 7249   0.455   0.366  12.613 -0.7065 -0.2945  0.4354
  484MPD2    C2 7250   0.574   0.387  12.675 -0.7239 -0.0634  0.9780
  484MPD2    C3 7251   0.681   0.442  12.605  0.5060  0.4005 -0.3346
  484MPD2    C4 7252   0.668   0.490  12.477 -0.6329  0.1191 -0.6295
  484MPD2    C5 7253   0.543   0.460  12.413  0.0055 -0.1014  0.6374
  484MPD2     H 7254   0.582   0.363  12.780  0.7885 -1.4119  0.5585
  484MPD2    H1 7255   0.749   0.537  12.421 -0.6880  0.4110 -0.4627
  484MPD2    H2 7256   0.351   0.389  12.418  0.3287  0.3285 -0.0871
  484MPD2    H3 7257   0.526   0.478  12.307 -0.1373 -0.7945  0.5424
  484MPD2     N 7258   0.809   0.468  12.661 -0.2899  0.3216  0.6917
  484MPD2    H5 7259   0.869   0.522  12.599 -2.4320  0.5332 -1.1942
  484MPD2    N1 7260   0.337   0.313  12.670 -0.4413  0.2383  0.5244
  484MPD2    H7 7261   0.261   0.283  12.609  1.3032 -0.6028 -1.2516
  485TMC3    C1 7262   0.988   0.455  12.798  0.3329  0.0799 -0.1453
  485TMC3    C2 7263   1.068   0.347  12.841  0.4178 -0.4761  0.1257
  485TMC3    C3 7264   1.206   0.346  12.809 -0.5609  0.6140  0.4219
  485TMC3    C4 7265   1.042   0.558  12.730 -0.7102 -0.5055 -0.0442
  485TMC3    C5 7266   1.169   0.544  12.689  0.4316  0.1568  1.0354
  485TMC3    C6 7267   1.258   0.449  12.739 -0.1172  0.1197 -0.2632
  485TMC3     C 7268   0.849   0.421  12.783  0.2902 -0.3197  0.1309
  485TMC3     O 7269   0.791   0.362  12.875  0.0340  0.4853  0.5003
  485TMC3     H 7270   1.009   0.262  12.872  0.7008 -0.5117  0.5629
  485TMC3    H1 7271   0.980   0.638  12.690  0.2082 -0.2756 -1.0187
  485TMC3    H2 7272   1.364   0.445  12.716 -0.9149 -2.2049 -3.5911
  485TMC3    C7 7273   1.165   0.547  12.544 -0.0688 -0.5510 -0.8112
  485TMC3    C8 7274   1.259   0.226  12.753 -0.5569 -0.4680 -0.2173
  485TMC3    O1 7275   1.079   0.616  12.495 -0.4431 -0.5847 -0.3467
  485TMC3    O2 7276   1.305   0.243  12.642  0.0093 -0.2076 -0.0177
  486MPD2     C 7277   2.043   4.157  12.590 -0.6845 -0.0251 -0.6310
  486MPD2    C1 7278   2.040   4.222  12.467 -0.4278  1.0832  0.4167
  486MPD2    C2 7279   2.057   4.360  12.467  0.3802  0.1516 -0.1844
  486MPD2    C3 7280   2.066   4.440  12.581  0.6441  0.3605 -0.0331
  486MPD2    C4 7281   2.076   4.371  12.704 -0.3208  0.2797  0.0390
  486MPD2    C5 7282   2.063   4.231  12.701 -0.0420  0.6402  0.2022
  486MPD2     H 7283   2.053   4.402  12.367 -0.8262  0.3133 -0.0683
  486MPD2    H1 7284   2.085   4.421  12.800  1.3931  0.5144 -0.2405
  486MPD2    H2 7285   2.047   4.049  12.603  1.3428  0.1914  0.5054
  486MPD2    H3 7286   2.077   4.176  12.793  0.1320  0.7474  0.2383
  486MPD2     N 7287   2.077   4.580  12.566  0.0848  0.3014  0.0458
  486MPD2    H5 7288   2.075   4.614  12.470  0.7304 -0.4269 -0.2291
  486MPD2    N1 7289   2.016   4.145  12.347  0.3469  0.0678  0.3711
  486MPD2    H7 7290   1.995   4.047  12.361  0.1930 -0.0676 -0.8058
  487TMC3    C1 7291   2.025   4.075  12.129  0.5124  0.0095 -0.6017
  487TMC3    C2 7292   1.959   3.964  12.182 -0.6838 -0.3101 -1.0935
  487TMC3    C3 7293   2.019   3.844  12.172  0.4443  0.2330  0.4660
  487TMC3    C4 7294   2.135   4.055  12.045  0.0560 -0.1225 -0.0413
  487TMC3    C5 7295   2.192   3.932  12.049 -0.1845  0.1615  0.1147
  487TMC3    C6 7296   2.131   3.825  12.095  0.6356  0.3653  0.0227
  487TMC3     C 7297   2.031   4.191  12.213 -0.3814  0.0557 -0.4689
  487TMC3     O 7298   2.080   4.294  12.165 -0.2682 -0.2274  0.6310
  487TMC3     H 7299   1.865   3.969  12.234  0.7307  0.7822  1.3658
  487TMC3    H1 7300   2.208   4.135  12.033  1.1866 -1.0027  0.8815
  487TMC3    H2 7301   2.188   3.733  12.097 -0.4720 -0.3467 -0.7337
  487TMC3    C7 7302   2.332   3.934  12.099 -0.5675 -0.7084  0.0027
  487TMC3    C8 7303   2.016   3.790  12.303  0.2200 -0.1006 -0.1433
  487TMC3    O1 7304   2.351   4.021  12.186 -0.1180  0.0333 -0.6204
  487TMC3    O2 7305   1.985   3.863  12.393  0.1159 -0.1908 -0.3583
  488MPD2     C 7306   2.756   0.603  16.161 -0.1261  0.0107  0.2677
  488MPD2    C1 7307   2.777   0.716  16.231 -0.1527  1.4596  0.1492
  488MPD2    C2 7308   2.760   0.713  16.368  0.4920 -0.1119  0.4952
  488MPD2    C3 7309   2.714   0.596  16.432 -0.2957  0.3164  0.5114
  488MPD2    C4 7310   2.700   0.480  16.357  0.7110  0.2674 -0.8928
  488MPD2    C5 7311   2.706   0.489  16.221  0.0562  0.1927 -0.2200
  488MPD2     H 7312   2.780   0.804  16.423  0.2691  0.5713 -0.5572
  488MPD2    H1 7313   2.673   0.384  16.400 -0.7148  0.7427 -0.7226
  488MPD2    H2 7314   2.765   0.610  16.053 -0.1985 -2.4631  0.1064
  488MPD2    H3 7315   2.683   0.397  16.168  0.6705  0.3235 -0.7010
  488MPD2     N 7316   2.708   0.605  16.574 -0.2188  0.0983 -0.1893
  488MPD2    H5 7317   2.690   0.696  16.616  0.2401 -0.0490  0.3346
  488MPD2    N1 7318   2.809   0.842  16.167  0.4975  0.3979  0.2533
  488MPD2    H7 7319   2.814   0.928  16.221  0.3718  0.9033 -0.5527
  489TMC3    C1 7320   2.722   0.530  16.800 -0.4580  0.1638 -0.0221
  489TMC3    C2 7321   2.752   0.659  16.834  0.0000  0.3334  0.3850
  489TMC3    C3 7322   2.773   0.686  16.972  0.0728 -0.2764  1.1468
  489TMC3    C4 7323   2.706   0.429  16.887  0.8617 -0.2712 -0.6906
  489TMC3    C5 7324   2.729   0.461  17.017  0.1556 -0.1254 -0.4064
  489TMC3    C6 7325   2.756   0.591  17.065 -0.6829 -0.1627 -0.3044
  489TMC3     C 7326   2.716   0.493  16.654  0.0319  0.3203 -0.1465
  489TMC3     O 7327   2.746   0.377  16.631 -0.8669  0.1519  0.3773
  489TMC3     H 7328   2.771   0.739  16.763 -1.1785  0.6727  0.4506
  489TMC3    H1 7329   2.698   0.327  16.852 -2.7958  0.0769 -0.9290
  489TMC3    H2 7330   2.783   0.609  17.168  0.7960 -1.8067 -0.3876
  489TMC3    C7 7331   2.719   0.365  17.119  1.0744  0.3190  0.6929
  489TMC3    C8 7332   2.804   0.824  17.001  0.2394 -0.5035 -1.1959
  489TMC3    O1 7333   2.769   0.397  17.223  0.3231  0.0258 -0.4960
  489TMC3    O2 7334   2.789   0.901  16.908 -0.4230  0.0064 -0.5781
  490MPD2     C 7335   3.574   0.734  17.043  0.3874 -0.0830  0.0970
  490MPD2    C1 7336   3.689   0.674  17.010 -0.2498 -0.1144 -0.0906
  490MPD2    C2 7337   3.813   0.733  17.028  0.1031  0.5955  0.1623
  490MPD2    C3 7338   3.824   0.857  17.083 -0.0995 -0.1347  0.2836
  490MPD2    C4 7339   3.704   0.925  17.118  0.9340  0.4737 -0.2657
  490MPD2    C5 7340   3.584   0.862  17.096  0.1906  0.0801  0.4194
  490MPD2     H 7341   3.907   0.684  17.003  0.0503  0.2533  0.6218
  490MPD2    H1 7342   3.709   1.020  17.170  0.3935  0.0462  0.5569
  490MPD2    H2 7343   3.476   0.689  17.034 -0.3400  1.3903  0.7180
  490MPD2    H3 7344   3.495   0.914  17.130  0.2423  0.6036 -0.2642
  490MPD2     N 7345   3.950   0.907  17.128 -0.3843  0.5114  0.6301
  490MPD2    H5 7346   3.942   0.977  17.201 -0.6080  0.6999  0.4272
  490MPD2    N1 7347   3.696   0.539  16.967 -0.0669  0.0180 -0.2476
  490MPD2    H7 7348   3.785   0.492  16.965 -0.2033 -0.2423 -0.2427
  491TMC3    C1 7349   3.611   0.325  16.953  0.5780  0.3479  0.2854
  491TMC3    C2 7350   3.724   0.281  17.022 -0.6231  0.1939 -0.7963
  491TMC3    C3 7351   3.712   0.167  17.097 -0.0044 -0.4838  0.1651
  491TMC3    C4 7352   3.497   0.253  16.944 -0.6711  0.6225 -0.3199
  491TMC3    C5 7353   3.494   0.138  17.014 -0.1397  0.1277  0.5246
  491TMC3    C6 7354   3.598   0.089  17.088  0.4536  0.4118 -0.3087
  491TMC3     C 7355   3.586   0.465  16.937  0.0171 -0.4520  0.0263
  491TMC3     O 7356   3.471   0.500  16.907  0.3917  0.3660  0.4131
  491TMC3     H 7357   3.821   0.327  17.005 -1.1111  2.2374  1.8478
  491TMC3    H1 7358   3.411   0.282  16.885 -0.1313  0.7542 -1.0425
  491TMC3    H2 7359   3.596   4.725  17.134  0.0751 -0.1584 -1.5685
  491TMC3    C7 7360   3.381   0.054  16.986  0.0838 -0.0120 -0.1120
  491TMC3    C8 7361   3.758   0.173  17.237  0.3019 -0.0291  0.4122
  491TMC3    O1 7362   3.311   0.083  16.891 -0.0134 -0.0099  0.1196
  491TMC3    O2 7363   3.736   0.067  17.287 -0.3279 -0.2884  0.1589
  492MPD2     C 7364   3.654   0.424  11.469 -0.5254  0.3859 -0.6900
  492MPD2    C1 7365   3.623   0.309  11.404 -0.3587  0.2716  0.1008
  492MPD2    C2 7366   3.555   0.209  11.475 -0.3154  0.5572 -0.6670
  492MPD2    C3 7367   3.502   0.233  11.595 -0.0493  0.5691  0.0473
  492MPD2    C4 7368   3.514   0.362  11.646  0.5389  0.4389 -0.1563
  492MPD2    C5 7369   3.603   0.451  11.593 -0.0763  0.4747 -0.2996
  492MPD2     H 7370   3.531   0.115  11.428 -1.6821  1.3581 -1.5512
  492MPD2    H1 7371   3.470   0.385  11.743 -1.1097  0.1278 -0.8342
  492MPD2    H2 7372   3.715   0.499  11.420  0.1151  1.0920  1.1683
  492MPD2    H3 7373   3.607   0.552  11.633 -3.2735  0.2565  0.5105
  492MPD2     N 7374   3.429   0.132  11.670  0.5018 -0.1092  0.3716
  492MPD2    H5 7375   3.385   0.173  11.752  2.5524  2.1166  0.3490
  492MPD2    N1 7376   3.668   0.293  11.268 -0.0485 -0.3598  0.1891
  492MPD2    H7 7377   3.725   0.367  11.229  1.6622 -2.8219 -1.9883
  493TMC3    C1 7378   3.691   0.193  11.053 -0.1569  0.0080  0.3201
  493TMC3    C2 7379   3.777   0.293  11.028 -0.2645  0.3713 -0.5959
  493TMC3    C3 7380   3.787   0.329  10.896  0.5778  0.3492 -0.2970
  493TMC3    C4 7381   3.619   0.130  10.962  0.4585 -0.2949 -0.0998
  493TMC3    C5 7382   3.630   0.160  10.829 -0.2974 -0.4412  1.0982
  493TMC3    C6 7383   3.709   0.271  10.796  0.1579  0.2917  0.4696
  493TMC3     C 7384   3.644   0.183  11.191 -0.4226 -0.2086 -0.2777
  493TMC3     O 7385   3.576   0.086  11.220 -0.2822  0.0066  1.0845
  493TMC3     H 7386   3.836   0.350  11.099 -1.4450 -1.4728  1.8610
  493TMC3    H1 7387   3.548   0.053  10.990 -0.2324  0.0156 -0.9710
  493TMC3    H2 7388   3.713   0.314  10.697 -1.2302 -0.6918 -0.0036
  493TMC3    C7 7389   3.533   0.100  10.738  0.4390  0.2201  0.2718
  493TMC3    C8 7390   3.892   0.430  10.856 -1.0758  0.1962 -0.0647
  493TMC3    O1 7391   3.447   0.024  10.777 -0.0081  0.7439  0.1170
  493TMC3    O2 7392   3.935   0.492  10.953  0.0428 -0.0432  0.1362
  494TMC3    C1 7393   4.533   2.380   0.595  0.5140 -0.4554  0.0733
  494TMC3    C2 7394   4.613   2.273   0.597  0.2451  0.2117  0.2914
  494TMC3    C3 7395   4.620   2.202   0.481  0.0827 -0.1565 -0.1813
  494TMC3    C4 7396   4.481   2.423   0.469 -0.2029 -0.1857  1.0560
  494TMC3    C5 7397   4.501   2.353   0.348  0.0987  0.8494  0.3296
  494TMC3    C6 7398   4.579   2.245   0.362 -0.4281  0.1555  0.9235
  494TMC3     C 7399   4.539   2.469   0.708 -0.3935 -0.3856 -0.0289
  494TMC3     O 7400   4.647   2.489   0.767  0.5905  0.4241  0.1094
  494TMC3     H 7401   4.657   2.238   0.690  0.0486  1.1008  0.7227
  494TMC3    H1 7402   4.416   2.508   0.459  3.0166  2.1118 -0.6112
  494TMC3    H2 7403   4.621   2.195   0.276 -1.6112  0.7413  0.0104
  494TMC3    C7 7404   4.556   2.448   0.252  0.5711 -0.4799 -0.2452
  494TMC3    C8 7405   4.706   2.084   0.486  0.8482  0.3206 -0.6166
  494TMC3    O1 7406   4.677   2.447   0.257 -0.2361  0.3650 -0.1304
  494TMC3    O2 7407   0.074   2.096   0.544 -0.1160 -0.5913  1.0326
  495TMC3    C1 7408   3.214   4.073  14.282  0.4663 -0.2880  0.2156
  495TMC3    C2 7409   3.286   4.148  14.197  0.5274 -0.1625  0.3040
  495TMC3    C3 7410   3.327   4.265  14.244 -0.4592 -0.2253 -0.1494
  495TMC3    C4 7411   3.189   4.108  14.415 -0.2893  0.1036  0.4249
  495TMC3    C5 7412   3.230   4.231  14.456 -0.1539 -0.0714  0.8642
  495TMC3    C6 7413   3.309   4.306  14.373  0.5873 -0.3391 -0.0757
  495TMC3     C 7414   3.114   3.991  14.212 -0.2971  0.1707 -0.3071
  495TMC3     O 7415   3.080   4.034  14.104  0.6684  0.0762 -0.3315
  495TMC3     H 7416   3.311   4.108  14.099 -0.5521  0.1944 -0.1168
  495TMC3    H1 7417   3.129   4.047  14.482  0.1167 -0.3922  0.3292
  495TMC3    H2 7418   3.331   4.410  14.394  1.5481 -0.8752  1.5389
  495TMC3    C7 7419   3.211   4.265  14.596  0.3107 -0.1045 -0.3856
  495TMC3    C8 7420   3.280   4.361  14.148 -0.0274  1.0220  0.4699
  495TMC3    O1 7421   3.270   4.367  14.635 -0.5815 -0.5609 -0.7042
  495TMC3    O2 7422   3.317   4.476  14.163  0.1177  0.5256  0.1307
  496MPD2     C 7423   0.291   4.594  15.545  0.9454 -0.3839 -1.1274
  496MPD2    C1 7424   0.335   4.470  15.594 -0.2325 -0.2371 -0.0357
  496MPD2    C2 7425   0.243   4.378  15.643 -0.1327  0.0253  0.0870
  496MPD2    C3 7426   0.108   4.413  15.636  0.2460  0.4051 -0.8265
  496MPD2    C4 7427   0.062   4.542  15.606 -0.4382  0.1882  0.1547
  496MPD2    C5 7428   0.151   4.626  15.555  0.4182 -0.1478 -0.5065
  496MPD2     H 7429   0.278   4.281  15.678 -0.6352 -0.5612 -1.0046
  496MPD2    H1 7430   4.698   4.585  15.597 -0.3202  0.2785 -0.7742
  496MPD2    H2 7431   0.363   4.662  15.501  0.5693 -0.9663 -2.6321
  496MPD2    H3 7432   0.112   4.722  15.521  2.1572  1.3059  1.6425
  496MPD2     N 7433   0.023   4.303  15.658  1.1223 -0.0792  0.2272
  496MPD2    H5 7434   0.068   4.215  15.682 -2.7191 -2.0818  0.0717
  496MPD2    N1 7435   0.476   4.448  15.596 -0.1912  0.0853 -0.6118
  496MPD2    H7 7436   0.526   4.514  15.538 -1.2330 -0.2502 -1.9024
  497TMC3    C1 7437   4.586   4.166  15.656 -0.2668 -0.4236 -0.1507
  497TMC3    C2 7438   4.530   4.110  15.546  0.3494 -0.4659  0.1266
  497TMC3    C3 7439   4.551   3.974  15.529  0.7777 -0.2653 -0.6824
  497TMC3    C4 7440   4.651   4.096  15.753 -0.1573 -0.4513  0.1249
  497TMC3    C5 7441   4.663   3.959  15.736 -1.1194 -0.7133  0.1932
  497TMC3    C6 7442   4.609   3.897  15.628  0.4102  0.3112  0.0579
  497TMC3     C 7443   4.623   4.300  15.642 -0.1546 -0.3223  0.2258
  497TMC3     O 7444   4.562   4.375  15.572 -0.4540 -0.4311 -0.2198
  497TMC3     H 7445   4.486   4.163  15.462 -2.4569 -1.0886  1.1845
  497TMC3    H1 7446   4.670   4.145  15.848 -1.0385  0.2564 -0.0610
  497TMC3    H2 7447   4.645   3.797  15.607  0.1295  0.1461  0.3510
  497TMC3    C7 7448   0.021   3.889  15.819 -0.5317 -0.4902  0.7808
  497TMC3    C8 7449   4.504   3.906  15.410  0.0573  0.3366 -0.0499
  497TMC3    O1 7450   0.045   3.770  15.804 -0.0987 -0.3503  1.0069
  497TMC3    O2 7451   4.457   3.973  15.319 -0.2402  0.1465 -0.6572
  498MPD2     C 7452   0.882   0.483   9.611  0.1876  0.0346  0.4414
  498MPD2    C1 7453   0.928   0.483   9.744  0.7755 -0.4503 -0.8811
  498MPD2    C2 7454   0.840   0.435   9.838  0.6395 -0.2844 -0.0980
  498MPD2    C3 7455   0.730   0.364   9.805 -0.2220  0.8103  0.3242
  498MPD2    C4 7456   0.690   0.367   9.669  0.1940  0.5991  0.1309
  498MPD2    C5 7457   0.767   0.422   9.578  0.0234  0.4261 -0.3711
  498MPD2     H 7458   0.887   0.433   9.936 -0.3646  2.4222  0.4583
  498MPD2    H1 7459   0.598   0.317   9.640  0.1768 -0.3546  1.8805
  498MPD2    H2 7460   0.943   0.508   9.525  0.2216 -0.2466  0.3845
  498MPD2    H3 7461   0.732   0.432   9.476  2.6802 -1.0875 -1.4258
  498MPD2     N 7462   0.664   0.300   9.913  0.7879 -0.3088 -0.0110
  498MPD2    H5 7463   0.704   0.303  10.007  0.1900 -3.3593  0.3536
  498MPD2    N1 7464   1.039   0.564   9.780  0.1953  0.3239  0.3414
  498MPD2    H7 7465   1.050   0.593   9.876 -1.8625 -3.2708  1.6491
  499TMC3    C1 7466   1.244   0.680   9.757  0.6544  0.6359  0.0609
  499TMC3    C2 7467   1.376   0.666   9.719 -0.3591  0.5887 -0.4464
  499TMC3    C3 7468   1.451   0.786   9.714 -0.7668  0.3440 -0.4010
  499TMC3    C4 7469   1.185   0.805   9.751 -0.3632 -0.2755  0.1913
  499TMC3    C5 7470   1.257   0.918   9.724  0.3681  0.6307 -0.7857
  499TMC3    C6 7471   1.397   0.914   9.726 -0.3957 -0.2134 -0.3827
  499TMC3     C 7472   1.150   0.585   9.704 -0.2317  0.3835  0.5158
  499TMC3     O 7473   1.187   0.520   9.608  0.2326 -0.4378 -0.5232
  499TMC3     H 7474   1.427   0.574   9.695 -0.6241 -0.0072  1.3087
  499TMC3    H1 7475   1.078   0.820   9.764 -0.5697 -1.5204 -0.0691
  499TMC3    H2 7476   1.454   1.003   9.704  1.0978 -0.3395  2.9918
  499TMC3    C7 7477   1.188   1.039   9.727  0.0077  0.5584  0.6374
  499TMC3    C8 7478   1.602   0.784   9.685  0.1320 -0.2982 -0.3823
  499TMC3    O1 7479   1.260   1.135   9.751 -0.2600 -0.1053 -0.1624
  499TMC3    O2 7480   1.650   0.678   9.667  0.6020 -0.4137 -0.2528
  500MPD2     C 7481   2.585   0.885  10.088 -0.0084  0.1285  0.1617
  500MPD2    C1 7482   2.594   1.018  10.048 -0.7687  0.3146  0.0779
  500MPD2    C2 7483   2.481   1.084   9.996  0.3622  0.6971  0.1369
  500MPD2    C3 7484   2.363   1.018   9.990  0.8194 -0.3803  0.0298
  500MPD2    C4 7485   2.356   0.890  10.039 -0.9384  0.3739 -0.1636
  500MPD2    C5 7486   2.463   0.825  10.080 -0.3974  0.1840 -0.5196
  500MPD2     H 7487   2.500   1.189   9.983  0.6178  0.6517  0.1404
  500MPD2    H1 7488   2.261   0.841  10.056 -2.2103  3.6489  2.2902
  500MPD2    H2 7489   2.668   0.832  10.133 -0.0253  0.6663  0.8338
  500MPD2    H3 7490   2.452   0.722  10.111 -0.9783  0.6000  0.6422
  500MPD2     N 7491   2.242   1.085   9.956  0.4998 -0.6902  0.4820
  500MPD2    H5 7492   2.162   1.023   9.961  1.5453 -1.9683  1.2973
  500MPD2    N1 7493   2.704   1.099  10.063 -0.3072  0.4369  0.3770
  500MPD2    H7 7494   2.694   1.189  10.017 -1.0943 -0.1027 -0.5092
  501TMC3    C1 7495   2.913   1.177  10.122 -0.2728 -0.1151  0.0660
  501TMC3    C2 7496   2.872   1.306  10.129 -0.0528 -0.0300 -0.0547
  501TMC3    C3 7497   2.968   1.407  10.114 -0.5157  0.0873  0.3375
  501TMC3    C4 7498   3.043   1.149  10.137  0.3092  0.2485  0.3698
  501TMC3    C5 7499   3.137   1.246  10.131  0.0591  1.5603  0.7334
  501TMC3    C6 7500   3.095   1.377  10.117  0.3722 -0.1115  0.2861
  501TMC3     C 7501   2.815   1.070  10.137 -1.1365  0.1673  0.9040
  501TMC3     O 7502   2.851   0.963  10.187 -0.0082 -0.0966 -0.0308
  501TMC3     H 7503   2.765   1.327  10.127  0.2951  1.8145  0.5784
  501TMC3    H1 7504   3.069   1.044  10.129  3.1673  0.8708  1.4128
  501TMC3    H2 7505   3.167   1.458  10.105  1.0991 -0.8392 -0.2668
  501TMC3    C7 7506   3.259   1.214  10.197 -0.2918 -0.0634  0.3411
  501TMC3    C8 7507   2.934   1.546  10.148 -0.3075 -0.1616  0.1212
  501TMC3    O1 7508   3.277   1.098  10.230 -0.0934  0.5310  0.2945
  501TMC3    O2 7509   3.025   1.624  10.173  0.0650 -0.7205 -0.0126
  502TMC3    C1 7510   2.704   0.607  14.860 -0.6757  0.1151 -0.3092
  502TMC3    C2 7511   2.650   0.733  14.849 -0.3188  0.4723  0.3530
  502TMC3    C3 7512   2.510   0.748  14.835 -0.2456  0.4026  0.3417
  502TMC3    C4 7513   2.617   0.496  14.871 -0.2656 -0.6143 -0.3738
  502TMC3    C5 7514   2.479   0.514  14.857  0.3427 -0.7926  0.1583
  502TMC3    C6 7515   2.426   0.636  14.838  0.0368 -0.0274  0.6847
  502TMC3     C 7516   2.816   0.601  14.958 -0.1552  0.6858  0.1362
  502TMC3     O 7517   2.908   0.680  14.948 -0.3228  0.4167  0.0136
  502TMC3     H 7518   2.723   0.812  14.860 -0.0612  0.0014  1.9605
  502TMC3    H1 7519   2.658   0.396  14.878 -0.6665 -0.7759 -0.3384
  502TMC3    H2 7520   2.319   0.645  14.819  0.2775 -0.4802 -0.8761
  502TMC3    C7 7521   2.403   0.394  14.882 -0.1188  0.1551  0.0200
  502TMC3    C8 7522   2.458   0.880  14.814  0.6610  0.1915 -1.0294
  502TMC3    O1 7523   2.466   0.291  14.897 -0.1599 -0.4248  0.0126
  502TMC3    O2 7524   2.538   0.963  14.781 -0.0250  0.4329  0.5430
  503MPD2     C 7525   4.661   1.185  17.107  0.3840  0.4660  0.3273
  503MPD2    C1 7526   4.718   1.212  17.230  0.1917  0.6683 -0.1863
  503MPD2    C2 7527   0.076   1.127  17.276  0.4995  0.1201  0.0289
  503MPD2    C3 7528   0.096   1.005  17.217  0.4142 -0.1202  0.2687
  503MPD2    C4 7529   0.035   0.976  17.101 -0.2648 -0.2180 -0.4164
  503MPD2    C5 7530   4.678   1.059  17.050 -0.4154  0.6918 -0.1001
  503MPD2     H 7531   0.118   1.159  17.371  0.3222  0.2597  0.0586
  503MPD2    H1 7532   0.051   0.881  17.051 -0.2712 -0.5585  0.2324
  503MPD2    H2 7533   4.587   1.253  17.066  1.0202  1.0562  0.1525
  503MPD2    H3 7534   4.633   1.035  16.955 -0.2096 -2.6154  0.6495
  503MPD2     N 7535   0.179   0.916  17.282  0.5540 -0.3812 -0.0229
  503MPD2    H5 7536   0.207   0.949  17.374  0.9801  0.6827 -0.5366
  503MPD2    N1 7537   4.709   1.333  17.298 -0.8168  0.1180 -0.1785
  503MPD2    H7 7538   0.027   1.337  17.384 -1.7125 -2.0172  0.4638
  504TMC3    C1 7539   0.323   0.753  17.326  0.1399  0.1508  0.4883
  504TMC3    C2 7540   0.306   0.787  17.457  0.1548 -0.2295  0.8457
  504TMC3    C3 7541   0.428   0.790  17.523  0.3541 -0.5335 -0.2760
  504TMC3    C4 7542   0.425   0.686  17.276  0.1896 -0.7179  0.1557
  504TMC3    C5 7543   0.543   0.679  17.350 -0.0399  0.5613 -0.0752
  504TMC3    C6 7544   0.548   0.738  17.471  0.2274 -0.0990  0.0236
  504TMC3     C 7545   0.228   0.800  17.236 -0.2695  0.5210 -0.2144
  504TMC3     O 7546   0.201   0.740  17.134 -0.1657  0.1131  0.4917
  504TMC3     H 7547   0.215   0.824  17.501  0.2528  1.4513 -0.3722
  504TMC3    H1 7548   0.409   0.653  17.174  0.5043 -0.6926  0.1002
  504TMC3    H2 7549   0.640   0.736  17.529 -0.7019  1.2203  1.5326
  504TMC3    C7 7550   0.651   0.611  17.287  0.5982 -0.3653 -0.0037
  504TMC3    C8 7551   0.427   0.911  17.608 -0.4039 -0.1020 -0.5758
  504TMC3    O1 7552   0.624   0.538  17.191 -0.3789 -0.0874  0.0238
  504TMC3    O2 7553   0.360   1.004  17.566 -0.2428  0.1200 -0.2626
  505MPD2     C 7554   0.225   4.247  10.976  0.2627  0.6089 -0.3448
  505MPD2    C1 7555   0.267   4.143  10.901  0.4447 -0.0138  0.4707
  505MPD2    C2 7556   0.408   4.142  10.876  0.2560 -0.8403 -0.0443
  505MPD2    C3 7557   0.496   4.221  10.940 -0.7399  0.0989 -0.7278
  505MPD2    C4 7558   0.450   4.318  11.021 -0.4531 -0.1534 -0.0716
  505MPD2    C5 7559   0.313   4.326  11.037 -0.2357 -0.2821 -1.1279
  505MPD2     H 7560   0.441   4.049  10.832 -1.2103 -2.0202  1.3221
  505MPD2    H1 7561   0.513   4.387  11.076  1.6226 -2.8061  0.8184
  505MPD2    H2 7562   0.119   4.253  10.998  0.1111 -0.1975 -0.8281
  505MPD2    H3 7563   0.277   4.407  11.099  0.4034 -1.0807  0.3052
  505MPD2     N 7564   0.631   4.192  10.916 -0.1341 -0.1938 -0.3585
  505MPD2    H5 7565   0.643   4.115  10.851 -2.1489 -0.0225 -0.9495
  505MPD2    N1 7566   0.172   4.063  10.827 -0.7370 -0.1916 -0.4782
  505MPD2    H7 7567   0.074   4.089  10.822 -0.0975  2.1282 -0.7214
  506TMC3    C1 7568   0.092   3.921  10.659 -0.2196  0.4130 -0.1077
  506TMC3    C2 7569   0.043   4.010  10.571  1.2624  0.2314 -0.2732
  506TMC3    C3 7570   0.016   3.965  10.444  0.2616 -0.6741  0.1850
  506TMC3    C4 7571   0.123   3.790  10.617 -0.1753 -0.1398 -0.5062
  506TMC3    C5 7572   0.113   3.759  10.483 -0.4000  0.2175  0.0863
  506TMC3    C6 7573   0.047   3.843  10.401 -0.3016  0.1821 -0.1218
  506TMC3     C 7574   0.206   3.965  10.739 -0.6501  0.6319 -0.5590
  506TMC3     O 7575   0.316   3.919  10.705 -0.9354  0.0083  0.2116
  506TMC3     H 7576   0.035   4.114  10.602 -1.9925  0.7889 -3.0008
  506TMC3    H1 7577   0.191   3.729  10.675  0.2790 -0.0564 -0.9507
  506TMC3    H2 7578   0.048   3.826  10.294 -0.4801 -0.7706  0.0341
  506TMC3    C7 7579   0.228   3.700  10.422  0.0314  0.0963 -0.2951
  506TMC3    C8 7580   4.722   4.063  10.345 -0.1046  0.2608 -0.0538
  506TMC3    O1 7581   0.211   3.633  10.322 -0.1037 -0.2320 -0.6815
  506TMC3    O2 7582   4.668   4.022  10.242 -0.0220  0.2328  0.7207
  507TMC3    C1 7583   0.882   0.319  15.343  0.3695 -0.2226 -0.1034
  507TMC3    C2 7584   0.786   0.226  15.305  0.2335 -0.1372 -0.3552
  507TMC3    C3 7585   0.780   0.192  15.173 -0.3035  0.1537 -0.5351
  507TMC3    C4 7586   0.963   0.371  15.248  0.0286 -0.3658  0.2731
  507TMC3    C5 7587   0.952   0.323  15.121  0.2303 -0.3763 -0.1665
  507TMC3    C6 7588   0.865   0.235  15.088  0.0860 -0.0865  0.2211
  507TMC3     C 7589   0.874   0.379  15.478 -0.8371  0.2467 -0.0229
  507TMC3     O 7590   0.779   0.365  15.550 -0.2266  0.1182  0.3031
  507TMC3     H 7591   0.720   0.175  15.374 -0.1508 -1.8266 -1.9769
  507TMC3    H1 7592   1.030   0.452  15.272 -1.9149  1.1796  0.4429
  507TMC3    H2 7593   0.871   0.196  14.987  0.2486 -0.2326  0.2887
  507TMC3    C7 7594   0.964   0.421  15.019  0.1909 -0.1176 -0.0053
  507TMC3    C8 7595   0.642   0.195  15.119 -0.0890  0.1064 -0.2523
  507TMC3    O1 7596   0.884   0.415  14.926 -0.6021 -0.3524 -0.1159
  507TMC3    O2 7597   0.556   0.168  15.201 -0.0803 -0.1389 -0.1090
  508MPD2     C 7598   1.649   3.228  16.276  0.4567  0.8645 -0.1682
  508MPD2    C1 7599   1.778   3.252  16.231  0.7158  0.5946  0.6128
  508MPD2    C2 7600   1.797   3.286  16.097  0.8888 -0.3188 -0.2267
  508MPD2    C3 7601   1.684   3.309  16.019  0.3404 -0.1167  0.2681
  508MPD2    C4 7602   1.554   3.291  16.071  0.4372 -0.0254  0.6386
  508MPD2    C5 7603   1.533   3.256  16.203  0.2992  0.1834  0.2684
  508MPD2     H 7604   1.891   3.325  16.059 -0.1118 -0.0814 -2.4184
  508MPD2    H1 7605   1.465   3.308  16.011  1.5592  2.5061 -0.2810
  508MPD2    H2 7606   1.640   3.184  16.375 -1.4483 -0.0809 -0.7667
  508MPD2    H3 7607   1.432   3.244  16.242 -0.0811  0.4062 -0.6378
  508MPD2     N 7608   1.706   3.365  15.891 -0.0867  0.1404 -0.2618
  508MPD2    H5 7609   1.803   3.366  15.858  0.4610 -2.5572  1.2477
  508MPD2    N1 7610   1.885   3.246  16.322  0.1761 -0.6511 -1.0150
  508MPD2    H7 7611   1.852   3.241  16.418 -2.1236 -0.8330 -1.8059
  509TMC3    C1 7612   1.629   3.622  15.497  0.0030 -0.5664 -0.4910
  509TMC3    C2 7613   1.752   3.592  15.452 -0.2002  0.0368  0.3794
  509TMC3    C3 7614   1.831   3.514  15.527 -0.3554  0.2876 -0.9758
  509TMC3    C4 7615   1.583   3.562  15.610  0.4666 -0.2554 -0.0241
  509TMC3    C5 7616   1.660   3.478  15.686  0.2360 -0.7550 -0.1333
  509TMC3    C6 7617   1.792   3.452  15.644  1.3403  0.6019 -0.5547
  509TMC3     C 7618   1.528   3.696  15.409 -0.5739  0.4886  0.8415
  509TMC3     O 7619   1.414   3.684  15.442 -0.7296  0.1176 -0.3777
  509TMC3     H 7620   1.779   3.609  15.348 -2.3001 -1.9608 -0.4748
  509TMC3    H1 7621   1.487   3.590  15.651  0.1187 -2.5403  0.6986
  509TMC3    H2 7622   1.862   3.380  15.685 -0.1001 -0.9227 -0.7363
  509TMC3    C7 7623   1.614   3.417  15.805 -0.0511  0.3151 -0.2195
  509TMC3    C8 7624   1.973   3.509  15.496  0.4139  0.2051 -0.7723
  509TMC3    O1 7625   1.492   3.425  15.826 -0.0560  0.0236 -0.8743
  509TMC3    O2 7626   2.034   3.428  15.563 -0.2128 -0.2412  0.4434
  510MPD2     C 7627   4.572   0.072  14.405  0.3928  0.8814  0.1485
  510MPD2    C1 7628   4.643   0.003  14.497  0.3084 -0.7564  0.1275
  510MPD2    C2 7629   0.038   4.730  14.466 -0.1474 -0.0478 -0.2182
  510MPD2    C3 7630   0.094   0.039  14.346 -0.0578  1.2403  0.8799
  510MPD2    C4 7631   0.013   0.101  14.257 -0.9008  0.0816 -0.0934
  510MPD2    C5 7632   4.619   0.123  14.289  0.4678  0.3759  0.3002
  510MPD2     H 7633   0.108   4.684  14.535  2.3462  1.1612 -1.9133
  510MPD2    H1 7634   0.037   0.131  14.156 -1.5233  1.1208  0.0663
  510MPD2    H2 7635   4.466   0.090  14.420  0.0203 -0.8724 -0.3684
  510MPD2    H3 7636   4.556   0.171  14.215  3.6591  3.3120 -0.4996
  510MPD2     N 7637   0.231   0.021  14.336 -0.0463 -0.5573 -0.7965
  510MPD2    H5 7638   0.276   4.723  14.420 -1.4929 -1.7679 -0.5009
  510MPD2    N1 7639   4.578   4.691  14.614  0.0272 -0.2300 -0.8782
  510MPD2    H7 7640   4.479   4.710  14.626  0.1233 -1.4490  1.8933
  511TMC3    C1 7641   4.548   4.534  14.786 -0.0880  0.0266 -0.0849
  511TMC3    C2 7642   4.480   4.584  14.891  0.2957 -0.1513  0.3854
  511TMC3    C3 7643   4.397   4.498  14.951 -0.0615  0.2140  0.1601
  511TMC3    C4 7644   4.550   4.400  14.756  0.3785  0.2653  0.9040
  511TMC3    C5 7645   4.469   4.312  14.821  0.0313  0.3258  0.2484
  511TMC3    C6 7646   4.382   4.363  14.910 -0.0307  1.1850 -0.4645
  511TMC3     C 7647   4.640   4.619  14.709  0.1848  0.4247  0.1497
  511TMC3     O 7648   0.026   4.607  14.732 -0.3174 -0.2699 -0.0162
  511TMC3     H 7649   4.498   4.689  14.912  1.5154 -0.0469 -1.1978
  511TMC3    H1 7650   4.611   4.368  14.671 -0.5076 -0.4420  0.5382
  511TMC3    H2 7651   4.304   4.296  14.943  0.7652 -0.5745 -2.1526
  511TMC3    C7 7652   4.429   4.196  14.739 -0.2625 -1.2078 -0.8555
  511TMC3    C8 7653   4.314   4.550  15.056 -0.6836 -0.4228 -0.1970
  511TMC3    O1 7654   4.471   4.189  14.626 -0.7733  0.3282  0.5352
  511TMC3    O2 7655   4.301   4.673  15.060  0.2604  0.0209 -0.0351
  512TMC3    C1 7656   3.262   3.942  13.065  0.3827  1.0070  1.3109
  512TMC3    C2 7657   3.318   3.914  13.193  0.2950  0.2616 -0.4744
  512TMC3    C3 7658   3.426   3.827  13.205 -0.5847  0.2616 -0.1213
  512TMC3    C4 7659   3.314   3.876  12.959 -0.1030 -0.5431 -0.6018
  512TMC3    C5 7660   3.425   3.795  12.978  0.6635  0.0750 -0.2610
  512TMC3    C6 7661   3.481   3.767  13.097  0.0691  0.2927 -0.5243
  512TMC3     C 7662   3.178   4.061  13.053  0.0891  0.0242 -0.4913
  512TMC3     O 7663   3.110   4.080  13.152 -1.0599 -0.1670 -0.3380
  512TMC3     H 7664   3.300   3.973  13.282 -1.2277 -0.8709 -0.0252
  512TMC3    H1 7665   3.267   3.888  12.862  2.5372  1.5867 -1.6303
  512TMC3    H2 7666   3.573   3.711  13.112  0.3116  1.0748  0.9214
  512TMC3    C7 7667   3.502   3.768  12.860  0.4948 -0.0148  0.0915
  512TMC3    C8 7668   3.520   3.862  13.311  0.7067 -0.0794  0.2743
  512TMC3    O1 7669   3.478   3.841  12.766  0.2400 -0.5394  0.5773
  512TMC3    O2 7670   3.586   3.776  13.368  0.0597 -0.2650  0.4101
  513MPD2     C 7671   0.574   3.979  12.897  0.1151  0.7723  0.5125
  513MPD2    C1 7672   0.553   3.856  12.936  0.3568  0.5069 -0.3306
  513MPD2    C2 7673   0.540   3.823  13.070 -0.4944  0.3253 -0.3710
  513MPD2    C3 7674   0.574   3.921  13.159 -0.0659  0.0170  0.0519
  513MPD2    C4 7675   0.590   4.051  13.116 -0.6020 -0.6380  0.7998
  513MPD2    C5 7676   0.577   4.088  12.988 -0.0463  0.0957  0.7260
  513MPD2     H 7677   0.517   3.719  13.090  0.0509  0.2444 -0.1612
  513MPD2    H1 7678   0.594   4.132  13.187  0.3136 -1.8421  2.1236
  513MPD2    H2 7679   0.573   4.003  12.791  0.6273  0.8855  0.5362
  513MPD2    H3 7680   0.588   4.191  12.955  0.8593 -0.4314 -0.6243
  513MPD2     N 7681   0.589   3.874  13.297 -0.2067  0.5006 -0.1617
  513MPD2    H5 7682   0.581   3.775  13.321 -2.4008  0.4163 -1.2321
  513MPD2    N1 7683   0.552   3.765  12.831  0.5554 -0.2258  0.6824
  513MPD2    H7 7684   0.601   3.793  12.747  0.8233  0.5113  1.0814
  514TMC3    C1 7685   0.566   3.546  12.728  0.4406  0.6898 -0.0014
  514TMC3    C2 7686   0.664   3.604  12.648  0.5421 -0.1194  0.2433
  514TMC3    C3 7687   0.762   3.523  12.596  0.7437 -0.4321  0.1175
  514TMC3    C4 7688   0.573   3.423  12.769  0.1197 -0.3736  0.1312
  514TMC3    C5 7689   0.681   3.349  12.727  0.5083 -0.5874  0.4759
  514TMC3    C6 7690   0.776   3.392  12.638 -0.1412  0.3320  0.5167
  514TMC3     C 7691   0.519   3.629  12.842  0.4229 -0.2463  0.1566
  514TMC3     O 7692   0.473   3.564  12.937  0.1173  0.3653 -0.2739
  514TMC3     H 7693   0.665   3.711  12.626 -0.6982 -0.4054 -1.2559
  514TMC3    H1 7694   0.492   3.374  12.822 -0.8116 -1.1697 -2.0171
  514TMC3    H2 7695   0.863   3.328  12.632  0.2400  0.7861  1.1078
  514TMC3    C7 7696   0.741   3.274  12.838  0.4100 -0.8903 -0.5781
  514TMC3    C8 7697   0.883   3.575  12.540  0.4368 -0.2652 -0.1446
  514TMC3    O1 7698   0.832   3.196  12.825  0.3296 -0.0767  0.2892
  514TMC3    O2 7699   0.916   3.686  12.581  0.2225 -0.4066  0.1765
  515MPD2     C 7700   3.805   1.324  14.246 -0.8626  0.0228 -0.3026
  515MPD2    C1 7701   3.709   1.307  14.342  0.3699  0.2148  0.2684
  515MPD2    C2 7702   3.742   1.320  14.474 -0.0652  0.0199 -0.2636
  515MPD2    C3 7703   3.865   1.368  14.512  0.4357  0.2338  0.1760
  515MPD2    C4 7704   3.956   1.402  14.417 -0.3732  0.5160 -0.0210
  515MPD2    C5 7705   3.933   1.370  14.283 -0.3391 -0.0336 -0.1107
  515MPD2     H 7706   3.663   1.304  14.547  0.0964  2.8791  0.5581
  515MPD2    H1 7707   4.053   1.446  14.440 -0.1299  0.1956 -0.4337
  515MPD2    H2 7708   3.777   1.318  14.142  0.5744  0.3362 -0.6982
  515MPD2    H3 7709   4.018   1.382  14.217 -1.8658  0.8628 -1.8834
  515MPD2     N 7710   3.906   1.376  14.644 -0.1386 -0.7951  0.3978
  515MPD2    H5 7711   3.994   1.422  14.664 -1.8862  2.9031 -0.3997
  515MPD2    N1 7712   3.579   1.261  14.324  0.0095 -0.7765 -0.5964
  515MPD2    H7 7713   3.530   1.246  14.412  2.2825 -0.3163  0.7608
  516TMC3    C1 7714   3.395   1.166  14.206 -0.8736  0.0660  1.0888
  516TMC3    C2 7715   3.301   1.216  14.121 -0.5876 -0.2684  0.2708
  516TMC3    C3 7716   3.182   1.149  14.128  0.2258 -0.4327  0.3791
  516TMC3    C4 7717   3.382   1.069  14.299 -0.0326 -0.5514 -0.0624
  516TMC3    C5 7718   3.263   1.004  14.298  0.0494  0.5545  0.9442
  516TMC3    C6 7719   3.164   1.047  14.214  0.1074  0.9665 -0.3312
  516TMC3     C 7720   3.514   1.248  14.198  1.2160 -0.2753  0.0975
  516TMC3     O 7721   3.546   1.297  14.089 -0.0944  0.1431  0.0747
  516TMC3     H 7722   3.320   1.299  14.053  0.7544 -0.7294  0.0940
  516TMC3    H1 7723   3.478   1.039  14.339 -0.0249  0.8686  0.9541
  516TMC3    H2 7724   3.083   0.976  14.201  1.2593 -0.3145 -0.4907
  516TMC3    C7 7725   3.248   0.889  14.390  0.3133  0.8047  0.3308
  516TMC3    C8 7726   3.060   1.192  14.057 -0.2913 -0.9219 -0.6790
  516TMC3    O1 7727   3.347   0.845  14.451  0.3941  0.5505 -0.0507
  516TMC3    O2 7728   2.964   1.120  14.080  0.2192  0.0241  0.2550
  517MPD2     C 7729   3.161   2.633  17.523 -0.1056  0.0269  0.0992
  517MPD2    C1 7730   3.298   2.613  17.511 -0.1176  0.2486 -0.2882
  517MPD2    C2 7731   3.372   2.707  17.582  0.4664  0.3303  0.4238
  517MPD2    C3 7732   3.312   2.823  17.639  0.1190  0.0184  0.5896
  517MPD2    C4 7733   3.178   2.840  17.632 -0.6691  0.3345  0.2820
  517MPD2    C5 7734   3.100   2.742  17.578  0.2538  0.0205  0.0893
  517MPD2     H 7735   3.479   2.690  17.593  0.0370 -0.6104  2.9092
  517MPD2    H1 7736   3.129   2.926  17.675 -0.0779  0.1132  1.4172
  517MPD2    H2 7737   3.085   2.567  17.481 -2.0269  1.7790  0.8126
  517MPD2    H3 7738   2.992   2.751  17.579  0.2072 -0.6955  3.1900
  517MPD2     N 7739   3.387   2.923  17.707 -0.5292  0.0919 -0.0712
  517MPD2    H5 7740   3.333   2.990   0.022 -0.1491 -0.1345  0.5858
  517MPD2    N1 7741   3.361   2.499  17.445  0.5051 -0.3033 -0.0645
  517MPD2    H7 7742   3.462   2.501  17.453  0.5174 -1.1210  0.0602
  518TMC3    C1 7743   3.387   2.295  17.326 -0.9037  0.5544  0.6572
  518TMC3    C2 7744   3.329   2.179  17.269 -0.1851 -0.4817 -0.1933
  518TMC3    C3 7745   3.402   2.090  17.200 -0.4223 -0.0958  0.3169
  518TMC3    C4 7746   3.519   2.333  17.304 -0.2103  0.3432 -0.2905
  518TMC3    C5 7747   3.592   2.229  17.247 -0.5770 -0.5482  0.4414
  518TMC3    C6 7748   3.534   2.111  17.205  0.4170  0.4693  0.5423
  518TMC3     C 7749   3.296   2.393  17.384  0.0185  0.4304  0.2415
  518TMC3     O 7750   3.176   2.363  17.387 -0.0327  0.0413  0.0924
  518TMC3     H 7751   3.223   2.159  17.277 -0.5038  1.1264 -0.4323
  518TMC3    H1 7752   3.564   2.425  17.340  1.7565 -1.2987  1.3861
  518TMC3    H2 7753   3.604   2.047  17.153  1.2677  1.3119  0.6429
  518TMC3    C7 7754   3.739   2.227  17.265  0.5674  0.2202  0.2806
  518TMC3    C8 7755   3.360   1.954  17.189  0.2085  0.2084 -0.4416
  518TMC3    O1 7756   3.799   2.328  17.251  0.3159 -0.5864  0.6806
  518TMC3    O2 7757   3.420   1.891  17.106  0.1013 -0.8435 -0.2404
  519MPD2     C 7758   0.126   1.276  13.907  0.5054 -0.3638 -0.0776
  519MPD2    C1 7759   0.036   1.187  13.849  0.5999 -0.4852  0.2051
  519MPD2    C2 7760   0.029   1.061  13.908  0.1186  0.0632 -0.3055
  519MPD2    C3 7761   0.115   1.015  14.012  0.6330  0.2422  0.5263
  519MPD2    C4 7762   0.209   1.112  14.053 -0.0782 -0.6744  0.0212
  519MPD2    C5 7763   0.210   1.241  14.010 -0.2795  0.4456  0.1284
  519MPD2     H 7764   4.696   0.989  13.863  0.9848 -0.4088 -0.8488
  519MPD2    H1 7765   0.289   1.079  14.119  0.0073 -0.6993 -0.0940
  519MPD2    H2 7766   0.130   1.382  13.882  1.9665 -0.3304  0.2497
  519MPD2    H3 7767   0.287   1.300  14.060 -0.7588  1.3280 -0.1664
  519MPD2     N 7768   0.136   0.878  14.051  0.1019 -0.4289  0.2411
  519MPD2    H5 7769   0.196   0.853  14.129 -1.3375 -0.3864  1.3694
  519MPD2    N1 7770   4.689   1.236  13.745 -0.6004 -0.2546 -0.7524
  519MPD2    H7 7771   4.706   1.331  13.714 -3.8418  0.3879 -0.6312
  520TMC3    C1 7772   0.115   0.641  14.030 -0.6192 -0.3567  0.3141
  520TMC3    C2 7773   0.024   0.542  13.994 -0.0890 -0.0701 -0.1526
  520TMC3    C3 7774   0.079   0.419  13.987  0.0893 -0.2158  0.2137
  520TMC3    C4 7775   0.245   0.623  14.072 -0.0153 -0.1371 -0.2787
  520TMC3    C5 7776   0.288   0.492  14.073  0.8037 -0.3952  0.2525
  520TMC3    C6 7777   0.202   0.395  14.039  0.8989 -0.4143 -0.2022
  520TMC3     C 7778   0.059   0.775  13.999  0.2562  0.0610 -0.0031
  520TMC3     O 7779   4.698   0.770  13.921 -0.4088  0.5598 -0.3487
  520TMC3     H 7780   4.654   0.555  13.968 -0.7886 -0.1405  2.6294
  520TMC3    H1 7781   0.316   0.704  14.071  0.0338 -0.1965 -2.6107
  520TMC3    H2 7782   0.231   0.291  14.044 -2.9109 -1.2981  3.7178
  520TMC3    C7 7783   0.430   0.472  14.019  0.1721  0.9566 -0.0434
  520TMC3    C8 7784   0.061   0.370  13.852  0.8443 -0.5844 -0.1446
  520TMC3    O1 7785   0.532   0.536  14.053 -0.1367  0.1480 -0.0939
  520TMC3    O2 7786   0.165   0.326  13.806 -0.3260  0.1414 -0.0728
  521MPD2     C 7787   1.080   3.807   0.038  0.0227  0.0447  0.2832
  521MPD2    C1 7788   1.042   3.714  17.680 -0.4654 -1.0324  0.5690
  521MPD2    C2 7789   1.141   3.653  17.603  0.1854 -0.3152 -0.2238
  521MPD2    C3 7790   1.276   3.673  17.628 -0.0592 -0.9426  0.5500
  521MPD2    C4 7791   1.313   3.769  17.725  0.5591 -0.3096  0.9491
  521MPD2    C5 7792   1.217   3.835   0.054  0.4944  0.0423  0.8533
  521MPD2     H 7793   1.115   3.584  17.524  1.8935 -0.7351 -0.4230
  521MPD2    H1 7794   1.419   3.794  17.727  0.2055  1.1449  1.3972
  521MPD2    H2 7795   1.005   3.857   0.097  1.4249 -0.0755  2.1756
  521MPD2    H3 7796   1.251   3.910   0.124  0.5397  2.8973 -2.2055
  521MPD2     N 7797   1.367   3.610  17.540 -0.0196 -0.0852 -0.3759
  521MPD2    H5 7798   1.322   3.568  17.459 -0.4857  2.3308 -1.3847
  521MPD2    N1 7799   0.909   3.716  17.644  0.1490  0.4579 -0.2499
  521MPD2    H7 7800   0.854   3.775  17.705 -0.4064  0.8999 -1.1835
  522TMC3    C1 7801   1.559   3.541  17.432  0.0866 -0.8523 -0.6808
  522TMC3    C2 7802   1.696   3.556  17.414 -0.2407  0.2634 -0.1076
  522TMC3    C3 7803   1.759   3.478  17.321  0.0148 -0.1818  0.0741
  522TMC3    C4 7804   1.484   3.445  17.371 -0.1720 -0.0202 -0.2724
  522TMC3    C5 7805   1.552   3.375  17.275 -0.0113  0.5049 -0.0455
  522TMC3    C6 7806   1.681   3.384  17.250 -0.7430  0.6720  0.6642
  522TMC3     C 7807   1.505   3.624  17.536  0.1542  0.3384  0.4216
  522TMC3     O 7808   1.584   3.690  17.606  0.7538 -0.3892  0.3968
  522TMC3     H 7809   1.751   3.636  17.461 -0.1879 -0.5826  1.2829
  522TMC3    H1 7810   1.385   3.410  17.398 -0.5462  1.4692  0.3013
  522TMC3    H2 7811   1.711   3.343  17.154  1.0673 -1.0847  1.9608
  522TMC3    C7 7812   1.482   3.273  17.199  0.1646 -0.0345  0.6255
  522TMC3    C8 7813   1.898   3.484  17.304  0.0342  0.2031 -0.0365
  522TMC3    O1 7814   1.542   3.170  17.175  0.0673 -1.1471 -0.6679
  522TMC3    O2 7815   1.957   3.571  17.366 -0.0498 -0.2994  0.0816
  523MPD2     C 7816   3.217   3.069  10.137  0.1162  0.2349 -0.1222
  523MPD2    C1 7817   3.105   2.998  10.093 -0.2618 -0.1306  0.3369
  523MPD2    C2 7818   3.024   3.051   9.997  0.4350 -0.3117  0.5148
  523MPD2    C3 7819   3.056   3.172   9.936  0.7670  0.4585 -0.2592
  523MPD2    C4 7820   3.180   3.220   9.953 -0.2314  0.3630 -0.1157
  523MPD2    C5 7821   3.250   3.177  10.065  0.0243  0.4891  0.4355
  523MPD2     H 7822   2.942   2.990   9.960 -1.2180  3.7055 -2.3644
  523MPD2    H1 7823   3.207   3.316   9.911  0.7106  0.0457 -0.2430
  523MPD2    H2 7824   3.277   3.037  10.222  1.8811 -0.0264 -1.4623
  523MPD2    H3 7825   3.343   3.222  10.096  0.5599 -0.6847  0.5584
  523MPD2     N 7826   2.971   3.249   9.858  0.2608 -0.0984  0.1049
  523MPD2    H5 7827   3.003   3.339   9.823 -0.2082 -0.8573 -2.2524
  523MPD2    N1 7828   3.078   2.890  10.177 -0.2621  0.6560  0.4638
  523MPD2    H7 7829   3.141   2.881  10.257  1.2000  0.4181 -0.7197
  524TMC3    C1 7830   2.769   3.331   9.766 -0.5252 -0.5235  0.7263
  524TMC3    C2 7831   2.683   3.308   9.659  0.8296  0.1052  0.3055
  524TMC3    C3 7832   2.669   3.422   9.580  0.7693 -0.6522 -0.1606
  524TMC3    C4 7833   2.796   3.455   9.813  0.3497 -1.0025 -0.5390
  524TMC3    C5 7834   2.766   3.562   9.739 -0.0742  0.3053 -0.7372
  524TMC3    C6 7835   2.704   3.551   9.620  0.1935  0.4117  0.5998
  524TMC3     C 7836   2.837   3.220   9.833 -0.6503 -0.3042  0.7053
  524TMC3     O 7837   2.785   3.106   9.829  0.3181  0.2062 -0.2664
  524TMC3     H 7838   2.688   3.210   9.613  2.1551  1.2529 -1.9891
  524TMC3    H1 7839   2.841   3.475   9.909 -0.0562  0.1407 -0.5898
  524TMC3    H2 7840   2.690   3.639   9.558 -1.5743  1.1097  1.9754
  524TMC3    C7 7841   2.770   3.683   9.812  0.5022 -0.2001 -0.1368
  524TMC3    C8 7842   2.597   3.422   9.442  0.0757 -0.6185 -0.5999
  524TMC3    O1 7843   2.863   3.710   9.883  0.9187 -0.1897 -0.3131
  524TMC3    O2 7844   2.599   3.526   9.374 -0.3904  0.2691 -0.0432
  525MPD2     C 7845   1.347   0.320  14.235  0.4652 -0.4167  0.3331
  525MPD2    C1 7846   1.474   0.344  14.269  0.2208 -0.5008 -0.1066
  525MPD2    C2 7847   1.531   0.471  14.242 -0.3166 -0.3859 -0.5952
  525MPD2    C3 7848   1.448   0.568  14.182 -0.2449 -0.5039  0.0235
  525MPD2    C4 7849   1.320   0.534  14.145 -0.4366 -0.1548  0.8189
  525MPD2    C5 7850   1.272   0.408  14.171 -0.5982 -1.3612 -0.0192
  525MPD2     H 7851   1.632   0.483  14.278 -0.1919  2.9011 -1.9688
  525MPD2    H1 7852   1.253   0.606  14.100  0.1702 -0.7100 -0.9841
  525MPD2    H2 7853   1.304   0.221  14.246 -1.8792  0.6424  0.7436
  525MPD2    H3 7854   1.174   0.382  14.134  0.2591  0.0814 -3.3288
  525MPD2     N 7855   1.485   0.704  14.162  0.4144 -0.2772  0.0331
  525MPD2    H5 7856   1.423   0.767  14.112  0.2606 -0.7325 -0.3503
  525MPD2    N1 7857   1.553   0.246  14.328  0.2508 -0.3705  0.0566
  525MPD2    H7 7858   1.649   0.269  14.353 -0.8542  3.5426  0.7410
  526TMC3    C1 7859   1.626   0.055  14.433 -0.4055 -0.1294  0.7729
  526TMC3    C2 7860   1.603   4.727  14.554 -0.1092 -0.2835 -0.1895
  526TMC3    C3 7861   1.706   4.672  14.619 -0.8911  0.0502  0.5142
  526TMC3    C4 7862   1.750   0.052  14.377  0.2940 -0.1462  0.4910
  526TMC3    C5 7863   1.846   4.731  14.446  0.3644  0.7256  0.1662
  526TMC3    C6 7864   1.834   4.680  14.569  0.3774 -0.1142 -0.2784
  526TMC3     C 7865   1.515   0.126  14.383  0.0657 -0.4806  0.2288
  526TMC3     O 7866   1.401   0.085  14.403 -0.3723 -0.0638  0.1934
  526TMC3     H 7867   1.505   4.721  14.600 -0.3445 -0.1012 -0.6689
  526TMC3    H1 7868   1.765   0.087  14.275  1.9357 -0.4408  0.6475
  526TMC3    H2 7869   1.914   4.626  14.618  1.6248  1.0955 -0.9778
  526TMC3    C7 7870   1.980   0.032  14.400 -0.2582 -0.4471  0.7122
  526TMC3    C8 7871   1.689   4.626  14.757 -0.8227  0.1792  0.1592
  526TMC3    O1 7872   2.029   0.141  14.439  0.2204 -0.4333 -0.3850
  526TMC3    O2 7873   1.785   4.650  14.832  0.3849  0.1008  0.7580
  527MPD2     C 7874   0.276   3.374   1.451 -0.0913 -0.1397  0.0285
  527MPD2    C1 7875   0.203   3.271   1.397  0.8979  0.9897 -0.1937
  527MPD2    C2 7876   0.256   3.143   1.382 -0.2701 -0.2421  0.1139
  527MPD2    C3 7877   0.393   3.114   1.414  0.0019 -0.8602 -0.0400
  527MPD2    C4 7878   0.456   3.215   1.480 -0.0531  0.3060  0.0298
  527MPD2    C5 7879   0.405   3.344   1.491  0.3648 -0.0063  0.8134
  527MPD2     H 7880   0.203   3.078   1.313 -1.1253  0.9532 -0.3563
  527MPD2    H1 7881   0.561   3.203   1.501 -0.2560 -0.5712  0.5376
  527MPD2    H2 7882   0.230   3.472   1.451 -1.6576 -0.8833  0.1447
  527MPD2    H3 7883   0.469   3.424   1.527 -0.0138  1.7421 -2.3838
  527MPD2     N 7884   0.459   3.003   1.355 -0.4263  0.4537 -0.0740
  527MPD2    H5 7885   0.407   2.930   1.308  2.8039 -0.6951 -1.8265
  527MPD2    N1 7886   0.075   3.291   1.332  0.1264 -0.3106  0.2233
  527MPD2    H7 7887   0.040   3.208   1.285  1.0036 -0.9202  0.6399
  528TMC3    C1 7888   4.619   3.378   1.245  0.0576  0.3736  0.4343
  528TMC3    C2 7889   4.635   3.306   1.126  0.7530 -0.1474 -0.1221
  528TMC3    C3 7890   4.528   3.285   1.043  0.2582  1.3693 -0.0770
  528TMC3    C4 7891   4.499   3.418   1.287 -1.0689  0.0757  0.7178
  528TMC3    C5 7892   4.393   3.380   1.212 -0.0865 -0.6892 -0.7677
  528TMC3    C6 7893   4.403   3.315   1.092  0.6297 -0.1031  0.3699
  528TMC3     C 7894   4.724   3.399   1.333  0.8734  0.5582  0.9000
  528TMC3     O 7895   4.726   3.495   1.404  0.0757  0.3887  0.0656
  528TMC3     H 7896   4.731   3.288   1.081  1.7622  0.6028  1.7500
  528TMC3    H1 7897   4.488   3.470   1.382 -0.6075  2.8527 -0.7565
  528TMC3    H2 7898   4.317   3.270   1.045  1.2651 -0.9512  0.0186
  528TMC3    C7 7899   4.258   3.430   1.246  0.6114  0.2106 -0.3368
  528TMC3    C8 7900   4.544   3.188   0.932 -0.1797  0.5108 -0.3487
  528TMC3    O1 7901   4.166   3.391   1.172 -0.1387 -0.0201  0.0383
  528TMC3    O2 7902   4.643   3.110   0.943 -0.4037 -0.1176  0.1175
  529MPD2     C 7903   2.681   1.935   0.567  0.7810  0.0991 -0.3088
  529MPD2    C1 7904   2.727   1.823   0.504  0.5877 -0.0369 -1.2809
  529MPD2    C2 7905   2.686   1.793   0.368  0.1688 -0.4770 -0.3371
  529MPD2    C3 7906   2.612   1.880   0.294  0.1103  0.2599  0.1642
  529MPD2    C4 7907   2.563   1.996   0.362 -0.3209 -0.4557 -0.5887
  529MPD2    C5 7908   2.600   2.014   0.495 -0.0476  0.6501 -0.0302
  529MPD2     H 7909   2.715   1.703   0.314 -2.0933 -0.8512 -0.9059
  529MPD2    H1 7910   2.509   2.082   0.323  0.8382  0.7285  0.4085
  529MPD2    H2 7911   2.703   1.967   0.668 -2.0969 -1.8863  0.9421
  529MPD2    H3 7912   2.574   2.106   0.545 -0.0282  0.4837  0.2832
  529MPD2     N 7913   2.586   1.859   0.158  0.1371 -0.0588 -0.0529
  529MPD2    H5 7914   2.643   1.786   0.118  0.2609 -0.6957  1.3026
  529MPD2    N1 7915   2.792   1.724   0.576 -0.5290 -0.2534 -0.5733
  529MPD2    H7 7916   2.801   1.634   0.530  0.7325 -1.0531  1.2476
  530TMC3    C1 7917   2.903   1.596   0.734  0.6472 -0.3866  0.0520
  530TMC3    C2 7918   2.994   1.603   0.837 -0.3861  0.7943 -0.2089
  530TMC3    C3 7919   3.026   1.487   0.905  0.2026  0.4075  0.6848
  530TMC3    C4 7920   2.820   1.489   0.721  0.4367 -0.0669 -0.5208
  530TMC3    C5 7921   2.852   1.380   0.801 -0.0554 -0.1077  0.8250
  530TMC3    C6 7922   2.952   1.372   0.894 -0.3457  0.4845  0.5654
  530TMC3     C 7923   2.855   1.729   0.695 -0.3835 -0.5323 -0.3335
  530TMC3     O 7924   2.863   1.824   0.772 -0.0389 -0.1159 -0.2713
  530TMC3     H 7925   3.052   1.693   0.853  0.1608 -0.2607  3.7522
  530TMC3    H1 7926   2.730   1.492   0.660  0.1988 -2.4195 -0.2853
  530TMC3    H2 7927   2.989   1.280   0.938 -0.7821 -0.1341 -0.3625
  530TMC3    C7 7928   2.762   1.267   0.783  0.4867  0.1586  0.3944
  530TMC3    C8 7929   3.134   1.499   0.994  0.0450  0.4650  0.8082
  530TMC3    O1 7930   2.720   1.245   0.668 -0.1798  0.5758  0.0859
  530TMC3    O2 7931   3.168   1.606   1.041  0.1632 -0.1951  0.2401
  531MPD2     C 7932   0.783   3.214  13.343 -0.5330 -0.3554  0.8983
  531MPD2    C1 7933   0.719   3.333  13.313  0.6566  0.0682  0.5204
  531MPD2    C2 7934   0.683   3.367  13.185  0.3794 -0.1946 -0.4913
  531MPD2    C3 7935   0.718   3.286  13.084  0.6376  0.1169  0.1878
  531MPD2    C4 7936   0.794   3.178  13.110 -0.0542 -0.2477 -0.3761
  531MPD2    C5 7937   0.820   3.134  13.235 -0.4476 -0.1305 -0.1255
  531MPD2     H 7938   0.621   3.454  13.168  1.4604  0.5584 -0.5568
  531MPD2    H1 7939   0.815   3.102  13.035 -0.5592 -1.0239  0.2798
  531MPD2    H2 7940   0.815   3.192  13.444  1.4934  1.9708  0.7571
  531MPD2    H3 7941   0.874   3.041  13.246 -1.0510 -0.1074  2.9543
  531MPD2     N 7942   0.683   3.317  12.951  0.2865 -0.1598  0.0379
  531MPD2    H5 7943   0.612   3.390  12.947  1.0227  0.6356  1.3757
  531MPD2    N1 7944   0.703   3.426  13.424 -0.0809  0.6750  0.8890
  531MPD2    H7 7945   0.736   3.403  13.517 -0.0511 -0.1987  0.6608
  532TMC3    C1 7946   0.668   3.635  13.526  0.5760 -0.2829 -0.2191
  532TMC3    C2 7947   0.599   3.757  13.514  0.4457 -0.2697  0.4193
  532TMC3    C3 7948   0.660   3.877  13.523  0.0804  0.1913 -0.7929
  532TMC3    C4 7949   0.801   3.646  13.549 -0.8858  0.2069  0.0573
  532TMC3    C5 7950   0.864   3.775  13.570  0.3896  0.2024 -0.7687
  532TMC3    C6 7951   0.791   3.891  13.550  0.3129  0.5430 -0.8653
  532TMC3     C 7952   0.625   3.540  13.425  0.1773 -0.0835 -0.3373
  532TMC3     O 7953   0.536   3.572  13.358 -0.4731  0.0664 -0.4653
  532TMC3     H 7954   0.491   3.747  13.504  0.5637  0.9513 -2.1695
  532TMC3    H1 7955   0.850   3.550  13.558 -0.6568  0.3599  0.4432
  532TMC3    H2 7956   0.834   3.990  13.554 -1.4222  1.2285  0.8765
  532TMC3    C7 7957   1.000   3.780  13.615  0.2093 -0.6265  0.5548
  532TMC3    C8 7958   0.635   3.957  13.400 -0.3261 -0.4962  0.4188
  532TMC3    O1 7959   1.058   3.886  13.615 -0.3214 -0.3216  0.3714
  532TMC3    O2 7960   0.673   4.072  13.403 -0.0066 -0.0903  0.0204
  533TMC3    C1 7961   1.567   0.907  14.225  0.3075  0.4671 -0.1119
  533TMC3    C2 7962   1.684   0.974  14.210  0.2453 -0.0976 -0.6412
  533TMC3    C3 7963   1.694   1.082  14.289 -0.1958  0.9239 -0.3005
  533TMC3    C4 7964   1.467   0.936  14.321  0.4490  0.1735 -0.3637
  533TMC3    C5 7965   1.494   1.034  14.410 -1.0204  0.2806 -0.1568
  533TMC3    C6 7966   1.610   1.106  14.392 -0.1188 -0.1322  0.5031
  533TMC3     C 7967   1.594   0.767  14.213 -0.5865 -0.9613 -1.2471
  533TMC3     O 7968   1.683   0.721  14.285  0.2412 -0.0854 -0.2134
  533TMC3     H 7969   1.752   0.949  14.129  1.6068  1.3018  0.0809
  533TMC3    H1 7970   1.384   0.868  14.337  2.0937 -1.8740 -0.5969
  533TMC3    H2 7971   1.612   1.195  14.454 -1.6459 -0.1157  0.5352
  533TMC3    C7 7972   1.457   1.008  14.548 -0.3067 -0.7284 -0.0249
  533TMC3    C8 7973   1.802   1.180  14.280  0.3524  0.3948  0.5322
  533TMC3    O1 7974   1.382   0.915  14.567  0.3684  0.0553 -0.3515
  533TMC3    O2 7975   1.831   1.255  14.369 -0.8755 -0.6872 -0.2074
  534MPD2     C 7976   0.664   1.584   1.016 -0.8411  0.2500 -0.6772
  534MPD2    C1 7977   0.587   1.697   1.015 -0.4490 -0.0095 -0.8207
  534MPD2    C2 7978   0.452   1.685   0.981  0.2591 -0.2139 -0.3902
  534MPD2    C3 7979   0.387   1.562   0.946 -0.2102  0.6241 -0.7006
  534MPD2    C4 7980   0.460   1.456   0.960 -0.2483 -0.4081  0.2388
  534MPD2    C5 7981   0.595   1.466   0.993  0.4896 -0.5035 -0.1388
  534MPD2     H 7982   0.395   1.776   0.966 -0.4234  0.0298  3.8506
  534MPD2    H1 7983   0.413   1.360   0.943 -0.6229 -0.4765  1.6321
  534MPD2    H2 7984   0.767   1.582   1.050 -0.6548  1.4721 -1.1820
  534MPD2    H3 7985   0.643   1.371   1.013  1.7548  0.5248  1.7654
  534MPD2     N 7986   0.248   1.552   0.910  1.0116  0.0183 -0.3422
  534MPD2    H5 7987   0.210   1.459   0.897  0.5759 -0.1512  2.1807
  534MPD2    N1 7988   0.635   1.830   1.045 -0.2166  0.5515  0.1006
  534MPD2    H7 7989   0.565   1.904   1.048  0.1144  0.9609 -2.3776
  535TMC3    C1 7990   0.027   1.618   0.861  0.0775  0.3610 -0.4010
  535TMC3    C2 7991   4.728   1.508   0.937  0.1053 -0.3007 -0.9643
  535TMC3    C3 7992   4.602   1.461   0.910 -0.5621 -0.2432  0.8582
  535TMC3    C4 7993   4.679   1.683   0.766  0.0110 -0.2969  0.0869
  535TMC3    C5 7994   4.559   1.628   0.746 -0.3147 -0.0988  0.6499
  535TMC3    C6 7995   4.522   1.503   0.808 -0.2257  0.2830 -0.1495
  535TMC3     C 7996   0.161   1.657   0.889  0.8667  0.1502  0.1573
  535TMC3     O 7997   0.182   1.777   0.873  0.1138  0.5020 -0.7948
  535TMC3     H 7998   0.037   1.482   1.032  2.2717  2.7674 -1.1412
  535TMC3    H1 7999   4.710   1.766   0.703  1.9368 -2.1668 -1.4087
  535TMC3    H2 8000   4.416   1.480   0.806 -0.1341 -0.1350 -0.1299
  535TMC3    C7 8001   4.461   1.690   0.669 -0.0262 -0.1275  0.5756
  535TMC3    C8 8002   4.527   1.427   1.028 -0.4450  0.3115 -0.4933
  535TMC3    O1 8003   4.406   1.623   0.581 -0.1643 -0.1456  0.2177
  535TMC3    O2 8004   4.445   1.341   1.019  0.9066 -0.2131  0.2349
  536MPD2     C 8005   3.165   4.647  16.139  0.0400  0.0983  0.1944
  536MPD2    C1 8006   3.051   4.573  16.147 -0.9540  0.4171  0.0986
  536MPD2    C2 8007   2.954   4.588  16.052  0.4834 -0.1188  0.3838
  536MPD2    C3 8008   2.972   4.668  15.946  0.2665  0.2034  0.0051
  536MPD2    C4 8009   3.089   0.019  15.942  0.2515 -0.4145 -0.5438
  536MPD2    C5 8010   3.183   0.000  16.034 -0.2852 -0.0932  0.2564
  536MPD2     H 8011   2.865   4.525  16.053 -0.3412  1.0727  1.0750
  536MPD2    H1 8012   3.105   0.097  15.869 -2.6005 -1.6532 -2.4486
  536MPD2    H2 8013   3.242   4.638  16.215  0.9745  2.0136 -0.5058
  536MPD2    H3 8014   3.272   0.062  16.034  0.1657 -0.7498  1.2014
  536MPD2     N 8015   2.875   4.686  15.843 -0.7413 -0.1087  0.1719
  536MPD2    H5 8016   2.890   0.029  15.781 -0.5708 -0.0675  0.2645
  536MPD2    N1 8017   3.039   4.472  16.254 -0.1475 -0.6491 -0.3538
  536MPD2    H7 8018   3.112   4.470  16.324 -0.8540 -1.4170  0.3429
  537TMC3    C1 8019   2.952   4.317  16.407  0.9279  0.1992  0.1160
  537TMC3    C2 8020   3.011   4.395  16.503 -0.4884  0.1101  0.3150
  537TMC3    C3 8021   2.994   4.348  16.634 -0.2489 -0.7005 -0.0167
  537TMC3    C4 8022   2.878   4.207  16.429 -0.9271  0.6881 -0.4459
  537TMC3    C5 8023   2.876   4.150  16.557 -0.7847 -0.3515  0.0624
  537TMC3    C6 8024   2.936   4.229  16.660 -0.3680  0.0198 -0.8563
  537TMC3     C 8025   2.949   4.369  16.265 -0.3847 -0.3476  0.1225
  537TMC3     O 8026   2.870   4.320  16.186 -0.2276 -0.1239  0.2822
  537TMC3     H 8027   3.048   4.495  16.483 -0.7185  0.5135  1.8596
  537TMC3    H1 8028   2.824   4.169  16.343  0.8706 -0.2517 -1.1630
  537TMC3    H2 8029   2.916   4.193  16.761 -0.2714 -0.0196 -0.8512
  537TMC3    C7 8030   2.842   4.010  16.561  0.2853 -0.4922 -0.1755
  537TMC3    C8 8031   3.070   4.416  16.727 -0.9129 -0.2064  0.0264
  537TMC3    O1 8032   2.815   3.969  16.450  0.0719 -0.1074 -0.1359
  537TMC3    O2 8033   3.124   4.518  16.692  0.4285  0.3980  0.1925
  538TMC3    C1 8034   3.902   2.228  11.005 -0.1541  0.6770 -0.6317
  538TMC3    C2 8035   3.877   2.128  10.912  0.2496  0.0721 -0.5630
  538TMC3    C3 8036   3.885   2.166  10.783  0.1694  0.3363 -0.3068
  538TMC3    C4 8037   3.902   2.360  10.963 -0.2607 -0.3101 -0.3145
  538TMC3    C5 8038   3.908   2.388  10.840  0.2286  0.1400  0.1990
  538TMC3    C6 8039   3.894   2.297  10.739  0.5918  0.3623 -0.4273
  538TMC3     C 8040   3.878   2.191  11.143  0.8949  0.7150  0.5563
  538TMC3     O 8041   3.832   2.084  11.175 -0.0909 -0.6754  0.1361
  538TMC3     H 8042   3.887   2.025  10.945  2.6820  0.2691 -0.6697
  538TMC3    H1 8043   3.892   2.440  11.035  1.1421 -1.7541  1.4828
  538TMC3    H2 8044   3.867   2.320  10.637 -0.6713  0.6968 -0.0189
  538TMC3    C7 8045   3.888   2.531  10.802  0.2627  0.4419 -0.1805
  538TMC3    C8 8046   3.902   2.060  10.685  0.6293  0.7465  0.2107
  538TMC3    O1 8047   3.852   2.606  10.887 -0.1733  0.4712  0.4903
  538TMC3    O2 8048   3.859   1.947  10.710  0.2796  0.0372  0.3470
  539MPD2     C 8049   3.413   2.027  11.929 -0.4665  0.2457  0.1041
  539MPD2    C1 8050   3.433   2.003  11.793 -0.6836 -0.1463  0.5661
  539MPD2    C2 8051   3.445   2.116  11.714  0.5160 -0.5107 -0.2547
  539MPD2    C3 8052   3.436   2.245  11.770  0.5091  0.1163 -0.1080
  539MPD2    C4 8053   3.414   2.266  11.905  0.2298 -0.6435  0.2127
  539MPD2    C5 8054   3.415   2.153  11.983  0.2592  0.4219  0.0686
  539MPD2     H 8055   3.463   2.106  11.607 -0.9532 -2.0781 -0.3628
  539MPD2    H1 8056   3.406   2.369  11.937  2.1919 -0.9317  1.6132
  539MPD2    H2 8057   3.404   1.939  11.993  1.9887 -0.3907 -0.4222
  539MPD2    H3 8058   3.390   2.173  12.086  1.0885  0.7354  0.1994
  539MPD2     N 8059   3.427   2.366  11.689  0.3038 -0.1009  0.2242
  539MPD2    H5 8060   3.414   2.446  11.751 -0.4439  0.9895 -1.3224
  539MPD2    N1 8061   3.430   1.878  11.734 -0.5560  0.7481  0.0043
  539MPD2    H7 8062   3.433   1.876  11.632 -1.0960 -0.9361  0.0133
  540TMC3    C1 8063   3.380   2.514  11.519  0.6039  0.5664 -0.4528
  540TMC3    C2 8064   3.312   2.527  11.400 -0.3048  0.2113  0.3103
  540TMC3    C3 8065   3.231   2.641  11.391 -0.1048 -0.1680  0.1158
  540TMC3    C4 8066   3.372   2.602  11.624  0.4814  0.1393 -0.1585
  540TMC3    C5 8067   3.299   2.712  11.596  0.0359  0.0240  0.0488
  540TMC3    C6 8068   3.229   2.737  11.479  0.4146 -0.5435 -0.3307
  540TMC3     C 8069   3.422   2.380  11.552  0.6471  0.3729 -0.3508
  540TMC3     O 8070   3.427   2.302  11.459 -0.3855 -0.0217  0.0036
  540TMC3     H 8071   3.325   2.457  11.319 -1.0155  1.8869 -1.2634
  540TMC3    H1 8072   3.422   2.592  11.719  0.4070 -0.4122 -0.1804
  540TMC3    H2 8073   3.174   2.831  11.477  0.8656 -0.3080 -2.9290
  540TMC3    C7 8074   3.282   2.814  11.697 -0.3092  0.3746  0.0899
  540TMC3    C8 8075   3.162   2.670  11.268  0.5098 -0.0682 -0.5946
  540TMC3    O1 8076   3.171   2.868  11.706  0.4407  0.2596  0.0499
  540TMC3    O2 8077   3.174   2.785  11.237  0.0744  0.5252  0.3803
  541MPD2     C 8078   1.728   4.085  13.289 -0.9192  0.4391 -0.3442
  541MPD2    C1 8079   1.823   4.084  13.190  0.2242  0.0312 -0.7734
  541MPD2    C2 8080   1.821   4.177  13.089 -0.6067  0.1036  0.2783
  541MPD2    C3 8081   1.719   4.270  13.081 -0.4523  0.5681  0.2736
  541MPD2    C4 8082   1.629   4.274  13.188  0.5044  0.6377 -0.1103
  541MPD2    C5 8083   1.647   4.194  13.297 -0.1555 -0.5869  0.4291
  541MPD2     H 8084   1.894   4.173  13.009 -0.8262  0.4658  0.0563
  541MPD2    H1 8085   1.544   4.341  13.187 -1.0040 -1.2514  0.3786
  541MPD2    H2 8086   1.730   4.017  13.373 -1.2582  1.9102  0.8642
  541MPD2    H3 8087   1.571   4.195  13.375 -0.0235 -2.4187  0.5864
  541MPD2     N 8088   1.711   4.369  12.979  0.4878  0.5188  0.0382
  541MPD2    H5 8089   1.651   4.448  13.002  0.4177  1.7499 -4.2337
  541MPD2    N1 8090   1.919   3.979  13.189  0.1677 -0.0990  0.1413
  541MPD2    H7 8091   1.924   3.908  13.260 -1.5032 -2.1170 -1.7349
  542TMC3    C1 8092   1.715   4.448  12.759  0.2248 -0.1161  0.2422
  542TMC3    C2 8093   1.734   4.417  12.624 -0.4723  0.4471  0.1392
  542TMC3    C3 8094   1.728   4.515  12.531 -0.1292 -0.9085  0.6653
  542TMC3    C4 8095   1.704   4.576  12.797  0.0415  0.2633  0.5388
  542TMC3    C5 8096   1.681   4.672  12.701 -0.4063 -0.1780  0.0488
  542TMC3    C6 8097   1.705   4.646  12.566  0.1946 -0.2659  0.3465
  542TMC3     C 8098   1.754   4.345  12.852  0.0129 -0.1144 -0.2061
  542TMC3     O 8099   1.769   4.233  12.804 -0.1937  0.2521 -0.0767
  542TMC3     H 8100   1.744   4.316  12.586  0.5046 -0.0790  1.7921
  542TMC3    H1 8101   1.702   4.594  12.903  1.4253 -0.2431  0.6548
  542TMC3    H2 8102   1.669   4.718  12.493 -0.1798  1.4805  2.2737
  542TMC3    C7 8103   1.696   0.070  12.753 -0.2387 -0.3093  0.5335
  542TMC3    C8 8104   1.733   4.479  12.391  0.3253  0.0763  0.3695
  542TMC3    O1 8105   1.735   0.086  12.865 -0.0199  0.7446 -0.0963
  542TMC3    O2 8106   1.694   4.365  12.363  0.4226  0.2726  0.1271
  543TMC3    C1 8107   2.067   0.913  17.114  0.0382 -0.0742 -0.2067
  543TMC3    C2 8108   2.045   0.863  17.237  0.5647 -0.0784  0.2743
  543TMC3    C3 8109   2.137   0.896  17.335  0.4390 -0.1365  0.1269
  543TMC3    C4 8110   2.158   1.015  17.097  0.6930 -0.5003  0.3468
  543TMC3    C5 8111   2.243   1.052  17.206 -0.0467  0.3676 -0.5209
  543TMC3    C6 8112   2.235   0.995  17.327  0.3701  0.5348  0.4894
  543TMC3     C 8113   2.020   0.826  17.007  0.4141 -0.0955 -0.4551
  543TMC3     O 8114   2.033   0.709  17.032 -0.1038  0.1725 -0.4927
  543TMC3     H 8115   1.980   0.776  17.239  2.2514 -1.3201  2.0056
  543TMC3    H1 8116   2.193   1.037  16.997  5.4661 -0.7741  1.9460
  543TMC3    H2 8117   2.295   1.030  17.410 -2.2820  3.1541  1.2887
  543TMC3    C7 8118   2.342   1.161  17.184  0.5178 -0.0445  0.0840
  543TMC3    C8 8119   2.145   0.806  17.443  0.5275  0.2046 -0.0831
  543TMC3    O1 8120   2.430   1.169  17.273 -0.2137  0.6669  0.4829
  543TMC3    O2 8121   2.052   0.730  17.459  0.2177  0.0894  0.1664
  544MPD2     C 8122   2.398   0.522   0.061  0.3411 -0.5197  0.4056
  544MPD2    C1 8123   2.279   0.509   0.001  0.4052 -0.0564  0.0606
  544MPD2    C2 8124   2.237   0.591  17.636 -0.6359  0.1567  0.0416
  544MPD2    C3 8125   2.315   0.694  17.589  0.0485  0.5154 -0.4009
  544MPD2    C4 8126   2.440   0.707  17.649  0.5701  0.5253 -0.6861
  544MPD2    C5 8127   2.472   0.634   0.018 -0.2023  0.2237 -0.0915
  544MPD2     H 8128   2.132   0.586  17.612 -0.3249 -1.3080 -1.0510
  544MPD2    H1 8129   2.499   0.791  17.616 -0.8475  1.5766 -0.5333
  544MPD2    H2 8130   2.432   0.456   0.140  0.1803 -2.2539 -0.9793
  544MPD2    H3 8131   2.565   0.667   0.063  0.1372  1.3782 -1.6246
  544MPD2     N 8132   2.278   0.790  17.494  0.2244  0.8758 -0.0861
  544MPD2    H5 8133   2.345   0.861  17.471  0.7128  0.4668  0.0730
  544MPD2    N1 8134   2.202   0.396   0.041 -0.5276 -0.4588 -0.0436
  544MPD2    H7 8135   2.232   0.347   0.124 -1.4363 -0.6632  0.1676
  545TMC3    C1 8136   2.045   0.230   0.025  0.0534  0.3757  0.3361
  545TMC3    C2 8137   1.966   0.153  17.687 -0.4313  0.1730  0.5839
  545TMC3    C3 8138   1.911   0.037   0.002 -0.0991 -0.1551  0.4561
  545TMC3    C4 8139   2.070   0.202   0.155  0.6759 -0.1302 -0.1501
  545TMC3    C5 8140   2.015   0.084   0.205 -0.8889 -0.3184 -0.2971
  545TMC3    C6 8141   1.940   0.000   0.129 -0.5455 -0.0448  0.2775
  545TMC3     C 8142   2.088   0.354  17.711 -0.3348  0.4711  0.5697
  545TMC3     O 8143   2.044   0.376  17.597  0.0604 -0.4104 -0.1644
  545TMC3     H 8144   1.951   0.180  17.583  3.1807 -0.7762 -0.1823
  545TMC3    H1 8145   2.127   0.265   0.223 -0.7149  2.2931 -1.2471
  545TMC3    H2 8146   1.897   4.641   0.161  0.0116  0.4894  2.5785
  545TMC3    C7 8147   2.046   0.051   0.337  0.6709 -0.3346  0.0236
  545TMC3    C8 8148   1.864   4.674  17.652 -0.5100  0.1415 -0.1738
  545TMC3    O1 8149   2.075   0.150   0.407 -0.4460 -0.7803  0.7338
  545TMC3    O2 8150   1.845   4.564  17.696 -0.1295  0.6923 -0.4826
  546MPD2     C 8151   3.079   0.577  17.306  0.3091 -0.4555 -0.0012
  546MPD2    C1 8152   3.103   0.556  17.174  0.8155 -0.0814 -0.6337
  546MPD2    C2 8153   3.133   0.663  17.095 -0.5158 -0.7561 -0.2244
  546MPD2    C3 8154   3.162   0.790  17.146  0.4559  0.3773  0.2009
  546MPD2    C4 8155   3.146   0.808  17.282 -0.3987  0.6974 -0.1704
  546MPD2    C5 8156   3.105   0.702  17.361 -0.4956 -0.5392  0.6321
  546MPD2     H 8157   3.140   0.653  16.987  0.8842  1.0083 -0.3039
  546MPD2    H1 8158   3.130   0.908  17.320  1.6441  0.7456  0.5563
  546MPD2    H2 8159   3.048   0.490  17.362 -1.5616  0.0439 -0.2643
  546MPD2    H3 8160   3.110   0.718  17.468  2.7919 -0.4090  0.4763
  546MPD2     N 8161   3.183   0.902  17.065 -0.0629 -0.1489  0.4162
  546MPD2    H5 8162   3.190   0.993  17.108  0.3918 -0.6867  1.4901
  546MPD2    N1 8163   3.076   0.432  17.125  0.2548 -0.0121  0.1527
  546MPD2    H7 8164   3.064   0.362  17.197  1.5157  1.1022  1.4546
  547TMC3    C1 8165   3.052   0.245  16.992 -0.9342  0.3659  0.2321
  547TMC3    C2 8166   2.972   0.213  16.885 -0.4918 -0.4559  0.4739
  547TMC3    C3 8167   2.880   0.114  16.905 -0.2716  0.0725 -0.0569
  547TMC3    C4 8168   3.052   0.172  17.109 -0.1109 -0.0755 -0.3678
  547TMC3    C5 8169   2.950   0.083  17.124  0.8430  0.1437  0.3365
  547TMC3    C6 8170   2.868   0.052  17.024 -0.1886  0.4635 -0.5789
  547TMC3     C 8171   3.075   0.388  16.996 -0.0813  0.5952 -1.0201
  547TMC3     O 8172   3.080   0.455  16.892 -0.3073  0.3840 -0.2327
  547TMC3     H 8173   2.987   0.258  16.787  0.5347  1.5597  1.5648
  547TMC3    H1 8174   3.123   0.182  17.190 -0.5097 -1.2578  0.1346
  547TMC3    H2 8175   2.790   4.714  17.038 -1.2012  1.8945  1.3503
  547TMC3    C7 8176   2.947   0.011  17.249  0.2761 -0.2717  0.5154
  547TMC3    C8 8177   2.789   0.091  16.793 -0.0078 -0.2188  0.0469
  547TMC3    O1 8178   2.946   0.084  17.350 -0.1736 -0.4977  0.0145
  547TMC3    O2 8179   2.668   0.079  16.827  0.0342  0.3007 -0.8581
  548MPD2     C 8180   2.837   1.364  12.683  0.0134  0.3249 -0.2822
  548MPD2    C1 8181   2.837   1.261  12.768  0.0058  0.7225 -0.4324
  548MPD2    C2 8182   2.920   1.154  12.719 -1.0277 -0.4419  0.0449
  548MPD2    C3 8183   3.003   1.160  12.606 -0.0147  0.3249  0.0199
  548MPD2    C4 8184   2.997   1.282  12.534 -0.3925 -0.3993 -0.1475
  548MPD2    C5 8185   2.908   1.385  12.567 -0.3837 -0.3589  0.3884
  548MPD2     H 8186   2.930   1.058  12.768 -0.9589 -1.3478 -1.7621
  548MPD2    H1 8187   3.052   1.302  12.443 -0.5381 -0.0038 -0.1451
  548MPD2    H2 8188   2.779   1.449  12.718 -0.7947  0.0016 -0.8273
  548MPD2    H3 8189   2.895   1.476  12.510 -0.8429 -0.7941 -0.1968
  548MPD2     N 8190   3.085   1.047  12.568  0.1914 -0.3610  0.0407
  548MPD2    H5 8191   3.070   0.966  12.628  0.7243 -1.2055 -0.9554
  548MPD2    N1 8192   2.741   1.252  12.871  0.4768  0.5797 -0.3306
  548MPD2    H7 8193   2.677   1.331  12.878  0.0443  0.3225 -1.3217
  549TMC3    C1 8194   2.582   1.121  12.988 -0.3349  0.1188  0.2309
  549TMC3    C2 8195   2.486   1.191  12.927 -0.1817 -0.7564 -1.0608
  549TMC3    C3 8196   2.360   1.147  12.944 -0.5498  0.3638 -0.2883
  549TMC3    C4 8197   2.554   1.028  13.087 -0.5074 -0.2228 -0.3080
  549TMC3    C5 8198   2.425   0.985  13.108  0.2931 -0.0582  0.4661
  549TMC3    C6 8199   2.332   1.045  13.031 -0.8505  0.1866 -0.1678
  549TMC3     C 8200   2.722   1.139  12.939  0.5329 -0.0838 -0.9938
  549TMC3     O 8201   2.792   1.041  12.955 -0.5610  0.0812 -0.0577
  549TMC3     H 8202   2.512   1.270  12.857 -2.3177 -1.2613 -2.4360
  549TMC3    H1 8203   2.635   0.998  13.152 -0.2276 -1.4257 -1.2064
  549TMC3    H2 8204   2.226   1.026  13.041 -0.7678 -0.1376  0.1047
  549TMC3    C7 8205   2.397   0.849  13.158  0.0746 -0.1434 -0.0831
  549TMC3    C8 8206   2.251   1.218  12.882  0.7771 -0.3447  0.0450
  549TMC3    O1 8207   2.468   0.818  13.253 -0.6009 -0.4210 -0.1646
  549TMC3    O2 8208   2.146   1.160  12.890  0.6278 -0.9900 -0.1923
  550TMC3    C1 8209   1.642   3.522  12.705  0.0229  0.2529  0.3373
  550TMC3    C2 8210   1.529   3.562  12.770 -0.0753  0.0723  0.6323
  550TMC3    C3 8211   1.473   3.683  12.725 -0.1056  0.9257  0.5982
  550TMC3    C4 8212   1.704   3.596  12.614 -0.3765  0.0609  0.1001
  550TMC3    C5 8213   1.661   3.719  12.585  0.6619 -0.3768 -0.5555
  550TMC3    C6 8214   1.542   3.763  12.638 -0.4590  0.1413 -0.1514
  550TMC3     C 8215   1.633   3.381  12.658  0.7169 -0.8869  0.2546
  550TMC3     O 8216   1.587   3.305  12.737 -0.2554 -0.4315 -0.3303
  550TMC3     H 8217   1.481   3.506  12.849  0.5697 -1.7409 -0.2705
  550TMC3    H1 8218   1.790   3.557  12.560  0.5046 -0.6663  2.0224
  550TMC3    H2 8219   1.509   3.864  12.615 -0.6146  0.3885  1.1727
  550TMC3    C7 8220   1.653   3.731  12.444 -0.7350 -0.0166  0.2179
  550TMC3    C8 8221   1.365   3.745  12.792  0.0470  0.4851 -0.3880
  550TMC3    O1 8222   1.636   3.622  12.388 -0.6533 -0.4223 -0.1933
  550TMC3    O2 8223   1.352   3.865  12.777 -0.1777  0.0340  0.5034
  551TMC3    C1 8224   3.964   1.953  12.919 -0.5320 -1.1158 -0.4398
  551TMC3    C2 8225   4.085   2.013  12.908 -0.0564 -0.0833  0.1301
  551TMC3    C3 8226   4.168   2.024  13.014  0.3198  0.0202 -0.3680
  551TMC3    C4 8227   3.923   1.906  13.041  0.1502 -0.0149 -0.3302
  551TMC3    C5 8228   4.000   1.939  13.150  0.1943 -0.1227 -0.2027
  551TMC3    C6 8229   4.121   1.991  13.138 -0.0804 -0.3109  0.0474
  551TMC3     C 8230   3.905   1.897  12.800 -0.6749  0.2543 -0.3834
  551TMC3     O 8231   3.853   1.789  12.813 -0.1224 -0.1141  0.2151
  551TMC3     H 8232   4.130   2.021  12.809 -0.5798  0.2456 -0.0819
  551TMC3    H1 8233   3.830   1.852  13.055  1.1017 -1.6889 -0.3844
  551TMC3    H2 8234   4.179   2.004  13.228 -1.0077  0.1262  0.5779
  551TMC3    C7 8235   3.963   1.898  13.280  0.3016  0.4196 -0.0130
  551TMC3    C8 8236   4.297   1.963  12.999  0.5753 -0.2777 -0.2299
  551TMC3    O1 8237   3.990   1.979  13.368  0.9945 -0.6299 -0.1966
  551TMC3    O2 8238   4.331   1.872  13.074  0.3042 -0.4942 -0.1235
  552MPD2     C 8239   1.157   3.616  14.025  0.3159 -0.3590  0.0622
  552MPD2    C1 8240   1.133   3.582  14.156  0.1307  0.5324  1.0927
  552MPD2    C2 8241   1.217   3.628  14.260 -0.1208 -1.0913  0.4117
  552MPD2    C3 8242   1.327   3.707  14.228  0.0891  0.1086 -0.1863
  552MPD2    C4 8243   1.354   3.738  14.097  0.1450 -0.2098 -1.3918
  552MPD2    C5 8244   1.270   3.691  14.004 -0.1506 -0.1092 -0.7351
  552MPD2     H 8245   1.202   3.596  14.362 -2.8354  1.9181  0.9520
  552MPD2    H1 8246   1.438   3.800  14.069 -0.3714  0.4059 -1.5882
  552MPD2    H2 8247   1.103   3.582  13.937 -0.4125 -0.0250  0.3776
  552MPD2    H3 8248   1.292   3.722  13.903  0.0157 -1.3142 -1.0611
  552MPD2     N 8249   1.413   3.752  14.326  0.0628  0.1812  0.4850
  552MPD2    H5 8250   1.498   3.800  14.296 -1.1992  1.7537 -0.6280
  552MPD2    N1 8251   1.026   3.499  14.193  0.3702 -0.1682  0.3434
  552MPD2    H7 8252   1.032   3.458  14.286 -0.1010  2.1903  1.4013
  553TMC3    C1 8253   0.829   3.372  14.157 -0.1193  0.4026  0.6152
  553TMC3    C2 8254   0.747   3.324  14.060  0.1077  0.5951  0.0720
  553TMC3    C3 8255   0.725   3.191  14.046  0.3748  0.4206 -0.4076
  553TMC3    C4 8256   0.871   3.288  14.253  0.3372 -0.4678 -0.0103
  553TMC3    C5 8257   0.820   3.163  14.256  0.0143 -0.8141  0.1911
  553TMC3    C6 8258   0.746   3.108  14.154  0.3142 -1.1089  0.1375
  553TMC3     C 8259   0.919   3.474  14.109  0.8400  0.1118 -0.6004
  553TMC3     O 8260   0.878   3.542  14.016 -0.1038  0.1066  0.1189
  553TMC3     H 8261   0.726   3.395  13.982  3.3217  1.7053  0.2283
  553TMC3    H1 8262   0.923   3.320  14.342 -0.4447 -4.6356  1.9438
  553TMC3    H2 8263   0.728   3.002  14.144  0.8158 -1.3500  1.8246
  553TMC3    C7 8264   0.923   3.072  14.301 -0.2335 -0.3912  0.2794
  553TMC3    C8 8265   0.769   3.156  13.911  0.4365  0.0353 -0.4592
  553TMC3    O1 8266   0.900   2.969  14.365  0.1027 -0.1591  0.2507
  553TMC3    O2 8267   0.865   3.220  13.874  0.2341 -0.1696 -0.0503
  554TMC3    C1 8268   2.303   2.794  11.360 -0.3749 -0.0709 -0.4647
  554TMC3    C2 8269   2.214   2.774  11.263  0.0964 -0.1942  0.4780
  554TMC3    C3 8270   2.233   2.837  11.148  0.2189 -0.2437  0.4357
  554TMC3    C4 8271   2.407   2.882  11.355  0.7154 -0.6156  0.3440
  554TMC3    C5 8272   2.419   2.952  11.236 -0.2137  0.6299  0.4056
  554TMC3    C6 8273   2.336   2.930  11.127  0.1441  0.0196 -0.5246
  554TMC3     C 8274   2.290   2.706  11.479  0.4059 -1.3776 -0.5173
  554TMC3     O 8275   2.179   2.652  11.498 -0.3472 -0.0131 -0.0501
  554TMC3     H 8276   2.132   2.706  11.283 -0.2133  0.1485  0.3608
  554TMC3    H1 8277   2.474   2.911  11.435 -0.3820 -2.7792  2.0506
  554TMC3    H2 8278   2.348   2.973  11.028 -0.9513  1.0610 -0.2076
  554TMC3    C7 8279   2.541   3.027  11.210 -0.6458 -0.2947  0.8381
  554TMC3    C8 8280   2.188   2.782  11.029  0.1775  0.3655 -0.0281
  554TMC3    O1 8281   2.564   3.043  11.090 -0.1173 -0.1338 -0.3365
  554TMC3    O2 8282   2.154   2.856  10.938  0.2041 -0.3955  0.6416
  555TMC3    C1 8283   1.855   2.269  15.377  0.5510 -0.1786 -0.7306
  555TMC3    C2 8284   1.826   2.333  15.493  0.3598 -0.0560 -0.4119
  555TMC3    C3 8285   1.869   2.278  15.609 -0.1420 -0.4025  0.4286
  555TMC3    C4 8286   1.926   2.153  15.376 -0.5628  0.6084  0.1266
  555TMC3    C5 8287   1.965   2.096  15.491 -0.3034 -0.4609 -0.2864
  555TMC3    C6 8288   1.944   2.158  15.612  0.2358 -0.1967 -0.1874
  555TMC3     C 8289   1.799   2.324  15.259 -0.0462  0.1647  0.2126
  555TMC3     O 8290   1.732   2.428  15.257 -0.6461 -0.0932 -0.2793
  555TMC3     H 8291   1.793   2.436  15.494 -1.9053 -0.7908  1.2900
  555TMC3    H1 8292   1.930   2.077  15.298  1.6349  1.5576 -0.6799
  555TMC3    H2 8293   1.949   2.103  15.706 -0.9583  2.8284  1.6556
  555TMC3    C7 8294   2.014   1.963  15.486 -0.0423  0.6386  0.6286
  555TMC3    C8 8295   1.906   2.375  15.706  0.2558 -0.5247  0.1881
  555TMC3    O1 8296   1.975   1.892  15.579 -0.4999 -0.9871  0.0461
  555TMC3    O2 8297   1.841   2.480  15.716  0.0735 -0.1406 -0.2126
  556MPD2     C 8298   0.307   2.650  10.660  0.2999  0.5149  0.2450
  556MPD2    C1 8299   0.178   2.706  10.653 -0.3957  1.1279  0.2860
  556MPD2    C2 8300   0.094   2.639  10.570  0.4750 -0.2914 -0.5297
  556MPD2    C3 8301   0.126   2.540  10.482  0.4408  0.2705 -0.2572
  556MPD2    C4 8302   0.259   2.501  10.481 -0.6840 -0.9606  0.2432
  556MPD2    C5 8303   0.347   2.550  10.571  0.0693  0.0863  0.0808
  556MPD2     H 8304   4.729   2.677  10.553  0.2434  0.4471  2.3607
  556MPD2    H1 8305   0.301   2.429  10.411  0.5729  0.0198 -0.0174
  556MPD2    H2 8306   0.382   2.683  10.731 -1.9282  1.9763  1.9110
  556MPD2    H3 8307   0.446   2.506  10.572 -0.1135 -0.3183  0.5031
  556MPD2     N 8308   0.033   2.489  10.385 -0.3363  0.7101  0.0321
  556MPD2    H5 8309   4.671   2.502  10.410 -0.4387 -1.4785  0.7629
  556MPD2    N1 8310   0.132   2.817  10.729  0.1324 -1.1168 -0.6023
  556MPD2    H7 8311   0.031   2.824  10.736  0.3162  0.5863  0.2631
  557TMC3    C1 8312   4.686   2.369  10.203 -0.2179 -0.6731  0.1267
  557TMC3    C2 8313   4.714   2.321  10.078 -0.3665  0.0843  0.4954
  557TMC3    C3 8314   4.620   2.243  10.018  0.0697 -0.0876  0.4812
  557TMC3    C4 8315   4.580   2.328  10.274  0.1990 -0.0594 -0.1139
  557TMC3    C5 8316   4.496   2.241  10.209  0.1066  0.0916 -0.3280
  557TMC3    C6 8317   4.503   2.210  10.077  0.2872 -0.1303 -0.3202
  557TMC3     C 8318   0.072   2.414  10.281 -0.2332 -0.3246 -0.5874
  557TMC3     O 8319   0.181   2.381  10.230  0.4935 -0.5561  0.1425
  557TMC3     H 8320   0.070   2.350  10.027 -0.2334 -2.0623 -0.4950
  557TMC3    H1 8321   4.548   2.348  10.375  1.5319 -0.8714  0.4664
  557TMC3    H2 8322   4.432   2.140  10.034 -2.6578  2.6955 -0.0056
  557TMC3    C7 8323   4.361   2.217  10.267 -0.0479  0.4771  0.2977
  557TMC3    C8 8324   4.649   2.219   9.874  0.2901  0.4287  0.3813
  557TMC3    O1 8325   4.307   2.313  10.317  0.0174 -0.2536 -0.1852
  557TMC3    O2 8326   0.010   2.284   9.830 -0.3086  0.2333  0.0696
  558TMC3    C1 8327   2.092   1.255   9.941 -0.5034 -0.2219 -0.1132
  558TMC3    C2 8328   2.007   1.181  10.025 -0.6951 -0.1655  0.3680
  558TMC3    C3 8329   1.879   1.231  10.024 -0.7593 -0.2971  0.3763
  558TMC3    C4 8330   2.058   1.367   9.872 -0.5056 -0.1209 -0.3351
  558TMC3    C5 8331   1.932   1.414   9.883  0.9911 -0.0374  0.0727
  558TMC3    C6 8332   1.837   1.345   9.963 -0.8744  0.0720 -0.5764
  558TMC3     C 8333   2.232   1.216   9.933  0.0812 -0.1409  0.5371
  558TMC3     O 8334   2.320   1.297   9.911 -0.0285 -0.6299  0.5711
  558TMC3     H 8335   2.030   1.081  10.062 -3.0102 -1.2717 -1.1566
  558TMC3    H1 8336   2.132   1.402   9.801 -0.3777 -0.4974 -0.3869
  558TMC3    H2 8337   1.734   1.378   9.967 -0.3680  2.0096 -3.2728
  558TMC3    C7 8338   1.907   1.552   9.838 -0.1746  0.1748 -0.1000
  558TMC3    C8 8339   1.792   1.163  10.118 -0.8261  0.2274  0.0233
  558TMC3    O1 8340   2.005   1.626   9.822  0.3882 -0.0919 -0.4407
  558TMC3    O2 8341   1.673   1.174  10.106 -0.6118  0.0636 -0.0658
  559MPD2     C 8342   2.190   1.860  10.492 -0.7217 -0.2451 -0.1682
  559MPD2    C1 8343   2.125   1.772  10.575 -0.0600  0.1205  0.1909
  559MPD2    C2 8344   2.164   1.756  10.705 -0.2991  0.4273  0.5931
  559MPD2    C3 8345   2.280   1.810  10.746  0.3414 -0.2949 -0.2997
  559MPD2    C4 8346   2.349   1.896  10.659  0.7753 -0.2265 -1.1281
  559MPD2    C5 8347   2.302   1.921  10.538 -0.4658  0.2602  0.8272
  559MPD2     H 8348   2.106   1.701  10.778  0.0944 -1.2303 -0.3394
  559MPD2    H1 8349   2.435   1.955  10.690  0.8031  0.0805 -1.7865
  559MPD2    H2 8350   2.162   1.887  10.391  1.9633 -0.1633 -0.8762
  559MPD2    H3 8351   2.363   1.971  10.463  0.2119  1.5644  2.2552
  559MPD2     N 8352   2.324   1.782  10.878 -0.6679  0.6104 -0.0268
  559MPD2    H5 8353   2.282   1.700  10.921  0.4406  0.3043  0.4773
  559MPD2    N1 8354   1.994   1.728  10.536  0.8842  0.2421  0.5653
  559MPD2    H7 8355   1.964   1.758  10.443 -0.7593 -2.8447  0.1250
  560TMC3    C1 8356   2.467   1.754  11.060 -0.0683  0.4427  0.5776
  560TMC3    C2 8357   2.427   1.621  11.068  0.1710 -0.2072  0.3991
  560TMC3    C3 8358   2.477   1.549  11.175  0.1466  0.4051 -0.1282
  560TMC3    C4 8359   2.570   1.801  11.138 -0.1344 -0.4177 -0.0565
  560TMC3    C5 8360   2.613   1.726  11.244 -0.7148 -0.1133  0.3882
  560TMC3    C6 8361   2.569   1.595  11.260  0.3230  0.1390 -0.2181
  560TMC3     C 8362   2.431   1.836  10.941  0.3289 -0.0869 -0.1297
  560TMC3     O 8363   2.483   1.947  10.919 -0.3221 -0.3251 -0.6303
  560TMC3     H 8364   2.377   1.573  10.985 -1.3558 -1.5318  2.0958
  560TMC3    H1 8365   2.588   1.908  11.138  0.3794 -0.5056  1.1049
  560TMC3    H2 8366   2.596   1.547  11.354 -2.8961 -1.6139 -0.1831
  560TMC3    C7 8367   2.713   1.765  11.338 -0.2758 -0.1847 -1.1870
  560TMC3    C8 8368   2.463   1.406  11.173 -0.0581  0.0407  0.3751
  560TMC3    O1 8369   2.715   1.714  11.448 -0.1174  0.4831  0.3160
  560TMC3    O2 8370   2.353   1.362  11.139 -0.1356 -0.0636  0.0932
  561TMC3    C1 8371   0.780   1.402  11.186 -0.0489 -0.9996  0.0226
  561TMC3    C2 8372   0.704   1.311  11.252  0.0048  0.8238  0.6596
  561TMC3    C3 8373   0.569   1.329  11.250  0.1064  0.7111  0.6867
  561TMC3    C4 8374   0.721   1.521  11.140  0.3252  0.1294 -0.0421
  561TMC3    C5 8375   0.582   1.540  11.151 -0.0006 -0.4290  0.7079
  561TMC3    C6 8376   0.504   1.441  11.208 -1.1789  0.3203  0.0260
  561TMC3     C 8377   0.911   1.378  11.142 -0.2470  0.4047 -0.7850
  561TMC3     O 8378   0.970   1.458  11.071  0.3696 -0.1409 -0.3883
  561TMC3     H 8379   0.733   1.220  11.304 -0.1425  0.2013 -0.3581
  561TMC3    H1 8380   0.787   1.600  11.106  1.8579 -1.1365 -0.0193
  561TMC3    H2 8381   0.398   1.447  11.189 -1.0767  0.8438 -0.3859
  561TMC3    C7 8382   0.536   1.600  11.027  0.7598 -0.5966 -0.4819
  561TMC3    C8 8383   0.497   1.248  11.350  0.1073  0.5508  0.0115
  561TMC3    O1 8384   0.626   1.602  10.946  0.3058 -0.3718  0.1141
  561TMC3    O2 8385   0.541   1.140  11.390 -0.3328  0.2135 -0.2165
  562TMC3    C1 8386   2.004   2.674  16.315  0.6545  0.8848 -0.1372
  562TMC3    C2 8387   1.900   2.756  16.311  1.2012  1.2985 -0.0636
  562TMC3    C3 8388   1.799   2.723  16.241  0.1311  0.4782 -0.3133
  562TMC3    C4 8389   2.003   2.553  16.243 -0.1716  0.2713 -0.3201
  562TMC3    C5 8390   1.884   2.517  16.183 -0.0439  0.4449 -0.2222
  562TMC3    C6 8391   1.783   2.608  16.176 -0.4220  0.1193 -0.0176
  562TMC3     C 8392   2.131   2.709  16.376 -0.3755 -0.1006  0.8249
  562TMC3     O 8393   2.231   2.642  16.343  0.6946  0.4913  0.5404
  562TMC3     H 8394   1.905   2.857  16.351  0.2557  1.2668  0.1295
  562TMC3    H1 8395   2.094   2.495  16.234 -1.9328 -2.7214  1.0880
  562TMC3    H2 8396   1.693   2.588  16.119 -0.5651  0.5827  0.0459
  562TMC3    C7 8397   1.869   2.389  16.120  0.1716 -0.4560  0.2335
  562TMC3    C8 8398   1.679   2.805  16.240  0.0965 -0.0660  0.2006
  562TMC3    O1 8399   1.765   2.377  16.058 -0.2891 -0.0849  0.4509
  562TMC3    O2 8400   1.630   2.827  16.348  0.5853  0.4611 -0.5580
  563MPD2     C 8401   4.166   3.942  15.679  0.2323  0.2265  0.2311
  563MPD2    C1 8402   4.179   3.950  15.815 -0.0791 -0.2512 -1.0387
  563MPD2    C2 8403   4.267   3.860  15.872 -0.3324  0.7671 -0.2859
  563MPD2    C3 8404   4.341   3.775  15.802 -0.3277  0.3415 -0.3292
  563MPD2    C4 8405   4.321   3.757  15.668  0.1220 -0.7375  0.4400
  563MPD2    C5 8406   4.235   3.847  15.606 -0.5377 -0.2599  0.1732
  563MPD2     H 8407   4.289   3.867  15.978  0.4970  0.0813 -0.4110
  563MPD2    H1 8408   4.354   3.667  15.618 -0.5117 -1.0184  0.5336
  563MPD2    H2 8409   4.099   4.005  15.622  0.5609  0.6056  0.2624
  563MPD2    H3 8410   4.217   3.833  15.500 -0.3842 -0.1019  0.1273
  563MPD2     N 8411   4.434   3.701  15.878  0.3880 -0.1548  0.0446
  563MPD2    H5 8412   4.429   3.702  15.979 -2.9687 -0.8890 -0.1387
  563MPD2    N1 8413   4.121   4.050  15.894 -0.5019  0.1688  0.4525
  563MPD2    H7 8414   4.147   4.029  15.990  0.0611  2.6854  0.8588
  564TMC3    C1 8415   3.954   4.179  15.971  0.2114 -0.0278 -0.2540
  564TMC3    C2 8416   3.827   4.141  15.958  0.3976 -0.1644 -0.2395
  564TMC3    C3 8417   3.776   4.056  16.058  0.1374 -0.3374  0.6857
  564TMC3    C4 8418   4.022   4.159  16.087  0.5524 -0.1022  0.4392
  564TMC3    C5 8419   3.978   4.073  16.181 -0.2891 -0.2028  0.3056
  564TMC3    C6 8420   3.855   4.018  16.164  0.4456 -0.4777 -0.4049
  564TMC3     C 8421   4.022   4.136  15.853  0.1873 -0.3749  0.2029
  564TMC3     O 8422   3.967   4.141  15.743 -0.0710  0.1439 -0.1925
  564TMC3     H 8423   3.768   4.160  15.869  0.7735  1.6970 -0.0893
  564TMC3    H1 8424   4.124   4.197  16.093  0.0216  1.5082 -0.6817
  564TMC3    H2 8425   3.803   3.960  16.239 -2.5155  0.3773 -1.7655
  564TMC3    C7 8426   4.071   3.972  16.215  0.1033 -0.2531  0.0770
  564TMC3    C8 8427   3.704   3.936  16.003  0.8904  0.2987  0.1374
  564TMC3    O1 8428   4.187   4.004  16.242  0.0636  0.1130  0.2664
  564TMC3    O2 8429   3.670   3.855  16.089 -0.4296  0.4429  0.1032
  565TMC3    C1 8430   4.575   4.565  10.653  0.1985  0.1861  0.3923
  565TMC3    C2 8431   4.546   4.430  10.673 -0.5054 -0.3456 -0.5438
  565TMC3    C3 8432   4.502   4.359  10.558  0.1117 -0.0715 -0.4991
  565TMC3    C4 8433   4.550   4.633  10.538 -0.5074 -0.0001  0.0283
  565TMC3    C5 8434   4.490   4.561  10.440 -0.2232 -0.0545 -0.7841
  565TMC3    C6 8435   4.469   4.426  10.437 -0.0090 -0.1602 -0.7380
  565TMC3     C 8436   4.653   4.630  10.752  0.5261 -0.5290  0.1203
  565TMC3     O 8437   4.710   4.735  10.725 -0.3560 -0.5530  0.3377
  565TMC3     H 8438   4.579   4.369  10.757  1.4188 -1.6248 -2.2028
  565TMC3    H1 8439   4.563   0.004  10.518 -0.2744 -0.0319  0.0140
  565TMC3    H2 8440   4.464   4.366  10.347 -0.6061 -0.8429 -0.2483
  565TMC3    C7 8441   4.479   4.633  10.319 -0.1115  0.8479 -0.1698
  565TMC3    C8 8442   4.488   4.212  10.573 -0.0447 -0.0047 -0.4050
  565TMC3    O1 8443   4.545   0.000  10.304 -0.4994  0.7772 -0.3240
  565TMC3    O2 8444   4.541   4.157  10.669 -0.0380 -0.3640 -0.0205
  566MPD2     C 8445   1.141   2.360  14.125 -0.0104  0.3156 -0.7681
  566MPD2    C1 8446   1.186   2.423  14.015  0.9126  0.3714 -0.3093
  566MPD2    C2 8447   1.096   2.430  13.915 -0.2135 -0.1533  0.4591
  566MPD2    C3 8448   0.975   2.357  13.913  0.2272  0.2108  0.4283
  566MPD2    C4 8449   0.945   2.281  14.029  0.3555  0.0528 -0.5112
  566MPD2    C5 8450   1.025   2.292  14.141  0.1436 -0.4613 -0.5770
  566MPD2     H 8451   1.112   2.499  13.832 -3.1651  0.4209  0.3682
  566MPD2    H1 8452   0.855   2.220  14.037 -0.7371  2.0857  2.5991
  566MPD2    H2 8453   1.199   2.357  14.217 -1.4730  4.0067  0.2729
  566MPD2    H3 8454   1.005   2.249  14.239  0.8047 -3.2755 -1.6500
  566MPD2     N 8455   0.889   2.335  13.797  0.3150 -0.1965  0.1445
  566MPD2    H5 8456   0.799   2.293  13.816  0.5541 -1.9214 -2.3753
  566MPD2    N1 8457   1.325   2.459  14.000 -1.3630  0.2235  0.3893
  566MPD2    H7 8458   1.393   2.434  14.072 -0.5771 -1.2053 -0.8344
  567TMC3    C1 8459   1.526   2.488  13.890  0.4855 -0.1794 -0.1900
  567TMC3    C2 8460   1.602   2.560  13.798 -0.3072  0.2102  0.2379
  567TMC3    C3 8461   1.734   2.536  13.787  0.0490 -0.1237  0.5496
  567TMC3    C4 8462   1.588   2.396  13.967 -0.1198 -0.9618  0.0325
  567TMC3    C5 8463   1.721   2.370  13.955  0.1566  0.1780  0.0273
  567TMC3    C6 8464   1.790   2.436  13.859  0.0453 -0.3011 -0.1177
  567TMC3     C 8465   1.381   2.513  13.890  0.4658 -0.9554 -0.3177
  567TMC3     O 8466   1.331   2.569  13.789  0.3097  0.5898  0.1378
  567TMC3     H 8467   1.553   2.637  13.740 -1.2028  0.7876  1.7666
  567TMC3    H1 8468   1.534   2.326  14.031  1.1915 -1.4949  0.5443
  567TMC3    H2 8469   1.893   2.405  13.845  0.6350  1.1409  1.1011
  567TMC3    C7 8470   1.800   2.282  14.051  0.1465 -0.7022 -1.1066
  567TMC3    C8 8471   1.793   2.597  13.674  0.2982  0.1282 -0.0777
  567TMC3    O1 8472   1.921   2.271  14.022  0.2963 -0.3932  0.3086
  567TMC3    O2 8473   1.723   2.649  13.585 -0.5296 -0.8748  0.0888
  568MPD2     C 8474   4.358   2.785  16.430 -0.0403 -0.6889  0.1921
  568MPD2    C1 8475   4.234   2.790  16.485  0.0314 -0.2497 -0.2415
  568MPD2    C2 8476   4.138   2.867  16.427 -0.0189 -0.4486  0.9801
  568MPD2    C3 8477   4.156   2.932  16.308  0.8056  0.6138  0.0798
  568MPD2    C4 8478   4.279   2.924  16.242  0.0551  0.3434 -0.6233
  568MPD2    C5 8479   4.378   2.851  16.309  0.4478 -0.3753  0.6931
  568MPD2     H 8480   4.036   2.872  16.462  0.5646  2.9027  2.1766
  568MPD2    H1 8481   4.296   2.965  16.144  0.8978 -0.0518 -0.6447
  568MPD2    H2 8482   4.439   2.724  16.469 -0.3562 -0.2186  1.5833
  568MPD2    H3 8483   4.478   2.832  16.271  1.3277  2.2545  1.6626
  568MPD2     N 8484   4.053   3.020  16.267 -0.2829 -0.4920 -0.3616
  568MPD2    H5 8485   3.977   3.022  16.334  0.8635 -1.0915  0.9424
  568MPD2    N1 8486   4.217   2.710  16.596 -0.3102 -0.1444  0.8202
  568MPD2    H7 8487   4.300   2.668  16.636  0.8681  1.8164  0.4290
  569TMC3    C1 8488   3.923   3.153  16.126 -0.3763  0.3050 -0.1321
  569TMC3    C2 8489   3.852   3.219  16.225  0.0001 -0.1181 -0.3330
  569TMC3    C3 8490   3.729   3.273  16.194 -0.4984 -0.7595  0.3360
  569TMC3    C4 8491   3.865   3.153  16.000  0.8267 -0.1585  0.0792
  569TMC3    C5 8492   3.738   3.194  15.978  0.3711  0.5214 -0.2973
  569TMC3    C6 8493   3.664   3.254  16.077 -0.6441  0.4567  0.0593
  569TMC3     C 8494   4.049   3.091  16.149  0.0660 -1.0254  0.3751
  569TMC3     O 8495   4.127   3.081  16.057  0.5573  0.0911  0.5413
  569TMC3     H 8496   3.895   3.222  16.325 -1.3342 -0.3584  0.2557
  569TMC3    H1 8497   3.925   3.104  15.924  0.9516 -0.1100  0.1473
  569TMC3    H2 8498   3.560   3.283  16.066 -1.0339  0.2606  3.1393
  569TMC3    C7 8499   3.747   3.278  15.860 -0.4481 -0.0094 -0.7182
  569TMC3    C8 8500   3.702   3.406  16.239 -0.5352  0.0746  0.8928
  569TMC3    O1 8501   3.805   3.237  15.761  0.0994 -0.4905  0.7485
  569TMC3    O2 8502   3.621   3.471  16.174 -0.8274 -0.3423  0.4851
  570TMC3    C1 8503   2.852   0.981  15.989  0.3448 -0.4940 -0.0092
  570TMC3    C2 8504   2.960   1.006  15.911 -0.8203 -0.1955 -0.2405
  570TMC3    C3 8505   3.022   1.135  15.917  0.3617  0.2015  0.3919
  570TMC3    C4 8506   2.785   1.083  16.052 -0.9639 -0.0127 -0.4720
  570TMC3    C5 8507   2.838   1.208  16.048 -0.0835  0.0416  0.4316
  570TMC3    C6 8508   2.957   1.236  15.982 -0.3377 -0.5603  0.3509
  570TMC3     C 8509   2.847   0.851  16.036  0.1690 -0.6840 -0.6467
  570TMC3     O 8510   2.887   0.769  15.953 -0.0196  0.4724  0.0556
  570TMC3     H 8511   2.997   0.928  15.845  0.2644 -0.9456  1.2521
  570TMC3    H1 8512   2.688   1.065  16.096 -1.0597  3.3886  0.7082
  570TMC3    H2 8513   3.008   1.331  15.985 -0.2060 -0.6814  1.8780
  570TMC3    C7 8514   2.786   1.312  16.136  0.4105 -0.1255 -0.4903
  570TMC3    C8 8515   3.135   1.167  15.838 -1.1486  0.2802  0.4699
  570TMC3    O1 8516   2.859   1.405  16.163 -0.3105  0.0064 -0.3654
  570TMC3    O2 8517   3.183   1.277  15.856  0.3594 -0.1036 -0.0228
  571MPD2     C 8518   1.707   3.555   0.491 -0.6274 -0.8604  0.4887
  571MPD2    C1 8519   1.632   3.574   0.605  0.6180  0.4193 -0.9172
  571MPD2    C2 8520   1.637   3.695   0.668  0.5536 -0.6866  0.1127
  571MPD2    C3 8521   1.711   3.804   0.627  0.7961  0.6457  0.0351
  571MPD2    C4 8522   1.790   3.785   0.517  0.3330  0.2811  0.1766
  571MPD2    C5 8523   1.785   3.664   0.453  0.2846 -0.4246 -0.4082
  571MPD2     H 8524   1.572   3.713   0.753  0.2291  0.3964 -0.3482
  571MPD2    H1 8525   1.845   3.869   0.474  1.4503 -1.6036 -2.0684
  571MPD2    H2 8526   1.701   3.464   0.433 -1.4530 -0.8736  0.5883
  571MPD2    H3 8527   1.831   3.644   0.357  2.3864  2.7575 -0.0740
  571MPD2     N 8528   1.703   3.932   0.682  0.3263  0.8614 -1.0265
  571MPD2    H5 8529   1.760   4.002   0.635  0.2512  2.2343  0.9208
  571MPD2    N1 8530   1.553   3.471   0.653 -0.2742  0.3111  0.0060
  571MPD2    H7 8531   1.559   3.381   0.607  0.6237 -0.2425  1.1864
  572TMC3    C1 8532   1.625   4.117   0.799  0.4653  0.2597  0.8317
  572TMC3    C2 8533   1.554   4.172   0.906 -0.2234 -0.4054  0.1600
  572TMC3    C3 8534   1.550   4.308   0.927 -0.3528 -0.4273  0.3325
  572TMC3    C4 8535   1.658   4.198   0.691 -0.3689  0.0071 -0.3389
  572TMC3    C5 8536   1.650   4.331   0.722 -0.6371 -0.3792 -0.4807
  572TMC3    C6 8537   1.608   4.389   0.834 -0.4713 -0.1635 -0.1921
  572TMC3     C 8538   1.632   3.973   0.793  0.9313 -0.5270  0.0518
  572TMC3     O 8539   1.556   3.908   0.862 -0.9868  0.3604 -0.4843
  572TMC3     H 8540   1.530   4.095   0.979  0.0537 -1.2489 -0.6336
  572TMC3    H1 8541   1.688   4.163   0.593  0.1868  0.9510 -0.5135
  572TMC3    H2 8542   1.613   4.497   0.832 -1.4742 -0.1215 -0.3438
  572TMC3    C7 8543   1.638   4.414   0.602  0.1582  0.0500 -0.4832
  572TMC3    C8 8544   1.449   4.355   1.018 -0.0558  0.5682  0.1735
  572TMC3    O1 8545   1.573   4.370   0.508  0.2169 -0.0598  0.4195
  572TMC3    O2 8546   1.446   4.479   1.025 -0.2330 -0.5191 -0.1312
  573MPD2     C 8547   2.283   3.660   1.321  0.8448 -0.2554 -0.3276
  573MPD2    C1 8548   2.378   3.640   1.223  0.3084 -0.0365 -0.6489
  573MPD2    C2 8549   2.335   3.659   1.089  0.5681 -0.1134  0.2322
  573MPD2    C3 8550   2.206   3.696   1.051  0.0362  0.2644  0.2913
  573MPD2    C4 8551   2.117   3.705   1.154 -0.1780 -0.3703 -0.4306
  573MPD2    C5 8552   2.155   3.681   1.286  0.1203 -0.7336  0.2582
  573MPD2     H 8553   2.411   3.664   1.012 -0.5655  2.4181 -0.7452
  573MPD2    H1 8554   2.013   3.729   1.141 -0.0979  1.1890  1.7636
  573MPD2    H2 8555   2.308   3.647   1.426 -1.3446  0.5591  0.3095
  573MPD2    H3 8556   2.091   3.698   1.372 -0.0817 -0.2523  0.0124
  573MPD2     N 8557   2.160   3.728   0.928 -0.1337 -0.0914 -0.3502
  573MPD2    H5 8558   2.074   3.782   0.927 -0.4061 -0.5277 -0.2921
  573MPD2    N1 8559   2.512   3.610   1.258 -0.4245  0.0773 -0.1103
  573MPD2    H7 8560   2.541   3.609   1.355 -0.6742  0.9810 -0.0274
  574TMC3    C1 8561   2.183   3.796   0.697 -0.4772 -0.4275  0.5257
  574TMC3    C2 8562   2.098   3.911   0.711 -0.5996  0.2209  0.7135
  574TMC3    C3 8563   2.113   4.008   0.613  0.1207 -0.2960  0.0334
  574TMC3    C4 8564   2.242   3.772   0.580 -0.4075  0.1930  0.4036
  574TMC3    C5 8565   2.251   3.867   0.479 -0.6538  0.1344 -0.2482
  574TMC3    C6 8566   2.187   3.988   0.499 -0.4395  0.0630 -0.8524
  574TMC3     C 8567   2.227   3.713   0.810  0.6772  0.5216  0.0063
  574TMC3     O 8568   2.316   3.628   0.791  0.1064 -0.2374  0.0122
  574TMC3     H 8569   2.047   3.930   0.805 -1.8815  1.6939 -0.2867
  574TMC3    H1 8570   2.281   3.670   0.578 -0.3509  0.2512 -1.3985
  574TMC3    H2 8571   2.217   4.073   0.438 -1.1604 -0.2012 -1.5722
  574TMC3    C7 8572   2.349   3.848   0.368  0.3534  0.3037  0.3507
  574TMC3    C8 8573   2.081   4.142   0.654  0.8501  0.1079  0.2929
  574TMC3    O1 8574   2.408   3.740   0.362  0.6869  0.3807 -0.1401
  574TMC3    O2 8575   2.054   4.158   0.773 -0.3062 -0.2300 -0.0603
  575TMC3    C1 8576   4.572   3.463  10.976  0.7309  0.7989 -0.5825
  575TMC3    C2 8577   4.542   3.347  10.906 -0.0182  0.3115 -0.5220
  575TMC3    C3 8578   4.521   3.353  10.773  0.0679  0.3423  0.4665
  575TMC3    C4 8579   4.560   3.586  10.915 -0.2020 -0.5135 -0.2396
  575TMC3    C5 8580   4.528   3.582  10.787  0.4496 -0.1896 -0.5791
  575TMC3    C6 8581   4.520   3.474  10.709 -0.0198 -0.2549 -0.2943
  575TMC3     C 8582   4.605   3.458  11.111  0.2774  0.9643  0.2325
  575TMC3     O 8583   4.618   3.346  11.164 -0.1957  0.4610  0.1698
  575TMC3     H 8584   4.548   3.249  10.951 -1.8163 -0.3313 -1.6792
  575TMC3    H1 8585   4.578   3.683  10.961 -0.2345 -0.9146  0.6274
  575TMC3    H2 8586   4.540   3.476  10.603  0.1086  1.2538 -0.2453
  575TMC3    C7 8587   4.506   3.706  10.721  0.5334  0.2217  0.8664
  575TMC3    C8 8588   4.533   3.221  10.704 -0.2121 -0.1917 -0.8655
  575TMC3    O1 8589   4.531   3.808  10.786  0.0693  0.6173  0.0792
  575TMC3    O2 8590   4.589   3.129  10.763  0.0404 -0.3908 -0.4349
  576MPD2     C 8591   4.326   1.748  12.323 -0.0482  0.2574  0.1100
  576MPD2    C1 8592   4.392   1.800  12.213  0.0978 -0.8077  0.0582
  576MPD2    C2 8593   4.433   1.932  12.219 -0.9076 -0.0278 -0.5568
  576MPD2    C3 8594   4.419   2.008  12.329  0.4297 -0.1896  0.5645
  576MPD2    C4 8595   4.361   1.953  12.446 -0.5450  0.7869 -0.4086
  576MPD2    C5 8596   4.310   1.824  12.436 -0.2812 -0.1229  0.2375
  576MPD2     H 8597   4.479   1.979  12.133 -1.8080 -1.5757 -1.8800
  576MPD2    H1 8598   4.349   2.016  12.533  1.3823 -1.0835  1.2182
  576MPD2    H2 8599   4.303   1.643  12.335  0.0487  0.1611 -0.5460
  576MPD2    H3 8600   4.251   1.782  12.517 -0.4839 -0.2043  0.0471
  576MPD2     N 8601   4.469   2.135  12.311  0.2467  0.2363 -0.6399
  576MPD2    H5 8602   4.523   2.164  12.230 -0.3943  0.5315 -0.9636
  576MPD2    N1 8603   4.417   1.719  12.096  0.3935  0.7214 -0.2299
  576MPD2    H7 8604   4.482   1.758  12.029  2.2978  3.3763  3.1542
  577TMC3    C1 8605   4.389   1.541  11.941 -0.3737 -0.1489 -0.0529
  577TMC3    C2 8606   4.523   1.549  11.907  0.5934 -0.3230  0.0163
  577TMC3    C3 8607   4.558   1.493  11.787  0.1119  0.1651 -0.0569
  577TMC3    C4 8608   4.290   1.474  11.875  0.4521 -0.0760 -0.6408
  577TMC3    C5 8609   4.336   1.408  11.759 -0.5801  0.8004 -0.3968
  577TMC3    C6 8610   4.462   1.422  11.717 -0.0431 -0.0327  0.0279
  577TMC3     C 8611   4.347   1.602  12.067  0.1968 -0.0540  0.3068
  577TMC3     O 8612   4.248   1.556  12.121 -0.2100 -0.0269  0.0558
  577TMC3     H 8613   4.597   1.581  11.980  0.5875  0.0769 -0.1538
  577TMC3    H1 8614   4.191   1.473  11.919  1.3413  0.3621  1.3677
  577TMC3    H2 8615   4.494   1.364  11.631  0.3923 -0.5150  0.5132
  577TMC3    C7 8616   4.256   1.310  11.692 -0.3834  0.1349  0.0133
  577TMC3    C8 8617   4.683   1.431  11.803  0.1564  1.0485 -0.3174
  577TMC3    O1 8618   4.318   1.229  11.620 -0.3199  0.2670  1.1882
  577TMC3    O2 8619   4.726   1.422  11.919 -0.7131 -0.1951  0.6634
  578MPD2     C 8620   3.118   1.967   0.916  0.5616  0.0431 -0.4487
  578MPD2    C1 8621   3.181   1.917   0.801 -0.9792 -0.3753 -0.5125
  578MPD2    C2 8622   3.290   1.840   0.839  0.5083 -0.0581 -0.2143
  578MPD2    C3 8623   3.343   1.825   0.970  0.1937  0.1413 -0.1749
  578MPD2    C4 8624   3.294   1.907   1.068  0.0227  0.0897  1.4383
  578MPD2    C5 8625   3.179   1.977   1.038 -0.1427 -0.2368  0.4756
  578MPD2     H 8626   3.325   1.787   0.751  3.6211  0.8081  0.4937
  578MPD2    H1 8627   3.328   1.902   1.171 -0.5897 -0.9434  1.5823
  578MPD2    H2 8628   3.019   2.011   0.908  0.0907 -0.6121  1.7418
  578MPD2    H3 8629   3.135   2.031   1.121 -0.0306  1.5666 -0.6388
  578MPD2     N 8630   3.446   1.730   0.993  0.1463 -0.1047 -0.0013
  578MPD2    H5 8631   3.482   1.667   0.921  1.3106 -0.4470  0.8787
  578MPD2    N1 8632   3.130   1.952   0.671  0.2718 -0.4553 -0.1222
  578MPD2    H7 8633   3.040   2.000   0.671  1.2149  1.2739 -0.1860
  579TMC3    C1 8634   3.636   1.632   1.112  0.4015  1.1335  0.7717
  579TMC3    C2 8635   3.739   1.661   1.198  0.4532  0.4956 -0.2651
  579TMC3    C3 8636   3.836   1.559   1.215 -0.3886  0.0013 -0.0260
  579TMC3    C4 8637   3.612   1.509   1.059  0.4340  0.3426 -0.9632
  579TMC3    C5 8638   3.711   1.410   1.085 -0.5166 -0.3228 -1.0124
  579TMC3    C6 8639   3.826   1.431   1.164  0.9467 -0.0297 -0.5460
  579TMC3     C 8640   3.527   1.735   1.104 -0.0805  0.6907 -0.2569
  579TMC3     O 8641   3.536   1.816   1.196 -0.0458  0.6711  0.7067
  579TMC3     H 8642   3.760   1.762   1.233 -4.0347  1.6035 -0.7753
  579TMC3    H1 8643   3.523   1.482   1.003  0.7146 -1.8295 -0.3840
  579TMC3    H2 8644   3.892   1.355   1.204  1.9422  0.9050 -0.4110
  579TMC3    C7 8645   3.716   1.283   1.010  0.3196 -0.1681  0.2069
  579TMC3    C8 8646   3.958   1.592   1.284 -0.2648  0.3033 -0.3704
  579TMC3    O1 8647   3.822   1.222   1.004  0.4884 -0.4787  0.1967
  579TMC3    O2 8648   3.946   1.674   1.373 -0.4793  0.6372 -0.1657
  580TMC3    C1 8649   1.486   1.106  12.035 -0.7475 -0.5530 -0.5936
  580TMC3    C2 8650   1.585   1.204  12.041 -0.3450 -0.1809  0.5191
  580TMC3    C3 8651   1.703   1.185  12.105 -0.5925  0.1495 -0.3020
  580TMC3    C4 8652   1.510   0.988  12.096 -0.5602  0.3631  0.1951
  580TMC3    C5 8653   1.625   0.968  12.167  0.4485  0.4883  0.6202
  580TMC3    C6 8654   1.718   1.064  12.168  0.5619 -0.5972  0.1273
  580TMC3     C 8655   1.431   1.097  11.901 -0.0226  1.2616 -0.6276
  580TMC3     O 8656   1.320   1.137  11.886  0.5617  0.6819  0.0360
  580TMC3     H 8657   1.565   1.302  12.000 -0.1269 -0.0283  0.7771
  580TMC3    H1 8658   1.432   0.913  12.098 -1.3678  1.1314 -1.8996
  580TMC3    H2 8659   1.814   1.060  12.218  0.5947 -2.0103 -0.0502
  580TMC3    C7 8660   1.672   0.837  12.203  0.0123 -0.5947 -0.2989
  580TMC3    C8 8661   1.818   1.263  12.059 -0.1007 -0.1042  0.4008
  580TMC3    O1 8662   1.791   0.826  12.237  0.6796  0.4118 -0.2605
  580TMC3    O2 8663   1.792   1.373  12.013 -0.0296 -0.0011 -0.0437
  581MPD2     C 8664   4.730   0.299  14.635  0.6940  0.1919  0.4714
  581MPD2    C1 8665   4.611   0.350  14.680 -0.2190  0.6155  0.0131
  581MPD2    C2 8666   4.540   0.427  14.593  0.2895  0.0348  0.1753
  581MPD2    C3 8667   4.600   0.472  14.477  0.5390 -0.7557  0.3572
  581MPD2    C4 8668   4.722   0.426  14.433  0.2013  0.1034 -0.1747
  581MPD2    C5 8669   0.052   0.333  14.517 -0.8622 -0.8042  0.7920
  581MPD2     H 8670   4.443   0.465  14.621  0.6528 -0.2281  1.8149
  581MPD2    H1 8671   0.027   0.449  14.335 -0.3911  1.3636 -0.1154
  581MPD2    H2 8672   0.043   0.223  14.696 -0.7409 -0.7493  0.4339
  581MPD2    H3 8673   0.144   0.281  14.490 -0.2792  0.3184  0.6292
  581MPD2     N 8674   4.525   0.566  14.402 -0.3281 -0.0791 -0.7238
  581MPD2    H5 8675   4.425   0.573  14.417 -0.2276  1.9377 -0.9851
  581MPD2    N1 8676   4.571   0.312  14.810  0.5002 -0.1572 -0.5798
  581MPD2    H7 8677   4.622   0.242  14.863  0.7576 -1.3392 -2.4044
  582TMC3    C1 8678   4.466   0.347  15.028  0.1169  0.4442 -0.1029
  582TMC3    C2 8679   4.586   0.311  15.095  0.3032  0.0914 -0.4512
  582TMC3    C3 8680   4.588   0.301  15.232 -0.1114 -0.0876 -0.3270
  582TMC3    C4 8681   4.350   0.372  15.096  0.1259 -0.4577 -0.2296
  582TMC3    C5 8682   4.358   0.367  15.231 -0.8480 -0.0404  0.6062
  582TMC3    C6 8683   4.477   0.344  15.306 -0.1672  0.2417  0.4784
  582TMC3     C 8684   4.477   0.390  14.887  1.1786  0.9294  0.1803
  582TMC3     O 8685   4.408   0.485  14.853  0.2412  0.3150  0.1230
  582TMC3     H 8686   4.676   0.296  15.037  0.7076  0.9959 -0.0510
  582TMC3    H1 8687   4.260   0.396  15.040 -0.1103  1.3095  0.9209
  582TMC3    H2 8688   4.459   0.342  15.412  1.7650 -0.9516  0.7823
  582TMC3    C7 8689   4.261   0.454  15.291 -0.3974  0.5244 -0.1410
  582TMC3    C8 8690   4.722   0.276  15.288  0.2834 -0.6182 -0.0620
  582TMC3    O1 8691   4.154   0.463  15.230 -0.0850 -0.2985 -0.5576
  582TMC3    O2 8692   0.071   0.245  15.202  0.0136  0.1382  0.0816
  583MPD2     C 8693   0.611   1.955  17.025  0.1433 -0.1825 -0.5202
  583MPD2    C1 8694   0.608   2.071  16.956 -0.5894 -0.0273  0.0679
  583MPD2    C2 8695   0.577   2.185  17.024  0.0316 -0.4391 -0.1052
  583MPD2    C3 8696   0.544   2.178  17.160 -0.1174  0.4815 -0.2350
  583MPD2    C4 8697   0.552   2.056  17.224 -0.3853  0.6374 -0.6428
  583MPD2    C5 8698   0.580   1.946  17.155 -0.4732 -0.7296 -0.0937
  583MPD2     H 8699   0.575   2.284  16.980 -0.8947 -0.2913  0.2663
  583MPD2    H1 8700   0.517   2.043  17.325 -0.8456  2.2857 -0.6087
  583MPD2    H2 8701   0.646   1.863  16.980 -0.5685 -1.2924  1.1745
  583MPD2    H3 8702   0.589   1.849  17.203  2.3419 -0.4029  0.0668
  583MPD2     N 8703   0.502   2.301  17.218 -0.4825  0.6981  0.3878
  583MPD2    H5 8704   0.488   2.372  17.147 -1.7288 -1.5458 -1.6042
  583MPD2    N1 8705   0.634   2.077  16.815 -0.3907 -0.8599 -0.1224
  583MPD2    H7 8706   0.629   2.171  16.778 -0.0988 -0.2055  1.5009
  584TMC3    C1 8707   0.424   2.451  17.383  0.4873  0.4604  0.1053
  584TMC3    C2 8708   0.465   2.564  17.320  0.3433 -0.3870  0.2140
  584TMC3    C3 8709   0.407   2.686  17.358 -0.0261  0.2745  0.0603
  584TMC3    C4 8710   0.337   2.447  17.493 -0.1466  0.3232  0.4465
  584TMC3    C5 8711   0.283   2.567  17.521  0.0143  0.0998 -0.5718
  584TMC3    C6 8712   0.314   2.691  17.461  0.1683  0.2082 -0.1347
  584TMC3     C 8713   0.474   2.316  17.347 -0.1152  0.2140  0.1947
  584TMC3     O 8714   0.463   2.232  17.438  0.0107  0.4806  0.0293
  584TMC3     H 8715   0.537   2.553  17.239 -0.8213 -1.1631 -0.7289
  584TMC3    H1 8716   0.298   2.355  17.535  0.9559 -1.2541 -2.0024
  584TMC3    H2 8717   0.269   2.786  17.486 -0.5623 -0.5248  1.3322
  584TMC3    C7 8718   0.167   2.561  17.607 -0.6611  0.1786 -0.6247
  584TMC3    C8 8719   0.407   2.787  17.264 -0.2323  0.4933 -0.4710
  584TMC3    O1 8720   0.171   2.479  17.695  0.2615 -0.4593  0.4788
  584TMC3    O2 8721   0.430   2.761  17.148 -0.0736 -0.1323  0.9884
  585MPD2     C 8722   4.020   1.355   0.071 -0.5040 -0.3580 -0.7451
  585MPD2    C1 8723   4.096   1.422  17.719 -0.2122  0.7722  0.6756
  585MPD2    C2 8724   4.160   1.357  17.614  0.0607  0.5176 -0.2065
  585MPD2    C3 8725   4.160   1.222  17.615  0.4159 -0.3301  0.5436
  585MPD2    C4 8726   4.099   1.158  17.715  0.3816 -0.0538  0.2717
  585MPD2    C5 8727   4.032   1.220   0.076  0.5949  0.4804 -0.2425
  585MPD2     H 8728   4.195   1.414  17.529  0.7548 -1.2563 -1.0935
  585MPD2    H1 8729   4.088   1.050  17.708 -0.8908 -0.0123  1.7688
  585MPD2    H2 8730   3.954   1.399   0.144  1.6062  0.7921  0.4920
  585MPD2    H3 8731   3.987   1.170   0.161  2.1504 -2.4012 -1.1419
  585MPD2     N 8732   4.197   1.144  17.505  0.8676  0.6911  0.1593
  585MPD2    H5 8733   4.177   1.044  17.506  1.4101  0.5793  0.0231
  585MPD2    N1 8734   4.092   1.560  17.728  0.2275 -0.6127  0.2838
  585MPD2    H7 8735   4.023   1.598   0.052  1.8029 -1.2256  2.3710
  586TMC3    C1 8736   4.291   1.074  17.309  0.2220 -0.5739  0.5855
  586TMC3    C2 8737   4.416   1.024  17.290  0.7318 -0.0467  0.0934
  586TMC3    C3 8738   4.423   0.906  17.211 -0.5102  0.2954  0.3215
  586TMC3    C4 8739   4.179   1.017  17.261  0.8890 -0.4444 -0.2110
  586TMC3    C5 8740   4.188   0.911  17.175 -0.0988 -0.5742  0.4252
  586TMC3    C6 8741   4.315   0.854  17.147 -0.2307 -0.2728  0.1990
  586TMC3     C 8742   4.289   1.186  17.411 -0.3056  0.1969  0.1097
  586TMC3     O 8743   4.373   1.276  17.407 -0.0863  0.0678 -0.1687
  586TMC3     H 8744   4.505   1.070  17.330  1.2717 -2.2198  1.3726
  586TMC3    H1 8745   4.083   1.041  17.305  1.3405  2.8219 -0.9353
  586TMC3    H2 8746   4.322   0.768  17.081 -1.0596 -0.4887  0.3852
  586TMC3    C7 8747   4.074   0.851  17.109 -0.2880  0.0918 -0.0534
  586TMC3    C8 8748   4.528   0.814  17.225 -0.0394 -0.1145  0.0553
  586TMC3    O1 8749   4.112   0.776  17.023 -0.4787 -0.1359 -0.1298
  586TMC3    O2 8750   4.534   0.727  17.135  0.9274 -0.0908  0.0892
  587TMC3    C1 8751   1.621   4.470  15.952 -0.1613  0.0449 -0.3635
  587TMC3    C2 8752   1.602   4.478  16.088 -0.1173 -0.4717  0.2966
  587TMC3    C3 8753   1.678   4.389  16.165  0.3006  0.4346 -0.1176
  587TMC3    C4 8754   1.705   4.377  15.889  0.5871 -0.0090 -0.1576
  587TMC3    C5 8755   1.759   4.283  15.975  0.2006 -0.3073 -0.4495
  587TMC3    C6 8756   1.745   4.287  16.112 -0.2003  0.1196 -0.2819
  587TMC3     C 8757   1.519   4.526  15.870 -0.6948  0.6266  0.1349
  587TMC3     O 8758   1.524   4.510  15.749  0.3196  0.2342  0.1239
  587TMC3     H 8759   1.555   4.567  16.129  1.5326  1.0968 -1.1822
  587TMC3    H1 8760   1.700   4.366  15.782  1.8286  1.8780 -0.3976
  587TMC3    H2 8761   1.780   4.204  16.173  1.7113  1.6535  0.6884
  587TMC3    C7 8762   1.858   4.188  15.917  0.4151 -0.0373 -0.0902
  587TMC3    C8 8763   1.700   4.391  16.308 -0.1992 -0.0438  0.2206
  587TMC3    O1 8764   1.870   4.211  15.798 -0.2080  0.3349  0.2670
  587TMC3    O2 8765   1.787   4.324  16.356  0.3173  0.2187  0.4197
  588TMC3    C1 8766   3.578   1.564   9.644 -0.0952 -0.2060 -1.1379
  588TMC3    C2 8767   3.533   1.444   9.604  0.6485  0.2229  0.2274
  588TMC3    C3 8768   3.623   1.346   9.583  0.1577 -0.2251  0.1817
  588TMC3    C4 8769   3.704   1.574   9.686 -0.9264 -0.2462  0.3029
  588TMC3    C5 8770   3.791   1.473   9.672  0.3899  0.3337  1.1708
  588TMC3    C6 8771   3.759   1.363   9.601 -0.4981  0.3261  0.8869
  588TMC3     C 8772   3.473   1.658   9.693 -0.3221  0.7571  0.4905
  588TMC3     O 8773   3.368   1.622   9.736 -0.5823 -0.5508  0.6560
  588TMC3     H 8774   3.428   1.419   9.606  1.2531 -2.0801  2.1359
  588TMC3    H1 8775   3.739   1.670   9.725 -1.0162 -0.5108  1.0344
  588TMC3    H2 8776   3.833   1.291   9.567 -0.9503  0.9828 -1.4136
  588TMC3    C7 8777   3.928   1.492   9.723  0.1080  0.1527 -0.8349
  588TMC3    C8 8778   3.584   1.210   9.554  0.3764 -0.1579 -0.3797
  588TMC3    O1 8779   4.024   1.461   9.648 -0.4025  0.3417  0.3443
  588TMC3    O2 8780   3.472   1.201   9.504  0.0181  0.1781  0.1409
  589TMC3    C1 8781   3.766   4.699   1.044 -0.6778 -0.8816 -0.1807
  589TMC3    C2 8782   3.857   4.664   1.148 -0.7609 -0.7521  0.2866
  589TMC3    C3 8783   3.967   4.594   1.113 -0.7116 -1.0085  0.0410
  589TMC3    C4 8784   3.784   4.653   0.919  0.4554 -0.2340  0.4572
  589TMC3    C5 8785   3.890   4.576   0.901  0.2879 -0.2169 -0.2378
  589TMC3    C6 8786   3.986   4.541   0.987  0.2444 -0.0714 -0.3600
  589TMC3     C 8787   3.644   0.042   1.054 -0.2325 -0.0181 -0.8873
  589TMC3     O 8788   3.577   0.048   0.957 -0.2604  0.0537  0.1708
  589TMC3     H 8789   3.834   4.699   1.248 -2.4468 -1.4392  0.1387
  589TMC3    H1 8790   3.718   4.676   0.836 -0.0983 -0.0431  0.9538
  589TMC3    H2 8791   4.070   4.474   0.970  0.6794  0.3509  0.0901
  589TMC3    C7 8792   3.897   4.507   0.776  0.0628  0.2991 -0.0809
  589TMC3    C8 8793   4.032   4.527   1.231 -0.3753  0.1563  0.0490
  589TMC3    O1 8794   3.792   4.475   0.721  0.3124  0.7554 -0.3689
  589TMC3    O2 8795   3.976   4.515   1.340  0.1233 -0.4939 -0.9709
  590MPD2     C 8796   2.787   3.145  16.565 -0.0703 -0.6000 -0.3655
  590MPD2    C1 8797   2.694   3.163  16.467 -0.5950 -0.2466 -0.6046
  590MPD2    C2 8798   2.741   3.198  16.341  0.1376 -0.2161 -0.9131
  590MPD2    C3 8799   2.877   3.186  16.310  0.4021 -0.0626  0.0032
  590MPD2    C4 8800   2.967   3.141  16.407 -0.0249  0.1284 -0.6120
  590MPD2    C5 8801   2.915   3.131  16.533 -0.1580  0.2062  0.1613
  590MPD2     H 8802   2.670   3.231  16.266 -0.0650  0.0780 -0.5949
  590MPD2    H1 8803   3.073   3.124  16.394 -0.1911 -0.8434 -0.6908
  590MPD2    H2 8804   2.759   3.138  16.669  1.6396 -1.2763  0.0509
  590MPD2    H3 8805   2.986   3.117  16.615  0.3781  0.5252 -0.2452
  590MPD2     N 8806   2.923   3.225  16.183  0.3865 -0.4181  0.1728
  590MPD2    H5 8807   2.855   3.275  16.126  1.3095  0.0690 -0.4878
  590MPD2    N1 8808   2.558   3.151  16.508 -0.2633 -0.3392 -0.4260
  590MPD2    H7 8809   2.535   3.131  16.605 -2.0578 -1.2210 -1.0432
  591TMC3    C1 8810   3.072   3.294  16.018 -1.4282 -0.5807 -0.1787
  591TMC3    C2 8811   3.185   3.246  15.952 -0.2213  0.0849  0.3259
  591TMC3    C3 8812   3.243   3.319  15.852  0.3729 -0.0388 -0.5903
  591TMC3    C4 8813   3.026   3.420  15.990 -0.8019  0.4822 -0.2481
  591TMC3    C5 8814   3.106   3.504  15.909  0.1888 -0.9023 -0.1222
  591TMC3    C6 8815   3.198   3.445  15.823  0.1089 -0.9797 -0.1921
  591TMC3     C 8816   3.051   3.225  16.145 -1.3184  1.0497 -0.4566
  591TMC3     O 8817   3.143   3.156  16.185  0.3478  0.2875  0.6974
  591TMC3     H 8818   3.221   3.146  15.975  0.6484  0.7318  1.7522
  591TMC3    H1 8819   2.940   3.461  16.041 -2.4401 -2.2185 -0.8329
  591TMC3    H2 8820   3.236   3.513  15.747  0.3592 -0.4200  0.4381
  591TMC3    C7 8821   3.017   3.612  15.852  0.0976 -0.0632 -0.1476
  591TMC3    C8 8822   3.322   3.245  15.760 -0.1507  0.1776 -0.5987
  591TMC3    O1 8823   2.890   3.592  15.846  0.4205 -0.2091 -0.5320
  591TMC3    O2 8824   3.379   3.140  15.793  0.3537  0.5918  0.0863
  592MPD2     C 8825   3.022   0.029  11.507 -0.0809  0.1297 -0.6404
  592MPD2    C1 8826   3.052   0.128  11.596 -0.2253  0.1660 -0.5472
  592MPD2    C2 8827   3.027   0.095  11.726 -0.4481  0.1437  1.1159
  592MPD2    C3 8828   2.981   4.712  11.773  0.4423 -0.2731 -0.8556
  592MPD2    C4 8829   2.965   4.611  11.680  0.4809  0.3091 -0.9156
  592MPD2    C5 8830   2.994   4.637  11.549  0.2445 -0.3912  0.0708
  592MPD2     H 8831   3.035   0.168  11.806 -1.0718 -0.9009  2.1466
  592MPD2    H1 8832   2.926   4.513  11.704  2.2150  0.3815  2.2711
  592MPD2    H2 8833   3.038   0.040  11.400 -0.8336  2.4306 -0.5122
  592MPD2    H3 8834   2.985   4.550  11.486 -0.5082  1.0159 -1.7708
  592MPD2     N 8835   2.946   4.702  11.910 -0.0319 -0.6997 -0.5909
  592MPD2    H5 8836   2.972   0.050  11.962 -1.9738  0.2723 -1.1620
  592MPD2    N1 8837   3.081   0.252  11.548  0.4947 -0.3779  0.1871
  592MPD2    H7 8838   3.074   0.260  11.447 -1.4659 -3.2729  0.0994
  593TMC3    C1 8839   3.155   0.476  11.561 -0.5852 -0.0166  0.2161
  593TMC3    C2 8840   3.169   0.588  11.643 -0.0126 -0.0136 -0.0003
  593TMC3    C3 8841   3.262   0.689  11.618 -0.4831 -0.1979 -0.2672
  593TMC3    C4 8842   3.242   0.477  11.457  0.3576 -0.0815  0.1046
  593TMC3    C5 8843   3.332   0.577  11.429 -0.4199  0.0781  0.8678
  593TMC3    C6 8844   3.341   0.689  11.507 -0.1723  0.4692  0.2029
  593TMC3     C 8845   3.109   0.363  11.626  0.1071  0.1163 -1.0005
  593TMC3     O 8846   3.112   0.369  11.751 -0.2295 -0.5891 -0.0133
  593TMC3     H 8847   3.097   0.606  11.722 -0.8003 -1.2710 -0.4211
  593TMC3    H1 8848   3.249   0.384  11.402  1.1255 -1.5476  2.6885
  593TMC3    H2 8849   3.417   0.763  11.484 -1.5261  1.7260 -0.2102
  593TMC3    C7 8850   3.398   0.580  11.297 -0.1598 -1.4031  0.7345
  593TMC3    C8 8851   3.282   0.793  11.723  0.4788 -0.2830  0.5528
  593TMC3    O1 8852   3.486   0.663  11.284 -0.3521  0.2815 -0.0098
  593TMC3    O2 8853   3.206   0.786  11.818  0.9323  0.6090  0.7161
  594MPD2     C 8854   2.198   3.659  14.466  0.5509 -0.3287 -0.1027
  594MPD2    C1 8855   2.103   3.749  14.423  0.1621 -0.4838  0.3302
  594MPD2    C2 8856   2.132   3.826  14.314 -1.1463  0.7620 -0.4246
  594MPD2    C3 8857   2.245   3.806  14.237  0.3514  0.0461  0.6453
  594MPD2    C4 8858   2.337   3.718  14.288 -1.1206  0.1341 -0.3560
  594MPD2    C5 8859   2.316   3.647  14.399 -0.5203  0.2380 -0.5952
  594MPD2     H 8860   2.063   3.901  14.280 -0.6105  1.2511 -0.4332
  594MPD2    H1 8861   2.426   3.703  14.228 -0.4506  2.0611  0.1494
  594MPD2    H2 8862   2.170   3.589  14.544 -0.9015  1.1978  0.7501
  594MPD2    H3 8863   2.389   3.575  14.433 -1.8415  0.1269  1.9667
  594MPD2     N 8864   2.271   3.884  14.122  0.8891 -0.5467  0.0349
  594MPD2    H5 8865   2.194   3.939  14.083  1.1819  0.7088  1.2454
  594MPD2    N1 8866   1.971   3.748  14.480 -1.0059  0.1230 -0.6843
  594MPD2    H7 8867   1.955   3.676  14.550  0.2824  0.3031 -0.1955
  595TMC3    C1 8868   2.584   4.143  13.888  0.0885 -0.5104  1.1226
  595TMC3    C2 8869   2.544   4.023  13.929 -0.0880 -0.1307  0.2091
  595TMC3    C3 8870   2.417   4.004  13.970 -0.1425 -0.6276  0.0644
  595TMC3    C4 8871   2.505   4.255  13.899  0.2173 -0.1336 -0.0866
  595TMC3    C5 8872   2.379   4.235  13.951  0.6502  0.3369 -0.5252
  595TMC3    C6 8873   2.328   4.113  13.988  1.4568 -0.4516  0.2101
  595TMC3     C 8874   2.727   4.170  13.879 -0.1732  0.0208  0.2787
  595TMC3     O 8875   2.796   4.081  13.925 -0.3409  0.0081 -0.2889
  595TMC3     H 8876   2.616   3.946  13.955  0.4096  0.4973  0.6526
  595TMC3    H1 8877   2.532   4.357  13.873 -2.9431  0.6059 -0.4723
  595TMC3    H2 8878   2.224   4.100  14.015  1.2161  1.6610  0.3497
  595TMC3    C7 8879   2.302   4.345  14.008  0.7530 -0.5263 -0.7510
  595TMC3    C8 8880   2.384   3.879  14.038 -0.3651 -0.2974  0.0859
  595TMC3    O1 8881   2.187   4.315  14.038 -0.4552  0.2215 -0.0438
  595TMC3    O2 8882   2.471   3.793  14.027 -0.6454  0.1459  0.2352
  596MPD2     C 8883   1.310   1.644  16.853  0.6045 -0.7039 -1.0995
  596MPD2    C1 8884   1.346   1.765  16.798  0.1372 -0.7672 -0.2608
  596MPD2    C2 8885   1.350   1.786  16.661 -0.2628  0.5836 -0.0045
  596MPD2    C3 8886   1.301   1.686  16.577  0.9081  0.1956 -0.0406
  596MPD2    C4 8887   1.270   1.564  16.641  0.1185 -0.1501 -0.0482
  596MPD2    C5 8888   1.271   1.540  16.779 -0.1471  0.2352  0.4626
  596MPD2     H 8889   1.367   1.886  16.620 -0.5776  0.3106 -0.8014
  596MPD2    H1 8890   1.240   1.476  16.586 -3.4311  1.1585 -0.2101
  596MPD2    H2 8891   1.273   1.641  16.955 -0.1407  0.7527 -1.3174
  596MPD2    H3 8892   1.248   1.454  16.840 -0.9840 -0.4552 -0.8466
  596MPD2     N 8893   1.268   1.713  16.440 -0.3613 -0.2769 -0.0909
  596MPD2    H5 8894   1.260   1.626  16.387 -1.1864 -0.2528 -0.0042
  596MPD2    N1 8895   1.372   1.884  16.871 -0.3917 -0.2688  0.3101
  596MPD2    H7 8896   1.398   1.967  16.818  0.6045  0.6526  2.2167
  597TMC3    C1 8897   1.415   2.022  17.060 -0.1141  0.0675 -0.7444
  597TMC3    C2 8898   1.502   2.087  16.977 -0.0683  0.1720 -0.0805
  597TMC3    C3 8899   1.494   2.225  16.975 -1.0748  0.0168  0.5213
  597TMC3    C4 8900   1.338   2.086  17.150 -0.0653 -0.6585  0.5129
  597TMC3    C5 8901   1.347   2.225  17.160  0.2355  0.5072  0.4419
  597TMC3    C6 8902   1.420   2.295  17.068 -0.7750  0.4884 -0.3182
  597TMC3     C 8903   1.369   1.898  17.010  0.2566 -0.0512 -0.2442
  597TMC3     O 8904   1.294   1.838  17.088 -0.3548  0.2291  0.3883
  597TMC3     H 8905   1.570   2.033  16.912  1.9243  0.2137  1.9791
  597TMC3    H1 8906   1.272   2.030  17.216  0.5451 -0.1161  1.5804
  597TMC3    H2 8907   1.409   2.402  17.058  0.7457  0.6714 -0.0446
  597TMC3    C7 8908   1.249   2.290  17.252 -0.1538 -0.4289  0.2960
  597TMC3    C8 8909   1.612   2.291  16.919  0.1990  0.3640  0.1325
  597TMC3    O1 8910   1.191   2.222  17.334  0.4478  0.1462 -0.1304
  597TMC3    O2 8911   1.651   2.391  16.971  0.1412  0.3299 -0.3357
  598TMC3    C1 8912   4.076   3.397  15.150  0.4445  0.0902  0.7343
  598TMC3    C2 8913   4.042   3.270  15.114  0.3615  0.0623  0.2597
  598TMC3    C3 8914   4.000   3.251  14.987  0.2706  0.3182 -0.4615
  598TMC3    C4 8915   4.086   3.500  15.057  0.1040  0.3565 -0.2359
  598TMC3    C5 8916   4.048   3.468  14.927  0.3393  0.3669  1.0352
  598TMC3    C6 8917   4.002   3.345  14.892  0.3812  0.0390 -0.4732
  598TMC3     C 8918   4.101   3.435  15.287  0.1072  0.1568  0.0222
  598TMC3     O 8919   4.087   3.558  15.310 -0.3910  0.4837 -0.1361
  598TMC3     H 8920   4.033   3.178  15.170  0.4334  0.2783  0.6211
  598TMC3    H1 8921   4.103   3.604  15.083  1.5768  0.4580 -1.5973
  598TMC3    H2 8922   3.999   3.315  14.788  1.0685  2.7512 -1.2816
  598TMC3    C7 8923   4.062   3.568  14.822  0.6133 -0.0794  0.0142
  598TMC3    C8 8924   3.961   3.123  14.946 -0.3806  0.0465  0.0472
  598TMC3    O1 8925   3.997   3.541  14.720 -0.3387  0.2781 -0.0299
  598TMC3    O2 8926   4.008   3.030  15.008  0.1408 -0.7458 -0.2867
  599MPD2     C 8927   4.003   1.080  15.939  0.3442 -0.0544 -0.3312
  599MPD2    C1 8928   3.945   0.962  15.895 -0.3593  0.2171  0.7083
  599MPD2    C2 8929   3.806   0.949  15.902 -0.0854 -0.0227 -0.8391
  599MPD2    C3 8930   3.731   1.049  15.953 -0.2504  0.3534 -0.4675
  599MPD2    C4 8931   3.790   1.171  15.984 -0.3896  0.1146 -0.0877
  599MPD2    C5 8932   3.928   1.191  15.966 -0.0450 -0.2599  0.0672
  599MPD2     H 8933   3.757   0.866  15.853  0.6315 -0.5083 -0.7364
  599MPD2    H1 8934   3.727   1.250  16.024  2.0135  2.2013 -0.3902
  599MPD2    H2 8935   4.110   1.088  15.922  0.2822  0.6701 -0.3919
  599MPD2    H3 8936   3.977   1.285  15.985  0.2437 -0.3486 -0.2530
  599MPD2     N 8937   3.599   1.038  15.962 -0.4474 -0.4252  0.5832
  599MPD2    H5 8938   3.548   1.121  15.990  0.6158 -0.3326  2.2414
  599MPD2    N1 8939   4.036   0.869  15.852 -0.2746  0.5431 -0.1122
  599MPD2    H7 8940   4.133   0.901  15.856  0.1852 -0.8964  0.1928
  600TMC3    C1 8941   3.383   0.950  16.000  0.3319  0.6624  0.5067
  600TMC3    C2 8942   3.297   0.841  15.993 -0.5103 -0.2870  0.3077
  600TMC3    C3 8943   3.215   0.822  16.104 -0.2480 -0.3235 -0.4464
  600TMC3    C4 8944   3.361   1.048  16.092 -0.1925 -0.4376  0.6722
  600TMC3    C5 8945   3.273   1.028  16.193 -0.5312  0.3709 -0.4091
  600TMC3    C6 8946   3.201   0.912  16.203  0.3787  0.8581  0.6928
  600TMC3     C 8947   3.514   0.928  15.952 -0.8613  0.4228 -0.3323
  600TMC3     O 8948   3.530   0.818  15.904 -0.5618 -0.0219  0.1620
  600TMC3     H 8949   3.314   0.758  15.926  0.8548 -0.5832  1.0414
  600TMC3    H1 8950   3.425   1.136  16.099  1.3035 -1.3093 -2.2177
  600TMC3    H2 8951   3.140   0.881  16.287 -1.2817  1.2206 -0.3903
  600TMC3    C7 8952   3.241   1.129  16.289 -0.2886  0.0283 -0.4738
  600TMC3    C8 8953   3.181   0.685  16.129  0.2606  0.0599 -0.1462
  600TMC3    O1 8954   3.123   1.144  16.318  0.0335  0.2206 -0.3498
  600TMC3    O2 8955   3.167   0.657  16.246 -0.0053  0.0836 -0.8638
  601MPD2     C 8956   1.689   0.119   0.357  0.6577 -0.2596 -0.6512
  601MPD2    C1 8957   1.633   0.000   0.312 -0.5092 -0.3114  0.2000
  601MPD2    C2 8958   1.641   4.629   0.396  0.0273 -0.0361  0.9544
  601MPD2    C3 8959   1.708   4.636   0.520  0.0736 -0.6200 -0.5720
  601MPD2    C4 8960   1.773   0.015   0.557  0.1386 -0.4581 -0.8558
  601MPD2    C5 8961   1.758   0.126   0.474 -0.3498  0.3887 -0.0995
  601MPD2     H 8962   1.593   4.537   0.364  0.2778  0.1446  0.0664
  601MPD2    H1 8963   1.816   0.039   0.653  0.4658  0.5539 -1.2584
  601MPD2    H2 8964   1.691   0.205   0.291  0.4986 -0.4563 -0.9115
  601MPD2    H3 8965   1.798   0.219   0.512 -0.0752  0.1736  0.1398
  601MPD2     N 8966   1.698   4.535   0.613 -0.7210  0.2799  0.5337
  601MPD2    H5 8967   1.740   4.553   0.704 -0.7990 -2.3939  1.0803
  601MPD2    N1 8968   1.552   4.721   0.195  0.3334 -0.3770  0.0489
  601MPD2    H7 8969   1.503   4.634   0.180  1.3995 -1.1995  1.3150
  602TMC3    C1 8970   1.420   0.061   0.020  0.8277 -0.4074  0.2190
  602TMC3    C2 8971   1.284   0.099   0.025  0.6454  0.1045 -0.2637
  602TMC3    C3 8972   1.211   0.044  17.663  0.3994  0.1690 -0.3178
  602TMC3    C4 8973   1.470   4.704  17.676  0.0318  0.3023  0.0281
  602TMC3    C5 8974   1.384   4.648  17.580  0.3669 -0.6842  0.1506
  602TMC3    C6 8975   1.247   4.687  17.571  0.0115 -0.3798 -0.3247
  602TMC3     C 8976   1.508   0.098   0.128 -0.5564 -0.0342  0.1342
  602TMC3     O 8977   1.507   0.213   0.162 -0.4533 -0.1870  0.5375
  602TMC3     H 8978   1.254   0.170   0.101  0.6121  0.3305 -0.4885
  602TMC3    H1 8979   1.574   4.676  17.685 -0.0379 -0.0800 -0.3502
  602TMC3    H2 8980   1.173   4.627  17.519  0.2474 -0.5449 -0.4661
  602TMC3    C7 8981   1.432   4.553  17.484  0.5938  0.2316  0.4476
  602TMC3    C8 8982   1.084   0.123  17.637 -0.6929  0.0432 -0.3065
  602TMC3    O1 8983   1.508   4.459  17.519 -0.1729 -0.7007  0.4460
  602TMC3    O2 8984   1.029   0.182  17.730  0.3168  0.0049  0.1401
  603TMC3    C1 8985   4.144   3.835  10.760 -0.3691  0.1350 -0.4278
  603TMC3    C2 8986   4.217   3.792  10.868  0.2800 -0.1890 -0.3252
  603TMC3    C3 8987   4.267   3.885  10.950  0.2881  0.4923 -0.0422
  603TMC3    C4 8988   4.158   3.961  10.718 -0.0262  0.6598 -0.5169
  603TMC3    C5 8989   4.203   4.053  10.805 -0.6215  0.5441  0.3661
  603TMC3    C6 8990   4.250   4.024  10.928 -0.0881 -0.1324  0.2124
  603TMC3     C 8991   4.087   3.734  10.672 -0.4282 -0.2216  0.0737
  603TMC3     O 8992   4.112   3.617  10.696 -0.5839 -0.2317 -0.0350
  603TMC3     H 8993   4.195   3.690  10.897 -0.7570 -0.3856 -1.7658
  603TMC3    H1 8994   4.138   3.981  10.613  1.8815  1.5440 -0.7257
  603TMC3    H2 8995   4.304   4.100  10.984 -0.3801 -0.2622  0.6615
  603TMC3    C7 8996   4.185   4.190  10.788 -0.1190 -0.4355 -0.0341
  603TMC3    C8 8997   4.280   3.841  11.088 -0.0591  0.4503  0.1392
  603TMC3    O1 8998   4.232   4.264  10.874  0.0286  0.0792 -0.0961
  603TMC3    O2 8999   4.308   3.727  11.113 -0.0730 -0.1646 -0.0139
  604MPD2     C 9000   0.371   3.317  16.586 -0.1433  0.1900  0.8551
  604MPD2    C1 9001   0.264   3.270  16.511  0.5021 -0.0396 -0.5847
  604MPD2    C2 9002   0.296   3.197  16.395 -0.4378 -0.1576  0.2158
  604MPD2    C3 9003   0.424   3.172  16.358  0.1088  0.4725  0.4841
  604MPD2    C4 9004   0.526   3.213  16.450  0.8454  0.2470  1.1411
  604MPD2    C5 9005   0.501   3.283  16.556 -0.2237 -0.3185 -0.2602
  604MPD2     H 9006   0.222   3.147  16.334  0.3730  1.0211 -1.7738
  604MPD2    H1 9007   0.629   3.190  16.428  0.2955 -0.8332 -0.2899
  604MPD2    H2 9008   0.346   3.376  16.673  0.5377  2.1136 -0.2366
  604MPD2    H3 9009   0.582   3.325  16.614 -1.2727 -1.4819  2.0280
  604MPD2     N 9010   0.451   3.097  16.243 -0.1696  0.3015 -0.4878
  604MPD2    H5 9011   0.385   3.096  16.166 -1.6211 -0.2988  0.7824
  604MPD2    N1 9012   0.140   3.306  16.558  0.1877 -0.2753 -0.7795
  604MPD2    H7 9013   0.132   3.360  16.643  1.2420  0.0393 -0.8807
  605TMC3    C1 9014   4.646   3.345  16.555 -0.2917  0.0723 -0.1871
  605TMC3    C2 9015   4.687   3.411  16.669  0.2701 -0.6521 -0.2129
  605TMC3    C3 9016   4.665   3.543  16.686  0.6446 -0.0712 -0.2643
  605TMC3    C4 9017   4.569   3.416  16.462  0.0871 -0.5230  0.2766
  605TMC3    C5 9018   4.540   3.549  16.489 -0.4061  0.2608  0.4925
  605TMC3    C6 9019   4.590   3.616  16.598 -0.1430  0.1132 -0.3759
  605TMC3     C 9020   0.020   3.270  16.496  0.1071 -0.6046 -0.8028
  605TMC3     O 9021   0.003   3.206  16.393 -0.5566  0.5663  0.8784
  605TMC3     H 9022   4.734   3.351  16.746 -0.0875  0.9159  1.2417
  605TMC3    H1 9023   4.545   3.382  16.362 -0.3889 -0.7459  0.4625
  605TMC3    H2 9024   4.568   3.719  16.621 -1.6720 -0.5353  1.0409
  605TMC3    C7 9025   4.433   3.624  16.427  0.2886  0.3179 -0.7441
  605TMC3    C8 9026   0.056   3.602  16.729  0.1707  0.1805  0.3068
  605TMC3    O1 9027   4.411   3.743  16.447  0.0394  0.1190  0.4824
  605TMC3    O2 9028   0.154   3.525  16.721  0.4232  0.3519  0.8331
  606TMC3    C1 9029   1.699   1.692  16.764 -0.3330  0.0511 -0.7054
  606TMC3    C2 9030   1.726   1.763  16.877 -0.1343 -0.0338  0.0244
  606TMC3    C3 9031   1.714   1.707  16.999  0.8043  0.0911 -0.3824
  606TMC3    C4 9032   1.661   1.565  16.761  0.0834 -0.5126 -0.3208
  606TMC3    C5 9033   1.657   1.506  16.886  0.3873 -0.7737  0.1893
  606TMC3    C6 9034   1.679   1.577  17.001 -0.3557 -0.8431  0.7251
  606TMC3     C 9035   1.682   1.778  16.649  0.9614 -0.6318  0.2292
  606TMC3     O 9036   1.693   1.898  16.660 -0.1210  0.3903  0.2341
  606TMC3     H 9037   1.737   1.871  16.875 -0.3939 -0.0033  0.2474
  606TMC3    H1 9038   1.607   1.520  16.678  1.4661 -2.0580 -0.3809
  606TMC3    H2 9039   1.694   1.512  17.086 -2.0849 -1.4931  0.5293
  606TMC3    C7 9040   1.620   1.367  16.890 -0.6869 -0.2439  0.0340
  606TMC3    C8 9041   1.782   1.758  17.120 -0.2098 -0.3584 -0.1859
  606TMC3    O1 9042   1.638   1.300  16.790 -0.1140 -0.1551 -0.1088
  606TMC3    O2 9043   1.861   1.850  17.093 -0.6599 -0.1521 -0.4442
  607MPD2     C 9044   3.080   4.049  11.743  0.5388  0.4794  0.5798
  607MPD2    C1 9045   3.154   4.106  11.844  0.5282 -0.4268  0.2126
  607MPD2    C2 9046   3.171   4.046  11.967  0.0874  0.0331 -0.7211
  607MPD2    C3 9047   3.108   3.923  11.999 -0.4275  0.0482  0.2921
  607MPD2    C4 9048   3.035   3.867  11.911  0.0011 -0.3275  0.5268
  607MPD2    C5 9049   3.021   3.929  11.784  0.7972 -0.1785  0.1770
  607MPD2     H 9050   3.225   4.096  12.046 -0.7027 -0.0658 -0.1102
  607MPD2    H1 9051   2.987   3.770  11.924 -1.2541 -0.3996 -4.5739
  607MPD2    H2 9052   3.064   4.101  11.649  0.7598  1.5760  1.1474
  607MPD2    H3 9053   2.960   3.885  11.707  1.1870 -1.4589  0.5916
  607MPD2     N 9054   3.140   3.866  12.125  0.1374  0.5825 -0.1152
  607MPD2    H5 9055   3.187   3.932  12.187 -0.8281  0.7750  0.4012
  607MPD2    N1 9056   3.204   4.235  11.841 -0.6642 -0.0571  0.2841
  607MPD2    H7 9057   3.257   4.273  11.919 -1.4458 -0.9740  1.2669
  608TMC3    C1 9058   3.226   4.453  11.780  0.1826 -0.1791 -0.6282
  608TMC3    C2 9059   3.202   4.490  11.911  0.2221  0.2757  0.4140
  608TMC3    C3 9060   3.252   4.610  11.956 -0.0492  0.0808  0.1370
  608TMC3    C4 9061   3.304   4.527  11.695 -0.5285  0.3065 -0.0060
  608TMC3    C5 9062   3.344   4.651  11.741 -0.0041 -0.5045 -0.6957
  608TMC3    C6 9063   3.321   4.697  11.872 -0.4127  0.3552  0.1100
  608TMC3     C 9064   3.185   4.323  11.736  0.3511  0.9309 -0.8000
  608TMC3     O 9065   3.176   4.304  11.616  0.0302 -0.6283 -0.4420
  608TMC3     H 9066   3.128   4.442  11.974  1.1539 -0.2866  1.0824
  608TMC3    H1 9067   3.307   4.506  11.589  0.8304  1.3169 -0.1654
  608TMC3    H2 9068   3.363   0.056  11.907 -1.4908 -0.0563  2.5283
  608TMC3    C7 9069   3.411   0.001  11.636 -0.2402 -0.3107  0.1551
  608TMC3    C8 9070   3.267   4.619  12.103 -0.0440  0.4271  0.5191
  608TMC3    O1 9071   3.460   4.674  11.545 -0.3663  0.1845 -0.0117
  608TMC3    O2 9072   3.228   4.719  12.157 -0.4797 -0.0823 -0.5934
  609TMC3    C1 9073   1.271   3.172   8.871  0.1367 -0.4017 -0.6525
  609TMC3    C2 9074   1.233   3.095   8.761 -0.8105 -1.2411 -0.1018
  609TMC3    C3 9075   1.336   3.073   8.675 -0.4512  0.7975 -0.0925
  609TMC3    C4 9076   1.392   3.231   8.893  0.0506 -0.6054  1.0027
  609TMC3    C5 9077   1.488   3.183   8.803  0.3130 -0.2210 -0.5435
  609TMC3    C6 9078   1.463   3.102   8.694 -0.5664 -0.3470 -0.4024
  609TMC3     C 9079   1.175   3.188   8.978 -0.3314 -0.0270  0.8084
  609TMC3     O 9080   1.068   3.236   8.947 -0.0751  0.2981  0.6281
  609TMC3     H 9081   1.130   3.069   8.738 -0.9567  0.1682 -1.1106
  609TMC3    H1 9082   1.420   3.298   8.974  0.3997 -0.8113  1.0551
  609TMC3    H2 9083   1.544   3.041   8.655  0.4994  0.4641  0.5342
  609TMC3    C7 9084   1.625   3.221   8.828  0.5791 -0.3548  0.6142
  609TMC3    C8 9085   1.316   2.973   8.572  0.1548 -0.4447  0.7253
  609TMC3    O1 9086   1.642   3.263   8.944  0.0613  0.9373  0.6546
  609TMC3    O2 9087   1.209   2.912   8.585 -0.3608  0.0516  0.2945
  610TMC3    C1 9088   3.733   4.442  12.764  0.1084  0.6065 -0.1829
  610TMC3    C2 9089   3.717   4.480  12.634 -0.4039 -0.0442  0.2084
  610TMC3    C3 9090   3.822   4.470  12.553  0.1017 -0.5337  0.4431
  610TMC3    C4 9091   3.847   4.385  12.818  0.1449 -0.1639 -0.4772
  610TMC3    C5 9092   3.950   4.390  12.734  0.0422  0.4273  0.2428
  610TMC3    C6 9093   3.947   4.426  12.600  0.5856  0.5739 -0.1453
  610TMC3     C 9094   3.618   4.435  12.846 -0.5763 -0.2735  0.8537
  610TMC3     O 9095   3.593   4.333  12.905  0.2322 -0.3188  0.3455
  610TMC3     H 9096   3.621   4.506  12.590 -1.3100 -0.4634  1.9425
  610TMC3    H1 9097   3.849   4.343  12.917 -0.5988  0.7151 -0.0898
  610TMC3    H2 9098   4.033   4.416  12.534  0.8333 -1.1817  0.4426
  610TMC3    C7 9099   4.057   4.301  12.771 -0.3907 -0.5691  0.1536
  610TMC3    C8 9100   3.828   4.508  12.415  0.2791 -0.5424 -0.1885
  610TMC3    O1 9101   4.035   4.222  12.859 -0.1911 -0.0797  0.1398
  610TMC3    O2 9102   3.924   4.460  12.355  0.1810  0.0746 -0.2573
  611MPD2     C 9103   3.096   4.189  10.376  0.6368 -0.8773 -0.6297
  611MPD2    C1 9104   3.076   4.300  10.301 -0.1371 -0.1135  0.3991
  611MPD2    C2 9105   3.187   4.374  10.259  0.2066 -0.4401  0.7490
  611MPD2    C3 9106   3.313   4.329  10.297  0.4304  0.1177  0.2170
  611MPD2    C4 9107   3.331   4.229  10.389  0.3554 -0.8260 -0.1264
  611MPD2    C5 9108   3.224   4.153  10.419  0.4091  0.1327 -0.1967
  611MPD2     H 9109   3.177   4.467  10.204 -0.8473  0.1253  1.9036
  611MPD2    H1 9110   3.428   4.213  10.434  0.7396  1.5662 -0.0918
  611MPD2    H2 9111   3.012   4.132  10.414 -0.2540  1.3442  0.6902
  611MPD2    H3 9112   3.225   4.062  10.478  0.8365 -0.6294 -1.3663
  611MPD2     N 9113   3.433   4.390  10.250 -0.2002  0.7779  0.0589
  611MPD2    H5 9114   3.523   4.351  10.277 -0.6346  0.7779  1.5098
  611MPD2    N1 9115   2.946   4.331  10.257  0.1795 -0.1644 -0.5261
  611MPD2    H7 9116   2.867   4.276  10.290  0.2433 -0.2292 -0.4816
  612TMC3    C1 9117   3.556   4.534  10.122  0.0224  0.0418 -0.6168
  612TMC3    C2 9118   3.654   4.542  10.222  0.3525  0.4568  0.4599
  612TMC3    C3 9119   3.766   4.614  10.197  0.1870 -0.0156 -0.3617
  612TMC3    C4 9120   3.578   4.589   9.997  0.0174 -0.1249  0.7562
  612TMC3    C5 9121   3.694   4.650   9.972 -0.1962  0.5419 -0.5194
  612TMC3    C6 9122   3.784   4.672  10.071 -0.0398 -0.4489 -0.4446
  612TMC3     C 9123   3.431   4.480  10.146  0.1341 -0.4336 -0.0151
  612TMC3     O 9124   3.343   4.512  10.071 -0.5847 -0.0220  0.2770
  612TMC3     H 9125   3.632   4.525  10.327 -0.5062  0.5334  0.2873
  612TMC3    H1 9126   3.499   4.582   9.923  0.8254 -0.6357 -0.0577
  612TMC3    H2 9127   3.864   0.005  10.046  1.7381 -1.9067  1.2549
  612TMC3    C7 9128   3.720   4.717   9.841 -0.0705  0.2029 -0.5653
  612TMC3    C8 9129   3.864   4.645  10.305 -1.3477  0.1637  0.0936
  612TMC3    O1 9130   3.815   0.059   9.838  0.1266  0.7104  0.1792
  612TMC3    O2 9131   3.928   0.013  10.305 -0.2042 -0.4231 -0.0792
  613MPD2     C 9132   3.153   2.058  16.333 -0.3013  0.0651 -0.2470
  613MPD2    C1 9133   3.050   2.120  16.277  0.2367 -0.1635  0.5087
  613MPD2    C2 9134   2.933   2.049  16.270  0.1272 -0.5493 -0.3968
  613MPD2    C3 9135   2.922   1.915  16.296  0.3200  0.2712 -0.0631
  613MPD2    C4 9136   3.034   1.849  16.336 -0.3196 -0.4994 -0.4733
  613MPD2    C5 9137   3.150   1.921  16.358  0.4883 -0.1084 -0.1569
  613MPD2     H 9138   2.845   2.109  16.249 -0.0732  0.2912  2.9694
  613MPD2    H1 9139   3.024   1.743  16.358  0.6093 -0.3511  0.6671
  613MPD2    H2 9140   3.242   2.107  16.372 -0.3114 -1.4355  1.7003
  613MPD2    H3 9141   3.236   1.876  16.408  1.0400  1.3067  0.1723
  613MPD2     N 9142   2.809   1.836  16.276  0.2278  0.2092 -0.2858
  613MPD2    H5 9143   2.818   1.737  16.297  0.7559  0.0976 -1.0391
  613MPD2    N1 9144   3.062   2.259  16.259 -0.1546 -0.2860  0.5223
  613MPD2    H7 9145   3.147   2.299  16.298 -0.1175 -1.7500  1.9604
  614TMC3    C1 9146   2.877   2.312  16.107 -0.5056 -0.3402  0.1415
  614TMC3    C2 9147   2.906   2.217  16.012 -0.3656  0.4969 -0.5778
  614TMC3    C3 9148   2.808   2.194  15.915 -0.4018 -0.1315  0.2225
  614TMC3    C4 9149   2.766   2.394  16.092  0.1582  0.4597  0.1333
  614TMC3    C5 9150   2.680   2.371  15.991  0.1661 -0.3212  0.1923
  614TMC3    C6 9151   2.704   2.277  15.895 -0.0877 -0.4718  0.1559
  614TMC3     C 9152   2.978   2.352  16.196 -0.4119 -0.6331  0.0890
  614TMC3     O 9153   2.975   2.472  16.214  0.5894  0.4570  0.5324
  614TMC3     H 9154   2.998   2.162  16.029  0.0281  1.8325  1.6165
  614TMC3    H1 9155   2.736   2.464  16.170 -0.0989 -0.9636  1.3260
  614TMC3    H2 9156   2.637   2.261  15.811 -0.9281  1.1860  0.5001
  614TMC3    C7 9157   2.570   2.464  15.974 -0.2284  0.4991 -0.7446
  614TMC3    C8 9158   2.784   2.055  15.871  0.7377  0.0798  0.2959
  614TMC3    O1 9159   2.577   2.569  16.029 -0.0666 -0.0567 -0.4535
  614TMC3    O2 9160   2.667   2.026  15.839 -0.2553 -0.1126 -0.3352
  615MPD2     C 9161   2.230   3.572  16.442  0.2777 -0.0967 -0.0774
  615MPD2    C1 9162   2.252   3.580  16.304  0.2117 -0.2733 -0.5462
  615MPD2    C2 9163   2.142   3.575  16.222 -0.0262  0.6526 -0.1307
  615MPD2    C3 9164   2.017   3.573  16.281 -0.2897 -0.9910  0.0109
  615MPD2    C4 9165   1.999   3.573  16.418 -0.4671  0.3891 -0.0070
  615MPD2    C5 9166   2.110   3.572  16.495 -0.5102 -0.0934 -0.0968
  615MPD2     H 9167   2.149   3.568  16.114  1.7267 -1.0888  0.1059
  615MPD2    H1 9168   1.907   3.590  16.472 -0.7266 -0.9818 -0.0061
  615MPD2    H2 9169   2.308   3.576  16.517  0.9691 -0.4401 -0.7768
  615MPD2    H3 9170   2.102   3.576  16.603  2.3276 -0.6567  0.1266
  615MPD2     N 9171   1.912   3.591  16.199  0.0095  0.1478 -0.0412
  615MPD2    H5 9172   1.919   3.589  16.097 -0.2062  0.7999 -0.0647
  615MPD2    N1 9173   2.380   3.585  16.239  0.0263  0.5317 -0.3109
  615MPD2    H7 9174   2.385   3.588  16.138 -1.3133  1.9850 -0.3427
  616TMC3    C1 9175   2.598   3.627  16.214 -0.1034 -0.0923  1.1380
  616TMC3    C2 9176   2.721   3.607  16.260  0.0711  0.7047 -0.2342
  616TMC3    C3 9177   2.816   3.704  16.249 -0.8425  0.0024  0.4113
  616TMC3    C4 9178   2.559   3.746  16.152 -0.3213  0.1130  0.2595
  616TMC3    C5 9179   2.657   3.842  16.145 -0.0806  0.1967 -0.4072
  616TMC3    C6 9180   2.786   3.826  16.192 -0.6906 -0.1241 -0.0386
  616TMC3     C 9181   2.503   3.575  16.300  0.7481 -0.5399  0.1636
  616TMC3     O 9182   2.529   3.546  16.412  0.4695  0.0163  0.2210
  616TMC3     H 9183   2.756   3.514  16.304 -0.2932 -0.3430 -2.1047
  616TMC3    H1 9184   2.464   3.768  16.104 -0.6411 -0.9351  0.4001
  616TMC3    H2 9185   2.859   3.897  16.154 -0.4865  0.1452  0.8511
  616TMC3    C7 9186   2.621   3.981  16.116 -0.8822 -0.1578 -0.3234
  616TMC3    C8 9187   2.957   3.672  16.287  0.3808 -0.7497 -0.9532
  616TMC3    O1 9188   2.709   4.050  16.070  0.0046  0.4244 -0.5305
  616TMC3    O2 9189   2.977   3.554  16.305 -0.2873  0.1885 -0.1360
  617MPD2     C 9190   0.241   1.669  13.167  0.0409 -0.0532 -1.1221
  617MPD2    C1 9191   0.182   1.744  13.269 -0.0615  1.2479  0.3048
  617MPD2    C2 9192   0.047   1.732  13.299  0.1434 -0.3387  0.0058
  617MPD2    C3 9193   4.705   1.648  13.223  0.0019  0.5369  0.1664
  617MPD2    C4 9194   0.023   1.578  13.114  1.0882  0.0580  0.6694
  617MPD2    C5 9195   0.160   1.585  13.091  0.3962 -1.1505  0.0505
  617MPD2     H 9196   0.004   1.792  13.378  0.2628 -2.0726  1.4000
  617MPD2    H1 9197   4.700   1.509  13.055  1.8625  0.8671 -1.0422
  617MPD2    H2 9198   0.346   1.670  13.142 -0.0651  0.0629 -1.5618
  617MPD2    H3 9199   0.198   1.525  13.010 -1.1845 -0.4139 -1.2375
  617MPD2     N 9200   4.576   1.622  13.255 -0.1307  0.9793 -0.7673
  617MPD2    H5 9201   4.523   1.563  13.193 -1.2120  2.0494 -0.8661
  617MPD2    N1 9202   0.273   1.835  13.331  0.6234 -0.0416 -0.3726
  617MPD2    H7 9203   0.370   1.825  13.304  1.4114  2.0354  1.6941
  618TMC3    C1 9204   0.358   2.005  13.462  0.0051 -0.2075  0.6788
  618TMC3    C2 9205   0.366   2.066  13.588 -0.0545  0.4366 -0.0873
  618TMC3    C3 9206   0.477   2.138  13.621 -0.1199 -0.6578 -0.1367
  618TMC3    C4 9207   0.458   2.030  13.361 -0.1747 -0.3374  0.5871
  618TMC3    C5 9208   0.568   2.104  13.404 -0.2586  0.3251  0.2466
  618TMC3    C6 9209   0.577   2.150  13.536  0.5848 -0.4427  0.9272
  618TMC3     C 9210   0.246   1.926  13.435 -0.2196 -0.3615 -0.5370
  618TMC3     O 9211   0.148   1.953  13.502 -0.4739  0.2743 -0.4403
  618TMC3     H 9212   0.278   2.071  13.652 -1.6426 -2.3265 -2.0663
  618TMC3    H1 9213   0.445   2.007  13.256  3.4499 -2.4359  0.6144
  618TMC3    H2 9214   0.666   2.205  13.564  0.7630  0.1510 -0.7732
  618TMC3    C7 9215   0.684   2.071  13.327 -0.5431 -0.4826 -0.6989
  618TMC3    C8 9216   0.514   2.140  13.758 -0.6127 -0.3556  0.2364
  618TMC3    O1 9217   0.665   2.005  13.224  0.2710  0.0878  0.6564
  618TMC3    O2 9218   0.605   2.213  13.794 -0.6562 -0.1581  0.1158
  619MPD2     C 9219   1.185   2.759  14.085 -0.2825  0.2905 -0.7196
  619MPD2    C1 9220   1.133   2.792  13.970 -0.2570 -0.2902 -0.2903
  619MPD2    C2 9221   0.999   2.759  13.942  0.2279 -0.0283  0.1914
  619MPD2    C3 9222   0.921   2.708  14.041 -0.2350 -0.3528  0.1765
  619MPD2    C4 9223   0.975   2.703  14.167  0.0858  0.1357  0.7147
  619MPD2    C5 9224   1.109   2.713  14.187  0.6452  0.9306 -0.0247
  619MPD2     H 9225   0.974   2.755  13.837 -0.5348 -0.4995  0.3891
  619MPD2    H1 9226   0.920   2.686  14.259  0.7374  1.8931  1.4290
  619MPD2    H2 9227   1.289   2.776  14.110 -0.6057  1.2890 -0.0423
  619MPD2    H3 9228   1.163   2.695  14.279 -0.3641  1.3933  0.6596
  619MPD2     N 9229   0.790   2.677  14.018 -0.3070  0.5958  0.0765
  619MPD2    H5 9230   0.725   2.677  14.097 -0.4377 -2.3901 -0.0288
  619MPD2    N1 9231   1.209   2.846  13.855 -0.0335 -0.3222  0.7660
  619MPD2    H7 9232   1.156   2.871  13.773 -0.8091 -0.0688  1.3365
  620TMC3    C1 9233   1.385   2.899  13.715 -0.3293  0.1013  0.5667
  620TMC3    C2 9234   1.297   2.868  13.615 -0.2375  0.0552  0.0253
  620TMC3    C3 9235   1.273   2.966  13.519  0.3987  0.7203 -0.4615
  620TMC3    C4 9236   1.453   3.015  13.720 -0.1860 -0.0308  0.3740
  620TMC3    C5 9237   1.429   3.101  13.619 -0.0010 -0.0485 -0.4052
  620TMC3    C6 9238   1.343   3.083  13.521 -0.1636  0.0734 -0.3582
  620TMC3     C 9239   1.344   2.856  13.853  0.3785  0.3068  0.0665
  620TMC3     O 9240   1.430   2.847  13.940 -0.5934 -0.6944 -0.5712
  620TMC3     H 9241   1.267   2.764  13.614  1.6456 -0.5290  2.8412
  620TMC3    H1 9242   1.503   3.043  13.812 -2.4791 -0.1969  1.6512
  620TMC3    H2 9243   1.331   3.154  13.440  1.0388  0.9819  0.2667
  620TMC3    C7 9244   1.472   3.238  13.639 -0.8067 -1.3328 -0.3256
  620TMC3    C8 9245   1.135   3.008  13.545 -0.2644  0.2314  0.2684
  620TMC3    O1 9246   1.592   3.270  13.644  0.8658  0.3019  0.0356
  620TMC3    O2 9247   1.122   3.120  13.588  0.0479 -1.1012 -0.5921
  621MPD2     C 9248   1.935   3.053   9.418  0.7263 -0.1632 -0.3895
  621MPD2    C1 9249   1.879   3.056   9.549  0.5854 -0.5547 -0.8901
  621MPD2    C2 9250   1.965   3.097   9.646 -0.2373  0.7463 -0.2431
  621MPD2    C3 9251   2.104   3.112   9.628  0.2446 -0.9933  0.5265
  621MPD2    C4 9252   2.150   3.107   9.499  0.0868 -0.1089  0.1371
  621MPD2    C5 9253   2.067   3.079   9.396  0.5841 -0.6344  0.5440
  621MPD2     H 9254   1.927   3.109   9.747  1.5375  0.8415  0.4105
  621MPD2    H1 9255   2.255   3.109   9.472 -0.1790 -0.3328 -0.9163
  621MPD2    H2 9256   1.885   3.029   9.325  0.9225 -0.8168 -0.3249
  621MPD2    H3 9257   2.109   3.077   9.295 -0.9363 -0.8489 -0.0798
  621MPD2     N 9258   2.183   3.143   9.742 -0.6838 -0.6574  0.0109
  621MPD2    H5 9259   2.130   3.133   9.828  1.3363 -1.5104  1.1551
  621MPD2    N1 9260   1.743   3.048   9.577  0.2168 -0.7497 -0.1380
  621MPD2    H7 9261   1.722   3.044   9.676 -1.2461  0.1513 -0.4053
  622TMC3    C1 9262   1.510   2.980   9.524 -0.5620  0.2688 -0.1209
  622TMC3    C2 9263   1.485   2.976   9.655  0.2914  0.1548  0.1753
  622TMC3    C3 9264   1.355   2.957   9.690  0.3031  0.3884 -0.1788
  622TMC3    C4 9265   1.416   2.957   9.427  0.3196  0.2398 -0.4710
  622TMC3    C5 9266   1.286   2.944   9.464 -0.9109 -0.4347  0.2435
  622TMC3    C6 9267   1.256   2.936   9.600 -0.4170  0.2647 -0.5133
  622TMC3     C 9268   1.639   3.030   9.482  0.1687  0.0020  0.4452
  622TMC3     O 9269   1.655   3.042   9.359 -0.7413  0.5079  0.1104
  622TMC3     H 9270   1.556   3.000   9.733 -1.6565 -0.4764  2.1303
  622TMC3    H1 9271   1.438   2.973   9.322  1.3033  1.5566 -0.0633
  622TMC3    H2 9272   1.152   2.946   9.631  0.2689  1.3510  1.4320
  622TMC3    C7 9273   1.207   2.856   9.387 -0.0893  0.0744  0.1663
  622TMC3    C8 9274   1.324   2.987   9.825 -0.3775  0.3279 -0.1314
  622TMC3    O1 9275   1.083   2.880   9.383 -0.0966  0.2136  0.2303
  622TMC3    O2 9276   1.389   3.074   9.882  0.5092 -0.2687  0.3202
  623MPD2     C 9277   0.500   3.385  15.957 -0.3772 -0.7485 -0.1813
  623MPD2    C1 9278   0.411   3.432  16.054  0.3911 -0.0320  0.5798
  623MPD2    C2 9279   0.456   3.487  16.174 -0.0059 -0.2836  0.0036
  623MPD2    C3 9280   0.588   3.486  16.210  0.3723 -0.9119 -0.1044
  623MPD2    C4 9281   0.678   3.439  16.116 -0.4573 -0.3939 -0.3192
  623MPD2    C5 9282   0.635   3.392  15.993  0.0105 -0.0108 -0.0110
  623MPD2     H 9283   0.383   3.512  16.251 -0.3594  1.3421 -0.8807
  623MPD2    H1 9284   0.786   3.451  16.126 -0.5871 -0.0183  0.5895
  623MPD2    H2 9285   0.473   3.348  15.859  2.4006  1.1904 -1.6584
  623MPD2    H3 9286   0.707   3.362  15.917  1.8489 -0.1630  1.8026
  623MPD2     N 9287   0.620   3.546  16.337  0.0463 -0.1505 -0.0060
  623MPD2    H5 9288   0.541   3.581  16.390 -0.8739 -0.7167 -1.0158
  623MPD2    N1 9289   0.267   3.444  16.029 -0.6311 -0.0796  0.3337
  623MPD2    H7 9290   0.205   3.476  16.103  0.1132 -1.2257  1.4341
  624TMC3    C1 9291   0.881   3.561  16.730  0.4651 -0.7045 -0.4556
  624TMC3    C2 9292   0.795   3.658  16.789 -0.1686  0.4542 -0.8804
  624TMC3    C3 9293   0.694   3.709  16.717 -0.3168  0.3774 -0.0492
  624TMC3    C4 9294   0.868   3.520  16.602 -0.4727 -0.5577  1.3660
  624TMC3    C5 9295   0.763   3.573  16.529 -0.0232  0.3231  0.3722
  624TMC3    C6 9296   0.673   3.663  16.583 -0.4580 -0.2279 -0.1507
  624TMC3     C 9297   0.985   3.513  16.817  0.4674 -0.5100 -0.0101
  624TMC3     O 9298   1.030   3.600  16.887  0.2811  0.0736  0.1009
  624TMC3     H 9299   0.805   3.687  16.893 -2.9219 -0.0977 -0.4787
  624TMC3    H1 9300   0.948   3.459  16.560 -1.6015 -1.9594  1.2681
  624TMC3    H2 9301   0.592   3.714  16.533  1.3138 -0.5333 -3.3682
  624TMC3    C7 9302   0.748   3.529  16.391 -0.0722  0.3649 -0.3425
  624TMC3    C8 9303   0.576   3.742  16.792 -0.3900 -0.0469 -0.3588
  624TMC3    O1 9304   0.843   3.472  16.345 -0.2815 -0.3712 -0.1987
  624TMC3    O2 9305   0.542   3.663  16.876 -0.2735 -0.0325 -0.0486
  625MPD2     C 9306   1.285   0.539   0.827 -0.0316  0.5909 -0.2612
  625MPD2    C1 9307   1.304   0.674   0.808 -0.0665  0.0218 -0.1778
  625MPD2    C2 9308   1.422   0.729   0.853  0.6148  0.2840 -0.7194
  625MPD2    C3 9309   1.521   0.651   0.911  0.4672 -0.9512 -0.1573
  625MPD2    C4 9310   1.501   0.515   0.923  0.0652 -0.2162  0.0641
  625MPD2    C5 9311   1.382   0.460   0.878  0.1725  0.4069 -0.0810
  625MPD2     H 9312   1.420   0.837   0.857 -1.2450  0.1925  1.4073
  625MPD2    H1 9313   1.571   0.442   0.961 -0.0928  0.8100  2.3175
  625MPD2    H2 9314   1.198   0.485   0.791 -0.8777  1.3465  0.6748
  625MPD2    H3 9315   1.361   0.354   0.886  0.7011  0.3924  1.0905
  625MPD2     N 9316   1.640   0.715   0.973 -0.7090 -0.4353  0.6993
  625MPD2    H5 9317   1.653   0.812   0.946 -1.2841 -0.7943 -0.8127
  625MPD2    N1 9318   1.209   0.773   0.769  0.4004  0.5101 -0.8078
  625MPD2    H7 9319   1.214   0.873   0.789 -0.2908  0.0128  1.8512
  626TMC3    C1 9320   0.992   0.845   0.701 -0.0991 -0.7938  0.2426
  626TMC3    C2 9321   0.908   0.836   0.590 -0.0233 -0.2560  0.4431
  626TMC3    C3 9322   0.801   0.921   0.576 -0.5210  0.0322 -0.2991
  626TMC3    C4 9323   0.965   0.930   0.801  0.1196  0.6728 -0.2566
  626TMC3    C5 9324   0.862   1.022   0.785 -0.3900  1.0500 -0.3240
  626TMC3    C6 9325   0.773   1.015   0.675  0.1092  0.9184 -0.0125
  626TMC3     C 9326   1.086   0.731   0.723  1.1066 -0.0074 -0.5360
  626TMC3     O 9327   1.065   0.626   0.668  0.0941 -0.2164  0.1725
  626TMC3     H 9328   0.930   0.759   0.517  0.2115  0.7758 -0.5743
  626TMC3    H1 9329   1.036   0.920   0.883  1.3465 -2.5761 -1.7327
  626TMC3    H2 9330   0.689   1.083   0.661  0.0452  0.7439 -0.4926
  626TMC3    C7 9331   0.815   1.075   0.916  0.8139 -0.2639  0.5464
  626TMC3    C8 9332   0.716   0.910   0.461  0.7513 -0.1719 -0.0201
  626TMC3    O1 9333   0.899   1.098   0.999 -0.4132 -0.0357 -0.2578
  626TMC3    O2 9334   0.725   0.803   0.395  0.3894  0.0858  0.1866
  627MPD2     C 9335   4.063   0.465  13.819 -0.6578 -0.0352  0.4970
  627MPD2    C1 9336   4.112   0.434  13.947  0.3698  0.2312  0.3761
  627MPD2    C2 9337   4.065   0.320  14.011  0.1411  0.1694 -0.5777
  627MPD2    C3 9338   3.969   0.236  13.959  0.4403 -0.3381 -0.4369
  627MPD2    C4 9339   3.925   0.262  13.838  0.4813 -0.4741 -0.0374
  627MPD2    C5 9340   3.974   0.375  13.767 -0.9207 -0.0691 -0.5709
  627MPD2     H 9341   4.101   0.309  14.113  0.9881 -0.7657 -0.9718
  627MPD2    H1 9342   3.851   0.201  13.787 -0.8065  0.6661  0.4867
  627MPD2    H2 9343   4.080   0.555  13.760  0.5802  0.0161  0.9354
  627MPD2    H3 9344   3.945   0.396  13.665  1.8957 -0.5375 -1.4866
  627MPD2     N 9345   3.921   0.132  14.038  0.3313 -0.1566 -0.4260
  627MPD2    H5 9346   3.962   0.118  14.130  0.3230  0.0959 -0.3847
  627MPD2    N1 9347   4.209   0.525  14.002 -0.6933 -0.2000 -0.2050
  627MPD2    H7 9348   4.254   0.495  14.088 -0.8749  0.6844  0.2013
  628TMC3    C1 9349   4.322   0.718  14.068 -0.4033 -0.6190  0.5077
  628TMC3    C2 9350   4.390   0.652  14.164 -0.2437  0.3595 -0.1981
  628TMC3    C3 9351   4.486   0.723  14.231 -0.2635 -0.1476 -0.2867
  628TMC3    C4 9352   4.351   0.849  14.037 -0.3566 -0.2608 -0.3427
  628TMC3    C5 9353   4.454   0.911  14.100 -0.0022 -0.7790 -0.3357
  628TMC3    C6 9354   4.530   0.839  14.196  0.7173 -0.2246 -0.2884
  628TMC3     C 9355   4.222   0.661  13.979 -0.3472  0.6554  0.1755
  628TMC3     O 9356   4.171   0.731  13.890  0.4311 -0.2637 -0.4906
  628TMC3     H 9357   4.377   0.544  14.167  2.0939  0.0412 -1.4125
  628TMC3    H1 9358   4.286   0.896  13.965  0.7733 -0.3847 -1.4447
  628TMC3    H2 9359   4.595   0.888  14.268  0.2431 -2.3275  1.5667
  628TMC3    C7 9360   4.436   1.054  14.134  0.4742 -0.2129  0.3131
  628TMC3    C8 9361   4.582   0.653  14.312  0.7965  0.0916  0.2563
  628TMC3    O1 9362   4.484   1.087  14.242  0.4269  0.0285 -0.6674
  628TMC3    O2 9363   4.698   0.690  14.307  0.1741 -0.0583  0.1692
  629MPD2     C 9364   3.384   3.787  16.536 -0.8298 -0.5271 -0.6374
  629MPD2    C1 9365   3.316   3.907  16.521 -0.0635 -0.0551 -0.3034
  629MPD2    C2 9366   3.191   3.907  16.458 -0.5024 -1.1830  0.5425
  629MPD2    C3 9367   3.144   3.787  16.402  0.4806  0.4728 -0.5163
  629MPD2    C4 9368   3.219   3.669  16.417 -0.2602  0.0324  0.1773
  629MPD2    C5 9369   3.339   3.674  16.484 -0.3503  0.2976 -0.1769
  629MPD2     H 9370   3.139   3.998  16.429 -2.1749 -2.1755  0.4683
  629MPD2    H1 9371   3.187   3.573  16.378  0.0259  0.8841 -2.1832
  629MPD2    H2 9372   3.480   3.789  16.586  0.7285 -1.2659 -3.6046
  629MPD2    H3 9373   3.393   3.580  16.490 -1.7138 -0.4844  0.0020
  629MPD2     N 9374   3.016   3.784  16.337 -0.1469  0.1914  0.5039
  629MPD2    H5 9375   2.961   3.869  16.345  1.3003  1.2651 -0.8142
  629MPD2    N1 9376   3.379   4.017  16.584  0.5321  0.5800 -0.0145
  629MPD2    H7 9377   3.468   3.999  16.630  1.3470  2.6705 -0.7289
  630TMC3    C1 9378   3.390   4.215  16.700  0.0317 -0.5310  0.7333
  630TMC3    C2 9379   3.415   4.344  16.696 -0.2311  0.6599  0.4424
  630TMC3    C3 9380   3.432   4.401  16.816 -0.1290  0.3311  0.7578
  630TMC3    C4 9381   3.421   4.139  16.811 -0.9129  0.1149  0.4092
  630TMC3    C5 9382   3.450   4.202  16.928  0.8742  0.5968 -0.4812
  630TMC3    C6 9383   3.451   4.334  16.939  0.3469 -0.3280 -0.2698
  630TMC3     C 9384   3.328   4.141  16.590 -0.3392 -0.3595 -0.9622
  630TMC3     O 9385   3.238   4.194  16.525  0.4556  0.3396 -0.6479
  630TMC3     H 9386   3.404   4.411  16.612 -0.6041  2.8002  2.1796
  630TMC3    H1 9387   3.380   4.038  16.815  6.3417 -2.8603  0.1696
  630TMC3    H2 9388   3.476   4.387  17.030 -0.8060  2.0779 -1.3870
  630TMC3    C7 9389   3.393   4.136  17.046 -0.0741  0.1198  0.0955
  630TMC3    C8 9390   3.511   4.522  16.814  0.1377 -0.0696  0.2026
  630TMC3    O1 9391   3.285   4.080  17.033  0.3041 -0.0018  0.0717
  630TMC3    O2 9392   3.591   4.540  16.903  0.2725 -0.0449 -0.3831
  631MPD2     C 9393   0.877   3.958  16.084  0.3453  0.0633 -0.3245
  631MPD2    C1 9394   0.954   4.002  15.979  0.3462 -0.6170 -0.4765
  631MPD2    C2 9395   1.085   3.947  15.978 -0.0810 -0.0694 -0.3089
  631MPD2    C3 9396   1.126   3.847  16.062 -0.4266 -0.2985  0.3051
  631MPD2    C4 9397   1.039   3.797  16.153  0.1502  0.0647  0.0427
  631MPD2    C5 9398   0.913   3.849  16.159 -0.1304 -0.3697  0.0036
  631MPD2     H 9399   1.157   3.986  15.907  0.4959 -1.0821 -0.2854
  631MPD2    H1 9400   1.064   3.713  16.217  1.2343  0.1048 -0.3249
  631MPD2    H2 9401   0.776   3.996  16.093 -0.5247 -2.3494  0.1136
  631MPD2    H3 9402   0.840   3.807  16.227  0.0510  0.1930  0.5445
  631MPD2     N 9403   1.257   3.799  16.038 -0.0980  0.2117 -0.2339
  631MPD2    H5 9404   1.305   3.849  15.964 -2.2485 -0.4821 -2.0621
  631MPD2    N1 9405   0.900   4.100  15.896 -0.1617 -0.4751 -0.3925
  631MPD2    H7 9406   0.799   4.111  15.907  0.0388  0.9470  0.0429
  632TMC3    C1 9407   0.871   4.215  15.688 -0.1282  0.7043 -0.2782
  632TMC3    C2 9408   0.754   4.271  15.732  0.2094  0.1851 -0.1810
  632TMC3    C3 9409   0.681   4.340  15.639 -0.5637 -0.1556  0.2378
  632TMC3    C4 9410   0.922   4.215  15.568 -0.5173  0.2930 -0.3917
  632TMC3    C5 9411   0.841   4.284  15.480 -0.7245  0.7055 -0.4518
  632TMC3    C6 9412   0.724   4.342  15.508 -0.4659 -0.3434  0.3796
  632TMC3     C 9413   0.962   4.148  15.781 -0.1149  0.0684  0.2435
  632TMC3     O 9414   1.077   4.123  15.754 -0.0701  0.2262 -0.5860
  632TMC3     H 9415   0.726   4.269  15.837 -0.6120  0.2486 -0.4079
  632TMC3    H1 9416   1.018   4.172  15.541 -0.9684  0.3076 -2.0444
  632TMC3    H2 9417   0.676   4.395  15.427  1.0492  0.5313  0.0570
  632TMC3    C7 9418   0.895   4.304  15.346 -0.5484  0.0801  0.3045
  632TMC3    C8 9419   0.536   4.344  15.666 -0.4153  0.2387  0.3367
  632TMC3    O1 9420   0.821   4.348  15.260 -0.3434  0.5491 -0.3311
  632TMC3    O2 9421   0.488   4.266  15.747 -0.2887 -0.1177  0.1132
  633MPD2     C 9422   1.039   1.834  17.658 -0.2792 -0.3098  0.0664
  633MPD2    C1 9423   1.051   1.750  17.550 -0.1868  0.2863 -0.7727
  633MPD2    C2 9424   1.073   1.615  17.574 -0.1418 -1.1205  0.1415
  633MPD2    C3 9425   1.071   1.561  17.702  0.1011 -0.4232 -0.7402
  633MPD2    C4 9426   1.037   1.642   0.061 -1.1051 -0.2173 -0.3709
  633MPD2    C5 9427   1.028   1.777   0.041  0.0488  0.5698 -0.5242
  633MPD2     H 9428   1.083   1.548  17.490 -1.0873 -2.1618  0.8498
  633MPD2    H1 9429   1.018   1.604   0.161  0.2335 -0.3414 -0.1594
  633MPD2    H2 9430   1.028   1.942  17.654 -3.1613 -0.5834  0.6540
  633MPD2    H3 9431   0.999   1.846   0.118  0.0376  1.3084 -1.1920
  633MPD2     N 9432   1.077   1.415  17.722 -0.2057  0.0459  0.7465
  633MPD2    H5 9433   1.060   1.377   0.076  1.9767  2.1122  1.9722
  633MPD2    N1 9434   1.045   1.800  17.418  1.0222  0.3848 -1.0563
  633MPD2    H7 9435   1.055   1.726  17.349  0.0498 -0.8574  0.1503
  634TMC3    C1 9436   0.983   1.944  17.235  0.3924  0.3871  0.4793
  634TMC3    C2 9437   0.967   1.831  17.154 -0.4633  0.4656  1.0364
  634TMC3    C3 9438   0.957   1.847  17.021  0.3434  0.3470 -0.0413
  634TMC3    C4 9439   0.977   2.071  17.183  1.0943 -0.1978 -0.1672
  634TMC3    C5 9440   0.964   2.088  17.046  0.4020  0.2450  0.0974
  634TMC3    C6 9441   0.958   1.975  16.966  0.4029 -0.1102  0.3942
  634TMC3     C 9442   1.017   1.928  17.373  0.5250 -0.2453  0.0134
  634TMC3     O 9443   1.000   2.031  17.437 -0.4956  0.2546 -0.4897
  634TMC3     H 9444   0.962   1.734  17.202  1.2963 -0.5500 -0.8638
  634TMC3    H1 9445   0.988   2.153  17.253  0.9724 -0.5432  0.2538
  634TMC3    H2 9446   0.938   1.982  16.860  1.1319  2.3330  0.4118
  634TMC3    C7 9447   0.928   2.215  16.978 -0.7091 -0.5897  0.6938
  634TMC3    C8 9448   0.943   1.728  16.944  0.4209  0.7037  0.2145
  634TMC3    O1 9449   0.911   2.211  16.858 -0.1319  0.3036 -0.2452
  634TMC3    O2 9450   0.910   1.629  17.005  0.3326 -0.1356  0.1595
  635TMC3    C1 9451   1.435   3.340   0.805 -0.2341  0.1212  0.2883
  635TMC3    C2 9452   1.516   3.225   0.772  0.1881  0.8867  0.4006
  635TMC3    C3 9453   1.456   3.101   0.777 -0.1946  0.2893  0.0472
  635TMC3    C4 9454   1.300   3.329   0.835 -0.1529  0.1232  0.3372
  635TMC3    C5 9455   1.252   3.200   0.840  0.0830  0.0626 -0.5069
  635TMC3    C6 9456   1.322   3.089   0.798 -0.6529  0.1179  0.4416
  635TMC3     C 9457   1.466   3.474   0.759 -0.1302  0.6428 -1.2470
  635TMC3     O 9458   1.413   3.558   0.830 -0.3213 -0.2280 -0.4814
  635TMC3     H 9459   1.621   3.244   0.752  0.1427  1.6669  0.9153
  635TMC3    H1 9460   1.230   3.411   0.848 -1.4129 -0.6248 -1.7944
  635TMC3    H2 9461   1.270   2.994   0.793 -0.4470 -0.0322  1.0230
  635TMC3    C7 9462   1.122   3.162   0.890 -0.8581 -0.0805  0.3831
  635TMC3    C8 9463   1.512   3.008   0.681 -0.2650 -0.1423 -0.2491
  635TMC3    O1 9464   1.074   3.062   0.844  0.2238 -0.3789  0.3108
  635TMC3    O2 9465   1.633   3.019   0.673  0.8894 -0.6902  0.0109
  636MPD2     C 9466   1.869   2.118  16.015 -0.1842  0.5635 -0.0988
  636MPD2    C1 9467   1.975   2.177  16.078 -0.2011 -0.7976 -0.0611
  636MPD2    C2 9468   2.097   2.111  16.086  0.0408 -0.2193 -0.1393
  636MPD2    C3 9469   2.109   1.982  16.044  0.2179 -0.1002 -0.4292
  636MPD2    C4 9470   1.996   1.914  15.996  0.2435  0.3546 -0.0299
  636MPD2    C5 9471   1.882   1.988  15.981 -0.6021  0.1147  0.1161
  636MPD2     H 9472   2.179   2.163  16.134 -0.1271 -1.0057  1.0102
  636MPD2    H1 9473   1.991   1.810  15.966 -1.2489  0.0195  1.3696
  636MPD2    H2 9474   1.779   2.171  15.984 -0.2181 -0.3064 -1.4879
  636MPD2    H3 9475   1.800   1.953  15.919 -1.1048 -0.2711  1.0041
  636MPD2     N 9476   2.244   1.920  16.062 -0.2367 -0.3333  0.2536
  636MPD2    H5 9477   2.324   1.970  16.102  0.6144 -1.3687 -0.1509
  636MPD2    N1 9478   1.977   2.311  16.132 -0.3366  0.2428 -0.2879
  636MPD2    H7 9479   2.059   2.337  16.186 -0.4746 -2.8230  1.4231
  637TMC3    C1 9480   2.395   1.739  16.076  0.2956 -0.9969 -0.1238
  637TMC3    C2 9481   2.475   1.808  16.167 -0.3330 -0.1275  0.2552
  637TMC3    C3 9482   2.606   1.771  16.174 -0.1690  0.2210 -0.1012
  637TMC3    C4 9483   2.449   1.644  15.997  0.8762  0.1443 -0.5330
  637TMC3    C5 9484   2.581   1.618  15.999 -0.3424 -0.0662  0.2558
  637TMC3    C6 9485   2.662   1.676  16.087 -0.0629  0.3632 -0.6231
  637TMC3     C 9486   2.261   1.784  16.046  0.2499  0.0329 -0.7535
  637TMC3     O 9487   2.183   1.704  15.999 -0.2117  0.2606 -0.3537
  637TMC3     H 9488   2.432   1.885  16.231 -0.5176  0.1926 -0.2509
  637TMC3    H1 9489   2.388   1.602  15.917 -0.7354  0.4235  0.5663
  637TMC3    H2 9490   2.769   1.663  16.096 -0.0123  1.3438  0.1555
  637TMC3    C7 9491   2.617   1.531  15.892  0.2449  0.1513  0.0702
  637TMC3    C8 9492   2.691   1.879  16.220 -0.2114  0.3181  0.5529
  637TMC3    O1 9493   2.533   1.457  15.847 -0.0111  0.5408  0.0196
  637TMC3    O2 9494   2.637   1.990  16.227 -0.2562  0.1797 -0.0340
  638MPD2     C 9495   1.616   1.136  14.866 -0.1410 -0.3392 -0.5439
  638MPD2    C1 9496   1.551   1.047  14.777 -0.4922 -0.5549 -0.3904
  638MPD2    C2 9497   1.531   0.913  14.816  0.1509 -0.8010  0.3188
  638MPD2    C3 9498   1.558   0.876  14.946  0.2948 -0.5367 -0.0171
  638MPD2    C4 9499   1.607   0.972  15.032  0.0002  0.3629  0.0076
  638MPD2    C5 9500   1.650   1.094  14.991  0.4346 -0.5185 -0.0937
  638MPD2     H 9501   1.499   0.834  14.748  2.4739 -0.4483 -1.1808
  638MPD2    H1 9502   1.623   0.949  15.137  2.8746  0.1461 -0.5051
  638MPD2    H2 9503   1.652   1.235  14.840  1.3046 -0.2772  1.6695
  638MPD2    H3 9504   1.705   1.161  15.057 -0.6139  0.9019 -0.6582
  638MPD2     N 9505   1.515   0.745  14.989  0.8409  0.2544  0.1448
  638MPD2    H5 9506   1.465   0.688  14.922 -1.3229  0.1575  1.8317
  638MPD2    N1 9507   1.532   1.080  14.640  0.0903  0.1161 -0.1998
  638MPD2    H7 9508   1.575   1.169  14.616 -1.4224  1.2084  1.1561
  639TMC3    C1 9509   1.528   0.547  15.107 -0.0587  0.8259  0.5878
  639TMC3    C2 9510   1.432   0.497  15.021 -0.4099  0.1366 -0.2959
  639TMC3    C3 9511   1.413   0.366  15.019  0.1621  0.0082  0.7936
  639TMC3    C4 9512   1.621   0.466  15.165  0.2362 -0.2914  0.6109
  639TMC3    C5 9513   1.613   0.331  15.147  0.1841 -0.3880 -0.1617
  639TMC3    C6 9514   1.504   0.274  15.071 -0.7721 -0.2261 -0.7090
  639TMC3     C 9515   1.574   0.687  15.098  0.8167  0.3278  0.1564
  639TMC3     O 9516   1.663   0.726  15.178 -0.3291  0.1414  0.6147
  639TMC3     H 9517   1.365   0.560  14.962  0.3288 -0.5634 -1.8743
  639TMC3    H1 9518   1.698   0.511  15.226  0.7410  0.0776 -0.2908
  639TMC3    H2 9519   1.502   0.167  15.056 -0.4012 -0.5040  1.1968
  639TMC3    C7 9520   1.737   0.250  15.156 -0.1098  0.0530 -0.4869
  639TMC3    C8 9521   1.345   0.313  14.905  0.2142  0.3846 -0.5767
  639TMC3    O1 9522   1.720   0.134  15.188 -0.0466 -0.4472  0.4120
  639TMC3    O2 9523   1.330   0.392  14.812 -0.2083 -0.0536 -0.2115
  640MPD2     C 9524   1.661   4.011   9.869  0.1505 -0.2882  0.6143
  640MPD2    C1 9525   1.524   3.995   9.875  0.1171  0.2164 -0.3581
  640MPD2    C2 9526   1.453   4.105   9.923  0.2580 -0.2413 -0.4182
  640MPD2    C3 9527   1.519   4.223   9.944  0.8686  0.4689  0.6021
  640MPD2    C4 9528   1.655   4.241   9.916  0.4935 -0.6374  0.1902
  640MPD2    C5 9529   1.727   4.126   9.892 -0.6029  0.4655  0.1010
  640MPD2     H 9530   1.346   4.099   9.932  0.3507 -2.0922 -0.4199
  640MPD2    H1 9531   1.704   4.337   9.923 -0.5539 -0.0409 -0.6770
  640MPD2    H2 9532   1.720   3.932   9.824  0.3149 -0.0489  0.4083
  640MPD2    H3 9533   1.834   4.137   9.876 -0.1879 -2.3073  1.0306
  640MPD2     N 9534   1.454   4.341   9.991  0.8259 -0.6080 -0.1940
  640MPD2    H5 9535   1.496   4.432   9.979 -0.7807 -0.2538 -2.9567
  640MPD2    N1 9536   1.466   3.869   9.842 -1.0280 -0.2266  0.3079
  640MPD2    H7 9537   1.533   3.796   9.818  0.1458  0.4712  1.4427
  641TMC3    C1 9538   1.301   3.698   9.805 -0.3792  0.2951  0.6830
  641TMC3    C2 9539   1.397   3.633   9.733  0.8578  0.5744  0.5545
  641TMC3    C3 9540   1.389   3.496   9.733  0.7127  0.7116 -0.5515
  641TMC3    C4 9541   1.194   3.633   9.866 -0.2946  0.3571  0.4632
  641TMC3    C5 9542   1.187   3.496   9.857  0.6699 -0.1296  0.1729
  641TMC3    C6 9543   1.291   3.426   9.804 -0.2178 -0.4317 -0.4954
  641TMC3     C 9544   1.336   3.824   9.864  0.1783  0.1928  0.0799
  641TMC3     O 9545   1.244   3.885   9.921 -0.2347  0.0579 -0.8386
  641TMC3     H 9546   1.474   3.684   9.677 -0.4682  0.6069 -1.2404
  641TMC3    H1 9547   1.128   3.691   9.929 -0.2342  0.3808  0.5046
  641TMC3    H2 9548   1.300   3.318   9.808  0.1435 -0.5334 -3.6104
  641TMC3    C7 9549   1.080   3.417   9.913 -0.1250 -0.5634  0.1061
  641TMC3    C8 9550   1.506   3.427   9.681  0.1700  0.1098 -0.6040
  641TMC3    O1 9551   1.102   3.295   9.931  0.0769  0.1597 -1.1852
  641TMC3    O2 9552   1.530   3.448   9.564  0.1897 -0.5672  0.2311
  642TMC3    C1 9553   3.227   0.901  12.445  0.1881  0.1152 -0.2843
  642TMC3    C2 9554   3.339   0.896  12.370  0.1140 -0.0536 -1.0066
  642TMC3    C3 9555   3.398   0.774  12.362  0.4231 -0.3358 -0.7879
  642TMC3    C4 9556   3.159   0.795  12.502  0.0068 -0.3319  0.6361
  642TMC3    C5 9557   3.216   0.673  12.488 -0.2292  0.1958  0.1065
  642TMC3    C6 9558   3.334   0.661  12.413  0.0723 -0.4314  0.7947
  642TMC3     C 9559   3.167   1.033  12.456  0.3625 -0.7984  0.4024
  642TMC3     O 9560   3.210   1.122  12.385 -0.0395  0.9033 -0.1676
  642TMC3     H 9561   3.384   0.986  12.330  0.7539  0.6038  1.2006
  642TMC3    H1 9562   3.067   0.810  12.557 -1.1036 -0.0270 -1.3261
  642TMC3    H2 9563   3.380   0.563  12.412  1.1365  0.0800 -0.4028
  642TMC3    C7 9564   3.130   0.551  12.488  0.4738 -0.3951  0.3677
  642TMC3    C8 9565   3.539   0.760  12.364  0.3813  0.8583  0.1446
  642TMC3    O1 9566   3.176   0.456  12.423 -0.0385 -0.4266 -0.5647
  642TMC3    O2 9567   3.593   0.701  12.453 -0.4277  0.3840 -0.2678
  643TMC3    C1 9568   2.822   4.593   0.267 -0.6092 -0.7935  0.2768
  643TMC3    C2 9569   2.696   4.581   0.302 -0.2649 -0.0301  0.3659
  643TMC3    C3 9570   2.629   4.470   0.244 -0.1105 -0.0455 -0.1386
  643TMC3    C4 9571   2.897   4.507   0.190  0.2872  0.7741 -0.6212
  643TMC3    C5 9572   2.835   4.391   0.155  0.4249 -0.2207  0.2161
  643TMC3    C6 9573   2.708   4.368   0.192 -0.1686 -0.3966 -0.0372
  643TMC3     C 9574   2.891   4.713   0.320  0.5162 -0.4204 -0.5840
  643TMC3     O 9575   2.812   0.073   0.335 -0.7149 -0.4555  0.6141
  643TMC3     H 9576   2.645   4.660   0.357  0.5677  0.1661  0.8737
  643TMC3    H1 9577   2.999   4.523   0.159  1.7796 -0.9524  3.3743
  643TMC3    H2 9578   2.647   4.287   0.154 -1.0624  1.0798 -1.8085
  643TMC3    C7 9579   2.866   4.334   0.021 -0.1820  0.8098  0.1448
  643TMC3    C8 9580   2.513   4.496   0.165  0.5579  0.7924 -0.1176
  643TMC3    O1 9581   2.818   4.222   0.016 -0.0822  0.3546 -0.1185
  643TMC3    O2 9582   2.448   4.399   0.139  0.1842 -0.0476  0.1629
  644MPD2     C 9583   2.292   0.188   9.413 -0.3747 -0.1677  0.0940
  644MPD2    C1 9584   2.189   0.096   9.403  0.0759  0.3979  0.3119
  644MPD2    C2 9585   2.061   0.147   9.393 -0.2274  0.3016  0.1384
  644MPD2    C3 9586   2.034   0.276   9.406 -0.5377  0.0002 -0.4345
  644MPD2    C4 9587   2.138   0.365   9.439  0.1955 -0.0237  0.6451
  644MPD2    C5 9588   2.270   0.325   9.434  0.1607 -1.0896  0.5015
  644MPD2     H 9589   1.976   0.081   9.381 -0.2704  0.1447  1.2837
  644MPD2    H1 9590   2.121   0.471   9.457  0.6340  0.6778 -3.1099
  644MPD2    H2 9591   2.393   0.152   9.399 -0.3847  0.1871 -0.9392
  644MPD2    H3 9592   2.347   0.402   9.441 -0.6800 -0.4080  2.1087
  644MPD2     N 9593   1.900   0.331   9.409  0.5895  0.7767 -0.2913
  644MPD2    H5 9594   1.834   0.256   9.395 -1.5822  2.4762  0.8591
  644MPD2    N1 9595   2.230   4.697   9.395  0.1851  0.9763 -0.2836
  644MPD2    H7 9596   2.328   4.676   9.411 -0.1376 -0.0452  0.3445
  645TMC3    C1 9597   1.726   0.490   9.446  0.0878  0.5559 -0.5129
  645TMC3    C2 9598   1.655   0.586   9.374 -0.5671 -0.3331  0.7721
  645TMC3    C3 9599   1.523   0.560   9.362 -0.3829  0.1036  0.4650
  645TMC3    C4 9600   1.656   0.379   9.496 -0.2472 -0.4867 -0.0002
  645TMC3    C5 9601   1.525   0.363   9.468  0.4093  0.1481 -0.3418
  645TMC3    C6 9602   1.449   0.464   9.421 -0.5104  0.0624 -0.1293
  645TMC3     C 9603   1.863   0.461   9.421  0.1524  0.6267 -0.2369
  645TMC3     O 9604   1.927   0.566   9.410 -0.1008  0.3086 -0.3778
  645TMC3     H 9605   1.694   0.682   9.342 -1.2431 -0.3518 -0.1212
  645TMC3    H1 9606   1.702   0.301   9.555  2.2720 -0.7361 -2.3064
  645TMC3    H2 9607   1.344   0.454   9.396 -0.6204  0.2398  0.2737
  645TMC3    C7 9608   1.471   0.252   9.538  0.3516 -0.5168  0.4662
  645TMC3    C8 9609   1.449   0.671   9.303 -0.1369  0.1359 -0.0734
  645TMC3    O1 9610   1.549   0.156   9.545 -0.0437  0.5922 -0.2688
  645TMC3    O2 9611   1.502   0.756   9.233 -0.4766  0.0267 -0.1952
  646MPD2     C 9612   1.828   4.413  14.154  0.5557 -0.8405  0.2244
  646MPD2    C1 9613   1.751   4.411  14.269 -0.2805 -0.4534  0.0734
  646MPD2    C2 9614   1.622   4.460  14.263  0.4082 -0.4101  0.2400
  646MPD2    C3 9615   1.562   4.517  14.152  0.8753 -0.1679 -0.0889
  646MPD2    C4 9616   1.646   4.532  14.042  0.0390  0.1516 -0.4678
  646MPD2    C5 9617   1.773   4.475  14.042 -0.3689 -0.8413  0.4428
  646MPD2     H 9618   1.575   4.457  14.360  0.8928  0.8111  0.5089
  646MPD2    H1 9619   1.614   4.568  13.945 -0.4178 -1.8589 -1.0712
  646MPD2    H2 9620   1.921   4.359  14.142  1.0593  0.6302 -2.3133
  646MPD2    H3 9621   1.818   4.471  13.944 -0.8163  0.2425  0.1964
  646MPD2     N 9622   1.433   4.564  14.162  0.5104 -0.2223 -0.5185
  646MPD2    H5 9623   1.397   4.565  14.257 -2.7494  0.8129 -1.7711
  646MPD2    N1 9624   1.809   4.353  14.380 -0.0711  0.3527  0.7273
  646MPD2    H7 9625   1.900   4.314  14.357 -0.0298 -0.5873  2.4622
  647TMC3    C1 9626   1.814   4.233  14.594 -0.5086  1.1907  0.4251
  647TMC3    C2 9627   1.742   4.195  14.708  0.2971  0.5261  0.2711
  647TMC3    C3 9628   1.799   4.127  14.808 -0.5828 -0.2139  0.4201
  647TMC3    C4 9629   1.945   4.191  14.580 -0.3577 -0.4045 -0.0707
  647TMC3    C5 9630   2.008   4.134  14.687 -0.1842 -0.4794 -0.5297
  647TMC3    C6 9631   1.932   4.092  14.793 -0.2476 -0.0218  0.0414
  647TMC3     C 9632   1.747   4.330  14.497  0.4924 -0.1230 -0.0565
  647TMC3     O 9633   1.651   4.387  14.545 -0.2110  0.0143  0.4802
  647TMC3     H 9634   1.642   4.233  14.721  0.3581  0.4333  0.9743
  647TMC3    H1 9635   1.997   4.207  14.487 -1.0777 -3.3927 -0.9931
  647TMC3    H2 9636   1.969   4.021  14.866 -1.7854 -2.3016 -1.3910
  647TMC3    C7 9637   2.136   4.074  14.674 -0.4512 -0.2834 -0.2012
  647TMC3    C8 9638   1.732   4.081  14.928  0.3829 -0.2769 -0.7138
  647TMC3    O1 9639   2.175   3.994  14.759 -0.3232 -0.1491 -0.2306
  647TMC3    O2 9640   1.799   4.068  15.027 -0.4262  0.3335 -0.5904
  648TMC3    C1 9641   1.233   1.819  16.240  0.2708 -0.1244  0.6907
  648TMC3    C2 9642   1.196   1.701  16.178 -0.2403  0.7799  0.2286
  648TMC3    C3 9643   1.182   1.696  16.048 -0.2709 -0.0322 -0.3729
  648TMC3    C4 9644   1.231   1.931  16.166  0.4257  0.0258  0.0625
  648TMC3    C5 9645   1.209   1.928  16.029  0.3231 -0.1231 -0.0713
  648TMC3    C6 9646   1.187   1.806  15.961 -0.2085 -0.4352  0.2662
  648TMC3     C 9647   1.245   1.837  16.385  0.0374  0.2501 -0.2132
  648TMC3     O 9648   1.255   1.950  16.433  0.0200 -0.6832 -0.1266
  648TMC3     H 9649   1.187   1.606  16.230 -2.4732 -0.0749 -1.7504
  648TMC3    H1 9650   1.242   2.024  16.220  1.3130 -0.1370  0.1604
  648TMC3    H2 9651   1.173   1.798  15.854  2.1915  0.6058 -0.1347
  648TMC3    C7 9652   1.188   2.054  15.955  0.0222 -0.9956  0.1724
  648TMC3    C8 9653   1.150   1.563  15.988 -0.6927  0.0629 -0.5008
  648TMC3    O1 9654   1.207   2.046  15.838  0.6195  0.7018  0.0404
  648TMC3    O2 9655   1.097   1.477  16.060 -0.0928  0.2744 -0.3636
  649TMC3    C1 9656   4.302   3.068  12.906  0.7341 -0.8064 -1.0081
  649TMC3    C2 9657   4.302   2.988  12.792 -0.7064  0.2648 -0.0083
  649TMC3    C3 9658   4.325   2.855  12.817  0.2722 -0.7995  0.0376
  649TMC3    C4 9659   4.323   3.027  13.035 -0.1767  1.1750 -0.6300
  649TMC3    C5 9660   4.312   2.890  13.048  0.4247 -0.6968 -0.2932
  649TMC3    C6 9661   4.322   2.808  12.944 -0.8718 -0.3168 -0.0867
  649TMC3     C 9662   4.304   3.211  12.883  0.2870  0.4366 -0.0444
  649TMC3     O 9663   4.242   3.279  12.967 -0.5468 -0.2909 -0.0586
  649TMC3     H 9664   4.277   3.022  12.692  0.3743  3.9438  0.9681
  649TMC3    H1 9665   4.306   3.089  13.122 -0.1653  1.1965 -0.6433
  649TMC3    H2 9666   4.344   2.702  12.956 -0.9568 -0.3775 -0.4940
  649TMC3    C7 9667   4.340   2.845  13.182 -0.0504 -0.3549 -0.3491
  649TMC3    C8 9668   4.278   2.778  12.703 -0.1578 -0.2599  0.0663
  649TMC3    O1 9669   4.386   2.932  13.259  0.0544 -0.0544 -0.4515
  649TMC3    O2 9670   4.282   2.830  12.590 -0.2192  1.0401 -0.0060
  650TMC3    C1 9671   2.082   0.079  12.628 -0.7622  0.1499  0.0345
  650TMC3    C2 9672   2.087   0.164  12.737 -0.3187 -0.5641 -0.0965
  650TMC3    C3 9673   2.050   0.290  12.710 -0.2206  0.2548  0.5096
  650TMC3    C4 9674   2.031   0.112  12.506  0.1717 -0.8675 -0.0755
  650TMC3    C5 9675   1.992   0.233  12.485 -0.1689  0.3249 -0.6318
  650TMC3    C6 9676   2.001   0.318  12.590 -1.0124  0.5007 -0.2270
  650TMC3     C 9677   2.076   4.672  12.672  0.2018 -0.1276 -0.0551
  650TMC3     O 9678   2.057   4.650  12.790 -0.4710 -0.1636  0.2531
  650TMC3     H 9679   2.146   0.139  12.824 -2.5401 -1.5012  1.1463
  650TMC3    H1 9680   2.018   0.033  12.433 -3.1126  0.5682 -1.0400
  650TMC3    H2 9681   1.962   0.418  12.581 -0.9708  0.3556 -1.9523
  650TMC3    C7 9682   1.870   0.249  12.405  0.0629 -0.6868  0.0569
  650TMC3    C8 9683   2.083   0.402  12.805 -0.3272  0.0184  0.3328
  650TMC3    O1 9684   1.801   0.153  12.391  0.7883 -0.0520 -0.3194
  650TMC3    O2 9685   2.091   0.508  12.746 -0.0466  0.2103 -0.1113
  651MPD2     C 9686   1.068   1.126  10.429 -0.4346 -0.3607 -0.3906
  651MPD2    C1 9687   1.051   1.262  10.411  0.4489  0.4663 -0.5627
  651MPD2    C2 9688   1.163   1.343  10.421 -0.0834 -0.6878  0.7030
  651MPD2    C3 9689   1.282   1.300  10.468 -0.1644  0.0315 -0.2957
  651MPD2    C4 9690   1.298   1.167  10.479 -0.3448 -0.0236  0.3187
  651MPD2    C5 9691   1.195   1.081  10.454  0.5032 -0.9083  0.5348
  651MPD2     H 9692   1.155   1.450  10.406 -1.1270 -0.9460 -0.6086
  651MPD2    H1 9693   1.400   1.136  10.496  0.2097  1.5209 -0.2252
  651MPD2    H2 9694   0.988   1.059  10.399 -2.2693  1.4904  0.4011
  651MPD2    H3 9695   1.220   0.977  10.474 -0.3811 -1.2245 -0.0479
  651MPD2     N 9696   1.383   1.401  10.482  0.3838 -0.5586  0.1148
  651MPD2    H5 9697   1.347   1.496  10.475 -2.1135 -1.5722 -0.6749
  651MPD2    N1 9698   0.928   1.324  10.369 -0.6584  0.5949 -0.4019
  651MPD2    H7 9699   0.927   1.425  10.355  1.9097  0.5233 -1.1480
  652TMC3    C1 9700   1.793   1.623  10.534 -0.0093 -0.4090  0.8207
  652TMC3    C2 9701   1.708   1.517  10.567  0.7149 -1.1820 -0.3287
  652TMC3    C3 9702   1.577   1.519  10.523  0.0715  0.1247  0.2424
  652TMC3    C4 9703   1.727   1.744  10.515  0.4325 -0.3250 -0.3323
  652TMC3    C5 9704   1.594   1.742  10.490  0.5850  0.7637  0.3252
  652TMC3    C6 9705   1.524   1.629  10.481  0.3611  0.7395  0.2928
  652TMC3     C 9706   1.919   1.628  10.595  0.4127  0.1833  0.0255
  652TMC3     O 9707   1.945   1.553  10.688 -0.2653 -0.4604 -0.4874
  652TMC3     H 9708   1.759   1.430  10.608  0.7222 -0.2122  1.7269
  652TMC3    H1 9709   1.776   1.840  10.514  1.4361 -0.8312  0.6840
  652TMC3    H2 9710   1.426   1.634  10.434 -0.7618  0.7000  2.5794
  652TMC3    C7 9711   1.534   1.855  10.420  0.3210 -0.4462  0.4842
  652TMC3    C8 9712   1.515   1.389  10.507  1.0084 -0.3514 -0.2181
  652TMC3    O1 9713   1.440   1.843  10.341  0.6928 -0.2698  0.0605
  652TMC3    O2 9714   1.582   1.289  10.506  0.3582  0.1450  0.0057
  653MPD2     C 9715   0.696   1.942  17.582 -0.4145  0.2346  0.1829
  653MPD2    C1 9716   0.587   2.015  17.633  0.0027  0.3173 -0.2703
  653MPD2    C2 9717   0.459   1.977  17.603  0.6897 -0.7605  0.6885
  653MPD2    C3 9718   0.436   1.857  17.537 -1.0663  0.2221  0.8428
  653MPD2    C4 9719   0.547   1.769  17.512 -0.7522  0.7070  0.2744
  653MPD2    C5 9720   0.673   1.816  17.536  0.7264 -0.5760 -0.2876
  653MPD2     H 9721   0.372   2.030  17.638  0.3675  0.5875 -2.2336
  653MPD2    H1 9722   0.524   1.674  17.465  0.2152  1.1272 -1.0638
  653MPD2    H2 9723   0.800   1.971  17.589 -0.4024 -0.1181  1.4277
  653MPD2    H3 9724   0.758   1.750  17.525  0.0337 -1.3896 -0.7879
  653MPD2     N 9725   0.303   1.824  17.504  0.2744 -0.0259 -0.7063
  653MPD2    H5 9726   0.241   1.889  17.553  1.9258 -0.3660  1.8494
  653MPD2    N1 9727   0.620   2.143  17.690 -0.2365 -0.2739  0.1645
  653MPD2    H7 9728   0.713   2.175  17.668  0.0289  0.1807  1.9186
  654TMC3    C1 9729   0.111   1.704  17.423 -1.0894 -0.4558 -0.6505
  654TMC3    C2 9730   0.044   1.817  17.412  0.7143  0.3873 -0.2142
  654TMC3    C3 9731   4.660   1.806  17.349  0.2390 -0.0188 -0.1673
  654TMC3    C4 9732   0.064   1.574  17.404  0.4282 -0.0795 -0.4401
  654TMC3    C5 9733   4.677   1.560  17.346  0.2692 -0.3065  0.0639
  654TMC3    C6 9734   4.616   1.679  17.307  0.0533  0.2759 -0.0494
  654TMC3     C 9735   0.256   1.717  17.435 -0.9019 -0.6580 -0.3947
  654TMC3     O 9736   0.316   1.621  17.391  0.3846  0.2508 -0.2759
  654TMC3     H 9737   0.090   1.914  17.428  1.4098 -0.0056  0.1448
  654TMC3    H1 9738   0.130   1.491  17.428  1.6184  0.0651 -3.1556
  654TMC3    H2 9739   4.525   1.672  17.248  0.2140  0.8936 -0.3683
  654TMC3    C7 9740   4.646   1.448  17.258 -0.9249  0.6919 -0.3751
  654TMC3    C8 9741   4.592   1.922  17.296 -0.0446  0.3944 -0.0126
  654TMC3    O1 9742   4.572   1.468  17.161 -0.5473 -0.2405  0.4371
  654TMC3    O2 9743   4.501   1.905  17.215 -0.4541  1.0318 -0.3625
  655MPD2     C 9744   1.658   1.966  15.499  0.1769 -0.4832 -1.1426
  655MPD2    C1 9745   1.576   2.076  15.486  0.3473 -0.1962  0.2239
  655MPD2    C2 9746   1.531   2.108  15.364 -0.4602 -0.7862  0.5841
  655MPD2    C3 9747   1.567   2.036  15.249 -1.0304  0.3532  0.2593
  655MPD2    C4 9748   1.645   1.919  15.261  0.2062 -0.9435  0.7543
  655MPD2    C5 9749   1.688   1.887  15.387  0.0420  0.7175 -0.1282
  655MPD2     H 9750   1.454   2.184  15.354 -0.2495 -0.5594  0.6737
  655MPD2    H1 9751   1.669   1.859  15.174  0.4789  1.9432 -1.1310
  655MPD2    H2 9752   1.694   1.930  15.594 -2.4647  2.2756  0.9250
  655MPD2    H3 9753   1.745   1.796  15.402 -0.4948  0.7701  2.2672
  655MPD2     N 9754   1.517   2.058  15.123  0.3283  0.4811  0.5052
  655MPD2    H5 9755   1.539   1.993  15.047 -0.4165  2.2865 -1.2494
  655MPD2    N1 9756   1.531   2.159  15.589 -0.5960  0.0151  0.3032
  655MPD2    H7 9757   1.474   2.234  15.551 -1.3380 -2.2540 -3.0186
  656TMC3    C1 9758   1.514   2.261  15.795 -0.1998  0.1571  0.8597
  656TMC3    C2 9759   1.477   2.252  15.928  0.1302  0.1202  0.2600
  656TMC3    C3 9760   1.445   2.368  15.999 -0.1608 -0.2098 -0.0353
  656TMC3    C4 9761   1.516   2.386  15.731 -0.5963 -0.2131  0.4275
  656TMC3    C5 9762   1.463   2.495  15.806  0.0707 -0.2145 -0.1458
  656TMC3    C6 9763   1.427   2.489  15.936 -0.0696  0.3428 -0.2888
  656TMC3     C 9764   1.569   2.147  15.724 -0.0208 -0.2059 -0.1155
  656TMC3     O 9765   1.609   2.049  15.779  0.1270 -0.2869 -0.1005
  656TMC3     H 9766   1.502   2.165  15.988 -0.3998 -0.9248 -1.0301
  656TMC3    H1 9767   1.566   2.404  15.637  0.3519 -0.2192  0.9237
  656TMC3    H2 9768   1.390   2.576  15.988  0.8288  1.2129 -1.1291
  656TMC3    C7 9769   1.409   2.606  15.725 -0.5510  0.4748  0.3786
  656TMC3    C8 9770   1.405   2.339  16.130  0.0518  0.0498  0.6159
  656TMC3    O1 9771   1.441   2.605  15.608  0.7841  0.7354  0.0869
  656TMC3    O2 9772   1.422   2.228  16.179  0.2942  0.3275  0.4142
  657TMC3    C1 9773   4.672   0.954  14.620 -0.4299  1.2429  0.1436
  657TMC3    C2 9774   4.627   1.080  14.587 -0.0508 -0.3397 -0.3756
  657TMC3    C3 9775   4.685   1.138  14.483 -0.7054 -0.1279  0.1218
  657TMC3    C4 9776   0.033   0.883  14.551  0.0977 -0.1145  0.2869
  657TMC3    C5 9777   0.080   0.941  14.437  0.2484  0.4916 -0.0948
  657TMC3    C6 9778   0.046   1.072  14.410 -0.1221  0.1742  0.1477
  657TMC3     C 9779   4.609   0.905  14.737 -0.8425 -0.9625  0.4033
  657TMC3     O 9780   4.493   0.933  14.757  0.0660 -0.5089 -0.6076
  657TMC3     H 9781   4.551   1.126  14.649  0.4255  0.2440 -0.2209
  657TMC3    H1 9782   0.069   0.787  14.587  0.9931 -0.2311 -0.9152
  657TMC3    H2 9783   0.110   1.125  14.341 -0.5857 -0.9746 -1.1561
  657TMC3    C7 9784   0.208   0.895  14.387  0.3145  0.7443  0.0172
  657TMC3    C8 9785   4.666   1.283  14.476 -0.0210  0.4771  0.2596
  657TMC3    O1 9786   0.292   0.973  14.348  0.3630 -0.2386 -0.2413
  657TMC3    O2 9787   4.620   1.347  14.574 -0.0984 -0.0447 -0.3540
  658MPD2     C 9788   1.858   2.056  14.512  0.3681 -0.2720 -0.6153
  658MPD2    C1 9789   1.723   2.081  14.497  0.4180 -0.3693  1.4749
  658MPD2    C2 9790   1.690   2.148  14.380 -0.2859 -0.8800 -0.3335
  658MPD2    C3 9791   1.781   2.179  14.273  0.1529  0.7098 -1.0898
  658MPD2    C4 9792   1.908   2.154  14.295 -0.4058 -1.1329 -0.1692
  658MPD2    C5 9793   1.951   2.104  14.416  0.0528 -0.0872 -0.4133
  658MPD2     H 9794   1.591   2.189  14.364 -0.9492 -2.4100 -0.1910
  658MPD2    H1 9795   1.983   2.189  14.224 -0.9552  1.4717  0.5535
  658MPD2    H2 9796   1.900   1.998  14.593 -1.3971 -1.2278 -0.3749
  658MPD2    H3 9797   2.055   2.079  14.433  0.5738  3.0418  1.0735
  658MPD2     N 9798   1.722   2.234  14.156 -0.5573  0.0846  0.5869
  658MPD2    H5 9799   1.621   2.238  14.155 -0.4817  2.0809  1.3250
  658MPD2    N1 9800   1.641   2.052  14.609  0.0511 -0.4121 -0.4446
  658MPD2    H7 9801   1.680   2.000  14.688  0.1105 -1.8787 -1.4391
  659TMC3    C1 9802   1.437   2.041  14.733  0.0818  1.0128  0.4050
  659TMC3    C2 9803   1.478   2.079  14.858 -0.0729 -0.1760  0.4033
  659TMC3    C3 9804   1.380   2.108  14.950 -0.3979  0.4314 -0.5344
  659TMC3    C4 9805   1.301   2.028  14.703 -0.3426  0.1326  0.2942
  659TMC3    C5 9806   1.211   2.057  14.807  0.9548 -0.3101 -0.0082
  659TMC3    C6 9807   1.248   2.098  14.925  0.1276 -0.1613  0.1165
  659TMC3     C 9808   1.507   2.077  14.612  0.4370 -0.2305  0.0337
  659TMC3     O 9809   1.432   2.134  14.534 -0.4510 -0.1177 -0.4256
  659TMC3     H 9810   1.584   2.094  14.873 -0.0622 -1.3552  1.5163
  659TMC3    H1 9811   1.270   1.992  14.605 -1.0884 -0.1239  0.6288
  659TMC3    H2 9812   1.182   2.100  15.011 -0.2637 -1.6937 -0.1438
  659TMC3    C7 9813   1.091   1.976  14.798 -0.7224 -0.4686 -0.0113
  659TMC3    C8 9814   1.421   2.145  15.077  0.0334  0.1578  0.1916
  659TMC3    O1 9815   1.048   1.924  14.901 -0.0474  0.2525 -0.0962
  659TMC3    O2 9816   1.361   2.234  15.135 -0.4185  0.3056 -0.5947
  660MPD2     C 9817   4.075   1.460  12.479  0.0170  0.5281 -0.2871
  660MPD2    C1 9818   4.095   1.329  12.427 -0.1678  0.0445 -0.9483
  660MPD2    C2 9819   4.059   1.214  12.497 -0.4770 -0.6727 -0.6348
  660MPD2    C3 9820   3.991   1.222  12.613  0.6013 -0.0443 -0.1908
  660MPD2    C4 9821   3.974   1.354  12.664  0.1628  0.4995  0.6611
  660MPD2    C5 9822   4.019   1.467  12.601 -0.1255  0.5686 -0.4986
  660MPD2     H 9823   4.079   1.114  12.461  1.1267 -0.2496 -0.9188
  660MPD2    H1 9824   3.920   1.361  12.757  0.5986  0.3261  0.9290
  660MPD2    H2 9825   4.116   1.550  12.433 -1.9261  1.6652  0.2485
  660MPD2    H3 9826   4.011   1.562  12.653 -0.4080  0.4967 -0.4097
  660MPD2     N 9827   3.927   1.116  12.678  0.2459 -0.3040  0.3598
  660MPD2    H5 9828   3.871   1.141  12.759  0.3858 -1.2565  0.7512
  660MPD2    N1 9829   4.147   1.322  12.292 -0.1121  0.5431  0.1987
  660MPD2    H7 9830   4.159   1.409  12.241 -0.9619 -0.0233 -0.9642
  661TMC3    C1 9831   4.169   1.206  12.099 -0.5880 -0.1640  0.4464
  661TMC3    C2 9832   4.234   1.110  12.035  0.0124  0.3075 -0.3290
  661TMC3    C3 9833   4.165   1.045  11.935 -0.1687 -0.7023 -0.1182
  661TMC3    C4 9834   4.045   1.244  12.063  0.0811  0.1081  0.2032
  661TMC3    C5 9835   3.979   1.171  11.971 -0.1327  0.3082 -0.3580
  661TMC3    C6 9836   4.035   1.067  11.902 -0.3585  0.3246  0.4888
  661TMC3     C 9837   4.189   1.206  12.238  0.2684  0.0804  0.7390
  661TMC3     O 9838   4.231   1.106  12.297  0.1369  0.5499  0.6470
  661TMC3     H 9839   4.325   1.073  12.081  0.2714  1.8158  0.3575
  661TMC3    H1 9840   3.988   1.321  12.113  2.5530  2.4965 -0.6404
  661TMC3    H2 9841   3.984   0.997  11.838 -0.8813  1.6107 -0.5110
  661TMC3    C7 9842   3.837   1.152  12.001  1.0244 -0.1800 -0.3285
  661TMC3    C8 9843   4.237   0.952  11.846  0.3427 -0.1967 -0.6814
  661TMC3    O1 9844   3.793   1.194  12.106  0.4077  0.1799  0.1836
  661TMC3    O2 9845   4.169   0.872  11.785 -0.8201  0.1200 -0.5126
  662MPD2     C 9846   0.095   0.521  17.530  0.1500  0.7978  0.2313
  662MPD2    C1 9847   0.071   0.519  17.398 -0.4643  0.1125  0.2520
  662MPD2    C2 9848   4.720   0.605  17.334  1.0451  0.2951  0.0950
  662MPD2    C3 9849   4.659   0.705  17.408  0.1681  0.2207  0.1160
  662MPD2    C4 9850   4.680   0.702  17.546 -0.0631  0.5901  0.0124
  662MPD2    C5 9851   0.020   0.607  17.603 -0.3231  0.4339  0.2756
  662MPD2     H 9852   4.711   0.604  17.226 -1.3248 -3.3044  0.3068
  662MPD2    H1 9853   4.624   0.769  17.610  0.7712  2.8078 -1.5795
  662MPD2    H2 9854   0.156   0.456  17.592  0.3837  1.7576  1.0025
  662MPD2    H3 9855   0.026   0.603  17.711 -0.1511 -0.7184  0.2261
  662MPD2     N 9856   4.574   0.806  17.352  0.6615 -0.0647  0.9068
  662MPD2    H5 9857   4.528   0.863  17.422 -1.3443 -1.8022  1.0061
  662MPD2    N1 9858   0.131   0.424  17.315 -0.0805 -0.5756  0.8505
  662MPD2    H7 9859   0.091   0.403  17.224 -0.9200 -1.2646  1.3770
  663TMC3    C1 9860   0.274   0.242  17.259 -0.0930  0.0598  0.0098
  663TMC3    C2 9861   0.395   0.180  17.288 -0.4528 -1.1410  0.1544
  663TMC3    C3 9862   0.418   0.050  17.251  0.4727 -0.5061  0.0457
  663TMC3    C4 9863   0.172   0.177  17.193 -0.1250 -0.1928 -0.0459
  663TMC3    C5 9864   0.193   0.044  17.170 -0.2499 -0.0266  0.2417
  663TMC3    C6 9865   0.307   4.710  17.203 -0.0269  0.0251  0.0372
  663TMC3     C 9866   0.242   0.348  17.358  0.7595  0.0764 -0.2170
  663TMC3     O 9867   0.320   0.359  17.453 -0.3963 -0.7404 -0.5634
  663TMC3     H 9868   0.475   0.248  17.318 -1.8921  0.8350 -0.4663
  663TMC3    H1 9869   0.073   0.219  17.177  0.4968  1.0768 -0.4978
  663TMC3    H2 9870   0.324   4.611  17.164  1.0971  1.8448 -4.0479
  663TMC3    C7 9871   0.089   4.694  17.109 -0.3926  0.0171 -0.1911
  663TMC3    C8 9872   0.503   4.711  17.343  0.1123  0.1334  1.1340
  663TMC3    O1 9873   0.003   0.023  17.047  0.1597  0.2196 -0.0043
  663TMC3    O2 9874   0.520   4.589  17.324 -0.1352 -0.3638 -0.5854
  664MPD2     C 9875   2.778   3.459   0.027 -0.1854  0.1566 -0.1697
  664MPD2    C1 9876   2.870   3.562   0.005  0.0756  0.1487 -0.7134
  664MPD2    C2 9877   2.904   3.645   0.112  0.1828 -0.0329 -0.4951
  664MPD2    C3 9878   2.838   3.631   0.236  0.7336  0.3190 -0.1812
  664MPD2    C4 9879   2.745   3.529   0.249 -0.7926  0.0970 -0.2987
  664MPD2    C5 9880   2.715   3.446   0.146 -0.4811  0.5760 -0.0032
  664MPD2     H 9881   2.971   3.730   0.100  2.2075 -1.5926 -0.1218
  664MPD2    H1 9882   2.694   3.528   0.344  0.0593  0.3862  0.1661
  664MPD2    H2 9883   2.743   3.396  17.685 -0.7091 -0.1601  0.3029
  664MPD2    H3 9884   2.637   3.371   0.155  0.0420  0.0530  0.1418
  664MPD2     N 9885   2.879   3.715   0.342 -0.2521 -0.1968 -0.3979
  664MPD2    H5 9886   2.951   3.782   0.319  0.2084 -0.5783 -0.0834
  664MPD2    N1 9887   2.918   3.592  17.614  0.2531 -1.1745  1.0185
  664MPD2    H7 9888   2.995   3.657  17.602 -1.2995  0.5791  0.5414
  665TMC3    C1 9889   2.890   3.802   0.556  0.1036  0.0188 -0.2835
  665TMC3    C2 9890   3.020   3.770   0.587 -0.2410  0.3119 -0.2186
  665TMC3    C3 9891   3.070   3.791   0.713  0.0980 -0.2866  0.6943
  665TMC3    C4 9892   2.817   3.850   0.651  0.0968  0.4847 -0.1454
  665TMC3    C5 9893   2.859   3.878   0.775 -0.6098  0.3311 -0.2706
  665TMC3    C6 9894   2.986   3.835   0.810 -0.4917 -0.4021  1.0702
  665TMC3     C 9895   2.816   3.720   0.468  0.1473 -0.2782 -0.0385
  665TMC3     O 9896   2.732   3.651   0.525 -0.3695  0.5214  0.6679
  665TMC3     H 9897   3.084   3.736   0.506 -1.3258  0.1683 -1.0113
  665TMC3    H1 9898   2.714   3.870   0.623  0.1814 -0.4750 -1.1571
  665TMC3    H2 9899   3.031   3.872   0.902 -1.4196  1.5714  0.7360
  665TMC3    C7 9900   2.755   3.888   0.875 -0.2726 -0.4366  0.2912
  665TMC3    C8 9901   3.208   3.772   0.745 -0.1704  0.1975 -1.3362
  665TMC3    O1 9902   2.646   3.883   0.829 -0.0822  0.2211  0.4006
  665TMC3    O2 9903   3.259   3.850   0.822 -0.8476  0.1982  0.0712
  666TMC3    C1 9904   2.357   3.215   9.878  0.4984  0.1230 -0.0634
  666TMC3    C2 9905   2.299   3.150   9.980  0.4855 -0.6480  0.8974
  666TMC3    C3 9906   2.281   3.222  10.097 -0.1796 -0.0884 -0.3214
  666TMC3    C4 9907   2.407   3.342   9.892  0.0604 -0.0587  0.6567
  666TMC3    C5 9908   2.389   3.404  10.018  0.0135  0.4253  0.3306
  666TMC3    C6 9909   2.324   3.347  10.119 -0.1669 -0.2135 -0.1365
  666TMC3     C 9910   2.318   3.175   9.746 -0.3476 -0.7350  0.8347
  666TMC3     O 9911   2.391   3.208   9.653 -0.3089  0.4218  0.3614
  666TMC3     H 9912   2.270   3.046   9.977  1.9832 -1.0753  1.1490
  666TMC3    H1 9913   2.430   3.401   9.805 -2.0477  2.5024  1.8129
  666TMC3    H2 9914   2.313   3.404  10.211  0.2662  0.7973 -0.7111
  666TMC3    C7 9915   2.393   3.553  10.016  0.1019 -0.1293  0.7647
  666TMC3    C8 9916   2.262   3.140  10.213  0.0819  0.0643  0.5030
  666TMC3    O1 9917   2.473   3.606   9.939 -0.0661  0.0276 -0.0362
  666TMC3    O2 9918   2.188   3.041  10.193  0.1419  0.7770  0.1036
  667MPD2     C 9919   3.500   3.743  14.416  0.2321 -0.3831 -0.1167
  667MPD2    C1 9920   3.536   3.653  14.512 -0.3099  0.7109  0.0807
  667MPD2    C2 9921   3.472   3.533  14.518 -0.6718 -0.1717 -0.0605
  667MPD2    C3 9922   3.377   3.492  14.426 -0.8698  0.0223  0.0029
  667MPD2    C4 9923   3.351   3.580  14.328  0.0252 -0.3609 -0.0950
  667MPD2    C5 9924   3.402   3.708  14.326  0.1088  0.7856  0.7535
  667MPD2     H 9925   3.488   3.461  14.597 -0.3073  1.0760  0.9878
  667MPD2    H1 9926   3.276   3.557  14.254 -0.9489  0.9213  0.4942
  667MPD2    H2 9927   3.547   3.841  14.422 -0.9397  0.1167  0.8857
  667MPD2    H3 9928   3.371   3.771  14.244  0.0190  1.0168  0.9643
  667MPD2     N 9929   3.311   3.365  14.432 -0.5332 -0.7027 -0.0908
  667MPD2    H5 9930   3.237   3.348  14.364 -0.3015  1.7855 -0.9949
  667MPD2    N1 9931   3.631   3.676  14.610 -0.3439  0.4752  0.0533
  667MPD2    H7 9932   3.637   3.599  14.676  1.2828  1.0946  0.6107
  668TMC3    C1 9933   3.761   3.802  14.764 -0.1350  0.1761 -0.4868
  668TMC3    C2 9934   3.835   3.914  14.784 -0.7667 -0.8992  0.8075
  668TMC3    C3 9935   3.846   3.964  14.912 -0.1658 -0.0770 -0.2652
  668TMC3    C4 9936   3.714   3.720  14.864 -0.1317 -0.0307  0.4013
  668TMC3    C5 9937   3.732   3.767  14.993 -0.2293 -0.2707 -0.0380
  668TMC3    C6 9938   3.799   3.891  15.018 -0.5786 -0.5854 -0.1234
  668TMC3     C 9939   3.720   3.777  14.624 -0.2249 -0.6076  0.2502
  668TMC3     O 9940   3.756   3.860  14.540 -0.0465 -0.0385 -0.2392
  668TMC3     H 9941   3.882   3.968  14.702 -3.4910 -0.0771 -0.2149
  668TMC3    H1 9942   3.658   3.628  14.853 -2.3184  1.2292  1.0248
  668TMC3    H2 9943   3.812   3.924  15.120 -0.6632  2.3318 -1.0651
  668TMC3    C7 9944   3.678   3.686  15.107  0.6297  0.3975 -0.5951
  668TMC3    C8 9945   3.891   4.098  14.946 -0.5958 -0.1379  0.3845
  668TMC3    O1 9946   3.682   3.565  15.083 -0.2049  0.5272 -1.0543
  668TMC3    O2 9947   3.868   4.150  15.058  0.0823  0.1026 -0.2183
  669TMC3    C1 9948   1.655   3.722  14.727 -0.6021  0.1850 -0.2030
  669TMC3    C2 9949   1.532   3.735  14.667  0.0680  0.0709 -0.8260
  669TMC3    C3 9950   1.516   3.782  14.538  0.6277  0.0845 -0.0887
  669TMC3    C4 9951   1.765   3.766  14.655  0.1934  0.0570 -0.2004
  669TMC3    C5 9952   1.747   3.817  14.533 -0.2316 -0.2220 -0.7964
  669TMC3    C6 9953   1.632   3.825  14.465 -0.2866  0.4335 -0.1191
  669TMC3     C 9954   1.660   3.662  14.860 -0.1552 -0.1971  0.1060
  669TMC3     O 9955   1.549   3.636  14.903 -0.2069 -0.4023  0.1061
  669TMC3     H 9956   1.442   3.706  14.721  1.4750 -0.1333  1.3835
  669TMC3    H1 9957   1.864   3.766  14.699  0.6330 -1.3750 -1.2019
  669TMC3    H2 9958   1.640   3.851  14.360  0.7758 -0.4882 -0.2587
  669TMC3    C7 9959   1.875   3.841  14.455 -0.4817 -0.2784 -0.6677
  669TMC3    C8 9960   1.393   3.747  14.462  0.2226 -0.9196  0.5612
  669TMC3    O1 9961   1.873   3.933  14.372  0.2164 -0.2303 -0.5880
  669TMC3    O2 9962   1.300   3.705  14.530 -0.5847  0.5515  0.4020
  670MPD2     C 9963   0.321   1.113  12.999  0.1042  0.8370 -0.0690
  670MPD2    C1 9964   0.354   1.197  13.110 -0.4902 -0.3761  0.1895
  670MPD2    C2 9965   0.247   1.237  13.187 -0.3313  0.1123 -0.5333
  670MPD2    C3 9966   0.120   1.199  13.162  0.1389 -0.5246  0.6987
  670MPD2    C4 9967   0.095   1.121  13.054 -0.7965  0.3733 -0.4192
  670MPD2    C5 9968   0.192   1.084  12.967 -0.3633 -0.3564  0.1806
  670MPD2     H 9969   0.259   1.291  13.280  0.3012  0.2355 -0.6854
  670MPD2    H1 9970   4.727   1.088  13.040 -0.9038  1.7236 -2.6267
  670MPD2    H2 9971   0.398   1.069  12.937  0.6394  0.6080  0.7588
  670MPD2    H3 9972   0.163   1.010  12.893 -0.3738  0.0519 -0.2251
  670MPD2     N 9973   0.016   1.229  13.250 -0.1509  0.2100 -0.0577
  670MPD2    H5 9974   0.038   1.262  13.343 -0.4920  0.7965 -0.1875
  670MPD2    N1 9975   0.487   1.237  13.150 -0.0713 -0.0799  1.1298
  670MPD2    H7 9976   0.493   1.297  13.232  1.7339  1.1049  0.1194
  671TMC3    C1 9977   4.538   1.240  13.348  0.6971 -0.4588 -0.3873
  671TMC3    C2 9978   4.590   1.276  13.466  0.0867 -0.2872 -0.5921
  671TMC3    C3 9979   4.519   1.246  13.585  0.0886  0.5549 -0.1929
  671TMC3    C4 9980   4.412   1.194  13.334 -0.6322  0.1532  0.0033
  671TMC3    C5 9981   4.335   1.183  13.443  0.4107  0.0720  0.1669
  671TMC3    C6 9982   4.386   1.209  13.565 -0.4653 -0.1045  0.0451
  671TMC3     C 9983   4.613   1.219  13.224  0.3043  0.1435  0.4267
  671TMC3     O 9984   4.553   1.224  13.113 -0.0037  0.3472  0.1073
  671TMC3     H 9985   4.697   1.293  13.475  0.5252 -2.1293 -2.4675
  671TMC3    H1 9986   4.377   1.161  13.237 -0.1986  1.4807 -0.6021
  671TMC3    H2 9987   4.320   1.191  13.649 -1.3314  0.5115 -0.5090
  671TMC3    C7 9988   4.215   1.106  13.435 -0.0609 -0.4030  0.1059
  671TMC3    C8 9989   4.582   1.173  13.691  0.1508  0.0580 -0.1158
  671TMC3    O1 9990   4.217   1.011  13.357  0.2873 -0.4433 -0.3055
  671TMC3    O2 9991   4.518   1.072  13.725  0.4855 -0.1726 -0.3785
  672MPD2     C 9992   0.760   2.145   0.726  0.4548 -0.4084 -1.1062
  672MPD2    C1 9993   0.837   2.034   0.713 -0.4020  0.1781  1.0201
  672MPD2    C2 9994   0.975   2.054   0.710  0.4478  0.3051 -0.4999
  672MPD2    C3 9995   1.029   2.181   0.721 -0.6375  0.2061 -0.1083
  672MPD2    C4 9996   0.948   2.291   0.737 -0.1921 -0.7003 -0.4493
  672MPD2    C5 9997   0.816   2.270   0.750 -0.5730  0.0060  0.7200
  672MPD2     H 9998   1.034   1.963   0.700  0.7779  0.9454 -4.2483
  672MPD2    H1 9999   0.985   2.392   0.725 -0.2328 -0.5706  0.5154
  672MPD2    H210000   0.652   2.140   0.720  0.2407  2.2863  0.6046
  672MPD2    H310001   0.742   2.350   0.746 -2.0297 -1.4200 -1.1125
  672MPD2     N10002   1.167   2.219   0.720  0.2126 -0.0582 -0.7484
  672MPD2    H510003   1.195   2.312   0.749 -0.0157 -0.3538  0.4022
  672MPD2    N110004   0.784   1.897   0.710  0.4266  0.1743 -0.0754
  672MPD2    H710005   0.856   1.826   0.707 -0.5258 -0.8068  0.6554
  673TMC3    C110006   0.625   1.729   0.656  0.4272  0.3897 -0.2231
  673TMC3    C210007   0.723   1.639   0.626 -0.7573  0.0056 -0.4303
  673TMC3    C310008   0.681   1.507   0.594 -0.5858  0.1843 -0.2718
  673TMC3    C410009   0.489   1.696   0.645  0.2766 -0.6475  0.8259
  673TMC3    C510010   0.458   1.570   0.613  0.3647 -0.0791 -0.1254
  673TMC3    C610011   0.553   1.477   0.589  0.0893 -0.0130 -0.5489
  673TMC3     C10012   0.653   1.865   0.705 -0.1419  0.0869 -0.3279
  673TMC3     O10013   0.558   1.936   0.720  0.0688 -0.1403  0.1746
  673TMC3     H10014   0.827   1.669   0.633 -0.2515 -1.5086 -1.2952
  673TMC3    H110015   0.416   1.776   0.650  0.9366 -0.1291  2.4024
  673TMC3    H210016   0.532   1.376   0.555  1.4197 -0.4164 -0.1727
  673TMC3    C710017   0.325   1.551   0.552 -0.0277  0.1544 -0.4400
  673TMC3    C810018   0.781   1.396   0.588  0.1237 -0.3291 -0.1168
  673TMC3    O110019   0.298   1.439   0.509  0.0225 -0.1223  0.0830
  673TMC3    O210020   0.746   1.289   0.541  0.6076 -0.6255  0.3881
  674MPD2     C10021   0.089   2.102   0.042 -0.1513 -0.2965 -0.0601
  674MPD2    C110022   0.058   1.973   0.020  0.3395 -0.1866  0.4099
  674MPD2    C210023   4.665   1.944  17.710 -0.3748 -0.5362  0.2527
  674MPD2    C310024   4.575   2.042  17.684  0.3001 -0.1319  0.4028
  674MPD2    C410025   4.613   2.175  17.707 -0.3031 -0.3698  0.4318
  674MPD2    C510026   0.008   2.201   0.009  0.8992 -0.3972 -0.1679
  674MPD2     H10027   4.635   1.841  17.695 -3.2781  0.1285  1.4926
  674MPD2    H110028   4.560   2.266  17.681 -1.0162 -1.3103 -1.4407
  674MPD2    H210029   0.185   2.136   0.081 -0.3668  1.1124 -0.7245
  674MPD2    H310030   0.036   2.302   0.036  1.6110 -0.7232  0.3256
  674MPD2     N10031   4.450   2.001  17.639  0.1895 -0.5581 -0.2689
  674MPD2    H510032   4.429   1.903  17.650 -0.9695  0.0019  2.3596
  674MPD2    N110033   0.151   1.870   0.056  0.5453  0.1664  0.0763
  674MPD2    H710034   0.234   1.908   0.099  3.5037  0.0228 -5.4477
  675TMC3    C110035   0.229   1.645   0.071  0.3965 -0.2991  0.0605
  675TMC3    C210036   0.189   1.518   0.086 -1.1669  0.3237  0.4283
  675TMC3    C310037   0.248   1.437   0.180  0.1865 -0.3838  0.2361
  675TMC3    C410038   0.350   1.690   0.120  0.3839 -0.6831  0.2398
  675TMC3    C510039   0.421   1.601   0.190 -0.8308  0.5126  1.1041
  675TMC3    C610040   0.368   1.479   0.227  0.3964  0.6103 -0.1055
  675TMC3     C10041   0.129   1.736   0.027  1.0258 -0.0188 -0.7929
  675TMC3     O10042   0.033   1.679  17.715 -0.6182  0.4096 -0.5233
  675TMC3     H10043   0.088   1.486   0.060 -0.6157 -0.7433 -0.3954
  675TMC3    H110044   0.390   1.785   0.087 -1.6168  0.3858  0.9371
  675TMC3    H210045   0.425   1.419   0.297 -0.7368  1.3066  1.4115
  675TMC3    C710046   0.552   1.640   0.239 -0.5152 -0.8464  0.5651
  675TMC3    C810047   0.208   1.302   0.182  0.7031 -0.3522  0.2424
  675TMC3    O110048   0.630   1.553   0.278  0.2129  0.1168  0.5662
  675TMC3    O210049   0.164   1.250   0.079 -0.2782 -0.4156  0.3954
  676MPD2     C10050   2.342   4.511  11.130  0.5799 -0.4842 -0.4845
  676MPD2    C110051   2.257   4.423  11.193 -0.4098  0.0654 -0.5290
  676MPD2    C210052   2.207   4.326  11.119 -0.0913  0.1196  0.1231
  676MPD2    C310053   2.229   4.311  10.987 -0.5593 -0.8138 -0.0072
  676MPD2    C410054   2.317   4.397  10.923  0.2248  1.2706  1.3716
  676MPD2    C510055   2.377   4.499  10.994  0.7147 -0.1418 -0.0607
  676MPD2     H10056   2.135   4.267  11.175  1.9581 -2.1198  0.3767
  676MPD2    H110057   2.338   4.390  10.817  0.4063  2.1697  1.3491
  676MPD2    H210058   2.380   4.596  11.185 -0.6615 -0.0420 -0.3247
  676MPD2    H310059   2.439   4.569  10.940 -0.5316  2.1327  1.5030
  676MPD2     N10060   2.164   4.215  10.907 -0.0095 -0.3652  0.2788
  676MPD2    H510061   2.193   4.217  10.809  1.0180  2.8848  0.6468
  676MPD2    N110062   2.221   4.435  11.332 -0.1509 -0.1363 -0.6088
  676MPD2    H710063   2.140   4.379  11.354 -1.3217  1.4385 -0.8711
  677TMC3    C110064   2.211   4.504  11.558  0.3314 -0.4094 -0.3445
  677TMC3    C210065   2.186   4.370  11.597 -0.0591 -0.3133  0.0731
  677TMC3    C310066   2.182   4.334  11.725  0.0896  0.4671  0.3237
  677TMC3    C410067   2.238   4.598  11.650  0.7214 -0.3577  0.1626
  677TMC3    C510068   2.225   4.558  11.779  0.4069  0.6703 -0.2054
  677TMC3    C610069   2.179   4.431  11.820  0.0534  0.3684  0.3594
  677TMC3     C10070   2.266   4.526  11.423  0.0601 -0.3629 -0.3486
  677TMC3     O10071   2.356   4.610  11.416 -0.3038  0.3905 -0.8011
  677TMC3     H10072   2.202   4.297  11.519  0.3529 -0.0999 -0.0404
  677TMC3    H110073   2.257   4.698  11.614  0.8653  1.2721  4.8030
  677TMC3    H210074   2.162   4.401  11.923 -3.3280 -0.2129 -0.3464
  677TMC3    C710075   2.218   4.666  11.882  0.0348  0.6648 -0.5868
  677TMC3    C810076   2.287   4.231  11.756 -0.2330  0.3249  0.3495
  677TMC3    O110077   2.144   4.636  11.977 -0.4411  0.0910 -0.3645
  677TMC3    O210078   2.295   4.135  11.678 -0.6515 -0.6234  0.1134
  678MPD2     C10079   4.454   4.331   1.467 -0.8118  0.8694  0.4308
  678MPD2    C110080   4.487   4.409   1.361  0.1677  0.3856  0.1420
  678MPD2    C210081   4.386   4.470   1.281  0.2001  0.1310 -0.3991
  678MPD2    C310082   4.256   4.449   1.304  0.1802 -0.7527  0.2731
  678MPD2    C410083   4.215   4.393   1.421 -0.7092  0.4161  0.4951
  678MPD2    C510084   4.315   4.332   1.493  0.2108  0.4187  0.3582
  678MPD2     H10085   4.424   4.529   1.198  0.2515  1.2538  0.4260
  678MPD2    H110086   4.111   4.375   1.444 -0.9976  2.4915  0.8064
  678MPD2    H210087   4.518   4.257   1.514  0.2379  0.7818 -1.1612
  678MPD2    H310088   4.283   4.264   1.570 -1.7458  2.1602  1.1094
  678MPD2     N10089   4.168   4.496   1.205 -0.0623 -0.3770  1.4302
  678MPD2    H510090   4.216   4.542   1.128  0.6267 -3.2248  0.1699
  678MPD2    N110091   4.622   4.419   1.301  0.1025 -0.1198  0.2992
  678MPD2    H710092   4.624   4.485   1.224  1.1713 -1.9702 -1.2329
  679TMC3    C110093   0.315   4.259   1.184  0.3058 -0.1274  0.5285
  679TMC3    C210094   0.191   4.244   1.247 -0.5782 -0.0516  0.9279
  679TMC3    C310095   0.111   4.354   1.255 -0.4926 -1.0331  0.2100
  679TMC3    C410096   0.363   4.378   1.140 -0.1211  0.1736  0.3091
  679TMC3    C510097   0.286   4.489   1.160 -0.1021  0.2595 -0.2696
  679TMC3    C610098   0.159   4.473   1.216  0.0849 -0.7811 -0.3730
  679TMC3     C10099   0.388   4.142   1.165  0.1570  0.3832  0.5593
  679TMC3     O10100   0.482   4.131   1.080  0.4407  0.1330  0.2221
  679TMC3     H10101   0.162   4.151   1.295  1.7573 -1.4432 -0.3333
  679TMC3    H110102   0.464   4.382   1.100 -1.2978 -0.5603 -2.7184
  679TMC3    H210103   0.100   4.561   1.235 -0.8282 -1.8243  1.6665
  679TMC3    C710104   0.322   4.608   1.095  0.2373 -0.5139 -0.4959
  679TMC3    C810105   4.727   4.341   1.341  0.0529  0.7368  0.2003
  679TMC3    O110106   0.235   4.685   1.065  0.0055 -0.4213 -0.2192
  679TMC3    O210107   4.721   4.262   1.433  0.5516 -0.0367 -0.0424
  680MPD2     C10108   3.984   3.363  13.850 -0.2027  0.0938  0.5142
  680MPD2    C110109   4.074   3.289  13.922 -0.1719 -0.5945  0.1026
  680MPD2    C210110   4.181   3.351  13.980 -0.0565 -0.2020 -0.4398
  680MPD2    C310111   4.213   3.482  13.952  0.9302  0.7865 -0.6927
  680MPD2    C410112   4.119   3.555  13.893  0.2152  0.2177 -0.2539
  680MPD2    C510113   4.013   3.499  13.836 -0.5195  0.0978 -0.1412
  680MPD2     H10114   4.250   3.294  14.040 -1.1070  0.3278  1.2766
  680MPD2    H110115   4.140   3.656  13.859  2.3983 -0.3641 -0.6344
  680MPD2    H210116   3.890   3.327  13.811 -0.4834  0.5653  0.7525
  680MPD2    H310117   3.950   3.572  13.786 -0.2336 -0.2341 -0.9932
  680MPD2     N10118   4.326   3.540  14.001 -0.0354 -0.3737 -0.2896
  680MPD2    H510119   4.343   3.639  13.989  1.0451 -0.3395  1.5363
  680MPD2    N110120   4.057   3.150  13.934 -0.3078  0.0145 -0.7861
  680MPD2    H710121   4.123   3.105  13.996 -0.3890 -1.3830 -1.7261
  681TMC3    C110122   4.005   2.934  13.893  0.1025 -0.1090 -0.4468
  681TMC3    C210123   4.003   2.930  14.030 -0.7182  0.1121 -0.5673
  681TMC3    C310124   4.101   2.860  14.093  0.2395  0.0080  0.9157
  681TMC3    C410125   4.108   2.887  13.817  0.3195 -0.5731  0.0117
  681TMC3    C510126   4.207   2.821  13.887 -0.1065 -0.1300 -0.1492
  681TMC3    C610127   4.205   2.805  14.024  0.2813  0.0411  0.5130
  681TMC3     C10128   3.977   3.071  13.852 -0.1763 -0.0844 -0.6752
  681TMC3     O10129   3.904   3.105  13.760 -0.3903 -0.8008  0.0062
  681TMC3     H10130   3.922   2.970  14.089 -1.7660 -0.2449 -1.7611
  681TMC3    H110131   4.103   2.868  13.710  3.3078 -3.4312  0.3974
  681TMC3    H210132   4.267   2.740  14.083  1.3824  1.0392  0.4709
  681TMC3    C710133   4.296   2.730  13.815 -0.1467  0.0420 -0.3434
  681TMC3    C810134   4.084   2.845  14.241 -0.1349  0.1551 -0.1414
  681TMC3    O110135   4.338   2.627  13.869  0.1054 -0.2653 -0.1423
  681TMC3    O210136   3.973   2.821  14.284 -0.3591 -0.5774  0.2298
  682MPD2     C10137   1.411   4.411  10.644 -0.5575 -0.2126 -0.2911
  682MPD2    C110138   1.394   4.271  10.637 -0.2429  0.1397  0.8715
  682MPD2    C210139   1.345   4.207  10.750 -0.0744  0.1633 -0.4226
  682MPD2    C310140   1.302   4.277  10.862  0.2851 -0.1804 -0.2577
  682MPD2    C410141   1.313   4.418  10.865 -0.1558  0.4893 -0.2899
  682MPD2    C510142   1.369   4.483  10.753  0.0012  0.1334 -0.2289
  682MPD2     H10143   1.351   4.099  10.753  1.0368  0.2147 -0.7457
  682MPD2    H110144   1.292   4.474  10.955 -0.8879  0.2900 -0.3341
  682MPD2    H210145   1.460   4.471  10.568  0.6849  1.4158  1.7876
  682MPD2    H310146   1.400   4.587  10.758 -0.6699  0.4093 -1.6257
  682MPD2     N10147   1.239   4.207  10.971  0.0213 -0.7871  0.2291
  682MPD2    H510148   1.206   4.269  11.044 -0.0017 -1.9040  1.1539
  682MPD2    N110149   1.454   4.192  10.542 -0.5067  0.1020 -0.0403
  682MPD2    H710150   1.449   4.091  10.555 -0.4676 -0.0703 -1.2827
  683TMC3    C110151   1.207   4.001  11.320  0.8379 -0.1782  0.3711
  683TMC3    C210152   1.172   3.867  11.320 -0.9120 -0.0385  0.2031
  683TMC3    C310153   1.120   3.821  11.200  0.6284  0.1871  0.0722
  683TMC3    C410154   1.208   4.078  11.211  0.1593 -0.1909  0.4929
  683TMC3    C510155   1.151   4.034  11.098  0.0812  0.4299 -0.1669
  683TMC3    C610156   1.109   3.905  11.091 -0.4388  0.0049  0.2309
  683TMC3     C10157   1.213   4.072  11.448  0.1751  0.1225  0.3496
  683TMC3     O10158   1.265   4.182  11.454  0.1633 -0.0409  0.1024
  683TMC3     H10159   1.191   3.808  11.409  1.0756  0.5449  0.1480
  683TMC3    H110160   1.256   4.174  11.224 -0.1403  0.1459 -0.9177
  683TMC3    H210161   1.057   3.872  11.002 -0.7422  2.1635 -0.3720
  683TMC3    C710162   1.206   4.073  10.972 -0.5401  0.5985  0.3360
  683TMC3    C810163   1.142   3.684  11.168 -0.2025 -0.2776  0.8146
  683TMC3    O110164   1.226   3.991  10.884  0.4797 -0.0725 -0.4543
  683TMC3    O210165   1.171   3.670  11.053 -0.5612  0.2307  0.0940
  684MPD2     C10166   0.130   3.814  16.391 -0.6440 -0.1800 -0.0108
  684MPD2    C110167   0.038   3.832  16.289 -0.3214  0.1703  0.0374
  684MPD2    C210168   0.016   3.967  16.241  0.9762 -0.2756 -0.3913
  684MPD2    C310169   0.091   4.069  16.304 -0.2600  0.6905  0.8095
  684MPD2    C410170   0.170   4.045  16.414 -0.0781  0.5214  0.3162
  684MPD2    C510171   0.189   3.920  16.452 -0.6368 -0.0372  0.4193
  684MPD2     H10172   4.696   3.985  16.149 -2.4846  0.2889  1.7798
  684MPD2    H110173   0.216   4.121  16.477  0.3066  0.9348 -0.4600
  684MPD2    H210174   0.160   3.716  16.424 -2.5344 -0.7127  0.1092
  684MPD2    H310175   0.262   3.894  16.528 -1.3072 -1.5144  0.5701
  684MPD2     N10176   0.087   4.201  16.269 -0.2596 -0.0237 -0.1767
  684MPD2    H510177   0.139   4.269  16.323 -0.4833  0.1181 -0.1382
  684MPD2    N110178   4.705   3.719  16.235 -0.4793 -0.3019  0.0811
  684MPD2    H710179   4.629   3.752  16.176 -1.5448  0.8622  2.1029
  685TMC3    C110180   4.687   3.510  16.140 -0.0721 -0.4659  0.1375
  685TMC3    C210181   4.597   3.563  16.055  0.0859  0.1062 -0.0218
  685TMC3    C310182   4.611   3.536  15.923 -0.7515  0.2224 -0.2500
  685TMC3    C410183   0.040   3.415  16.101  0.1836 -0.2303  0.5036
  685TMC3    C510184   0.057   3.397  15.967  0.8708 -0.1148  0.6879
  685TMC3    C610185   4.710   3.455  15.871 -0.2293 -0.2100  0.0849
  685TMC3     C10186   0.009   3.592  16.239  0.3771  0.2091  0.7340
  685TMC3     O10187   0.103   3.547  16.304  0.2417  0.2907  0.0912
  685TMC3     H10188   4.515   3.626  16.085 -0.6242 -0.7400 -0.1697
  685TMC3    H110189   0.105   3.359  16.167  0.6722 -0.1371  0.0983
  685TMC3    H210190   0.007   3.455  15.768 -0.2166  2.3151  0.0773
  685TMC3    C710191   0.192   3.387  15.925 -0.3572  0.1100 -0.7640
  685TMC3    C810192   4.528   3.606  15.828 -0.1127  0.1806  0.1214
  685TMC3    O110193   0.231   3.355  15.813  0.7170  0.3413 -0.0869
  685TMC3    O210194   4.533   3.563  15.716  0.2073  0.1717  0.2989
  686MPD2     C10195   1.332   4.193  16.026 -0.6527 -0.6153  0.5747
  686MPD2    C110196   1.414   4.100  16.092  0.0016 -0.5379 -0.8164
  686MPD2    C210197   1.516   4.041  16.021 -0.2893 -0.0061 -0.5899
  686MPD2    C310198   1.515   4.043  15.883 -0.3301  0.1037 -0.3407
  686MPD2    C410199   1.429   4.127  15.821  0.0893  0.5970 -0.1480
  686MPD2    C510200   1.347   4.204  15.893 -0.4663  0.6721  0.1725
  686MPD2     H10201   1.591   3.976  16.065 -0.9060  0.1547  0.7092
  686MPD2    H110202   1.428   4.137  15.713  2.3587  1.4314 -0.0874
  686MPD2    H210203   1.261   4.256  16.078 -0.4936 -0.2365  0.3349
  686MPD2    H310204   1.271   4.263  15.843 -0.4245 -0.4344 -1.2036
  686MPD2     N10205   1.598   3.961  15.800 -0.4520 -0.9253 -0.1521
  686MPD2    H510206   1.602   3.989  15.703  0.1637 -3.2019 -0.7825
  686MPD2    N110207   1.386   4.081  16.231 -0.5250  0.4934 -0.4722
  686MPD2    H710208   1.305   4.133  16.261 -0.9274  1.0958 -2.5533
  687TMC3    C110209   1.638   3.761  15.942  0.4960  0.3811 -0.3975
  687TMC3    C210210   1.502   3.743  15.957 -0.4359  0.0326  0.2607
  687TMC3    C310211   1.458   3.683  16.078  0.1690  0.0574 -0.5665
  687TMC3    C410212   1.730   3.707  16.028 -0.2370  0.5783  0.3518
  687TMC3    C510213   1.684   3.647  16.140 -0.3423 -0.0666  0.1031
  687TMC3    C610214   1.546   3.630  16.166  0.2380  0.0345  0.2781
  687TMC3     C10215   1.686   3.856  15.841  0.9857  0.1961  0.0158
  687TMC3     O10216   1.793   3.828  15.791  0.0146  0.0421  0.1392
  687TMC3     H10217   1.441   3.779  15.875  0.1079 -0.2107 -0.2461
  687TMC3    H110218   1.833   3.738  16.020 -0.8634  1.8276 -2.8476
  687TMC3    H210219   1.507   3.597  16.261 -0.9372  2.5290  0.6719
  687TMC3    C710220   1.781   3.609  16.246 -0.0621 -0.1341  0.1915
  687TMC3    C810221   1.320   3.704  16.119 -0.0035  0.2056 -0.2984
  687TMC3    O110222   1.729   3.607  16.355 -0.0697  0.3540 -0.7007
  687TMC3    O210223   1.283   3.648  16.226 -0.3486 -0.6517  0.4678
  688MPD2     C10224   0.960   2.704  17.409 -0.2948  0.1804  0.2015
  688MPD2    C110225   0.961   2.571  17.449  0.2927  0.7467  0.3987
  688MPD2    C210226   1.051   2.478  17.389 -0.0007 -0.3592  0.1645
  688MPD2    C310227   1.128   2.508  17.282  1.2306 -1.1487  0.6567
  688MPD2    C410228   1.117   2.643  17.237  0.1866 -0.0086 -0.5849
  688MPD2    C510229   1.043   2.739  17.306 -0.4733  0.2364 -0.8612
  688MPD2     H10230   1.042   2.374  17.418  0.2728 -1.1683 -2.6242
  688MPD2    H110231   1.174   2.680  17.153  1.4893 -0.9804 -0.1164
  688MPD2    H210232   0.900   2.787  17.444 -0.6221  0.0242  0.0133
  688MPD2    H310233   1.042   2.839  17.264 -2.2397  1.1403  1.3466
  688MPD2     N10234   1.222   2.422  17.217  0.2772  0.2757  0.7265
  688MPD2    H510235   1.266   2.461  17.134 -2.1380  0.8928 -0.2870
  688MPD2    N110236   0.886   2.527  17.560 -0.1237  0.1401  0.0451
  688MPD2    H710237   0.892   2.430  17.591 -1.3547 -0.5844 -2.0008
  689TMC3    C110238   0.730   2.531  17.739  0.0822 -0.5785 -0.1289
  689TMC3    C210239   0.684   2.595   0.109 -1.2504 -0.0728  0.3398
  689TMC3    C310240   0.578   2.530   0.185  0.2684  0.1144  0.0740
  689TMC3    C410241   0.679   2.405  17.699  0.2375  0.5792  0.1687
  689TMC3    C510242   0.571   2.357   0.039 -0.3737 -0.8319  0.0948
  689TMC3    C610243   0.521   2.415   0.151 -0.0112  0.2522  0.4127
  689TMC3     C10244   0.807   2.608  17.642  0.5532  0.1770  0.3518
  689TMC3     O10245   0.806   2.728  17.654 -0.2407  0.4530 -0.2953
  689TMC3     H10246   0.711   2.697   0.133  1.1763 -0.8374  0.7870
  689TMC3    H110247   0.700   2.353  17.606  2.5948 -0.6105  1.3769
  689TMC3    H210248   0.445   2.363   0.210 -1.5769  1.2217 -0.7515
  689TMC3    C710249   0.527   2.218   0.010  0.2424  0.2957 -0.2682
  689TMC3    C810250   0.557   2.581   0.320 -0.6959  0.2846  0.7663
  689TMC3    O110251   0.417   2.192   0.053  0.0171  0.3423  0.0747
  689TMC3    O210252   0.647   2.651   0.366  0.8503  0.0966 -0.2291
  690MPD2     C10253   3.005   4.575  15.488  0.0812 -0.2927  0.2290
  690MPD2    C110254   2.918   4.569  15.374  0.7632  0.3085  0.2226
  690MPD2    C210255   2.964   4.622  15.257 -0.1517 -0.1207  0.2728
  690MPD2    C310256   3.082   4.688  15.246  0.0415  0.2899  0.2099
  690MPD2    C410257   3.146   4.715  15.367 -0.2462 -0.2358  0.2730
  690MPD2    C510258   3.107   4.663  15.485 -0.1136  0.2055 -0.6807
  690MPD2     H10259   2.902   4.618  15.168 -1.3908 -1.2563  1.1986
  690MPD2    H110260   3.230   0.048  15.376 -1.5688  1.5413 -1.0266
  690MPD2    H210261   2.973   4.541  15.586 -1.4392  4.2341  1.3300
  690MPD2    H310262   3.163   4.679  15.577 -1.8441  1.5724  0.1147
  690MPD2     N10263   3.121   0.015  15.130  0.2342  0.7374  0.4604
  690MPD2    H510264   3.056   0.011  15.052 -0.4285  3.1450  0.8669
  690MPD2    N110265   2.800   4.495  15.369  0.5029 -0.2246  0.6689
  690MPD2    H710266   2.751   4.478  15.282  0.2791  0.7825  0.6015
  691TMC3    C110267   2.628   4.340  15.413 -0.0373  0.0034 -0.1703
  691TMC3    C210268   2.532   4.417  15.350  0.1894 -0.3524 -0.0131
  691TMC3    C310269   2.428   4.346  15.283  0.8896 -0.5911 -0.1223
  691TMC3    C410270   2.620   4.204  15.422  0.0493 -0.1063 -0.7038
  691TMC3    C510271   2.515   4.141  15.364  0.0562  0.3438  0.1381
  691TMC3    C610272   2.419   4.213  15.292  0.4485 -0.4677 -0.3981
  691TMC3     C10273   2.747   4.410  15.464  0.1139  0.0045  0.5684
  691TMC3     O10274   2.797   4.390  15.571 -0.2287 -0.1504  0.2785
  691TMC3     H10275   2.529   4.525  15.343 -3.4156 -0.6056 -2.6595
  691TMC3    H110276   2.696   4.143  15.468  0.3810  2.4286  2.1031
  691TMC3    H210277   2.320   4.172  15.275 -0.7073  1.2587  2.1250
  691TMC3    C710278   2.491   3.995  15.391  0.0791 -0.3406  0.3299
  691TMC3    C810279   2.308   4.427  15.278  0.0310  0.3533 -0.3072
  691TMC3    O110280   2.586   3.934  15.433  0.9260  0.6129 -0.6529
  691TMC3    O210281   2.282   4.517  15.362 -0.1919  0.2976 -0.4251
  692TMC3    C110282   4.142   0.660  15.802  0.0551  0.7360  0.5161
  692TMC3    C210283   4.261   0.706  15.867 -0.2825 -0.6764 -0.1516
  692TMC3    C310284   4.379   0.639  15.854 -0.3073 -0.0128 -0.6864
  692TMC3    C410285   4.144   0.563  15.713  1.0165 -0.1352  0.8771
  692TMC3    C510286   4.268   0.500  15.701 -0.8251 -0.0997 -0.3307
  692TMC3    C610287   4.373   0.526  15.784  0.5987  0.8293  0.5460
  692TMC3     C10288   4.021   0.739  15.804  0.1068 -0.2418 -1.0979
  692TMC3     O10289   3.920   0.677  15.777  0.0721  0.1171  0.1241
  692TMC3     H10290   4.240   0.770  15.952 -1.4910 -0.6802 -0.4474
  692TMC3    H110291   4.050   0.532  15.670  0.9202 -0.8850  1.6050
  692TMC3    H210292   4.462   0.478  15.745 -0.9711 -1.5142 -0.2136
  692TMC3    C710293   4.262   0.360  15.672  0.0714 -0.1414  0.4139
  692TMC3    C810294   4.445   0.618  15.980 -0.3475 -0.9150  0.5459
  692TMC3    O110295   4.175   0.328  15.593  0.1030 -0.2032 -0.3356
  692TMC3    O210296   4.492   0.509  16.006 -0.0596  0.1078  0.0931
  693MPD2     C10297   3.782   2.906  10.477  0.1956 -0.2883 -0.1153
  693MPD2    C110298   3.716   2.868  10.592  0.4780 -0.2615 -0.1070
  693MPD2    C210299   3.760   2.756  10.660  0.1388 -0.2000  0.2961
  693MPD2    C310300   3.857   2.677  10.601  0.2028  0.2244 -0.6470
  693MPD2    C410301   3.912   2.712  10.476 -0.1925  0.3330  0.1708
  693MPD2    C510302   3.875   2.828  10.420 -0.0672 -0.3622 -1.1409
  693MPD2     H10303   3.701   2.709  10.738 -0.9035  1.7003  0.6606
  693MPD2    H110304   3.984   2.646  10.429 -1.7826 -0.5376 -1.0551
  693MPD2    H210305   3.763   3.008  10.447  0.5987 -0.7762 -2.0226
  693MPD2    H310306   3.914   2.859  10.324  0.2274  0.7189 -0.6773
  693MPD2     N10307   3.901   2.558  10.666 -0.1515  0.1610 -0.1264
  693MPD2    H510308   3.958   2.495  10.611  0.4894 -0.6879  1.4896
  693MPD2    N110309   3.616   2.951  10.645  0.4950  0.5139 -0.0195
  693MPD2    H710310   3.582   3.028  10.588 -1.3363 -1.1515 -1.1945
  694TMC3    C110311   3.418   2.988  10.778  0.4850 -1.0055  0.0133
  694TMC3    C210312   3.358   3.026  10.667  0.3003 -0.0796 -0.4390
  694TMC3    C310313   3.222   3.044  10.670 -0.1000  0.3097 -0.5409
  694TMC3    C410314   3.357   2.981  10.897  0.4954 -0.1045 -0.3083
  694TMC3    C510315   3.221   3.007  10.901  0.4512 -0.4934  1.3870
  694TMC3    C610316   3.156   3.047  10.789  0.2867  0.4610  0.1678
  694TMC3     C10317   3.554   2.930  10.773  0.4396  0.3225 -0.0397
  694TMC3     O10318   3.596   2.865  10.866  0.5158 -0.7070 -0.1801
  694TMC3     H10319   3.400   2.995  10.572 -0.3902 -0.0272 -0.7602
  694TMC3    H110320   3.415   2.940  10.979  0.7723  0.8956  0.0092
  694TMC3    H210321   3.056   3.088  10.800  0.1220 -0.0017  0.4029
  694TMC3    C710322   3.181   3.045  11.039 -0.2690  0.2853 -0.3726
  694TMC3    C810323   3.154   3.092  10.555 -0.0805  0.5697  0.6798
  694TMC3    O110324   3.270   3.092  11.104  0.1264  0.5082 -0.5880
  694TMC3    O210325   3.227   3.124  10.464 -0.1550 -0.2016  0.3484
  695MPD2     C10326   0.021   0.381  13.564 -0.0838  0.4454  0.0425
  695MPD2    C110327   4.656   0.398  13.655 -0.1161  0.8648 -0.1104
  695MPD2    C210328   4.530   0.440  13.615  0.0843  0.2161 -0.0664
  695MPD2    C310329   4.496   0.462  13.480  0.6190  0.2087 -0.4345
  695MPD2    C410330   4.600   0.445  13.390  0.1379  0.8164  0.0666
  695MPD2    C510331   4.722   0.399  13.436  0.1435  0.2155 -0.1898
  695MPD2     H10332   4.461   0.449  13.698 -1.4805 -2.2245 -1.1253
  695MPD2    H110333   4.589   0.464  13.284 -0.3349  1.3512  0.2086
  695MPD2    H210334   0.127   0.370  13.584 -0.3028  0.4629  1.2729
  695MPD2    H310335   0.062   0.396  13.358  2.3716 -0.3799  1.9952
  695MPD2     N10336   4.366   0.500  13.450 -0.1999  0.1096 -0.2993
  695MPD2    H510337   4.300   0.532  13.520  0.7058 -2.7839  1.8668
  695MPD2    N110338   4.678   0.392  13.794 -0.3050 -0.1179 -0.5328
  695MPD2    H710339   4.602   0.406  13.860  1.3200 -0.0321  1.3043
  696TMC3    C110340   4.190   0.553  13.306 -0.7560 -0.1347 -0.5198
  696TMC3    C210341   4.101   0.582  13.403  0.1678  0.0082  0.3000
  696TMC3    C310342   4.013   0.680  13.381 -0.6233 -0.2010  0.0318
  696TMC3    C410343   4.186   0.623  13.192 -0.6309  0.4346 -0.0037
  696TMC3    C510344   4.099   0.722  13.173  0.3558  0.0134  0.0009
  696TMC3    C610345   4.010   0.756  13.267 -0.0927  0.0176  0.5446
  696TMC3     C10346   4.312   0.487  13.324 -0.1883 -0.4121  0.3374
  696TMC3     O10347   4.355   0.428  13.229  0.0235  0.4237 -0.6771
  696TMC3     H10348   4.085   0.517  13.488 -0.1766 -1.7101 -1.0825
  696TMC3    H110349   4.252   0.589  13.113 -1.4798  0.5908 -0.7807
  696TMC3    H210350   3.929   0.825  13.248  0.6064 -0.1054 -2.8624
  696TMC3    C710351   4.113   0.800  13.052 -0.6660 -0.9787 -0.4916
  696TMC3    C810352   3.886   0.656  13.446 -0.2580 -0.2868  0.8491
  696TMC3    O110353   4.162   0.749  12.954  0.5303  0.1240  0.0168
  696TMC3    O210354   3.855   0.532  13.440 -0.1157  0.8621  0.5972
  697MPD2     C10355   3.806   2.129  15.682  0.1607 -0.0932  0.2608
  697MPD2    C110356   3.841   2.066  15.561  0.3746  0.0866  0.1783
  697MPD2    C210357   3.929   2.139  15.476 -0.1610 -0.0014 -0.4223
  697MPD2    C310358   3.970   2.271  15.511 -0.3793 -0.4175  0.4176
  697MPD2    C410359   3.941   2.322  15.634 -1.0018 -0.2260 -0.1984
  697MPD2    C510360   3.863   2.249  15.716  0.4529  0.5838  0.3889
  697MPD2     H10361   3.955   2.094  15.380 -1.2828 -3.2907  0.7939
  697MPD2    H110362   3.966   2.425  15.657  1.5767 -0.9041  0.0372
  697MPD2    H210363   3.773   2.070  15.767 -0.7141 -0.9606 -0.6883
  697MPD2    H310364   3.830   2.283  15.814 -0.1501 -0.0893  0.4217
  697MPD2     N10365   4.048   2.348  15.420  0.8192  0.1633  0.8071
  697MPD2    H510366   4.075   2.440  15.453 -2.0012  1.4517 -0.4733
  697MPD2    N110367   3.815   1.932  15.527  0.5745 -0.4735 -0.3051
  697MPD2    H710368   3.863   1.888  15.449  0.4686  0.7441 -1.0598
  698TMC3    C110369   4.183   2.389  15.238 -0.3784  0.7188  0.3576
  698TMC3    C210370   4.240   2.491  15.311  0.2106  0.1809 -0.4387
  698TMC3    C310371   4.332   2.574  15.236  0.3536  0.7700 -0.1975
  698TMC3    C410372   4.216   2.371  15.102  0.5564 -0.1785 -0.1128
  698TMC3    C510373   4.300   2.455  15.045  0.5955 -0.0401  0.7117
  698TMC3    C610374   4.373   2.547  15.108 -0.9796  0.8675  0.2653
  698TMC3     C10375   4.092   2.298  15.301 -0.0961 -0.9454  0.0252
  698TMC3     O10376   4.055   2.204  15.226  0.0472  0.7399 -0.1280
  698TMC3     H10377   4.231   2.511  15.417  1.4440 -1.3720 -0.0337
  698TMC3    H110378   4.166   2.286  15.056  1.6300 -0.3974 -0.8805
  698TMC3    H210379   4.447   2.607  15.056 -0.7396  0.0280 -0.3566
  698TMC3    C710380   4.279   2.464  14.897 -0.2292  0.0980  0.1298
  698TMC3    C810381   4.432   2.630  15.316  0.5052 -0.6724  0.5855
  698TMC3    O110382   4.190   2.399  14.850 -0.1744  0.2656  0.1080
  698TMC3    O210383   4.470   2.555  15.405 -0.1073 -0.2427  0.0007
  699TMC3    C110384   3.843   0.894  12.700  0.1625  0.6226 -0.4438
  699TMC3    C210385   3.884   0.769  12.742  0.0621 -0.1235  0.6467
  699TMC3    C310386   3.786   0.680  12.767 -0.6150 -0.8389  0.9901
  699TMC3    C410387   3.715   0.935  12.693  1.0505  0.0497  0.5480
  699TMC3    C510388   3.618   0.843  12.734  0.0433  1.6917  0.8567
  699TMC3    C610389   3.656   0.715  12.765 -0.2434 -0.5404 -0.0109
  699TMC3     C10390   3.944   0.985  12.642 -0.1716 -0.1522 -0.4274
  699TMC3     O10391   4.038   0.932  12.585  0.0537 -0.1655  0.5503
  699TMC3     H10392   3.989   0.741  12.737  0.5731  2.0157 -0.6282
  699TMC3    H110393   3.695   1.040  12.676  0.0068 -0.3420 -0.6422
  699TMC3    H210394   3.579   0.655  12.812  1.0518 -2.1982 -0.0345
  699TMC3    C710395   3.509   0.895  12.814  0.9998 -0.8332  0.1046
  699TMC3    C810396   3.810   0.564  12.846 -0.5669  0.1066  0.0809
  699TMC3    O110397   3.479   0.828  12.913 -0.4615 -0.1043 -0.3342
  699TMC3    O210398   3.712   0.493  12.882  0.0876  0.1369 -0.8429
  700TMC3    C110399   3.101   2.975  17.035  0.2148  0.1904 -0.1076
  700TMC3    C210400   3.180   2.871  16.993 -0.2042  0.0275  0.6147
  700TMC3    C310401   3.243   2.801  17.088  0.3918  0.1753 -0.9169
  700TMC3    C410402   3.101   3.018  17.164 -0.1165 -0.2307 -0.2334
  700TMC3    C510403   3.178   2.950  17.251 -0.1287  0.2026 -0.1566
  700TMC3    C610404   3.239   2.834  17.218 -0.1605 -0.4369 -0.1002
  700TMC3     C10405   3.074   3.070  16.930 -0.6414 -0.1583  0.3995
  700TMC3     O10406   2.957   3.090  16.906 -0.0614  0.7977  0.4337
  700TMC3     H10407   3.182   2.849  16.887 -0.2300  2.0365  0.1961
  700TMC3    H110408   3.055   3.114  17.189 -0.6706 -1.2435  2.6909
  700TMC3    H210409   3.297   2.779  17.291  0.0341  2.3649  1.8741
  700TMC3    C710410   3.230   3.023  17.359  0.6008 -1.2016 -0.3236
  700TMC3    C810411   3.364   2.726  17.049  0.2000  0.2589  0.1375
  700TMC3    O110412   3.351   3.044  17.356  0.2946 -0.1763 -0.2164
  700TMC3    O210413   3.469   2.787  17.070 -0.0380  0.2121 -0.8741
  701TMC3    C110414   3.147   1.784  15.140  0.2452 -0.2680  0.1163
  701TMC3    C210415   3.123   1.786  15.005  0.1254 -0.0544 -0.0500
  701TMC3    C310416   3.220   1.849  14.933 -0.0474  0.3848  0.9349
  701TMC3    C410417   3.248   1.849  15.206  0.1161  0.6642 -0.4816
  701TMC3    C510418   3.341   1.911  15.129  0.5828  1.4618 -0.7129
  701TMC3    C610419   3.337   1.909  14.994 -0.1654 -0.2831  0.4040
  701TMC3     C10420   3.047   1.729  15.224  0.1442  0.0868 -0.5588
  701TMC3     O10421   3.054   1.757  15.341  0.1948  0.1735  0.1499
  701TMC3     H10422   3.032   1.747  14.961 -0.0218 -1.9283  1.8759
  701TMC3    H110423   3.270   1.816  15.306 -1.4617 -0.9276 -0.6565
  701TMC3    H210424   3.401   1.958  14.922 -0.9625  1.4436  0.8590
  701TMC3    C710425   3.416   2.028  15.181 -0.1644  0.0167  0.8436
  701TMC3    C810426   3.209   1.855  14.790 -0.2003  0.5537  0.3644
  701TMC3    O110427   3.488   2.087  15.106 -0.9669 -0.4650 -0.5737
  701TMC3    O210428   3.293   1.916  14.726 -0.1984 -0.0265 -0.1703
  702MPD2     C10429   2.433   3.793  10.443  0.0607 -0.0984  0.4849
  702MPD2    C110430   2.348   3.901  10.420 -0.7074 -0.0430 -0.5245
  702MPD2    C210431   2.390   3.989  10.324  0.4444  0.1474  0.0108
  702MPD2    C310432   2.520   3.990  10.274  0.3664  0.0104 -0.3824
  702MPD2    C410433   2.596   3.875  10.294  0.2469 -0.4910 -1.0661
  702MPD2    C510434   2.548   3.780  10.372  0.3642 -0.2554 -0.6540
  702MPD2     H10435   2.318   4.064  10.295 -0.3258 -0.9182 -0.8456
  702MPD2    H110436   2.692   3.867  10.243  0.4055 -0.8475 -0.7148
  702MPD2    H210437   2.416   3.721  10.522 -1.5803 -0.0869  0.1266
  702MPD2    H310438   2.605   3.688  10.378  0.6017  0.1072  2.5716
  702MPD2     N10439   2.567   4.093  10.190  0.1592  0.5107 -0.5636
  702MPD2    H510440   2.662   4.088  10.156  1.6402 -0.2461  3.6979
  702MPD2    N110441   2.224   3.922  10.483  0.0723 -0.0217 -0.0234
  702MPD2    H710442   2.169   4.000  10.448  0.7468  1.1762  1.6149
  703TMC3    C110443   2.572   4.315  10.101 -0.4384  0.0392 -0.4455
  703TMC3    C210444   2.507   4.435  10.086 -0.3096 -0.9053 -0.7032
  703TMC3    C310445   2.572   4.553  10.108  0.0376  0.3313 -0.0550
  703TMC3    C410446   2.701   4.321  10.147 -0.0483 -0.2315  0.1535
  703TMC3    C510447   2.762   4.441  10.168 -0.0040  0.5433  0.3305
  703TMC3    C610448   2.701   4.557  10.137 -0.1709 -0.5713  0.3445
  703TMC3     C10449   2.492   4.206  10.165 -1.1147 -0.0517 -0.1857
  703TMC3     O10450   2.375   4.233  10.185  0.0316 -0.0472 -0.0450
  703TMC3     H10451   2.408   4.433  10.042 -0.9499 -0.5978  0.7100
  703TMC3    H110452   2.767   4.235  10.145 -0.1129 -0.2698 -0.3068
  703TMC3    H210453   2.754   4.651  10.139 -0.6844 -0.2969  1.0977
  703TMC3    C710454   2.906   4.442  10.184  0.9919 -0.0419  0.0212
  703TMC3    C810455   2.504   4.665  10.172  0.5748 -0.0844 -0.2369
  703TMC3    O110456   2.967   4.546  10.166 -0.3794 -0.6844  0.0021
  703TMC3    O210457   2.559   0.038  10.170  0.2438  0.6563 -0.3710
  704TMC3    C110458   1.008   2.441  12.323  0.4278 -0.4184  0.6468
  704TMC3    C210459   1.111   2.435  12.234 -0.0764  0.0536  0.0057
  704TMC3    C310460   1.205   2.340  12.245  0.7077  0.2489 -0.3127
  704TMC3    C410461   1.010   2.372  12.445 -0.1476  0.4285  0.0589
  704TMC3    C510462   1.105   2.280  12.464 -0.0871  0.0124 -0.0796
  704TMC3    C610463   1.202   2.268  12.363  0.4379 -0.7102  0.1004
  704TMC3     C10464   0.884   2.479  12.269 -0.3986 -0.2912  0.2334
  704TMC3     O10465   0.794   2.490  12.350  0.0071  0.0528  0.0971
  704TMC3     H10466   1.110   2.501  12.149 -2.1039 -0.4728 -0.3825
  704TMC3    H110467   0.914   2.351  12.491 -0.2221  0.4951 -0.0704
  704TMC3    H210468   1.280   2.199  12.393  1.6990  1.1854  1.1310
  704TMC3    C710469   1.070   2.164  12.546 -0.2845  0.2191  1.0946
  704TMC3    C810470   1.201   2.252  12.135 -0.1472 -0.1364 -0.0606
  704TMC3    O110471   1.125   2.056  12.516 -0.3457  0.5967  0.1564
  704TMC3    O210472   1.093   2.257  12.079 -0.2370  0.1716 -0.0624
  705MPD2     C10473   4.652   0.064  16.407 -0.3628 -0.2570  0.3797
  705MPD2    C110474   4.635   0.201  16.404  0.7613  0.5243  0.3350
  705MPD2    C210475   4.513   0.259  16.423  0.1514  0.1618  1.0836
  705MPD2    C310476   4.404   0.177  16.442  0.3819 -0.0974 -0.0630
  705MPD2    C410477   4.420   0.043  16.439 -0.0633 -0.0346 -0.6308
  705MPD2    C510478   4.545   4.724  16.440  0.3218 -0.1598 -0.5435
  705MPD2     H10479   4.504   0.366  16.437  1.4786  0.3804  0.2889
  705MPD2    H110480   4.336   4.711  16.444  0.0516 -0.1879 -0.7558
  705MPD2    H210481   0.005   0.006  16.382  0.0683 -0.3046  1.9972
  705MPD2    H310482   4.540   4.617  16.428 -0.8326 -0.2463  0.6751
  705MPD2     N10483   4.282   0.236  16.467 -0.5934  0.3022  0.3385
  705MPD2    H510484   4.281   0.335  16.489 -0.7577  0.3505  0.1040
  705MPD2    N110485   4.735   0.290  16.363  0.7819  0.6819 -0.2615
  705MPD2    H710486   4.700   0.377  16.324  0.6215  0.4297 -0.6815
  706TMC3    C110487   0.298   0.365  16.053 -0.2120  0.4866 -0.7828
  706TMC3    C210488   0.237   0.485  16.029 -1.0640 -0.3639  0.0017
  706TMC3    C310489   0.171   0.549  16.132  0.1318 -0.4242 -0.0192
  706TMC3    C410490   0.276   0.299  16.171  0.0602  0.5306  0.6002
  706TMC3    C510491   0.192   0.361  16.262 -0.5453  0.0710 -0.7310
  706TMC3    C610492   0.150   0.491  16.249 -0.6857  0.4893 -0.1208
  706TMC3     C10493   0.320   0.282  15.935 -0.3703  0.4020  0.4349
  706TMC3     O10494   0.392   0.180  15.937 -0.0720 -0.4180  0.5946
  706TMC3     H10495   0.265   0.537  15.939  0.4256  0.5394  0.9788
  706TMC3    H110496   0.309   0.200  16.199 -0.8247 -0.1143 -0.6538
  706TMC3    H210497   0.086   0.517  16.333 -2.3612 -0.3172 -1.1448
  706TMC3    C710498   0.131   0.257  16.350 -0.4601  0.4998 -0.2369
  706TMC3    C810499   0.131   0.686  16.111 -1.1670  0.2901  0.0713
  706TMC3    O110500   0.196   0.163  16.386 -0.1767  0.0199  0.0058
  706TMC3    O210501   0.118   0.718  15.997  0.6121 -0.1723 -0.1170
  707TMC3    C110502   3.294   4.078   1.984 -0.6353  0.7088 -0.1344
  707TMC3    C210503   3.425   4.071   1.931 -0.0517  0.5944 -0.0498
  707TMC3    C310504   3.528   4.072   2.023 -0.1226 -0.2399 -0.0276
  707TMC3    C410505   3.267   4.098   2.118 -0.3068 -0.7933  0.3216
  707TMC3    C510506   3.379   4.091   2.197 -0.1010 -0.5176  0.1180
  707TMC3    C610507   3.513   4.079   2.159 -0.8182  0.1174  0.3784
  707TMC3     C10508   3.183   4.064   1.893 -0.3573 -0.4898  0.3092
  707TMC3     O10509   3.218   4.053   1.775  0.1692 -0.7499  1.0333
  707TMC3     H10510   3.439   4.069   1.824 -1.0440  2.1084 -0.2140
  707TMC3    H110511   3.164   4.100   2.149 -0.5414  2.5393 -0.6927
  707TMC3    H210512   3.597   4.064   2.226 -1.6153  1.9787  1.8368
  707TMC3    C710513   3.375   4.128   2.339 -0.3045  0.3048  0.0075
  707TMC3    C810514   3.662   4.094   1.973 -0.5319  0.1546 -0.0850
  707TMC3    O110515   3.468   4.174   2.399  0.3833 -0.0100  0.8748
  707TMC3    O210516   3.731   4.163   2.046  0.2171  0.2083  0.0957
  708MPD2     C10517   3.187   3.480  13.070 -0.9945  0.0315 -0.1035
  708MPD2    C110518   3.081   3.567  13.081 -0.3373 -0.3871 -0.3805
  708MPD2    C210519   3.012   3.567  13.200  0.4555  0.6091 -0.5453
  708MPD2    C310520   3.029   3.478  13.300 -1.1350 -0.6362  0.1678
  708MPD2    C410521   3.151   3.402  13.293 -0.6356 -0.5839 -0.2617
  708MPD2    C510522   3.234   3.412  13.183  0.7952  0.3217 -0.2376
  708MPD2     H10523   2.934   3.639  13.222 -1.8248 -1.4544 -1.9368
  708MPD2    H110524   3.170   3.342  13.381 -0.7748 -0.3467 -0.0713
  708MPD2    H210525   3.259   3.480  12.989  0.8761 -1.3678  1.5571
  708MPD2    H310526   3.319   3.344  13.186  0.2448 -0.3793 -0.5499
  708MPD2     N10527   2.939   3.462  13.410 -0.8771 -0.5072  0.5406
  708MPD2    H510528   2.972   3.405  13.487  1.5653  0.9497  0.5771
  708MPD2    N110529   3.063   3.656  12.972  0.3148 -0.0868  0.4865
  708MPD2    H710530   3.116   3.636  12.888  0.4879 -0.6427  0.7316
  709TMC3    C110531   2.940   3.834  12.857 -0.7277 -0.0759 -0.5910
  709TMC3    C210532   2.931   3.763  12.745 -0.1258  0.9892  0.7885
  709TMC3    C310533   2.824   3.799  12.661  0.1236  0.1239 -0.3444
  709TMC3    C410534   2.850   3.935  12.898  0.7890  0.2498 -0.4295
  709TMC3    C510535   2.743   3.960  12.816  0.6101 -0.0874  0.7273
  709TMC3    C610536   2.729   3.892  12.697  0.5677 -0.4091 -0.8283
  709TMC3     C10537   2.976   3.761  12.974  0.2347  0.6058 -0.3699
  709TMC3     O10538   2.905   3.791  13.069  0.6284  0.3546 -0.4408
  709TMC3     H10539   3.013   3.703  12.708 -0.6298 -0.4708  2.0446
  709TMC3    H110540   2.859   3.994  12.988  1.2875  0.2318 -0.4680
  709TMC3    H210541   2.639   3.918  12.642 -0.8243 -3.4866  0.0158
  709TMC3    C710542   2.624   3.997  12.891 -0.1595  0.5850  0.1068
  709TMC3    C810543   2.839   3.769  12.521 -0.9960 -0.3074  0.0186
  709TMC3    O110544   2.542   4.078  12.851  0.3008 -0.4447 -0.2375
  709TMC3    O210545   2.927   3.691  12.491 -0.3766 -0.9812 -0.6604
  710TMC3    C110546   0.135   0.388   0.423  0.1116  0.9881  0.0695
  710TMC3    C210547   0.206   0.362   0.309  0.8861  0.1051 -0.0422
  710TMC3    C310548   0.317   0.283   0.317 -0.0838  0.4080 -0.0845
  710TMC3    C410549   0.167   0.334   0.544 -0.0397  0.3908 -0.1358
  710TMC3    C510550   0.278   0.258   0.552 -0.1605 -0.3618 -0.2790
  710TMC3    C610551   0.349   0.232   0.441  0.1071  0.1038  0.0498
  710TMC3     C10552   0.026   0.490   0.421 -0.0581  0.0296  0.9525
  710TMC3     O10553   0.015   0.559   0.322 -0.2841 -0.2326 -0.1601
  710TMC3     H10554   0.166   0.402   0.217 -0.0323  1.7508  1.0609
  710TMC3    H110555   0.129   0.366   0.640  3.2888  2.5410  0.4697
  710TMC3    H210556   0.451   0.194   0.448  0.2080  0.2139 -0.7708
  710TMC3    C710557   0.312   0.219   0.688 -0.2556 -0.4753  0.1251
  710TMC3    C810558   0.382   0.254   0.190  0.0473 -0.0854 -0.0544
  710TMC3    O110559   0.219   0.206   0.766 -0.2170  0.0171  0.2344
  710TMC3    O210560   0.351   0.317   0.090 -0.0576 -0.4885 -0.2231
  711TMC3    C110561   3.886   1.356  14.877  0.2701  0.3275  0.3462
  711TMC3    C210562   3.809   1.327  14.985 -0.7869 -0.0275  0.0665
  711TMC3    C310563   3.812   1.407  15.093  0.1517  0.3823 -0.4971
  711TMC3    C410564   3.988   1.455  14.886 -0.2465 -1.2988  0.4084
  711TMC3    C510565   3.983   1.542  14.998  0.2208  0.7092 -0.1386
  711TMC3    C610566   3.891   1.514  15.102 -0.0708  0.0572 -0.9456
  711TMC3     C10567   3.842   1.309  14.747 -0.4646 -0.1410  0.6061
  711TMC3     O10568   3.753   1.221  14.744 -0.0735  0.5064 -0.2459
  711TMC3     H10569   3.749   1.236  14.989 -4.3215  2.3402  1.1147
  711TMC3    H110570   4.072   1.456  14.817  0.5233 -1.6441  1.3418
  711TMC3    H210571   3.875   1.590  15.177  0.8939  1.4162 -2.1281
  711TMC3    C710572   4.107   1.572  15.060 -0.1788  0.2222  0.7334
  711TMC3    C810573   3.815   1.334  15.217  0.0748  0.3952 -0.5381
  711TMC3    O110574   4.118   1.540  15.176  0.5631  0.5209  0.2070
  711TMC3    O210575   3.722   1.257  15.240  0.3760  0.0414 -0.4136
  712MPD2     C10576   0.431   2.323  13.171 -0.4689 -0.4423  0.5305
  712MPD2    C110577   0.330   2.311  13.256  0.2315  0.0301  0.5832
  712MPD2    C210578   0.330   2.367  13.385 -0.0547  0.1063 -0.0318
  712MPD2    C310579   0.449   2.417  13.435  0.1950 -1.3723  0.3510
  712MPD2    C410580   0.557   2.420  13.349  0.2443 -0.6156 -0.4154
  712MPD2    C510581   0.548   2.376  13.218  0.2742 -0.3183 -0.8905
  712MPD2     H10582   0.251   2.345  13.456 -0.8048  0.9162 -0.6342
  712MPD2    H110583   0.648   2.468  13.385 -1.7802  2.7640  0.1536
  712MPD2    H210584   0.431   2.276  13.073 -1.8596  1.4730 -0.3702
  712MPD2    H310585   0.632   2.370  13.150  0.5760  2.2713 -0.7445
  712MPD2     N10586   0.460   2.478  13.563 -0.6015  0.9775  0.0380
  712MPD2    H510587   0.553   2.504  13.594  1.3274 -2.3860 -2.8785
  712MPD2    N110588   0.229   2.227  13.207 -0.2961  0.4305  0.4432
  712MPD2    H710589   0.242   2.167  13.127 -0.0888  0.2488  0.6132
  713TMC3    C110590   0.412   2.596  13.754 -0.3959 -0.4507  0.2173
  713TMC3    C210591   0.543   2.564  13.793 -0.5293  0.3380 -0.3288
  713TMC3    C310592   0.590   2.646  13.897 -0.6332  0.1791  0.3004
  713TMC3    C410593   0.342   2.707  13.802  0.8055  0.1684 -0.0697
  713TMC3    C510594   0.400   2.781  13.903 -0.9211  0.1430  0.0311
  713TMC3    C610595   0.515   2.739  13.957 -0.2226  0.1249  0.0927
  713TMC3     C10596   0.355   2.529  13.638 -0.6893  0.9946  0.9859
  713TMC3     O10597   0.240   2.547  13.606 -0.1276  0.0644  0.0418
  713TMC3     H10598   0.596   2.478  13.753  0.1028 -0.0664  1.4098
  713TMC3    H110599   0.249   2.720  13.747 -0.2146  0.1701  1.6299
  713TMC3    H210600   0.571   2.798  14.029 -0.6530 -0.6687  1.0726
  713TMC3    C710601   0.374   2.923  13.912 -0.0184  0.4073 -0.3636
  713TMC3    C810602   0.732   2.653  13.895 -0.5097 -0.4062 -0.2494
  713TMC3    O110603   0.461   2.987  13.972 -0.2692  0.0222  0.1366
  713TMC3    O210604   0.785   2.625  13.789 -0.3625  0.0972 -0.5721
  714MPD2     C10605   3.448   1.245   1.316  0.5368 -0.0208 -1.0781
  714MPD2    C110606   3.404   1.159   1.217  0.5135  0.9194  0.6407
  714MPD2    C210607   3.325   1.211   1.113 -0.0193  0.0702 -0.4530
  714MPD2    C310608   3.285   1.341   1.109  0.0221  1.0793 -0.0573
  714MPD2    C410609   3.320   1.423   1.215  0.4434 -0.4389  0.6978
  714MPD2    C510610   3.415   1.377   1.308  0.4386 -0.3092 -0.5940
  714MPD2     H10611   3.287   1.147   1.035 -0.4091  1.5329 -1.4764
  714MPD2    H110612   3.304   1.530   1.215 -0.6321 -0.5954  0.4753
  714MPD2    H210613   3.510   1.208   1.397 -0.0728 -1.5503 -1.3043
  714MPD2    H310614   3.445   1.435   1.394  1.5261 -0.0485 -1.1428
  714MPD2     N10615   3.191   1.379   1.015 -0.4061 -0.8814 -0.0372
  714MPD2    H510616   3.172   1.305   0.948  0.6978 -0.7220 -0.5305
  714MPD2    N110617   3.448   1.022   1.231 -0.7335 -0.7281  0.2650
  714MPD2    H710618   3.501   1.005   1.316 -1.0293  0.0985  0.6148
  715TMC3    C110619   3.470   0.792   1.196 -0.1983  0.2014  0.5915
  715TMC3    C210620   3.520   0.707   1.099  0.2800  0.4815  0.6949
  715TMC3    C310621   3.594   0.605   1.144  0.5557  0.6237 -0.1583
  715TMC3    C410622   3.475   0.759   1.334  0.4009  0.0064  0.2076
  715TMC3    C510623   3.558   0.658   1.372  0.3155  0.2760 -0.0270
  715TMC3    C610624   3.617   0.577   1.280 -0.4030 -0.4687 -0.2797
  715TMC3     C10625   3.425   0.921   1.149  0.0217 -0.6201 -0.4963
  715TMC3     O10626   3.393   0.932   1.034  0.0074 -0.4115 -0.3812
  715TMC3     H10627   3.504   0.709   0.991  0.0967 -1.1735  0.6973
  715TMC3    H110628   3.436   0.830   1.407  0.3479  0.8111 -0.6027
  715TMC3    H210629   3.666   0.483   1.304 -1.3089 -0.4247  1.7124
  715TMC3    C710630   3.579   0.622   1.507  0.9794 -0.2691  0.2405
  715TMC3    C810631   3.664   0.524   1.043  0.2283 -0.6673  0.8562
  715TMC3    O110632   3.694   0.582   1.534  0.2114 -0.1026  0.3185
  715TMC3    O210633   3.628   0.525   0.924  0.3139  0.1557 -0.2950
  716MPD2     C10634   1.776   3.327   9.893 -0.5010 -0.9582 -0.5690
  716MPD2    C110635   1.716   3.359   9.777  0.3770  0.5419 -0.5497
  716MPD2    C210636   1.796   3.390   9.674  0.1944  0.7778 -0.8056
  716MPD2    C310637   1.931   3.415   9.685 -0.5858  0.0590  0.4086
  716MPD2    C410638   1.988   3.393   9.805  0.2364 -0.5315 -0.1532
  716MPD2    C510639   1.908   3.347   9.906  0.3047  0.5537 -0.1908
  716MPD2     H10640   1.757   3.403   9.574 -0.0360  1.6948 -0.5924
  716MPD2    H110641   2.095   3.402   9.817  0.2811 -0.6292 -0.4811
  716MPD2    H210642   1.730   3.299   9.987  2.7930  2.1594  1.9930
  716MPD2    H310643   1.957   3.333  10.002  1.7619  2.4939 -0.6545
  716MPD2     N10644   1.997   3.446   9.571 -0.1643  0.2828 -0.0743
  716MPD2    H510645   1.955   3.431   9.480  1.8962  1.1861 -1.1717
  716MPD2    N110646   1.576   3.373   9.779  0.2536 -0.2604  0.6193
  716MPD2    H710647   1.531   3.377   9.869  1.1218 -1.0089  1.0888
  717TMC3    C110648   2.166   3.491   9.421 -0.2539 -0.0200 -0.1968
  717TMC3    C210649   2.093   3.415   9.327  0.5358 -0.3521 -0.1846
  717TMC3    C310650   2.137   3.412   9.191 -0.7251  0.0872  0.3160
  717TMC3    C410651   2.266   3.573   9.390  0.5401 -0.0392  0.7931
  717TMC3    C510652   2.299   3.575   9.257  0.5382 -0.5188  0.3334
  717TMC3    C610653   2.236   3.504   9.160 -0.4079  0.0713 -0.0118
  717TMC3     C10654   2.122   3.495   9.555 -0.0889  0.1609  0.4765
  717TMC3     O10655   2.212   3.526   9.633  0.0422 -0.3040  0.2822
  717TMC3     H10656   2.024   3.336   9.355 -1.1298  1.9765  2.1826
  717TMC3    H110657   2.319   3.630   9.465  0.2825  0.1709  0.8142
  717TMC3    H210658   2.270   3.521   9.058 -1.4816 -0.0350 -0.3955
  717TMC3    C710659   2.366   3.696   9.206  0.2847 -0.7552 -0.5399
  717TMC3    C810660   2.078   3.322   9.097 -0.5541  0.2789  0.5900
  717TMC3    O110661   2.336   3.731   9.093  0.0219  0.4594  0.1121
  717TMC3    O210662   1.982   3.261   9.141  0.1091 -0.2837  0.5512
  718MPD2     C10663   2.224   2.323  13.233  0.4925  0.5094 -0.6589
  718MPD2    C110664   2.209   2.231  13.133  0.3761 -0.5817 -0.8911
  718MPD2    C210665   2.076   2.198  13.098 -0.2380  0.7129  0.1509
  718MPD2    C310666   1.966   2.248  13.164 -0.2273  1.1699  0.0128
  718MPD2    C410667   1.980   2.343  13.268  0.6873 -0.4381 -0.1374
  718MPD2    C510668   2.111   2.376  13.297  0.1740 -0.5722  0.8350
  718MPD2     H10669   2.053   2.144  13.007  2.5832 -1.8938  0.9943
  718MPD2    H110670   1.897   2.389  13.319  2.1643  2.4265 -0.3311
  718MPD2    H210671   2.320   2.348  13.277  1.5842 -1.0372 -2.1640
  718MPD2    H310672   2.128   2.450  13.374 -0.1410  0.2158  0.1533
  718MPD2     N10673   1.845   2.207  13.110  0.2722 -0.1832  0.0580
  718MPD2    H510674   1.853   2.138  13.035 -0.6037 -0.7691  0.5036
  718MPD2    N110675   2.322   2.175  13.062 -0.0557  1.0195 -0.7853
  718MPD2    H710676   2.409   2.220  13.087 -0.4624  0.5255  1.5739
  719TMC3    C110677   2.444   2.074  12.883  0.1056  0.3771 -0.4919
  719TMC3    C210678   2.423   1.981  12.791 -0.2987  0.1105 -0.2568
  719TMC3    C310679   2.461   2.004  12.661  0.0085 -0.0410  0.2773
  719TMC3    C410680   2.509   2.185  12.864 -0.6800  0.1730 -0.2972
  719TMC3    C510681   2.550   2.209  12.737 -0.4405  0.1451 -0.1101
  719TMC3    C610682   2.519   2.125  12.634  0.1827 -0.0586  0.2392
  719TMC3     C10683   2.319   2.085  12.959  0.4925 -0.4709 -0.5050
  719TMC3     O10684   2.223   2.028  12.911  0.4382 -0.2711  0.1615
  719TMC3     H10685   2.366   1.894  12.821  3.1000 -2.2073 -0.4321
  719TMC3    H110686   2.516   2.261  12.940  1.7411 -0.1691 -0.1808
  719TMC3    H210687   2.530   2.155  12.530  1.5063 -1.1818  0.0583
  719TMC3    C710688   2.595   2.344  12.696 -0.1530 -0.0215 -0.2875
  719TMC3    C810689   2.348   2.002  12.571 -0.0830 -0.2361  0.0392
  719TMC3    O110690   2.588   2.385  12.580 -0.1523  0.5420  0.1483
  719TMC3    O210691   2.367   1.998  12.449  0.5408  0.1567  0.5306
  720MPD2     C10692   0.282   4.038  14.304  0.2422 -0.5977 -0.4928
  720MPD2    C110693   0.366   4.053  14.196 -0.1146  0.0877  0.3929
  720MPD2    C210694   0.504   4.058  14.222 -0.0198  0.5028  0.3007
  720MPD2    C310695   0.551   4.062  14.354 -0.2627 -0.4808  0.5427
  720MPD2    C410696   0.466   4.034  14.455 -0.0131  0.4954 -1.2332
  720MPD2    C510697   0.333   4.013  14.423  0.1460  0.4539  0.1979
  720MPD2     H10698   0.571   4.085  14.141 -1.1676  1.8943 -0.1834
  720MPD2    H110699   0.495   4.025  14.559 -0.5070 -0.8336 -1.2154
  720MPD2    H210700   0.175   4.021  14.296  0.1404  0.2568 -0.9818
  720MPD2    H310701   0.264   3.999  14.505  0.5728  1.3391  0.7076
  720MPD2     N10702   0.683   4.098  14.369 -0.2843  0.3779  0.1220
  720MPD2    H510703   0.727   4.118  14.280  1.0017 -3.1106 -0.0423
  720MPD2    N110704   0.307   4.070  14.071  0.3370 -0.1309  0.7524
  720MPD2    H710705   0.213   4.110  14.071  0.3927 -0.0094 -0.4030
  721TMC3    C110706   0.871   4.193  14.484 -0.2049 -0.4501 -0.4974
  721TMC3    C210707   0.937   4.211  14.608  0.7441 -0.1357  0.2916
  721TMC3    C310708   1.043   4.293  14.612  0.4655  0.5939  1.0080
  721TMC3    C410709   0.919   4.253  14.370 -0.5217 -0.0475  0.1335
  721TMC3    C510710   1.030   4.326  14.382  0.4356  0.4133 -0.0503
  721TMC3    C610711   1.091   4.354  14.495  0.2361  0.2811 -0.3158
  721TMC3     C10712   0.752   4.128  14.490  0.0821 -0.5827  0.0017
  721TMC3     O10713   0.712   4.105  14.605 -0.4455 -0.2076  0.4190
  721TMC3     H10714   0.920   4.134  14.682 -0.9120 -1.8118 -1.8136
  721TMC3    H110715   0.865   4.246  14.276 -1.6733 -3.8347  1.1045
  721TMC3    H210716   1.178   4.418  14.501 -1.4420  2.3670  2.0354
  721TMC3    C710717   1.118   4.321  14.272  0.0241  0.0193 -0.3713
  721TMC3    C810718   1.134   4.264  14.721 -0.7734 -0.2509  0.6006
  721TMC3    O110719   1.210   4.404  14.273  0.2332  0.1924  0.2395
  721TMC3    O210720   1.255   4.262  14.692 -0.4110 -0.3497  0.1264
  722MPD2     C10721   4.034   2.910  13.408  0.0223 -0.2700  0.5055
  722MPD2    C110722   4.046   3.044  13.369  0.3529  1.0548  0.2420
  722MPD2    C210723   3.987   3.071  13.238 -1.3545  0.3723  1.1833
  722MPD2    C310724   3.966   2.969  13.149 -0.4398  0.0780 -0.1239
  722MPD2    C410725   3.971   2.839  13.191  0.2749  1.1501  0.2948
  722MPD2    C510726   3.990   2.810  13.325 -1.0118  0.3089  0.1284
  722MPD2     H10727   3.972   3.174  13.209 -0.5508  0.5612  1.4456
  722MPD2    H110728   3.920   2.761  13.136  1.7466  0.4800 -0.1318
  722MPD2    H210729   4.062   2.868  13.504 -0.6550 -1.9178 -0.0320
  722MPD2    H310730   4.001   2.706  13.354 -0.2973  0.5926  0.8663
  722MPD2     N10731   3.920   3.002  13.018 -0.0363  0.0035 -0.3622
  722MPD2    H510732   3.911   3.100  12.995 -1.9063 -0.7792 -3.0276
  722MPD2    N110733   4.099   3.153  13.437 -0.2419 -0.0680  0.3543
  722MPD2    H710734   4.084   3.246  13.398  0.6545  1.3067  3.2713
  723TMC3    C110735   3.932   2.973  12.781  0.3344 -0.1003  0.2812
  723TMC3    C210736   3.946   2.881  12.681 -0.1643 -0.4942  0.1024
  723TMC3    C310737   3.988   2.929  12.556 -0.0665  0.7727  0.3795
  723TMC3    C410738   3.948   3.107  12.764  0.1833  0.1750 -0.5434
  723TMC3    C510739   3.990   3.150  12.639  0.0399  1.1485 -0.3895
  723TMC3    C610740   4.018   3.059  12.537 -0.5973 -0.9271  0.4107
  723TMC3     C10741   3.931   2.915  12.915 -0.1767  0.6221  0.0860
  723TMC3     O10742   3.933   2.794  12.916  0.5367 -0.1841  0.2681
  723TMC3     H10743   3.919   2.777  12.694 -0.2279 -0.4502  0.3339
  723TMC3    H110744   3.931   3.178  12.844  0.9699 -0.0332 -0.1811
  723TMC3    H210745   4.021   3.113  12.443  1.7336  0.3562  1.2147
  723TMC3    C710746   3.990   3.294  12.604 -0.1322 -0.1497 -0.0684
  723TMC3    C810747   3.946   2.861  12.436  0.5806 -0.1914  0.2293
  723TMC3    O110748   4.044   3.333  12.504  0.4403 -0.0967 -0.0282
  723TMC3    O210749   3.939   2.935  12.341 -0.4269 -0.3401 -0.0415
  724TMC3    C110750   4.328   0.262  10.575 -0.5657  0.0245 -0.5514
  724TMC3    C210751   4.309   0.233  10.443  0.3234  0.4144 -0.4240
  724TMC3    C310752   4.410   0.266  10.356 -0.5120 -0.1553 -0.2429
  724TMC3    C410753   4.416   0.354  10.626 -0.0927 -0.0155 -0.9950
  724TMC3    C510754   4.522   0.384  10.543 -0.4835  0.0934  0.1135
  724TMC3    C610755   4.524   0.332  10.410 -0.0126  0.2568 -0.3832
  724TMC3     C10756   4.225   0.218  10.667 -0.0293 -1.1130  0.2071
  724TMC3     O10757   4.123   0.172  10.618 -0.0407 -0.2435 -0.2167
  724TMC3     H10758   4.239   0.156  10.412 -1.5142  1.2035  1.7308
  724TMC3    H110759   4.401   0.395  10.725 -3.2975 -0.5204 -1.2771
  724TMC3    H210760   4.603   0.359  10.341  0.4639 -0.6035 -0.1651
  724TMC3    C710761   4.599   0.512  10.554 -0.1007  0.3062 -0.6342
  724TMC3    C810762   4.368   0.289  10.218  0.8245  0.2264  0.0419
  724TMC3    O110763   4.648   0.554  10.449  0.2690 -0.1890  0.2206
  724TMC3    O210764   4.250   0.307  10.190  0.0735  1.2475  0.3825
  725TMC3    C110765   0.897   4.418  12.907 -0.3729 -0.6487  0.7325
  725TMC3    C210766   0.814   4.412  12.799 -0.2192 -0.0120  0.1901
  725TMC3    C310767   0.769   4.292  12.742  0.0120 -0.0271  0.2114
  725TMC3    C410768   0.941   4.303  12.962 -0.0457 -1.3872 -0.3017
  725TMC3    C510769   0.893   4.184  12.910 -0.0130 -0.2998  0.1604
  725TMC3    C610770   0.801   4.174  12.804 -0.2647  0.5750  0.3534
  725TMC3     C10771   0.909   4.540  12.983 -0.0014  0.2138 -0.1430
  725TMC3     O10772   0.912   4.643  12.918 -0.1438  0.5319 -0.5271
  725TMC3     H10773   0.790   4.505  12.747  0.1866 -0.9311 -1.6693
  725TMC3    H110774   1.017   4.309  13.039  0.2742  0.0505 -0.7235
  725TMC3    H210775   0.791   4.076  12.759 -1.0942  0.8474 -0.0396
  725TMC3    C710776   0.984   4.065  12.920  0.1076 -0.1320 -0.2267
  725TMC3    C810777   0.669   4.289  12.640 -0.0474  0.2294 -0.9651
  725TMC3    O110778   1.088   4.080  12.862 -0.3866 -0.8877 -0.7412
  725TMC3    O210779   0.605   4.184  12.634  0.0596  0.7040 -0.0332
  726MPD2     C10780   3.440   0.549  10.256 -0.3993 -0.5909  0.3213
  726MPD2    C110781   3.433   0.676  10.307 -0.6168 -0.2190 -0.3572
  726MPD2    C210782   3.352   0.699  10.418  0.0552 -0.1612 -0.1054
  726MPD2    C310783   3.274   0.593  10.466 -0.9055 -0.1439  0.1490
  726MPD2    C410784   3.264   0.475  10.404  0.2419 -0.2388  0.5797
  726MPD2    C510785   3.353   0.452  10.303 -0.4837 -0.5128 -0.1339
  726MPD2     H10786   3.350   0.791  10.475 -0.4238  1.0346 -2.0636
  726MPD2    H110787   3.198   0.399  10.445  0.4483 -0.3338  0.7311
  726MPD2    H210788   3.494   0.534  10.164  0.7455 -1.5505  1.1495
  726MPD2    H310789   3.358   0.356  10.253  1.0992 -0.3405 -0.3020
  726MPD2     N10790   3.185   0.612  10.573  0.0894  0.2161  0.3287
  726MPD2    H510791   3.110   0.546  10.588 -0.2729  0.2918 -1.1551
  726MPD2    N110792   3.497   0.791  10.260  0.4105  0.1696  0.1286
  726MPD2    H710793   3.475   0.875  10.313 -0.9295  0.2888 -0.6175
  727TMC3    C110794   3.630   0.922  10.136  0.5800 -0.3457 -0.7648
  727TMC3    C210795   3.763   0.937  10.118 -0.1697  0.4196  0.1094
  727TMC3    C310796   3.803   1.056  10.063  0.9098  0.3712 -0.5257
  727TMC3    C410797   3.543   1.010  10.083 -0.8235  0.0186  0.3514
  727TMC3    C510798   3.587   1.111  10.010 -0.4934  0.0517 -0.6537
  727TMC3    C610799   3.719   1.143   9.997 -0.0502 -0.1509 -0.0137
  727TMC3     C10800   3.589   0.791  10.162 -0.8066 -0.0196  0.0437
  727TMC3     O10801   3.657   0.702  10.114  0.0442 -0.1165 -0.1564
  727TMC3     H10802   3.837   0.879  10.171 -0.5639  0.2754  0.4991
  727TMC3    H110803   3.441   0.978  10.101 -0.2423 -1.1093  1.7034
  727TMC3    H210804   3.753   1.214   9.922  4.0618 -1.6050  0.4277
  727TMC3    C710805   3.499   1.185   9.923  0.1575 -0.6760 -0.6190
  727TMC3    C810806   3.932   1.117  10.090 -0.3062 -0.0239 -0.1922
  727TMC3    O110807   3.528   1.298   9.886 -0.2231  0.4391 -0.4562
  727TMC3    O210808   4.031   1.047  10.084 -0.1930  0.9695 -0.2620
  728TMC3    C110809   3.268   0.122  14.973  0.4879  0.5620  0.1243
  728TMC3    C210810   3.396   0.156  14.943  0.0352  0.0260  0.4808
  728TMC3    C310811   3.431   0.233  14.834 -0.1222 -0.5164 -0.1625
  728TMC3    C410812   3.170   0.182  14.905 -0.5598  0.0785  0.1819
  728TMC3    C510813   3.205   0.261  14.794 -0.1791  0.0968 -0.1796
  728TMC3    C610814   3.334   0.290  14.758  0.0452 -0.1503 -0.0825
  728TMC3     C10815   3.245   0.068  15.111  0.5005 -0.1388 -0.7432
  728TMC3     O10816   3.346   0.066  15.181 -0.1885  0.0230 -0.0549
  728TMC3     H10817   3.467   0.106  15.007  1.2766 -2.1429 -2.5605
  728TMC3    H110818   3.066   0.177  14.936 -0.2010 -0.9911  1.2064
  728TMC3    H210819   3.356   0.328  14.659  1.5126 -0.2831  0.1867
  728TMC3    C710820   3.096   0.343  14.733 -0.0350 -0.0240 -0.1199
  728TMC3    C810821   3.569   0.219  14.792 -0.1288 -0.4692  0.1961
  728TMC3    O110822   2.985   0.312  14.766 -0.6317  0.4039  0.0228
  728TMC3    O210823   3.588   0.211  14.673 -0.3391 -0.4339  0.0234
  729MPD2     C10824   0.486   1.142  17.166  0.4582 -0.6176  0.1982
  729MPD2    C110825   0.587   1.044  17.165  0.2869 -0.3117 -1.1556
  729MPD2    C210826   0.663   1.012  17.280 -0.4299 -0.6643  0.1531
  729MPD2    C310827   0.650   1.088  17.394 -0.3411 -0.4779  0.9595
  729MPD2    C410828   0.564   1.193  17.383 -0.1931 -0.6384 -0.2736
  729MPD2    C510829   0.481   1.221  17.277  0.5114  0.1618  0.6072
  729MPD2     H10830   0.741   0.937  17.274  1.2355  1.0590  0.0633
  729MPD2    H110831   0.563   1.267  17.462  1.2142  0.4522 -1.3066
  729MPD2    H210832   0.439   1.182  17.077 -0.4559  0.3059  1.0935
  729MPD2    H310833   0.413   1.305  17.276  0.2161 -0.0972 -0.8029
  729MPD2     N10834   0.748   1.098  17.494  0.0108 -0.0326 -0.0902
  729MPD2    H510835   0.755   1.190  17.537  2.2476  1.4383 -3.5672
  729MPD2    N110836   0.607   0.996  17.033 -0.1312 -0.7294 -0.7237
  729MPD2    H710837   0.543   1.041  16.968  0.9832  2.3569  0.3406
  730TMC3    C110838   0.960   1.027  17.576  0.9006  0.1178 -0.1484
  730TMC3    C210839   1.067   0.961  17.529  0.4650  0.0097  0.7680
  730TMC3    C310840   1.196   1.013  17.531 -0.7207 -0.0769 -0.2061
  730TMC3    C410841   0.978   1.142  17.649  0.6442 -0.7167 -0.0578
  730TMC3    C510842   1.104   1.191  17.648  0.2193 -0.3059 -0.3130
  730TMC3    C610843   1.219   1.132  17.593  0.3350 -0.1424 -0.5720
  730TMC3     C10844   0.835   0.996  17.508 -0.4362 -0.4659  1.1290
  730TMC3     O10845   0.823   0.878  17.469 -0.1539 -0.4440  0.2618
  730TMC3     H10846   1.041   0.872  17.473  1.7592  0.0950  0.0354
  730TMC3    H110847   0.895   1.212  17.659 -0.2319 -1.5919 -1.1869
  730TMC3    H210848   1.321   1.169  17.601 -0.5240  1.9541  0.6932
  730TMC3    C710849   1.117   1.333  17.622  0.1591  0.0361  0.6142
  730TMC3    C810850   1.262   0.988  17.408  0.7177 -0.1442  0.5530
  730TMC3    O110851   1.184   1.369  17.524 -0.7069  0.6234  0.1355
  730TMC3    O210852   1.252   0.875  17.366  0.2173 -0.1267 -0.0927
  731MPD2     C10853   1.343   3.486  12.321  0.0412  0.3979 -0.0353
  731MPD2    C110854   1.241   3.429  12.252 -0.0341  0.3803  0.4219
  731MPD2    C210855   1.111   3.420  12.304 -0.1513  0.3640  0.8925
  731MPD2    C310856   1.079   3.497  12.416  0.3163 -0.6368  0.4419
  731MPD2    C410857   1.179   3.563  12.485 -0.0580 -0.2027  0.2106
  731MPD2    C510858   1.306   3.552  12.433  0.4089 -0.1871  0.0418
  731MPD2     H10859   1.028   3.370  12.257  1.8344 -0.2522 -1.9316
  731MPD2    H110860   1.159   3.617  12.577  0.4166 -0.7244  0.6192
  731MPD2    H210861   1.443   3.496  12.281 -0.0163  2.2453  0.2912
  731MPD2    H310862   1.380   3.618  12.478 -0.9868  0.8177  0.8513
  731MPD2     N10863   0.946   3.481  12.460 -0.0033  0.0921 -0.1036
  731MPD2    H510864   0.890   3.406  12.421 -1.7809 -0.5270  3.6080
  731MPD2    N110865   1.269   3.401  12.114 -0.1602 -0.3557  0.2147
  731MPD2    H710866   1.364   3.418  12.083  0.3450 -1.2535  1.2589
  732TMC3    C110867   1.224   3.440  11.888 -0.1674 -0.5642 -0.0067
  732TMC3    C210868   1.123   3.463  11.799 -0.6228  0.0670 -0.1470
  732TMC3    C310869   1.135   3.577  11.722  0.4896 -0.5623  0.0885
  732TMC3    C410870   1.336   3.522  11.888  0.1823 -0.0660 -0.6557
  732TMC3    C510871   1.350   3.630  11.803 -0.2545 -0.1480  0.1628
  732TMC3    C610872   1.249   3.651  11.714  0.7249 -0.8417 -0.1018
  732TMC3     C10873   1.182   3.380  12.014 -0.1270  0.1835 -0.0863
  732TMC3     O10874   1.069   3.333  12.021  0.1006 -0.3936 -0.1513
  732TMC3     H10875   1.031   3.405  11.800  1.8104 -3.7746 -0.2902
  732TMC3    H110876   1.415   3.500  11.958 -0.8565 -0.1435  0.4967
  732TMC3    H210877   1.238   3.745  11.662  1.2819 -1.5986 -1.5816
  732TMC3    C710878   1.414   3.751  11.854 -0.0861  0.2250 -0.6055
  732TMC3    C810879   1.022   3.619  11.636  0.2942  0.1828 -0.2096
  732TMC3    O110880   1.448   3.838  11.774 -0.1934 -0.0695 -0.1975
  732TMC3    O210881   1.036   3.645  11.521  0.6317 -0.8683 -0.2111
  733TMC3    C110882   1.451   2.342  12.930  0.7063 -0.4498 -0.3490
  733TMC3    C210883   1.511   2.307  13.047 -0.3818  0.3985  0.1194
  733TMC3    C310884   1.619   2.225  13.042 -0.2346  0.7944 -0.4581
  733TMC3    C410885   1.493   2.290  12.808  0.2886 -0.2314 -0.3681
  733TMC3    C510886   1.594   2.194  12.810 -0.0554  0.5651  0.3077
  733TMC3    C610887   1.661   2.167  12.928  0.3556  0.0009  0.3060
  733TMC3     C10888   1.327   2.414  12.937  0.4739 -0.2032 -0.4870
  733TMC3     O10889   1.281   2.475  12.844  0.3446 -0.2263 -0.2661
  733TMC3     H10890   1.484   2.358  13.139 -2.2751 -0.0693 -0.1888
  733TMC3    H110891   1.436   2.316  12.720  1.0580 -1.0386 -1.1107
  733TMC3    H210892   1.711   2.072  12.941 -1.7685 -1.3707 -1.4425
  733TMC3    C710893   1.660   2.158  12.683  0.6982 -0.1225  0.4782
  733TMC3    C810894   1.720   2.258  13.143 -0.2866  0.1295 -0.3136
  733TMC3    O110895   1.610   2.198  12.581 -0.8497 -0.6601  0.4295
  733TMC3    O210896   1.690   2.350  13.215  0.0564 -0.1417  0.0697
  734MPD2     C10897   3.324   4.382  12.563 -0.6872  0.1487 -0.3844
  734MPD2    C110898   3.324   4.291  12.462 -0.6401  0.3085  0.2546
  734MPD2    C210899   3.324   4.333  12.330  0.0833  0.6614  0.6401
  734MPD2    C310900   3.311   4.466  12.299 -0.5547 -0.3160 -0.0438
  734MPD2    C410901   3.301   4.557  12.399  1.0313  0.7365 -0.4800
  734MPD2    C510902   3.314   4.516  12.535  0.1636 -0.3935  0.4147
  734MPD2     H10903   3.352   4.262  12.253 -2.0747  1.2150 -0.6482
  734MPD2    H110904   3.277   4.661  12.381 -1.7444  0.3171  0.8045
  734MPD2    H210905   3.316   4.345  12.665  1.0891  2.4280  0.5802
  734MPD2    H310906   3.308   4.586  12.618 -0.3305  2.0058 -1.6343
  734MPD2     N10907   3.312   4.503  12.158  0.4167  0.0184  0.0689
  734MPD2    H510908   3.340   4.428  12.096  2.8976 -0.3135  1.5730
  734MPD2    N110909   3.329   4.153  12.480  1.1699 -0.0642  0.2415
  734MPD2    H710910   3.345   4.124  12.576  1.0837  1.6249  0.7549
  735TMC3    C110911   3.316   3.912  12.419  0.5441  0.4465  0.5799
  735TMC3    C210912   3.204   3.859  12.373 -0.2565 -0.1576  0.0772
  735TMC3    C310913   3.204   3.736  12.304 -0.0952  0.4055 -0.4295
  735TMC3    C410914   3.432   3.851  12.399 -0.5448  0.1987  0.3260
  735TMC3    C510915   3.437   3.732  12.332  0.6464  0.1282  0.5054
  735TMC3    C610916   3.322   3.669  12.284  0.4158 -0.2448  0.1047
  735TMC3     C10917   3.312   4.055  12.385  0.2232  0.3188  0.0419
  735TMC3     O10918   3.250   4.071  12.280  0.1854 -0.2433 -0.4539
  735TMC3     H10919   3.108   3.907  12.390 -0.2986 -0.7636  1.4988
  735TMC3    H110920   3.525   3.902  12.422 -0.1736  0.3511 -1.5027
  735TMC3    H210921   3.312   3.572  12.236 -2.3086  1.1866 -2.2316
  735TMC3    C710922   3.563   3.671  12.311 -0.2285  0.5909 -0.0871
  735TMC3    C810923   3.123   3.739  12.175 -0.1857  0.0159 -0.1576
  735TMC3    O110924   3.660   3.746  12.297 -0.0017 -0.4948  0.1828
  735TMC3    O210925   3.087   3.633  12.122  0.3110  0.2888 -0.1953
  736MPD2     C10926   3.647   3.311  12.342 -0.7543  0.7163 -0.8277
  736MPD2    C110927   3.653   3.440  12.293  0.0016  0.4152 -0.3932
  736MPD2    C210928   3.754   3.466  12.205  0.5146  0.0293  0.0280
  736MPD2    C310929   3.859   3.376  12.183  0.1594  0.1995 -0.2071
  736MPD2    C410930   3.852   3.252  12.242  0.2699 -0.4601 -0.0951
  736MPD2    C510931   3.742   3.217  12.321  0.0317  0.7902 -0.4537
  736MPD2     H10932   3.746   3.563  12.156 -0.0800  0.2317  0.5241
  736MPD2    H110933   3.930   3.180  12.223  0.3693 -0.2651 -0.4106
  736MPD2    H210934   3.556   3.287  12.397 -0.3340  2.1747  0.5010
  736MPD2    H310935   3.729   3.120  12.368 -0.1174  0.0724 -1.9810
  736MPD2     N10936   3.961   3.390  12.089 -0.1833  0.0168  0.7017
  736MPD2    H510937   4.011   3.304  12.071  1.5821  1.1506  0.1748
  736MPD2    N110938   3.551   3.534  12.324  0.3999  0.2858  0.1538
  736MPD2    H710939   3.465   3.500  12.366 -0.0610  0.5325 -0.5924
  737TMC3    C110940   4.107   3.493  11.939  0.1219 -0.0740 -0.0121
  737TMC3    C210941   4.181   3.607  11.913  0.3555 -0.3446  0.6554
  737TMC3    C310942   4.257   3.606  11.802 -0.1690  0.0183  0.0577
  737TMC3    C410943   4.124   3.376  11.866  0.7649 -0.0029 -0.0615
  737TMC3    C510944   4.200   3.385  11.755  0.3198  0.3640  0.4737
  737TMC3    C610945   4.265   3.496  11.714 -0.0282  0.2798  0.4326
  737TMC3     C10946   3.990   3.507  12.022  0.2530 -0.2432 -0.2615
  737TMC3     O10947   3.957   3.619  12.057  0.0800 -0.5184  0.5234
  737TMC3     H10948   4.151   3.700  11.962  1.5115  0.7496 -0.6978
  737TMC3    H110949   4.062   3.289  11.885  2.5775 -1.5433 -1.3011
  737TMC3    H210950   4.344   3.492  11.640 -0.2474  1.0535  0.1640
  737TMC3    C710951   4.232   3.255  11.700 -0.2266  0.5120  0.5069
  737TMC3    C810952   4.299   3.739  11.747  0.1085  0.5921  0.2311
  737TMC3    O110953   4.206   3.151  11.758  1.0179 -0.8358 -0.3766
  737TMC3    O210954   4.287   3.833  11.821 -1.3915 -0.0250 -0.0573
  738MPD2     C10955   4.667   2.756  15.431 -0.5052 -0.5270  0.1780
  738MPD2    C110956   4.583   2.815  15.339  0.1902 -0.2177 -0.3823
  738MPD2    C210957   4.605   2.949  15.302  0.1114  0.5700 -0.1506
  738MPD2    C310958   4.711   3.018  15.351 -0.1251  0.0344  0.4362
  738MPD2    C410959   0.053   2.963  15.446  0.0060 -0.0380  0.3520
  738MPD2    C510960   0.032   2.834  15.485  0.6359  1.0700  0.0941
  738MPD2     H10961   4.536   2.984  15.225 -1.9877  1.1736  1.9883
  738MPD2    H110962   0.142   3.009  15.487 -0.8539  2.5383 -0.6824
  738MPD2    H210963   4.664   2.650  15.453 -0.1042 -0.7783 -0.9711
  738MPD2    H310964   0.105   2.781  15.546 -0.5103 -0.2740  0.2921
  738MPD2     N10965   4.734   3.152  15.317 -0.4713  0.2024  0.0926
  738MPD2    H510966   0.072   3.204  15.365  0.5884 -1.2125  0.0018
  738MPD2    N110967   4.476   2.755  15.279  0.3769 -0.7788 -0.2657
  738MPD2    H710968   4.430   2.803  15.202  3.0230  0.9155 -0.7672
  739TMC3    C110969   0.014   3.348  15.197 -0.0284 -0.1285  0.7613
  739TMC3    C210970   0.034   3.392  15.068  0.4397 -0.1171 -0.3640
  739TMC3    C310971   0.102   3.503  15.049  0.2381 -0.2704 -0.0234
  739TMC3    C410972   0.055   3.418  15.306 -0.3455 -0.0729  0.4831
  739TMC3    C510973   0.118   3.536  15.277  0.6173  0.2549 -1.1042
  739TMC3    C610974   0.132   3.586  15.151  1.0054 -0.6048 -0.2267
  739TMC3     C10975   4.677   3.225  15.218  0.8685 -0.0915 -0.0682
  739TMC3     O10976   4.606   3.178  15.132  0.3239 -0.8501  0.6615
  739TMC3     H10977   0.009   3.331  14.982 -1.6012  1.0152 -0.5805
  739TMC3    H110978   0.029   3.398  15.409  2.4845 -1.2311  0.9799
  739TMC3    H210979   0.203   3.667  15.134 -0.3107  0.6472  0.2106
  739TMC3    C710980   0.128   3.631  15.384 -0.6845  0.5484  0.1303
  739TMC3    C810981   0.109   3.532  14.910  0.0275  0.0727 -0.4738
  739TMC3    O110982   0.166   3.583  15.489 -0.3094 -0.6654  0.3310
  739TMC3    O210983   0.015   3.500  14.842  0.1036 -0.0030 -0.3034
  740TMC3    C110984   0.449   0.012  14.225  0.3280 -0.3710 -0.5488
  740TMC3    C210985   0.513   4.722  14.345  0.4913  0.3545  0.3952
  740TMC3    C310986   0.639   4.663  14.343  0.4927 -0.1332 -0.0469
  740TMC3    C410987   0.505   4.710  14.110 -0.5544  0.1160  0.8390
  740TMC3    C510988   0.631   4.655  14.110  0.1980 -0.0534  0.4199
  740TMC3    C610989   0.693   4.616  14.225  0.1172  0.0346 -0.3253
  740TMC3     C10990   0.301   0.028  14.213 -0.9149  0.8809 -0.5499
  740TMC3     O10991   0.259   0.042  14.099  0.0789 -0.1309  0.4203
  740TMC3     H10992   0.472   0.012  14.442  0.7780  4.4454 -0.5274
  740TMC3    H110993   0.462   0.012  14.018 -0.3203  0.4449  0.8592
  740TMC3    H210994   0.796   4.582  14.219 -0.1574 -0.5969 -1.5954
  740TMC3    C710995   0.669   4.572  13.998  0.1619 -0.3242  0.2812
  740TMC3    C810996   0.678   4.570  14.457  0.2365 -0.1606 -0.6321
  740TMC3    O110997   0.757   4.488  14.015 -0.3449  0.4792 -0.2169
  740TMC3    O210998   0.722   4.458  14.432 -0.1060  0.3784 -1.1992
  741TMC3    C110999   4.602   4.048  14.215  1.0302  0.2981 -0.0451
  741TMC3    C211000   4.491   3.970  14.215  0.8103 -0.4401 -0.4611
  741TMC3    C311001   4.466   3.889  14.324  0.0954  0.1779 -0.3107
  741TMC3    C411002   4.668   4.079  14.327 -0.5531  0.3457 -0.5562
  741TMC3    C511003   4.646   3.991  14.431 -0.2478 -0.0232 -0.2160
  741TMC3    C611004   4.541   3.900  14.439  0.5654  0.2294  0.5018
  741TMC3     C11005   4.627   4.135  14.100 -0.5329 -0.7452 -0.1449
  741TMC3     O11006   0.004   4.160  14.062 -0.1109 -0.4146 -0.0212
  741TMC3     H11007   4.447   3.942  14.120  0.5976  0.3325 -0.5891
  741TMC3    H111008   0.009   4.155  14.331  0.8416 -1.0111 -1.2997
  741TMC3    H211009   4.523   3.852  14.534 -1.4412  2.6116  1.3179
  741TMC3    C711010   4.723   4.002  14.552 -0.0816  0.3902 -0.1787
  741TMC3    C811011   4.356   3.795  14.312  0.7357 -0.2691 -1.2494
  741TMC3    O111012   0.009   3.895  14.611 -0.0422 -0.4589  0.1927
  741TMC3    O211013   4.278   3.805  14.221  0.0427 -0.2781  0.3053
  742TMC3    C111014   4.164   1.877  15.282  0.2072  0.1973 -0.6729
  742TMC3    C211015   4.103   1.906  15.166 -0.2838 -0.5944  0.2269
  742TMC3    C311016   4.185   1.941  15.064 -0.2646  0.2284  0.9401
  742TMC3    C411017   4.302   1.880  15.294  0.1946  0.1968  0.4934
  742TMC3    C511018   4.381   1.930  15.190  0.2239 -0.2095  0.4978
  742TMC3    C611019   4.318   1.964  15.073  0.8954 -0.6809 -0.2084
  742TMC3     C11020   4.096   1.800  15.384 -0.5459 -0.0118  0.1103
  742TMC3     O11021   3.988   1.758  15.353  0.0076 -0.6743  0.2273
  742TMC3     H11022   4.003   1.867  15.150 -1.0294  0.6403  1.9209
  742TMC3    H111023   4.355   1.820  15.367 -0.0927 -1.6666 -0.8184
  742TMC3    H211024   4.378   1.986  14.985 -0.6454  0.6102 -0.9321
  742TMC3    C711025   4.530   1.929  15.193 -0.0770 -0.0493 -0.5163
  742TMC3    C811026   4.133   1.941  14.925  0.1628 -0.2241 -0.1467
  742TMC3    O111027   4.588   1.973  15.095  0.2169 -0.0444 -0.5162
  742TMC3    O211028   4.211   1.933  14.835  0.0455  0.0262 -0.2517
  743MPD2     C11029   4.502   3.781   1.207  0.6399  0.1181 -0.2426
  743MPD2    C111030   4.405   3.733   1.123  0.0055 -0.1202  0.1573
  743MPD2    C211031   4.456   3.667   1.010  0.0493  0.6303  0.5316
  743MPD2    C311032   4.592   3.639   1.002  0.2803  0.9201  0.7102
  743MPD2    C411033   4.683   3.689   1.094  0.2667  0.9153  0.6115
  743MPD2    C511034   4.636   3.764   1.199 -0.1257 -0.0142  0.3376
  743MPD2     H11035   4.394   3.634   0.927 -2.5586  3.4545  1.3352
  743MPD2    H111036   0.053   3.668   1.076 -0.1127  0.0739 -0.6177
  743MPD2    H211037   4.481   3.838   1.297 -1.2167  1.0009 -1.2403
  743MPD2    H311038   4.704   3.807   1.272 -1.2639  1.4163  0.5408
  743MPD2     N11039   4.624   3.569   0.878  0.0166 -0.8748 -0.1216
  743MPD2    H511040   4.547   3.571   0.812  0.2237  0.5233 -0.3239
  743MPD2    N111041   4.262   3.758   1.147 -0.2543  0.1917  0.3253
  743MPD2    H711042   4.238   3.806   1.233 -1.7637 -1.4743  0.8291
  744TMC3    C111043   4.025   3.785   1.084 -1.1802 -0.7883 -0.1157
  744TMC3    C211044   3.991   3.826   1.210  0.1641  0.5854  0.0422
  744TMC3    C311045   3.864   3.883   1.231  0.3418  0.0411  0.3112
  744TMC3    C411046   3.934   3.782   0.974 -0.1084  0.1891  0.2714
  744TMC3    C511047   3.817   3.845   0.998  0.1571 -0.7557  0.4740
  744TMC3    C611048   3.782   3.894   1.121  0.2923 -0.2533  0.0112
  744TMC3     C11049   4.166   3.742   1.048 -0.4787 -0.1280 -0.3394
  744TMC3     O11050   4.176   3.705   0.932  0.5347  0.2452 -0.0719
  744TMC3     H11051   4.053   3.815   1.299  1.0634  3.5598 -0.2110
  744TMC3    H111052   3.959   3.756   0.872  0.5714 -1.2772  0.8198
  744TMC3    H211053   3.690   3.951   1.130  0.3162 -0.0742 -0.8422
  744TMC3    C711054   3.716   3.829   0.899 -0.3366 -0.4705  0.5615
  744TMC3    C811055   3.821   3.938   1.362 -0.2794  0.0845  0.1326
  744TMC3    O111056   3.629   3.916   0.887  0.2759  0.2257 -0.2355
  744TMC3    O211057   3.701   3.948   1.380 -0.6014  0.1087  0.3819
  745TMC3    C111058   0.031   2.116  13.188  0.1809  0.4670 -0.4671
  745TMC3    C211059   4.667   2.078  13.270 -0.3721 -0.3844  0.0529
  745TMC3    C311060   4.541   2.124  13.252 -0.5133 -0.0046 -0.2698
  745TMC3    C411061   4.733   2.195  13.081  0.3999 -0.4221  1.0533
  745TMC3    C511062   4.607   2.238  13.056 -0.0446  0.3333  0.0538
  745TMC3    C611063   4.505   2.202  13.149  0.1793 -0.4324 -0.1699
  745TMC3     C11064   0.121   2.185  13.280 -0.6911 -0.1264 -0.4411
  745TMC3     O11065   0.076   2.216  13.390  0.1070 -0.1954 -0.3632
  745TMC3     H11066   4.694   2.011  13.352  0.8953  1.9093  1.5112
  745TMC3    H111067   0.074   2.231  13.013 -2.5335  1.0112 -1.4920
  745TMC3    H211068   4.399   2.214  13.129  0.2614  1.6111  0.6691
  745TMC3    C711069   4.597   2.379  13.022 -0.8276 -0.1287 -0.6732
  745TMC3    C811070   4.464   2.134  13.377 -0.5558 -0.2225 -0.2345
  745TMC3    O111071   4.492   2.439  13.046  1.1093 -0.2591  0.2101
  745TMC3    O211072   4.338   2.131  13.378 -0.0252 -0.4927 -0.2157
  746TMC3    C111073   2.014   4.042  10.842 -0.1512 -0.2971  1.0136
  746TMC3    C211074   2.091   4.022  10.729 -0.1826 -0.0846  1.0333
  746TMC3    C311075   2.052   3.923  10.644  0.2918  0.1422  0.4477
  746TMC3    C411076   1.890   3.980  10.862 -0.2824 -0.6198 -0.9093
  746TMC3    C511077   1.854   3.888  10.772  0.5705 -0.0242 -0.1000
  746TMC3    C611078   1.944   3.853  10.677  0.1036 -0.1193 -0.6557
  746TMC3     C11079   2.058   4.138  10.943  0.8152  0.5155 -0.7341
  746TMC3     O11080   1.987   4.138  11.039  0.2152 -0.0359  0.2501
  746TMC3     H11081   2.192   4.062  10.720 -0.1720 -0.8429 -2.2396
  746TMC3    H111082   1.825   4.011  10.944  0.4613  2.5997 -1.5179
  746TMC3    H211083   1.942   3.754  10.635  0.5534 -0.4454  0.0836
  746TMC3    C711084   1.758   3.782  10.800  0.0576 -0.5545 -0.2877
  746TMC3    C811085   2.164   3.848  10.583  0.3768 -0.4740 -0.5700
  746TMC3    O111086   1.702   3.728  10.708  0.0038  0.1035 -0.1947
  746TMC3    O211087   2.222   3.760  10.646  0.6586  0.3996 -0.2290
  747TMC3    C111088   0.157   2.988  10.885 -0.3513  0.8316 -0.6698
  747TMC3    C211089   0.043   2.946  10.951  0.3806  0.7133  0.5555
  747TMC3    C311090   0.007   3.009  11.066  0.1886 -0.3161 -0.0095
  747TMC3    C411091   0.233   3.090  10.931  0.0133 -0.3128  0.0201
  747TMC3    C511092   0.195   3.158  11.045  0.1250  0.4620 -0.0542
  747TMC3    C611093   0.082   3.122  11.109  0.3301  0.0829  0.1393
  747TMC3     C11094   0.223   2.903  10.786  0.4880 -0.0279  0.2168
  747TMC3     O11095   0.344   2.918  10.774  0.2765  0.0374 -0.6226
  747TMC3     H11096   4.721   2.858  10.928  3.1645 -1.0860  0.4800
  747TMC3    H111097   0.326   3.115  10.881  0.8671 -0.0049  1.7721
  747TMC3    H211098   0.066   3.155  11.212  3.3929 -1.5726  1.1422
  747TMC3    C711099   0.260   3.282  11.086 -0.4697 -0.0590  0.1957
  747TMC3    C811100   4.610   2.976  11.122  0.7990  0.0673  0.3547
  747TMC3    O111101   0.248   3.315  11.200  0.1147 -0.1239 -0.4700
  747TMC3    O211102   4.560   2.870  11.089 -0.6499 -0.2506 -0.3370
  748MPD2     C11103   1.894   0.228   0.933  0.7011 -0.1184  0.7713
  748MPD2    C111104   1.950   0.242   1.056 -0.5707 -0.0396  0.4691
  748MPD2    C211105   2.090   0.236   1.065 -0.0943 -0.3675 -0.1575
  748MPD2    C311106   2.167   0.220   0.955  0.6408  0.0955  0.2073
  748MPD2    C411107   2.106   0.208   0.832  0.4766 -0.2059  0.8388
  748MPD2    C511108   1.970   0.205   0.825 -0.1484  0.2309  0.0871
  748MPD2     H11109   2.146   0.250   1.156 -2.6042 -0.2621  1.3625
  748MPD2    H111110   2.166   0.194   0.742 -0.0623 -0.1709  0.4769
  748MPD2    H211111   1.786   0.226   0.929  0.6560  0.6940  1.7846
  748MPD2    H311112   1.920   0.195   0.730  2.7495 -1.0134 -1.3201
  748MPD2     N11113   2.305   0.226   0.967  0.2037 -0.3539  0.2538
  748MPD2    H511114   2.347   0.239   1.059 -0.2859 -2.3968  0.7761
  748MPD2    N111115   1.869   0.269   1.169 -0.3469  0.0830  0.3981
  748MPD2    H711116   1.773   0.295   1.150 -0.2918 -1.3062 -1.8575
  749TMC3    C111117   2.529   0.246   0.912 -0.5998  0.0013 -0.9952
  749TMC3    C211118   2.558   0.253   1.050 -0.1854  0.4630  0.2980
  749TMC3    C311119   2.660   0.339   1.094  0.5265  0.0061 -0.2881
  749TMC3    C411120   2.592   0.328   0.829  0.1772  0.4340  0.1324
  749TMC3    C511121   2.682   0.416   0.881 -0.2210  0.1645 -0.6517
  749TMC3    C611122   2.729   0.417   1.010 -0.0535  0.2236  0.3499
  749TMC3     C11123   2.398   0.223   0.865 -0.4847  0.0784  0.1683
  749TMC3     O11124   2.385   0.226   0.742  0.6762  0.4977  0.2534
  749TMC3     H11125   2.509   0.177   1.110  0.4915 -0.2144 -0.0075
  749TMC3    H111126   2.563   0.337   0.725 -2.1139  2.2287  0.9498
  749TMC3    H211127   2.807   0.481   1.049  0.5185  0.1760 -0.7194
  749TMC3    C711128   2.763   0.492   0.794 -0.3492  0.0401 -1.2293
  749TMC3    C811129   2.668   0.360   1.236  0.0479  0.6371  0.0475
  749TMC3    O111130   2.823   0.592   0.840  0.0170  0.9703 -0.1726
  749TMC3    O211131   2.721   0.466   1.266  0.2126  0.0868  0.4285
  750MPD2     C11132   2.561   1.071  11.470  0.4886 -0.7533  0.3603
  750MPD2    C111133   2.431   1.027  11.427  0.3440  0.7584 -0.0610
  750MPD2    C211134   2.413   0.907  11.359  0.5084 -0.2155  0.6483
  750MPD2    C311135   2.520   0.820  11.357 -0.4722 -0.0245 -0.3328
  750MPD2    C411136   2.641   0.861  11.402  0.2125  0.2890  0.0551
  750MPD2    C511137   2.672   0.983  11.454  0.1226  0.1079  0.3310
  750MPD2     H11138   2.315   0.890  11.314  0.1966 -0.5966  1.4658
  750MPD2    H111139   2.725   0.794  11.390 -1.5039 -1.7542 -0.6180
  750MPD2    H211140   2.587   1.169  11.507 -1.4063 -0.8123  1.8327
  750MPD2    H311141   2.769   1.005  11.497 -0.6989 -0.2552  2.3740
  750MPD2     N11142   2.514   0.688  11.298 -0.3870  0.1199 -0.1117
  750MPD2    H511143   2.596   0.632  11.317  0.7010  1.5466 -0.6067
  750MPD2    N111144   2.329   1.121  11.443 -0.4935  0.0832 -0.0019
  750MPD2    H711145   2.357   1.206  11.491  1.4575  0.8170 -2.4003
  751TMC3    C111146   2.406   0.482  11.233  0.2516 -0.1565 -0.6409
  751TMC3    C211147   2.280   0.420  11.244 -0.2328 -0.3864 -0.1812
  751TMC3    C311148   2.279   0.284  11.239 -0.2595 -0.0373  0.1670
  751TMC3    C411149   2.518   0.408  11.220 -0.1211 -0.6693  0.2185
  751TMC3    C511150   2.507   0.268  11.223  0.3228 -0.1622 -0.1418
  751TMC3    C611151   2.392   0.206  11.240  0.4975  0.0459  0.3769
  751TMC3     C11152   2.406   0.631  11.233  0.0567 -0.0270  0.0488
  751TMC3     O11153   2.304   0.678  11.189 -0.5901  0.4766 -0.2425
  751TMC3     H11154   2.191   0.482  11.245 -0.6882 -1.1120  2.7669
  751TMC3    H111155   2.614   0.456  11.206  1.0070 -2.2948  2.3105
  751TMC3    H211156   2.389   0.098  11.237  1.5796 -0.0496  2.2924
  751TMC3    C711157   2.620   0.193  11.183  0.2785 -0.1628  0.1864
  751TMC3    C811158   2.156   0.224  11.188  0.4881  0.0384  0.1186
  751TMC3    O111159   2.708   0.251  11.118 -0.4902 -0.5147 -0.2014
  751TMC3    O211160   2.163   0.123  11.115 -0.0286 -0.5856  0.0928
  752TMC3    C111161   1.557   0.673  17.371 -0.2261  0.2474 -0.0375
  752TMC3    C211162   1.605   0.600  17.474  0.7279  0.5542  0.1972
  752TMC3    C311163   1.703   0.656  17.548 -0.7835 -0.3343 -0.0623
  752TMC3    C411164   1.596   0.798  17.336  0.7216 -0.3404  0.4661
  752TMC3    C511165   1.697   0.849  17.408 -0.5855 -0.4721  0.2917
  752TMC3    C611166   1.745   0.785  17.522  0.2164 -0.4763  0.6979
  752TMC3     C11167   1.491   0.589  17.263  0.2300 -0.0442  0.1048
  752TMC3     O11168   1.530   0.480  17.224  0.0007  0.6263  0.0378
  752TMC3     H11169   1.550   0.510  17.499  0.2974  0.8877  0.4598
  752TMC3    H111170   1.557   0.853  17.251  1.4006  0.0480  0.4006
  752TMC3    H211171   1.833   0.827  17.571  0.7174  0.4586 -0.9839
  752TMC3    C711172   1.751   0.983  17.383  0.4310 -0.1714 -0.0234
  752TMC3    C811173   1.757   0.576  17.660 -0.0237  0.4434 -0.1811
  752TMC3    O111174   1.802   1.037  17.482 -0.0213  0.1949 -0.2557
  752TMC3    O211175   1.706   0.465  17.670  0.4656 -0.3785  0.0409
  753TMC3    C111176   3.591   1.991  13.271 -0.6343 -0.5209  0.4922
  753TMC3    C211177   3.606   1.950  13.401  0.0977  0.0685  0.4918
  753TMC3    C311178   3.527   1.853  13.455  0.0365 -0.6818  0.2455
  753TMC3    C411179   3.502   1.932  13.189  0.4571 -0.6130 -0.8503
  753TMC3    C511180   3.415   1.837  13.250 -1.1062 -1.0291  0.4558
  753TMC3    C611181   3.430   1.791  13.377 -0.4997 -0.1946  1.0983
  753TMC3     C11182   3.673   2.092  13.214  0.7025 -0.1279  0.3691
  753TMC3     O11183   3.694   2.082  13.093  0.2959  0.1784  0.0047
  753TMC3     H11184   3.700   1.969  13.450 -0.1860 -0.4557  1.2412
  753TMC3    H111185   3.490   1.972  13.090 -0.4392  1.4973  0.1191
  753TMC3    H211186   3.378   1.703  13.413 -3.2750  1.3745  0.9297
  753TMC3    C711187   3.305   1.790  13.163  0.0593 -0.8948  0.8412
  753TMC3    C811188   3.522   1.833  13.595 -0.4950  0.3160 -0.4522
  753TMC3    O111189   3.327   1.804  13.044 -0.3919  0.1521 -0.4289
  753TMC3    O211190   3.438   1.749  13.622  0.0243  0.2386 -0.8543
  754MPD2     C11191   1.617   1.093  13.249  0.6279 -0.4359 -0.9201
  754MPD2    C111192   1.644   0.960  13.271 -0.2410  0.0182 -0.3634
  754MPD2    C211193   1.555   0.864  13.239  0.1657  0.0008 -0.2241
  754MPD2    C311194   1.427   0.904  13.181 -0.1256  0.4728  0.1942
  754MPD2    C411195   1.411   1.035  13.163  0.8996  0.2918 -0.2656
  754MPD2    C511196   1.498   1.124  13.201  0.3259 -1.0526  0.4303
  754MPD2     H11197   1.581   0.760  13.257 -0.2261  0.3301  2.2009
  754MPD2    H111198   1.314   1.072  13.131  1.2802  0.9201 -0.6799
  754MPD2    H211199   1.688   1.175  13.252  0.5947 -0.4107 -0.8342
  754MPD2    H311200   1.487   1.230  13.182 -1.0929 -0.8992  2.1144
  754MPD2     N11201   1.322   0.821  13.148 -0.3174 -0.5946 -0.4534
  754MPD2    H511202   1.233   0.863  13.123 -0.0193  0.9980  1.1036
  754MPD2    N111203   1.763   0.930  13.342 -0.6174 -0.3334 -0.3304
  754MPD2    H711204   1.833   1.003  13.338  0.8109 -1.6616  0.3568
  755MPD2     C11205   0.455   0.965  13.405  0.1665  0.5332 -0.0316
  755MPD2    C111206   0.572   0.956  13.481  0.4286  0.6400 -0.0320
  755MPD2    C211207   0.674   0.881  13.437  0.3321  0.4432 -0.4361
  755MPD2    C311208   0.661   0.801  13.326 -0.4703  0.0516 -0.7786
  755MPD2    C411209   0.535   0.798  13.263  0.6645 -0.9394  0.3407
  755MPD2    C511210   0.440   0.881  13.301 -0.4843  0.9518  0.2090
  755MPD2     H11211   0.767   0.889  13.492  0.1710 -1.9113  0.1540
  755MPD2    H111212   0.506   0.728  13.186  2.4874 -2.6542  1.2003
  755MPD2    H211213   0.371   1.028  13.432  0.1314  0.1898  0.6526
  755MPD2    H311214   0.344   0.876  13.251 -0.2324  1.0001 -0.2769
  755MPD2     N11215   0.762   0.724  13.266  0.1807  0.5675 -0.2430
  755MPD2    H511216   0.747   0.666  13.184  1.0261  2.0172 -1.4244
  755MPD2    N111217   0.598   1.034  13.595 -0.6414  0.2794  0.1254
  755MPD2    H711218   0.692   1.034  13.633 -0.6674 -0.9889  0.1815
  756MPD2     C11219   1.790   1.800   9.728  0.2547 -0.2793  0.1273
  756MPD2    C111220   1.715   1.692   9.767  0.1195 -0.6642  0.2877
  756MPD2    C211221   1.580   1.694   9.733 -0.1064  0.5259 -0.7942
  756MPD2    C311222   1.522   1.796   9.662  0.2411 -0.0184 -0.2385
  756MPD2    C411223   1.603   1.895   9.613  0.8605  0.3572  0.5659
  756MPD2    C511224   1.735   1.897   9.651  0.8153  0.0537  0.2285
  756MPD2     H11225   1.531   1.603   9.766  3.0139 -1.1170 -0.7019
  756MPD2    H111226   1.568   1.967   9.541 -0.0860 -0.5369  0.1250
  756MPD2    H211227   1.895   1.806   9.758  0.1742  2.3683 -0.2025
  756MPD2    H311228   1.793   1.978   9.609  0.7240 -0.9925 -1.8881
  756MPD2     N11229   1.381   1.787   9.636  0.5005 -0.5676 -0.2202
  756MPD2    H511230   1.333   1.711   9.683 -2.4972  2.2689  1.3199
  756MPD2    N111231   1.770   1.576   9.820 -0.3517 -0.2466 -0.2778
  756MPD2    H711232   1.700   1.502   9.823 -0.9034  0.3141  0.8826
  757MPD2     C11233   0.834   1.120   9.688  0.0678 -1.2458  0.1920
  757MPD2    C111234   0.971   1.151   9.682 -0.2517  0.1315  0.5949
  757MPD2    C211235   1.017   1.283   9.677  1.2956 -0.3367  0.2516
  757MPD2    C311236   0.930   1.384   9.675  0.1100  1.0732  0.3484
  757MPD2    C411237   0.796   1.359   9.668  0.2079  0.0703 -0.5458
  757MPD2    C511238   0.749   1.227   9.681 -0.5903 -0.0107 -0.2614
  757MPD2     H11239   1.124   1.301   9.676  1.3727 -0.7203  1.0759
  757MPD2    H111240   0.723   1.439   9.663  0.7009  0.6197  0.9481
  757MPD2    H211241   0.790   1.021   9.701  1.2096 -1.8512 -0.5848
  757MPD2    H311242   0.642   1.215   9.675 -0.5534 -1.7183  2.8162
  757MPD2     N11243   0.984   1.511   9.682  1.3894  0.2847  0.5752
  757MPD2    H511244   1.085   1.520   9.681  1.3249  0.9396 -0.7270
  757MPD2    N111245   1.061   1.040   9.682  0.7228  0.3705 -1.0096
  757MPD2    H711246   1.029   0.947   9.656 -0.9574  0.9316 -0.9331
  758MPD2     C11247   2.104   0.284  15.658  0.4654  0.0341 -0.1786
  758MPD2    C111248   2.157   0.175  15.726  0.3399 -0.0819  0.7143
  758MPD2    C211249   2.128   0.155  15.859 -0.2258 -0.1827  0.4130
  758MPD2    C311250   2.038   0.235  15.923  0.3377  0.5278 -0.1799
  758MPD2    C411251   1.985   0.343  15.855  0.6338  0.0761  0.7326
  758MPD2    C511252   2.028   0.377  15.728  1.0602 -0.3009 -0.0478
  758MPD2     H11253   2.153   0.064  15.913  2.4556 -0.1023 -0.6961
  758MPD2    H111254   1.916   0.418  15.893 -1.6942 -1.4115 -0.5272
  758MPD2    H211255   2.146   0.320  15.565 -0.8299  0.0372 -0.7666
  758MPD2    H311256   2.004   0.469  15.677  1.8372 -0.0246  0.0913
  758MPD2     N11257   2.005   0.224  16.062 -1.0019  0.2319  0.0470
  758MPD2    H511258   1.962   0.304  16.107 -0.4543  0.8798 -0.5678
  758MPD2    N111259   2.250   0.097  15.655  1.0067  0.3195  0.0016
  758MPD2    H711260   2.267   0.120  15.558  0.1367 -1.0632 -0.4870
  759MPD2     C11261   0.314   3.073  10.116 -0.5030  0.4838  0.4948
  759MPD2    C111262   0.396   3.002  10.033 -0.1407 -0.2650  0.2655
  759MPD2    C211263   0.421   3.056   9.908 -0.0379  0.3816 -0.1421
  759MPD2    C311264   0.362   3.172   9.862 -0.0210 -0.4374 -0.6004
  759MPD2    C411265   0.274   3.238   9.940  0.8737 -0.4093 -0.0819
  759MPD2    C511266   0.246   3.183  10.062 -0.3922 -1.2868  0.3876
  759MPD2     H11267   0.496   3.013   9.843  1.0799  2.0004  0.0842
  759MPD2    H111268   0.221   3.325   9.901 -0.4483 -0.4738  1.5839
  759MPD2    H211269   0.284   3.050  10.218  0.1723 -1.5556  0.2422
  759MPD2    H311270   0.173   3.240  10.119 -0.3542  0.2629 -1.1058
  759MPD2     N11271   0.397   3.207   9.730  0.5314  0.6652  0.5454
  759MPD2    H511272   0.479   3.156   9.698  1.6686  0.9201  3.0562
  759MPD2    N111273   0.451   2.875  10.075 -0.1924 -0.3606 -0.3371
  759MPD2    H711274   0.507   2.824  10.007  1.8290 -0.1111  1.1523
  760MPD2     C11275   0.505   0.627  11.788  0.5764  0.3994 -0.2888
  760MPD2    C111276   0.640   0.618  11.790 -0.2572 -0.2280 -0.0890
  760MPD2    C211277   0.699   0.502  11.826  0.0222 -0.2665 -0.2774
  760MPD2    C311278   0.625   0.389  11.862 -0.1173 -0.6836 -0.6489
  760MPD2    C411279   0.492   0.405  11.873 -0.5975 -0.2603  0.0211
  760MPD2    C511280   0.434   0.518  11.831  0.0295 -0.4079 -0.6023
  760MPD2     H11281   0.807   0.495  11.819  0.2259  1.1415  1.4594
  760MPD2    H111282   0.424   0.326  11.901  0.8867 -1.4835  0.1938
  760MPD2    H211283   0.449   0.713  11.753 -0.8918  0.0037  1.0740
  760MPD2    H311284   0.327   0.530  11.815  0.0235 -0.4822 -0.6169
  760MPD2     N11285   0.689   0.260  11.873  0.5049  0.2671 -0.2727
  760MPD2    H511286   0.627   0.179  11.883 -0.4345  1.3361  2.4827
  760MPD2    N111287   0.732   0.720  11.760 -0.3778 -0.0401  0.4192
  760MPD2    H711288   0.829   0.691  11.768  0.3952  2.9754  1.7205
  761MPD2     C11289   1.640   0.173  11.168  0.3785 -0.3617  0.2703
  761MPD2    C111290   1.737   0.121  11.084  0.6500  0.2695 -0.8949
  761MPD2    C211291   1.868   0.168  11.100 -1.2765 -0.1534  0.3145
  761MPD2    C311292   1.908   0.250  11.203  0.7857  0.7926  0.0211
  761MPD2    C411293   1.809   0.316  11.273 -0.5759  0.0061 -0.0383
  761MPD2    C511294   1.682   0.258  11.263 -0.1840  0.3158 -0.5779
  761MPD2     H11295   1.946   0.128  11.036 -1.2603  0.4473 -0.0446
  761MPD2    H111296   1.832   0.377  11.360 -0.9680  2.2629 -1.5205
  761MPD2    H211297   1.536   0.143  11.157  0.7866 -1.7966  0.3768
  761MPD2    H311298   1.604   0.298  11.326  2.3776 -0.5016  3.1299
  761MPD2     N11299   2.041   0.278  11.241 -0.3202  0.3000  0.0955
  761MPD2    H511300   2.060   0.338  11.321  1.0909  0.6250 -0.4890
  761MPD2    N111301   1.699   0.032  10.984  0.3150  0.1769 -0.4815
  761MPD2    H711302   1.613   4.714  11.000  0.4141 -0.2384 -1.3368
  762MPD2     C11303   2.157   0.117  10.501  0.3376 -0.2636 -0.6313
  762MPD2    C111304   2.115   4.724  10.464 -0.3111  0.5105 -0.9545
  762MPD2    C211305   2.189   4.658  10.373  0.2549  0.0649  0.0110
  762MPD2    C311306   2.310   4.707  10.325 -0.4885  0.2509 -0.1919
  762MPD2    C411307   2.355   0.093  10.374  0.1166 -0.5454  0.4334
  762MPD2    C511308   2.282   0.168  10.464 -0.0765  0.0332  0.0688
  762MPD2     H11309   2.153   4.560  10.344 -0.8845  1.5941 -3.6235
  762MPD2    H111310   2.451   0.132  10.343 -0.8765  0.6193 -1.1905
  762MPD2    H211311   2.096   0.175  10.570 -0.1180 -0.6878 -0.6813
  762MPD2    H311312   2.326   0.252  10.517 -0.4296  0.5326 -0.4224
  762MPD2     N11313   2.385   4.624  10.235  0.1059 -0.2480 -0.1490
  762MPD2    H511314   2.357   4.527  10.221 -0.8764 -0.2699  1.8892
  762MPD2    N111315   1.992   4.684  10.526 -0.2831  0.2175 -0.3694
  762MPD2    H711316   1.945   0.021  10.580  1.5864 -0.1520  1.7719
  763MPD2     C11317   4.187   0.322  16.057  0.4080 -0.6231  0.2156
  763MPD2    C111318   4.078   0.403  16.029 -0.4432 -0.3305 -0.0639
  763MPD2    C211319   4.069   0.523  16.091 -0.2531 -0.1988 -0.4142
  763MPD2    C311320   4.156   0.555  16.191  0.1340 -0.6861 -0.7981
  763MPD2    C411321   4.266   0.482  16.207 -0.3363  0.0897  0.0110
  763MPD2    C511322   4.288   0.368  16.138  0.7709 -0.2878 -0.0648
  763MPD2     H11323   3.980   0.580  16.068 -0.6544 -0.3300  0.8575
  763MPD2    H111324   4.336   0.512  16.284 -0.8325 -2.7526  1.5862
  763MPD2    H211325   4.192   0.230  16.000 -2.9036  0.4591 -1.7930
  763MPD2    H311326   4.366   0.296  16.162  1.2933  0.4314  0.3891
  763MPD2     N11327   4.145   0.672  16.266 -0.6259  0.6115  1.3045
  763MPD2    H511328   4.234   0.695  16.308 -1.2567  1.3611  2.2355
  763MPD2    N111329   3.982   0.378  15.933  0.0676  0.3555  0.5326
  763MPD2    H711330   3.920   0.456  15.911 -1.1065 -1.2001 -1.6526
  764MPD2     C11331   2.941   1.892  16.944 -0.1801  0.0971  0.4525
  764MPD2    C111332   2.812   1.940  16.931 -0.3129 -0.0124 -0.1413
  764MPD2    C211333   2.726   1.943  17.037 -0.0012  0.6265  0.0869
  764MPD2    C311334   2.771   1.902  17.159 -0.3205 -0.0750 -0.2724
  764MPD2    C411335   2.902   1.858  17.182 -0.3158  0.2953 -0.1765
  764MPD2    C511336   2.981   1.851  17.071 -0.1540 -0.2621  0.7074
  764MPD2     H11337   2.621   1.967  17.029  0.3436  1.4574 -1.8351
  764MPD2    H111338   2.943   1.814  17.272 -0.8977 -0.1688 -0.1370
  764MPD2    H211339   3.015   1.886  16.866 -0.3853 -0.9589  0.3399
  764MPD2    H311340   3.080   1.809  17.089 -0.3951 -0.0858  2.4163
  764MPD2     N11341   2.674   1.897  17.268  0.0153  0.2544  0.3128
  764MPD2    H511342   2.577   1.926  17.261  0.6552  2.2857 -0.0191
  764MPD2    N111343   2.752   1.972  16.805 -0.1887 -0.8363 -0.3147
  764MPD2    H711344   2.654   1.995  16.809  0.1127  0.6618 -1.0931
  765MPD2     C11345   1.830   4.459  15.105 -0.3579 -0.2909  0.6816
  765MPD2    C111346   1.896   4.522  15.211  0.1894 -0.0506 -0.3123
  765MPD2    C211347   2.027   4.501  15.228  0.3942 -0.2453  0.1342
  765MPD2    C311348   2.105   4.423  15.144 -0.3830 -0.4877  0.2167
  765MPD2    C411349   2.043   4.365  15.034 -0.1539  0.4253  0.7989
  765MPD2    C511350   1.907   4.387  15.016 -1.1619  0.4334 -0.5003
  765MPD2     H11351   2.066   4.538  15.323 -1.0301 -2.0309  1.4238
  765MPD2    H111352   2.103   4.302  14.969 -0.6541  1.7418 -0.9485
  765MPD2    H211353   1.723   4.459  15.092 -0.3558 -2.2119  0.6330
  765MPD2    H311354   1.851   4.339  14.937 -2.7546 -2.4204  2.3725
  765MPD2     N11355   2.238   4.380  15.169  0.7389  0.0119 -0.2963
  765MPD2    H511356   2.283   4.312  15.108  3.6678 -0.2775  2.1549
  765MPD2    N111357   1.822   4.593  15.310 -0.0200 -0.0514 -0.5147
  765MPD2    H711358   1.722   4.590  15.298 -0.1422  2.1578 -0.0435
  766MPD2     C11359   1.343   4.596  15.126 -0.4813 -0.5488  0.7260
  766MPD2    C111360   1.467   4.648  15.129  0.1737  0.5274 -0.1415
  766MPD2    C211361   1.545   4.656  15.012  0.1432 -0.0453 -1.2820
  766MPD2    C311362   1.495   4.594  14.898  0.8150 -0.5117  0.5761
  766MPD2    C411363   1.360   4.540  14.892 -0.1006 -0.2392 -1.1814
  766MPD2    C511364   1.289   4.549  15.011  0.6875  0.2452  0.3084
  766MPD2     H11365   1.642   4.705  15.013  1.0011 -1.7767  1.7085
  766MPD2    H111366   1.321   4.496  14.802  0.5400  0.9938 -2.0576
  766MPD2    H211367   1.279   4.591  15.213 -0.1698 -1.1531  0.9165
  766MPD2    H311368   1.188   4.508  15.008  0.8493 -0.0909 -0.6917
  766MPD2     N11369   1.564   4.590  14.777  0.0265 -0.0854  0.5834
  766MPD2    H511370   1.510   4.578  14.691  0.3881 -0.7763  0.4491
  766MPD2    N111371   1.511   4.714  15.244 -0.3756  0.1826 -0.1150
  766MPD2    H711372   1.607   0.010  15.249  0.4751 -2.6268  1.1606
  767MPD2     C11373   1.103   0.045  14.900 -0.6466  0.1523  0.2152
  767MPD2    C111374   1.199   0.125  14.844  0.8531  0.1765  1.1967
  767MPD2    C211375   1.212   0.133  14.704  0.3879 -1.0291  0.1946
  767MPD2    C311376   1.124   0.057  14.625  0.5306  0.2798  0.1367
  767MPD2    C411377   1.043   4.696  14.687  0.4419  0.0600 -0.6028
  767MPD2    C511378   1.033   4.692  14.823 -0.0844  0.2411  0.5474
  767MPD2     H11379   1.279   0.197  14.647  0.6013 -2.3280 -1.0445
  767MPD2    H111380   0.972   4.642  14.625 -2.6916  1.2992  1.8722
  767MPD2    H211381   1.100   0.041  15.008  1.4356 -5.9270  0.0446
  767MPD2    H311382   0.954   4.633  14.869 -0.3326  1.6832  1.9527
  767MPD2     N11383   1.144   0.052  14.491 -0.1573 -0.6447 -0.5453
  767MPD2    H511384   1.230   0.096  14.458 -0.6094  1.0705  0.5631
  767MPD2    N111385   1.266   0.210  14.935  0.5048 -0.3846  0.1596
  767MPD2    H711386   1.261   0.186  15.033 -1.1267  1.0220  0.4001
  768MPD2     C11387   2.061   3.186  10.819 -0.1690 -0.2185 -0.8927
  768MPD2    C111388   1.938   3.164  10.879 -0.5969  0.0299 -0.4287
  768MPD2    C211389   1.932   3.156  11.021 -0.0804 -0.7139  0.5847
  768MPD2    C311390   2.040   3.177  11.099  0.0068 -0.9019  0.2078
  768MPD2    C411391   2.162   3.200  11.040 -0.7299  0.3582 -0.0831
  768MPD2    C511392   2.167   3.197  10.904  0.0618 -0.2580  0.2222
  768MPD2     H11393   1.832   3.139  11.061  0.6666 -1.3789  2.1513
  768MPD2    H111394   2.252   3.222  11.097 -1.1522  1.5821  0.1083
  768MPD2    H211395   2.080   3.186  10.712  0.7245 -0.9489 -0.7361
  768MPD2    H311396   2.266   3.212  10.862 -0.2873 -0.1326 -0.5568
  768MPD2     N11397   2.019   3.170  11.240 -0.1866  0.2801 -0.0701
  768MPD2    H511398   1.929   3.135  11.271  0.2938  0.0967  1.1143
  768MPD2    N111399   1.819   3.135  10.810 -0.2465  0.3657 -0.0921
  768MPD2    H711400   1.737   3.113  10.866 -0.4110 -2.5841 -1.5205
  769MPD2     C11401   2.897   1.890  14.377  0.2126 -0.0596 -0.1617
  769MPD2    C111402   2.841   1.797  14.465  0.1060 -0.7034 -0.3975
  769MPD2    C211403   2.919   1.776  14.580  0.9747  0.0704  1.1312
  769MPD2    C311404   3.030   1.839  14.621  0.2690  0.7545 -0.1638
  769MPD2    C411405   3.076   1.942  14.538  0.3351  0.1239  0.0608
  769MPD2    C511406   3.010   1.958  14.414 -0.2045  0.0234 -0.4252
  769MPD2     H11407   2.885   1.701  14.651 -0.7736 -0.3056 -0.1087
  769MPD2    H111408   3.157   2.008  14.566 -0.2208  0.4693  0.8395
  769MPD2    H211409   2.854   1.921  14.283 -0.3688  0.8146  0.3900
  769MPD2    H311410   3.051   2.033  14.347  1.5540 -3.0942 -2.8145
  769MPD2     N11411   3.101   1.791  14.736 -0.3508  0.5662  0.5181
  769MPD2    H511412   3.056   1.714  14.784  1.5600 -0.1139  1.2205
  769MPD2    N111413   2.728   1.723  14.436 -0.0816 -0.4504 -0.0220
  769MPD2    H711414   2.674   1.752  14.355 -1.7267 -2.3148  0.4131
  770MPD2     C11415   2.109   1.007  14.795  0.5880 -0.4986  0.2082
  770MPD2    C111416   2.248   1.013  14.791 -0.9321  0.5811 -0.1707
  770MPD2    C211417   2.306   1.126  14.733 -0.1415 -0.4598  0.3292
  770MPD2    C311418   2.222   1.232  14.698 -0.0763 -0.6113 -0.1212
  770MPD2    C411419   2.084   1.230  14.710  0.8572  0.2196  0.5002
  770MPD2    C511420   2.029   1.117  14.755 -0.1554  0.3563  0.7820
  770MPD2     H11421   2.412   1.148  14.732 -0.3734  0.6640  1.1683
  770MPD2    H111422   2.019   1.305  14.666 -0.1090 -0.7776  0.2187
  770MPD2    H211423   2.063   0.915  14.828 -1.6171  0.1333 -1.0902
  770MPD2    H311424   1.922   1.102  14.745 -0.0821 -2.4790  4.2360
  770MPD2     N11425   2.288   1.344  14.649 -0.0865 -0.2629 -0.1493
  770MPD2    H511426   2.389   1.336  14.641 -0.2173 -2.7827  0.8074
  770MPD2    N111427   2.324   0.891  14.828 -0.1539  0.2678 -0.3871
  770MPD2    H711428   2.280   0.813  14.874 -2.0597  0.0733 -2.5346
  771MPD2     C11429   3.746   4.198  13.618  0.6560  0.7606  0.5552
  771MPD2    C111430   3.691   4.268  13.507 -0.2169  0.2857 -0.5900
  771MPD2    C211431   3.620   4.194  13.410  0.1542  0.4424 -0.3523
  771MPD2    C311432   3.600   4.059  13.425  0.2563  0.4886 -0.1279
  771MPD2    C411433   3.644   3.990  13.540  0.1816  0.2940 -0.1107
  771MPD2    C511434   3.720   4.068  13.632 -0.1215  0.0753  0.6115
  771MPD2     H11435   3.582   4.249  13.325 -1.8052  0.0090  0.2629
  771MPD2    H111436   3.618   3.888  13.565  0.5202 -0.7204 -3.9574
  771MPD2    H211437   3.779   4.251  13.707  0.6897 -1.0787  1.6292
  771MPD2    H311438   3.742   4.020  13.726 -0.6068  0.7131  1.0467
  771MPD2     N11439   3.530   3.998  13.317 -0.6931 -0.1800 -0.6827
  771MPD2    H511440   3.489   4.046  13.237 -1.3826  0.0619 -0.1793
  771MPD2    N111441   3.690   4.406  13.500 -0.9596  0.4769 -0.1574
  771MPD2    H711442   3.626   4.453  13.436  0.1031  2.2516  0.0665
  772MPD2     C11443   3.158   0.107  13.459  0.6373 -0.7345  0.3706
  772MPD2    C111444   3.216   4.724  13.427  0.1117 -0.2950  0.1769
  772MPD2    C211445   3.144   4.607  13.411  0.2209  0.6806 -0.0362
  772MPD2    C311446   3.010   4.617  13.392  0.4195  0.1115 -0.1458
  772MPD2    C411447   2.948   0.006  13.404 -0.2618 -0.1284 -0.7404
  772MPD2    C511448   3.021   0.111  13.449  0.1359  1.6416 -0.2242
  772MPD2     H11449   3.187   4.508  13.400  1.8151  1.6188 -2.4343
  772MPD2    H111450   2.840   0.015  13.402 -0.0096  3.3167  0.8879
  772MPD2    H211451   3.206   0.197  13.496 -0.3661 -0.7847  1.8167
  772MPD2    H311452   2.969   0.201  13.479  1.0791  1.2334  2.6250
  772MPD2     N11453   2.929   4.505  13.370  0.5433 -0.0303  0.5538
  772MPD2    H511454   2.830   4.526  13.373  0.3974 -0.4773 -1.1899
  772MPD2    N111455   3.357   4.711  13.435  0.1473  0.6179  0.5335
  772MPD2    H711456   3.393   4.617  13.436 -1.7805 -0.1758 -2.4193
  773MPD2     C11457   2.816   0.734  17.582 -0.1790  0.2960 -0.0126
  773MPD2    C111458   2.814   0.606  17.543  0.6194  0.1205  0.3172
  773MPD2    C211459   2.901   0.511  17.588 -0.9813  0.2266  0.5960
  773MPD2    C311460   2.986   0.548  17.692 -0.1808  0.5417  0.3696
  773MPD2    C411461   2.981   0.678   0.007  0.1836  0.4565  0.4009
  773MPD2    C511462   2.904   0.769  17.679  0.1754  0.6849 -0.1661
  773MPD2     H11463   2.895   0.405  17.567  0.4648  0.8143 -2.7559
  773MPD2    H111464   3.036   0.702   0.097  0.6212  0.6153  0.0923
  773MPD2    H211465   2.747   0.811  17.550  1.0324  0.7372 -1.5979
  773MPD2    H311466   2.913   0.872  17.711  0.8789  0.8050 -0.7435
  773MPD2     N11467   3.065   0.443   0.009 -0.0695 -0.4561 -0.5919
  773MPD2    H511468   3.039   0.347  17.727 -0.3250 -0.5928  0.3476
  773MPD2    N111469   2.711   0.556  17.462 -0.2138  0.0073  0.0584
  773MPD2    H711470   2.699   0.456  17.459 -0.4898  0.0670 -0.6713
  774MPD2     C11471   1.315   0.048  13.442 -0.0341 -0.6802  0.2028
  774MPD2    C111472   1.446   0.077  13.467  0.2946  0.4249  0.0518
  774MPD2    C211473   1.498   0.209  13.477 -0.0728  0.1717  0.3791
  774MPD2    C311474   1.407   0.314  13.460  0.2807  0.0321  0.1074
  774MPD2    C411475   1.272   0.284  13.438  0.9183 -0.4730  0.1475
  774MPD2    C511476   1.234   0.156  13.435 -0.1029 -0.9801  0.4485
  774MPD2     H11477   1.598   0.233  13.511 -0.2157  0.2889  0.7085
  774MPD2    H111478   1.200   0.365  13.440  0.6282 -0.7760  1.8063
  774MPD2    H211479   1.277   4.683  13.463  1.2604 -1.5056 -1.4080
  774MPD2    H311480   1.127   0.138  13.433 -0.1332 -0.4459 -2.5587
  774MPD2     N11481   1.461   0.445  13.486  0.2554  0.1359  0.2836
  774MPD2    H511482   1.560   0.448  13.506  0.4753  1.0451 -0.9030
  774MPD2    N111483   1.535   4.713  13.504  0.3706  0.1193 -0.6159
  774MPD2    H711484   1.628   0.005  13.534  0.6229 -2.3741  0.8648
  775MPD2     C11485   3.272   0.973  15.555 -0.4620 -0.6009 -0.3247
  775MPD2    C111486   3.267   1.077  15.641 -0.3305 -0.2122  0.1294
  775MPD2    C211487   3.351   1.185  15.625 -0.6021 -0.5650  0.1487
  775MPD2    C311488   3.440   1.193  15.521  0.2575  0.1493 -0.6543
  775MPD2    C411489   3.450   1.090  15.433 -0.4663  0.1982  0.1923
  775MPD2    C511490   3.374   0.977  15.464 -0.0233 -0.4347  0.1288
  775MPD2     H11491   3.334   1.275  15.682 -0.9463 -2.0559  2.3889
  775MPD2    H111492   3.523   1.105  15.354  1.5155 -1.3365  1.7058
  775MPD2    H211493   3.211   0.883  15.551 -0.0628 -0.8290 -1.2593
  775MPD2    H311494   3.360   0.901  15.388  0.4783  0.1982 -0.5955
  775MPD2     N11495   3.526   1.300  15.490 -0.0930  0.2767  0.4915
  775MPD2    H511496   3.578   1.294  15.403  0.7879 -0.0405  1.0293
  775MPD2    N111497   3.172   1.068  15.749  0.3562  0.1904 -0.7079
  775MPD2    H711498   3.118   0.982  15.749 -2.4600  1.9487 -0.4879
  776MPD2     C11499   2.400   1.735  11.607 -0.1070  0.8399 -0.0667
  776MPD2    C111500   2.319   1.741  11.493 -0.0887 -0.2270  0.1602
  776MPD2    C211501   2.319   1.846  11.406  0.2620  0.4451  0.0751
  776MPD2    C311502   2.396   1.958  11.437 -0.1862 -0.1896 -0.1644
  776MPD2    C411503   2.464   1.960  11.559  0.0009 -0.8144 -0.6863
  776MPD2    C511504   2.459   1.851  11.636  0.1028  0.5390  0.2372
  776MPD2     H11505   2.261   1.852  11.314 -0.8113 -0.2164  0.7124
  776MPD2    H111506   2.523   2.044  11.592  1.9230 -1.9760 -1.1849
  776MPD2    H211507   2.405   1.652  11.677 -1.2152  0.7776 -0.0604
  776MPD2    H311508   2.514   1.847  11.729  0.7804 -0.0167 -0.1878
  776MPD2     N11509   2.411   2.064  11.347 -0.0366 -0.3475 -0.1021
  776MPD2    H511510   2.480   2.132  11.378 -0.0836 -0.2567 -0.1942
  776MPD2    N111511   2.258   1.621  11.455 -0.4772  0.2020  0.5294
  776MPD2    H711512   2.268   1.544  11.521  1.4580  1.6433  1.9234
  777MPD2     C11513   2.520   4.039   1.296  0.3053 -0.2363  0.1518
  777MPD2    C111514   2.651   4.077   1.310  0.0310 -0.7197  0.2790
  777MPD2    C211515   2.739   4.039   1.208  0.6475  0.5110  0.2760
  777MPD2    C311516   2.694   3.966   1.103 -0.1185  0.3407 -0.0135
  777MPD2    C411517   2.565   3.924   1.095  0.0926  0.0949 -0.1830
  777MPD2    C511518   2.479   3.975   1.187 -0.0597  0.5722 -0.9816
  777MPD2     H11519   2.844   4.062   1.215  0.0879  3.0501  0.3041
  777MPD2    H111520   2.525   3.859   1.018 -2.0811  1.8216 -0.5081
  777MPD2    H211521   2.453   4.084   1.368 -0.2988  2.0448 -1.8179
  777MPD2    H311522   2.373   3.954   1.179 -0.1723 -0.2881  2.9614
  777MPD2     N11523   2.791   3.930   1.002 -0.3383 -0.0143 -0.0871
  777MPD2    H511524   2.886   3.957   1.025 -1.2722  2.5046  0.9215
  777MPD2    N111525   2.682   4.162   1.421  0.0482 -0.5266  0.4161
  777MPD2    H711526   2.606   4.189   1.483  0.2288 -0.2821  0.5296
  778MPD2     C11527   3.991   4.382  14.915 -0.2898 -0.1640  0.0073
  778MPD2    C111528   4.019   4.277  14.830  0.5622  0.3927  0.1220
  778MPD2    C211529   4.091   4.304  14.715 -0.1516  0.7578 -0.7689
  778MPD2    C311530   4.141   4.433  14.689 -0.3915  0.0464  0.0351
  778MPD2    C411531   4.118   4.531  14.788  0.0669  0.2860 -0.3488
  778MPD2    C511532   4.038   4.509  14.893 -0.2319  0.2715  0.0717
  778MPD2     H11533   4.118   4.224  14.647 -2.2045  0.7307 -1.5546
  778MPD2    H111534   4.150   4.634  14.777  1.4539 -0.0394  0.6183
  778MPD2    H211535   3.949   4.370  15.014  0.0934 -0.2683  0.1554
  778MPD2    H311536   4.021   4.582  14.971 -1.1280 -0.6273  0.7154
  778MPD2     N11537   4.203   4.455  14.564 -0.3323 -0.4725  0.8846
  778MPD2    H511538   4.203   4.385  14.491  1.5632 -0.2269  0.6392
  778MPD2    N111539   3.975   4.140  14.847  0.3310 -0.2048  0.8484
  778MPD2    H711540   4.006   4.076  14.776 -0.4285  0.5744 -0.1843
  779MPD2     C11541   3.477   2.785  14.305 -0.3212  0.2076 -0.0377
  779MPD2    C111542   3.609   2.808  14.279  0.0887 -0.1001 -0.1726
  779MPD2    C211543   3.648   2.934  14.232 -0.8002 -0.6252  0.0799
  779MPD2    C311544   3.558   3.034  14.196  0.0937  0.3318  0.9884
  779MPD2    C411545   3.427   3.006  14.219 -0.9301  0.2435 -0.4731
  779MPD2    C511546   3.386   2.883  14.273  0.0228  0.1616  0.3319
  779MPD2     H11547   3.755   2.952  14.223 -1.2384  0.9464 -2.0816
  779MPD2    H111548   3.355   3.083  14.193 -1.5910  0.3322  1.5701
  779MPD2    H211549   3.434   2.693  14.342  0.5961 -0.5649 -0.8921
  779MPD2    H311550   3.281   2.866  14.289 -0.3861  2.8199  0.5738
  779MPD2     N11551   3.606   3.164  14.145  0.2675  0.5276 -0.0663
  779MPD2    H511552   3.706   3.178  14.144  0.4256 -0.4846  0.6279
  779MPD2    N111553   3.708   2.705  14.306  0.3035 -0.3056 -0.2400
  779MPD2    H711554   3.805   2.730  14.291  0.0658  0.8201  0.1029
  780MPD2     C11555   3.028   3.362   0.576 -0.8844  0.6108 -0.6435
  780MPD2    C111556   3.109   3.255   0.612  0.3483 -0.4389 -0.4999
  780MPD2    C211557   3.217   3.230   0.536 -0.4224  0.0779  0.4424
  780MPD2    C311558   3.250   3.298   0.427 -0.0599  0.3570 -0.0835
  780MPD2    C411559   3.169   3.404   0.387 -0.6485  0.4791 -0.6162
  780MPD2    C511560   3.057   3.430   0.467 -0.0869 -0.1974  0.2190
  780MPD2     H11561   3.285   3.148   0.556 -0.7265 -1.0561 -3.1619
  780MPD2    H111562   3.184   3.462   0.296 -0.3156 -1.7396 -1.9809
  780MPD2    H211563   2.952   3.393   0.647 -1.2044 -0.1675 -0.6458
  780MPD2    H311564   3.000   3.516   0.434 -1.9503 -0.6452  2.2493
  780MPD2     N11565   3.353   3.254   0.342  0.1197 -0.1208 -0.4043
  780MPD2    H511566   3.399   3.168   0.370 -0.8868 -0.4275  0.2925
  780MPD2    N111567   3.067   3.184   0.730 -0.4934  0.4099  0.6258
  780MPD2    H711568   2.990   3.227   0.781 -1.1746  0.7651 -0.7106
  781MPD2     C11569   0.510   0.036  11.650 -0.2754  0.8129  0.3510
  781MPD2    C111570   0.397   4.698  11.695 -0.4411  0.2299  0.3947
  781MPD2    C211571   0.367   4.592  11.618 -0.7182 -0.1023 -0.0030
  781MPD2    C311572   0.449   4.544  11.520  0.2585 -0.9670 -0.2507
  781MPD2    C411573   0.553   4.613  11.478 -0.6150 -0.3270  0.5917
  781MPD2    C511574   0.579   4.734  11.536  0.2973  0.1149  0.2736
  781MPD2     H11575   0.281   4.532  11.648  0.0769 -0.2428  2.0057
  781MPD2    H111576   0.610   4.588  11.388 -0.5746  0.1533  0.4809
  781MPD2    H211577   0.539   0.133  11.690  2.0297 -0.2569  1.3105
  781MPD2    H311578   0.654   0.067  11.498  1.5865 -0.1016  2.4018
  781MPD2     N11579   0.407   4.424  11.455 -0.3488  0.8499  0.2513
  781MPD2    H511580   0.319   4.384  11.483 -0.1669 -0.6668 -1.3078
  781MPD2    N111581   0.316   4.725  11.808 -0.2118  0.1360  0.1871
  781MPD2    H711582   0.231   4.670  11.816  1.1815 -2.0287  0.0160
  782MPD2     C11583   2.462   0.193  10.767  0.3969  0.0179  0.2410
  782MPD2    C111584   2.567   0.206  10.675 -0.4456 -0.6861  0.3193
  782MPD2    C211585   2.661   0.308  10.681  0.2984  0.0270 -0.4470
  782MPD2    C311586   2.656   0.401  10.777  0.0261  0.3260 -0.1743
  782MPD2    C411587   2.552   0.393  10.866  0.5155 -0.1208 -0.0523
  782MPD2    C511588   2.462   0.293  10.863  0.4788 -0.0202  0.6770
  782MPD2     H11589   2.747   0.313  10.614 -0.6636 -1.3945 -1.7767
  782MPD2    H111590   2.539   0.468  10.943  0.2648 -0.0086 -0.2018
  782MPD2    H211591   2.383   0.120  10.759  1.7989 -1.3873 -0.8295
  782MPD2    H311592   2.386   0.283  10.940  1.1211 -0.5687  1.2364
  782MPD2     N11593   2.759   0.498  10.783  0.2097  0.0387 -0.4772
  782MPD2    H511594   2.844   0.487  10.729  1.2253  0.9234  0.9415
  782MPD2    N111595   2.587   0.091  10.599 -0.6904 -0.5328 -0.4812
  782MPD2    H711596   2.527   0.011  10.617 -1.8695  0.5011  0.2195
  783MPD2     C11597   2.732   4.596  11.268  0.1091 -0.5597  0.3604
  783MPD2    C111598   2.698   4.698  11.188  0.5630 -0.2017 -0.1123
  783MPD2    C211599   2.721   4.692  11.054 -0.2476  0.1072 -0.7902
  783MPD2    C311600   2.784   4.583  11.001  0.2676 -0.0879 -0.0179
  783MPD2    C411601   2.826   4.478  11.084  0.8051  0.3999  0.4820
  783MPD2    C511602   2.795   4.487  11.216 -0.8874 -0.3180  0.5124
  783MPD2     H11603   2.686   0.040  10.994 -2.6883  1.2074  2.1487
  783MPD2    H111604   2.862   4.385  11.044  4.3397  0.9678  2.3885
  783MPD2    H211605   2.702   4.600  11.372 -1.7339  0.5645 -0.2178
  783MPD2    H311606   2.828   4.408  11.282  2.4737  1.7073  1.2613
  783MPD2     N11607   2.787   4.578  10.860  0.5215  0.0423  0.6838
  783MPD2    H511608   2.758   4.656  10.803  1.3796  1.5865  2.3531
  783MPD2    N111609   2.633   0.072  11.246 -0.1734 -0.0242  0.8359
  783MPD2    H711610   2.600   0.070  11.342  2.4261  1.7186  1.7601
  784MPD2     C11611   1.200   1.150   0.702 -0.1431 -0.0833 -0.5900
  784MPD2    C111612   1.177   1.244   0.796 -0.3732  0.2075 -0.5408
  784MPD2    C211613   1.084   1.343   0.770  0.0721  0.6464  0.9896
  784MPD2    C311614   1.008   1.335   0.655  0.2610  0.1321 -0.4936
  784MPD2    C411615   1.026   1.233   0.568  0.2749  0.3971 -0.3451
  784MPD2    C511616   1.122   1.140   0.590 -0.5140 -1.0985  0.1112
  784MPD2     H11617   1.060   1.421   0.842 -0.7875  0.4106  0.9601
  784MPD2    H111618   0.969   1.231   0.476  0.2693  0.3075 -0.3392
  784MPD2    H211619   1.283   1.081   0.711  0.4484  0.7762  0.5690
  784MPD2    H311620   1.149   1.069   0.513 -0.7789 -0.5668 -0.4734
  784MPD2     N11621   0.900   1.429   0.650  0.1240  0.6697 -0.1260
  784MPD2    H511622   0.914   1.513   0.706 -1.4523  1.2713 -0.6358
  784MPD2    N111623   1.265   1.263   0.911 -0.1844 -0.1465 -0.4568
  784MPD2    H711624   1.248   1.348   0.963 -2.0010 -1.8300  1.7145
  785MPD2     C11625   0.727   3.787  10.347 -0.7305 -0.2404  0.3360
  785MPD2    C111626   0.695   3.833  10.473  0.0438  0.6062  0.1296
  785MPD2    C211627   0.571   3.807  10.517  0.1680  0.8337  0.3895
  785MPD2    C311628   0.476   3.739  10.438  0.6277 -0.2012  0.4323
  785MPD2    C411629   0.510   3.684  10.313  0.6332  1.0735 -0.7074
  785MPD2    C511630   0.640   3.713  10.270  0.3014 -0.0407  0.4074
  785MPD2     H11631   0.527   3.843  10.610  1.7665  3.2505  0.2122
  785MPD2    H111632   0.442   3.627  10.252  0.0868  0.9251  0.0409
  785MPD2    H211633   0.826   3.803  10.307 -0.8018  0.5491  0.4830
  785MPD2    H311634   0.665   3.684  10.169 -0.2561 -1.7200  0.7467
  785MPD2     N11635   0.347   3.745  10.484  0.5851  0.0401 -0.9327
  785MPD2    H511636   0.330   3.792  10.572  0.9088  1.4393 -1.6282
  785MPD2    N111637   0.783   3.912  10.546  0.5224 -0.5723 -0.4253
  785MPD2    H711638   0.877   3.923  10.509  0.2390  2.1201 -0.4041
  786MPD2     C11639   3.729   1.887  14.608 -0.1869 -0.1097 -0.5472
  786MPD2    C111640   3.868   1.865  14.588  0.1110 -0.2077  0.1110
  786MPD2    C211641   3.954   1.899  14.686 -0.0245 -1.0488  0.0665
  786MPD2    C311642   3.914   1.942  14.809 -0.4708 -0.1308  0.5431
  786MPD2    C411643   3.781   1.947  14.833  0.3645  0.2316 -0.2583
  786MPD2    C511644   3.684   1.921  14.734 -0.0797  0.1273  0.7145
  786MPD2     H11645   4.060   1.891  14.663  0.0184  1.2490 -0.5766
  786MPD2    H111646   3.753   1.951  14.938  2.0958  1.0989  0.1712
  786MPD2    H211647   3.655   1.847  14.539 -2.7527 -0.0531  2.1586
  786MPD2    H311648   3.581   1.906  14.762  0.0545 -1.5623  0.3406
  786MPD2     N11649   3.998   1.962  14.920 -0.0685  0.5786 -0.1154
  786MPD2    H511650   3.952   1.976  15.010 -1.0727 -1.3686 -0.3309
  786MPD2    N111651   3.920   1.807  14.471 -0.0881 -0.3506 -0.2865
  786MPD2    H711652   4.021   1.803  14.465 -0.3032 -2.2307 -2.4567
  787MPD2     C11653   4.393   2.173  14.331  0.6206  0.2616  0.7191
  787MPD2    C111654   4.380   2.079  14.232 -0.0388 -0.2675 -0.6606
  787MPD2    C211655   4.499   2.045  14.172 -1.0140 -0.3693 -0.4433
  787MPD2    C311656   4.622   2.097  14.204  0.2126 -0.4260 -0.0402
  787MPD2    C411657   4.630   2.185  14.309  0.0052 -0.0672  0.0139
  787MPD2    C511658   4.513   2.227  14.372 -0.0111  1.1374 -0.1984
  787MPD2     H11659   4.499   1.967  14.096 -0.7710 -1.5674  0.7924
  787MPD2    H111660   4.722   2.230  14.346 -0.0818  0.2652 -0.1764
  787MPD2    H211661   4.304   2.205  14.384  1.3906  0.3662  1.9510
  787MPD2    H311662   4.516   2.304  14.449  1.8305  0.9241 -0.0566
  787MPD2     N11663   0.006   2.044  14.136  0.2793 -0.2201 -0.3245
  787MPD2    H511664   4.729   1.993  14.049  0.6633  1.2995 -1.2743
  787MPD2    N111665   4.252   2.024  14.199  0.0124 -0.4586 -0.3237
  787MPD2    H711666   4.173   2.059  14.254 -0.8488 -1.6749 -0.7783
  788MPD2     C11667   1.945   1.352   0.914 -0.0749  0.3342 -0.0077
  788MPD2    C111668   1.866   1.248   0.874  0.6199  0.4112 -0.8293
  788MPD2    C211669   1.762   1.272   0.779  0.2590  0.1940 -0.3708
  788MPD2    C311670   1.745   1.400   0.731  0.0679 -0.1054  0.6974
  788MPD2    C411671   1.824   1.504   0.775 -0.0403 -0.5710 -0.4139
  788MPD2    C511672   1.923   1.484   0.868 -0.5025 -0.0335 -0.1146
  788MPD2     H11673   1.697   1.185   0.769 -0.6593  1.0864 -2.0993
  788MPD2    H111674   1.810   1.602   0.731 -0.8830 -0.6303 -0.2773
  788MPD2    H211675   2.020   1.335   0.991 -1.6086  0.8599  1.5822
  788MPD2    H311676   1.986   1.566   0.901 -0.7017 -0.4494  1.3080
  788MPD2     N11677   1.654   1.429   0.623  0.0411  0.0091  0.1888
  788MPD2    H511678   1.651   1.523   0.584  0.3191  0.2675  0.7890
  788MPD2    N111679   1.873   1.124   0.929 -0.0627 -0.2714 -1.0162
  788MPD2    H711680   1.789   1.066   0.926 -0.0826 -0.3091  0.2950
  789MPD2     C11681   1.693   4.474  16.601 -1.1801  0.0730  0.8928
  789MPD2    C111682   1.601   4.511  16.505 -0.1549 -0.0139  0.0729
  789MPD2    C211683   1.513   4.614  16.525 -0.2821 -0.1542 -0.7745
  789MPD2    C311684   1.513   4.675  16.650  0.5526  0.4206  0.1028
  789MPD2    C411685   1.592   4.630  16.751  0.2248  0.6441  0.6387
  789MPD2    C511686   1.686   4.531  16.724  0.3051 -0.5733  0.0791
  789MPD2     H11687   1.434   4.631  16.453 -0.3273  0.3014 -0.6139
  789MPD2    H111688   1.594   4.681  16.847  0.6549  1.9828 -0.0869
  789MPD2    H211689   1.774   4.405  16.578 -1.7372 -0.3625  0.2165
  789MPD2    H311690   1.759   4.502  16.798 -0.2887 -0.9497  0.5122
  789MPD2     N11691   1.417   0.036  16.682 -0.0772  0.0169  0.6094
  789MPD2    H511692   1.414   0.062  16.780 -2.4231 -1.9317  1.0475
  789MPD2    N111693   1.610   4.473  16.364  0.3727  0.1686 -0.1095
  789MPD2    H711694   1.548   4.516  16.296 -1.5704  1.4695  2.4736
  790MPD2     C11695   3.384   2.222  13.417  0.8696 -0.0685  0.2897
  790MPD2    C111696   3.298   2.127  13.463 -0.6453  0.3357  0.5371
  790MPD2    C211697   3.198   2.078  13.383 -0.0454  0.4150 -0.7484
  790MPD2    C311698   3.185   2.128  13.254  0.2193 -0.2476 -0.5691
  790MPD2    C411699   3.285   2.217  13.208  0.1233 -0.5591 -0.5057
  790MPD2    C511700   3.376   2.268  13.293 -0.0974 -0.1097  0.0663
  790MPD2     H11701   3.126   2.005  13.417  0.7802 -0.5750 -1.1238
  790MPD2    H111702   3.270   2.247  13.106  0.4572  2.1754  0.2531
  790MPD2    H211703   3.457   2.259  13.488  0.9571  1.8883 -0.8286
  790MPD2    H311704   3.445   2.338  13.247  1.1791 -1.1768  0.3479
  790MPD2     N11705   3.078   2.093  13.174  0.1871  0.4101 -0.1442
  790MPD2    H511706   3.079   2.103  13.072  1.1753 -1.1222 -0.2889
  790MPD2    N111707   3.303   2.106  13.600 -0.8711  0.0361 -0.5564
  790MPD2    H711708   3.368   2.155  13.661  1.1213 -2.4465 -0.7084
  791MPD2     C11709   2.263   1.929  13.281  0.5281  0.2132  0.1697
  791MPD2    C111710   2.333   1.839  13.208 -0.0575 -0.1923  0.1455
  791MPD2    C211711   2.264   1.732  13.157  0.1264  0.1545  0.0919
  791MPD2    C311712   2.129   1.722  13.166  0.2313 -0.7542  0.0443
  791MPD2    C411713   2.062   1.814  13.237 -0.1584 -0.3104 -0.6415
  791MPD2    C511714   2.129   1.922  13.297  0.4079  1.0173 -0.1700
  791MPD2     H11715   2.316   1.651  13.107 -1.2056 -0.7443  0.1683
  791MPD2    H111716   1.954   1.815  13.253 -0.2305  3.0223 -1.4272
  791MPD2    H211717   2.317   2.016  13.318  1.0478  0.6621 -1.6383
  791MPD2    H311718   2.085   2.009  13.345 -3.2640 -0.7723 -0.2259
  791MPD2     N11719   2.065   1.606  13.113  0.3969  0.2222 -0.0162
  791MPD2    H511720   2.120   1.522  13.092 -1.2260 -0.8475  0.0115
  791MPD2    N111721   2.467   1.858  13.182 -0.7002 -0.8690  0.2502
  791MPD2    H711722   2.505   1.944  13.220 -0.5797  0.9496 -3.9758
  792MPD2     C11723   2.756   1.181  11.167 -0.8926 -0.8404 -0.3373
  792MPD2    C111724   2.620   1.216  11.167 -0.2631 -0.6642 -0.0694
  792MPD2    C211725   2.532   1.129  11.114  0.0104 -0.5228 -0.1251
  792MPD2    C311726   2.578   1.010  11.061  0.1880 -0.2161 -0.4334
  792MPD2    C411727   2.711   0.984  11.057  0.1526  0.1425  0.4339
  792MPD2    C511728   2.800   1.067  11.111 -0.3793 -0.4718  0.3298
  792MPD2     H11729   2.427   1.151  11.095  0.3327  2.2598  1.2954
  792MPD2    H111730   2.737   0.889  11.012  1.8201 -0.1750  2.0751
  792MPD2    H211731   2.840   1.239  11.203 -1.6973 -0.4128  0.8513
  792MPD2    H311732   2.907   1.046  11.110  0.0446  1.6358  0.2452
  792MPD2     N11733   2.490   0.909  11.004 -0.2497 -0.0598 -0.4255
  792MPD2    H511734   2.543   0.829  10.969 -1.2016  0.4505 -3.0622
  792MPD2    N111735   2.584   1.348  11.196  0.4238  0.2496 -0.1326
  792MPD2    H711736   2.656   1.416  11.215 -0.9086  1.5969  0.1176
  793MPD2     C11737   1.671   1.006  10.349 -0.2382  0.2012 -0.6944
  793MPD2    C111738   1.804   1.039  10.330  0.5066 -0.2462 -0.9492
  793MPD2    C211739   1.897   0.980  10.413  0.1694 -0.8781 -0.2449
  793MPD2    C311740   1.870   0.898  10.515  0.0423 -0.1504  0.1950
  793MPD2    C411741   1.734   0.877  10.542  0.7025 -0.1409  0.6290
  793MPD2    C511742   1.641   0.935  10.461 -0.2513 -0.2987 -0.1580
  793MPD2     H11743   2.000   1.002  10.389  0.6996 -2.4600  0.6318
  793MPD2    H111744   1.695   0.810  10.618 -2.5495 -0.7907 -1.6345
  793MPD2    H211745   1.597   1.055  10.287  0.4657  0.4216 -1.3579
  793MPD2    H311746   1.537   0.925  10.488  0.3942 -3.3990  1.2162
  793MPD2     N11747   1.976   0.851  10.586  0.2177 -0.4300 -0.9794
  793MPD2    H511748   2.065   0.864  10.539 -0.0380  1.7884 -0.8471
  793MPD2    N111749   1.860   1.119  10.225  0.0850 -0.1085 -0.1584
  793MPD2    H711750   1.960   1.137  10.226  0.2647 -1.1348  0.1885
  794MPD2     C11751   2.391   0.498  16.719  1.0812  0.5423 -0.3273
  794MPD2    C111752   2.357   0.603  16.805 -0.2531  0.0586 -0.3830
  794MPD2    C211753   2.337   0.727  16.746 -0.6209 -0.0392 -0.1585
  794MPD2    C311754   2.326   0.744  16.610 -0.6289  0.1715  0.3207
  794MPD2    C411755   2.331   0.634  16.528  0.6808 -0.1903  0.5176
  794MPD2    C511756   2.380   0.515  16.585 -0.5345  0.1538 -0.2753
  794MPD2     H11757   2.331   0.813  16.810  2.3220 -0.3091  0.5134
  794MPD2    H111758   2.327   0.640  16.419 -0.6282 -0.1545  0.5642
  794MPD2    H211759   2.409   0.402  16.767  0.7764  0.0290 -1.2416
  794MPD2    H311760   2.402   0.428  16.524  1.2869  0.9842 -0.7849
  794MPD2     N11761   2.298   0.868  16.554  0.2512 -0.1326 -0.1121
  794MPD2    H511762   2.278   0.862  16.454  1.5546  0.7519 -0.4196
  794MPD2    N111763   2.367   0.598  16.947 -0.3223 -0.8891  0.0697
  794MPD2    H711764   2.357   0.678  17.010 -0.7847 -0.7072 -0.2360
  795MPD2     C11765   0.108   3.345  13.863  0.0795  0.0542 -0.1371
  795MPD2    C111766   0.027   3.244  13.822  1.1641  0.4543  0.0049
  795MPD2    C211767   0.081   3.118  13.820 -0.7337 -0.0413 -0.6876
  795MPD2    C311768   0.211   3.097  13.855  0.0962 -0.2833 -0.1809
  795MPD2    C411769   0.292   3.202  13.898  0.1955 -0.4638  0.3227
  795MPD2    C511770   0.241   3.327  13.892  0.3535 -0.1253  0.5295
  795MPD2     H11771   0.009   3.038  13.809 -0.2842 -0.7567  1.7953
  795MPD2    H111772   0.400   3.198  13.907  0.3381  1.6130 -0.4812
  795MPD2    H211773   0.078   3.448  13.871  1.9626  0.4312  1.9702
  795MPD2    H311774   0.299   3.415  13.916  1.8461 -1.5680  2.2389
  795MPD2     N11775   0.255   2.962  13.854  0.3355  0.1233  0.2583
  795MPD2    H511776   0.195   2.889  13.816  0.7222  0.0575 -0.2297
  795MPD2    N111777   4.624   3.260  13.777  0.0293  0.0766  0.5166
  795MPD2    H711778   4.562   3.181  13.790  1.7570 -1.2292  0.6551
  796MPD2     C11779   4.375   4.598  15.755 -0.6482 -0.7177 -0.3040
  796MPD2    C111780   4.452   4.677  15.833  0.7505 -0.2565 -0.0671
  796MPD2    C211781   4.434   0.077  15.838  0.5614 -0.1180  0.3487
  796MPD2    C311782   4.340   0.139  15.753 -0.5362 -0.0015 -0.1642
  796MPD2    C411783   4.267   0.056  15.665 -1.0925  0.3705  0.6219
  796MPD2    C511784   4.281   4.653  15.671 -0.0627 -0.8179 -0.2791
  796MPD2     H11785   4.496   0.143  15.898  1.6169 -2.1729  1.5098
  796MPD2    H111786   4.190   0.094  15.599 -1.1572 -0.0086  0.4776
  796MPD2    H211787   4.392   4.491  15.751  0.0430 -0.5472 -2.0249
  796MPD2    H311788   4.213   4.589  15.617 -1.7595  2.9021 -2.5613
  796MPD2     N11789   4.336   0.284  15.753  0.7045  0.3517  0.3140
  796MPD2    H511790   4.382   0.345  15.821 -1.6718  1.2570  1.1024
  796MPD2    N111791   4.556   4.625  15.908  0.0981 -0.1132  0.8019
  796MPD2    H711792   4.551   4.525  15.919 -4.2670  0.0257  0.0407
  797MPD2     C11793   1.442   4.382  17.231 -0.3128 -0.2447 -0.2460
  797MPD2    C111794   1.370   4.495  17.251  0.4278  0.2020 -0.4533
  797MPD2    C211795   1.277   4.532  17.156 -0.3554  0.1417 -0.0457
  797MPD2    C311796   1.255   4.462  17.035 -0.1536  0.1968 -0.9583
  797MPD2    C411797   1.346   4.358  17.009 -0.4539  0.1728  0.1541
  797MPD2    C511798   1.432   4.318  17.109 -0.2433  0.3256 -0.0850
  797MPD2     H11799   1.226   4.626  17.177  1.1582  0.9489 -0.0260
  797MPD2    H111800   1.340   4.308  16.914 -0.3912 -0.4173  0.4619
  797MPD2    H211801   1.510   4.351  17.309 -1.6386  0.8171  1.3269
  797MPD2    H311802   1.493   4.232  17.085 -0.0189  0.7027 -0.8518
  797MPD2     N11803   1.147   4.490  16.936  0.0604  0.3184  0.1070
  797MPD2    H511804   1.137   4.420  16.863 -0.6488  0.6397 -0.0981
  797MPD2    N111805   1.370   4.581  17.361  0.0076  0.6998 -0.1941
  797MPD2    H711806   1.314   4.665  17.351 -1.3729 -0.2801 -0.6226
  798MPD2     C11807   0.728   0.241  17.274 -0.2282  0.0791  0.6922
  798MPD2    C111808   0.822   0.153  17.222 -0.1155  0.1187  0.5087
  798MPD2    C211809   0.929   0.119  17.300 -0.0205 -0.0319 -0.1290
  798MPD2    C311810   0.932   0.156  17.432 -0.3173 -0.3572  0.0615
  798MPD2    C411811   0.828   0.233  17.490 -0.0967  0.1876  0.1924
  798MPD2    C511812   0.732   0.276  17.405  0.0666 -0.1760  1.0756
  798MPD2     H11813   1.010   0.060  17.260  0.5655  0.7329 -0.0722
  798MPD2    H111814   0.832   0.272  17.591 -1.1312  0.5007  0.1128
  798MPD2    H211815   0.648   0.280  17.212 -0.8157 -3.5445 -0.8507
  798MPD2    H311816   0.661   0.344  17.452 -1.3550 -0.4783 -0.6515
  798MPD2     N11817   1.048   0.115  17.501 -0.6292  0.4469  0.2592
  798MPD2    H511818   1.119   0.074  17.441 -0.8487 -0.2133  0.4410
  798MPD2    N111819   0.830   0.098  17.091 -0.1499 -0.0706  0.0259
  798MPD2    H711820   0.902   0.028  17.077  1.1276  1.3282 -0.3295
  799MPD2     C11821   4.362   1.339  14.147 -0.6199 -0.2203  0.3695
  799MPD2    C111822   4.342   1.258  14.035 -0.0796 -0.9239  0.0044
  799MPD2    C211823   4.289   1.313  13.919  0.0970 -0.9020  0.1837
  799MPD2    C311824   4.292   1.450  13.904  0.6032 -1.1342  0.4846
  799MPD2    C411825   4.323   1.524  14.015  0.0939 -0.1025  0.0109
  799MPD2    C511826   4.360   1.472  14.136  0.0513 -0.1105 -0.8547
  799MPD2     H11827   4.276   1.253  13.829  0.5795  0.2582 -0.6493
  799MPD2    H111828   4.306   1.631  14.012 -2.7544 -0.5912 -1.2504
  799MPD2    H211829   4.393   1.300  14.243  1.4220  0.0842 -0.1712
  799MPD2    H311830   4.374   1.533  14.224  0.1084  1.0874 -1.6860
  799MPD2     N11831   4.276   1.518  13.776  0.1475  0.0102  0.0737
  799MPD2    H511832   4.299   1.617  13.773 -2.2906  0.5932  0.6963
  799MPD2    N111833   4.378   1.122  14.032  0.5860 -0.1153  0.5500
  799MPD2    H711834   4.367   1.074  13.943 -2.6231  2.1171 -0.2477
  800MPD2     C11835   4.481   2.211  13.882 -0.4106  0.1870 -0.3915
  800MPD2    C111836   4.609   2.212  13.834  0.4062  0.6082  0.8670
  800MPD2    C211837   4.630   2.184  13.703  0.2356  0.5591  1.2158
  800MPD2    C311838   4.518   2.165  13.615  0.1367  0.5128 -0.1437
  800MPD2    C411839   4.389   2.164  13.675 -0.1897  0.8556  0.4279
  800MPD2    C511840   4.375   2.176  13.810  0.1036 -0.1376  0.5123
  800MPD2     H11841   4.731   2.188  13.664 -0.5954  0.1716 -0.9249
  800MPD2    H111842   4.296   2.160  13.620  0.9092  0.0275 -1.3587
  800MPD2    H211843   4.451   2.235  13.983 -1.2803  1.9123 -1.0537
  800MPD2    H311844   4.284   2.180  13.868 -0.9538 -1.7186 -1.0367
  800MPD2     N11845   4.549   2.155  13.481 -0.2411 -0.0495  0.2938
  800MPD2    H511846   4.645   2.172  13.453  0.1935 -1.1961  1.0903
  800MPD2    N111847   4.709   2.264  13.915 -0.7227  0.5157  0.1839
  800MPD2    H711848   4.671   2.315  13.994 -1.2154 -1.7711  1.4271
  801MPD2     C11849   0.066   2.959  14.172 -0.3562 -0.8216 -0.2994
  801MPD2    C111850   0.121   2.870  14.266  0.5260 -0.3600  0.1685
  801MPD2    C211851   0.125   2.916  14.399  0.0059  0.7210 -0.3420
  801MPD2    C311852   0.077   3.046  14.432 -0.9664  0.0565 -0.4602
  801MPD2    C411853   0.032   3.126  14.340 -0.8121 -0.0814  0.2129
  801MPD2    C511854   0.024   3.083  14.212  0.0411  0.2847  0.3668
  801MPD2     H11855   0.171   2.854  14.474  0.6037 -2.4754 -3.3355
  801MPD2    H111856   0.007   3.228  14.369  1.9499  1.3465 -2.5495
  801MPD2    H211857   0.055   2.937  14.066  1.8583 -3.4492  0.0161
  801MPD2    H311858   4.730   3.162  14.144  2.8576  0.7932 -0.2321
  801MPD2     N11859   0.071   3.079  14.570 -0.0107 -0.2744  0.2486
  801MPD2    H511860   0.020   3.166  14.585 -0.8308 -0.5246 -1.0367
  801MPD2    N111861   0.176   2.741  14.237 -0.2315  0.0650  0.0081
  801MPD2    H711862   0.223   2.693  14.313  0.5198  2.3125  0.9446
  802MPD2     C11863   0.103   3.516   0.261  0.3745 -0.0607  0.2035
  802MPD2    C111864   4.724   3.535   0.191  0.2624 -0.1925 -0.1981
  802MPD2    C211865   4.703   3.458   0.079 -0.5739 -0.0091 -0.5277
  802MPD2    C311866   0.062   3.362   0.043 -0.3955  0.2576 -0.4937
  802MPD2    C411867   0.173   3.348   0.122  0.4541  0.3395  0.4016
  802MPD2    C511868   0.193   3.427   0.226 -0.1738  0.4573  0.1264
  802MPD2     H11869   4.611   3.473   0.024 -0.7039  0.3536 -0.2026
  802MPD2    H111870   0.250   3.275   0.098 -0.1979 -0.4884  0.8086
  802MPD2    H211871   0.128   3.570   0.351  2.4977 -1.5841  0.5181
  802MPD2    H311872   0.285   3.414   0.282  0.5917  3.3979 -0.4558
  802MPD2     N11873   0.051   3.304  17.657 -0.2971  0.2415  0.6979
  802MPD2    H511874   4.706   3.324  17.598  0.9916 -3.2121 -2.1816
  802MPD2    N111875   4.629   3.632   0.233 -0.0858  0.3971  0.1059
  802MPD2    H711876   4.543   3.631   0.180 -0.8678 -0.4831  1.3817
  803MPD2     C11877   0.610   1.197  11.959 -0.6002  0.2463 -0.1097
  803MPD2    C111878   0.695   1.303  12.005  0.6749  0.2404 -0.7467
  803MPD2    C211879   0.726   1.306  12.138 -0.1449  0.0031  0.2878
  803MPD2    C311880   0.673   1.218  12.232 -0.9877  0.2822  0.2527
  803MPD2    C411881   0.598   1.116  12.183 -0.2000 -0.2091 -0.7880
  803MPD2    C511882   0.565   1.108  12.054  0.0146  0.2226 -0.6672
  803MPD2     H11883   0.783   1.394  12.167  2.2220 -1.3230 -0.2914
  803MPD2    H111884   0.579   1.033  12.250 -3.0900  1.6976  0.7399
  803MPD2    H211885   0.573   1.197  11.857  0.5974  1.7742 -0.5390
  803MPD2    H311886   0.507   1.024  12.018  0.5029 -1.2538  2.0502
  803MPD2     N11887   0.693   1.243  12.371  0.2011 -1.1428 -0.0572
  803MPD2    H511888   0.675   1.163  12.431  0.4843  0.1272  1.6902
  803MPD2    N111889   0.737   1.417  11.932  0.6398  0.0262  0.0872
  803MPD2    H711890   0.791   1.482  11.988  1.6158 -0.9121  0.2345
  804MPD2     C11891   0.363   3.041  17.125 -0.2351  0.2313 -0.7086
  804MPD2    C111892   0.405   3.032  17.254  0.6717  0.4780  0.7727
  804MPD2    C211893   0.418   3.147  17.327  0.5932 -0.8164 -0.0560
  804MPD2    C311894   0.413   3.266  17.265  0.4205 -0.1676 -0.4757
  804MPD2    C411895   0.362   3.273  17.137  1.0771  0.6665 -0.2673
  804MPD2    C511896   0.336   3.161  17.070  0.4732  0.4061 -0.4425
  804MPD2     H11897   0.450   3.141  17.431  0.6231 -2.3062 -0.1411
  804MPD2    H111898   0.345   3.369  17.089  2.3246  0.3222 -1.4052
  804MPD2    H211899   0.333   2.951  17.073  1.2771 -1.2154  0.8908
  804MPD2    H311900   0.284   3.168  16.975 -3.1516  1.5578  1.6245
  804MPD2     N11901   0.463   3.381  17.340  0.4138 -0.3170  0.9021
  804MPD2    H511902   0.509   3.364  17.428 -0.9239 -0.1283  1.6331
  804MPD2    N111903   0.407   2.913  17.324  0.0041 -0.3455  0.3944
  804MPD2    H711904   0.415   2.919  17.425 -0.2770 -1.1686  0.4636
  805MPD2     C11905   3.896   1.219  15.475  0.2505 -0.3221  0.3677
  805MPD2    C111906   3.962   1.324  15.411 -0.1307  0.1506  0.2757
  805MPD2    C211907   4.075   1.370  15.470 -0.3568 -0.5666 -1.0621
  805MPD2    C311908   4.145   1.308  15.574  0.5716 -0.3960  0.2469
  805MPD2    C411909   4.081   1.201  15.634 -0.4470  0.2525 -0.2839
  805MPD2    C511910   3.957   1.163  15.584 -0.1514 -0.2149 -0.7353
  805MPD2     H11911   4.123   1.456  15.426  1.7469 -1.5332 -0.6567
  805MPD2    H111912   4.121   1.131  15.706  2.2799 -0.5448 -2.6014
  805MPD2    H211913   3.805   1.170  15.441 -0.8388  2.1033 -0.2100
  805MPD2    H311914   3.914   1.081  15.640 -1.2433  0.2610 -0.8931
  805MPD2     N11915   4.268   1.359  15.615  0.2983  0.7473 -0.0819
  805MPD2    H511916   4.306   1.437  15.562  0.7628  0.7375  0.2295
  805MPD2    N111917   3.912   1.384  15.297  0.1015 -0.0957  0.0181
  805MPD2    H711918   3.968   1.459  15.257  0.7143 -0.5421  0.0381
  806MPD2     C11919   0.136   0.865   0.428  0.3852  0.3198  0.7578
  806MPD2    C111920   0.105   0.968   0.515  0.0336  0.9512 -0.3647
  806MPD2    C211921   0.137   1.098   0.475 -0.4731 -0.3694  0.5642
  806MPD2    C311922   0.174   1.124   0.346 -0.8151  0.5269  0.1842
  806MPD2    C411923   0.187   1.025   0.254  0.6417  0.0169 -0.2456
  806MPD2    C511924   0.178   0.895   0.305 -0.4158  0.2847  0.1593
  806MPD2     H11925   0.132   1.182   0.544  1.1090 -0.7510  1.1448
  806MPD2    H111926   0.212   1.039   0.149  0.2533  0.4273 -0.2864
  806MPD2    H211927   0.112   0.761   0.450 -0.5127  0.2841 -0.3366
  806MPD2    H311928   0.195   0.809   0.241 -1.1858  0.7848 -0.7273
  806MPD2     N11929   0.203   1.255   0.312  0.0356 -0.1040  0.2542
  806MPD2    H511930   0.230   1.316   0.389 -0.0796  0.0967  0.1341
  806MPD2    N111931   0.042   0.938   0.640  0.9021 -0.0884 -0.6098
  806MPD2    H711932   0.041   0.840   0.666 -2.9743  0.1181 -0.0734
  807MPD2     C11933   0.122   0.371   1.085  0.3520  0.8531 -0.0537
  807MPD2    C111934   0.025   0.444   1.147 -0.5325  0.2736  0.0187
  807MPD2    C211935   4.680   0.384   1.238 -1.0653 -0.1232  0.7016
  807MPD2    C311936   4.699   0.253   1.273 -0.4175  0.1099 -0.6845
  807MPD2    C411937   0.064   0.175   1.212 -0.1552 -0.1716  0.2662
  807MPD2    C511938   0.136   0.241   1.113 -0.0155 -0.4364  0.3258
  807MPD2     H11939   4.598   0.438   1.282 -0.1906  0.4622  1.6218
  807MPD2    H111940   0.084   0.070   1.227  0.5367 -0.1013 -0.1652
  807MPD2    H211941   0.186   0.412   1.007  0.1951  1.4534  0.1359
  807MPD2    H311942   0.207   0.177   1.063 -0.9723 -1.5047  0.3460
  807MPD2     N11943   4.607   0.191   1.358  0.6422 -0.1769 -0.2249
  807MPD2    H511944   4.526   0.248   1.378 -0.0607 -2.1788  2.6463
  807MPD2    N111945   4.720   0.570   1.119 -0.1593  0.6411  0.5854
  807MPD2    H711946   4.663   0.620   1.188 -0.0921  0.6512  0.6335
  808MPD2     C11947   0.039   1.162   9.607  0.0783  0.2505  0.5270
  808MPD2    C111948   0.173   1.132   9.618 -0.1580  0.0058  0.6238
  808MPD2    C211949   0.262   1.238   9.606 -0.5995  0.7897 -0.2358
  808MPD2    C311950   0.212   1.366   9.573  0.4363  0.0180 -0.5314
  808MPD2    C411951   0.075   1.388   9.565 -0.1254  0.6149 -0.6499
  808MPD2    C511952   4.729   1.288   9.572 -0.2851  0.1176  0.3534
  808MPD2     H11953   0.366   1.214   9.625 -1.1505  0.1915  2.0571
  808MPD2    H111954   0.036   1.488   9.554  0.1163  0.8670  0.7713
  808MPD2    H211955   4.694   1.093   9.635  1.0191 -0.5377  1.2666
  808MPD2    H311956   4.622   1.303   9.579 -0.1589  1.5016 -0.7524
  808MPD2     N11957   0.294   1.485   9.564  0.5397  0.1393 -0.5294
  808MPD2    H511958   0.244   1.573   9.563 -0.1648 -0.2452 -0.1636
  808MPD2    N111959   0.220   1.003   9.653 -0.5559 -0.7208  0.0066
  808MPD2    H711960   0.311   0.996   9.698 -1.1111 -0.8248  1.1164
  809MPD2     C11961   1.242   1.551   9.283 -0.6340 -0.4685  0.4981
  809MPD2    C111962   1.194   1.680   9.260 -0.3226 -0.5374  0.5104
  809MPD2    C211963   1.061   1.714   9.277 -0.0756  0.0023 -0.1528
  809MPD2    C311964   0.973   1.623   9.335  0.2560  0.3678  0.5913
  809MPD2    C411965   1.032   1.498   9.371  0.7708 -0.2470 -0.0075
  809MPD2    C511966   1.161   1.458   9.340  0.1593  0.8293 -0.2484
  809MPD2     H11967   1.034   1.817   9.257 -0.1942  0.1386  0.6878
  809MPD2    H111968   0.971   1.422   9.419  0.5843  1.4965  2.4971
  809MPD2    H211969   1.348   1.531   9.271  0.1072  3.4082  0.5825
  809MPD2    H311970   1.194   1.361   9.376 -1.0088 -0.4910 -2.7560
  809MPD2     N11971   0.841   1.646   9.372  0.0411 -0.6471  0.4500
  809MPD2    H511972   0.790   1.570   9.415  1.0651  0.1557  3.0557
  809MPD2    N111973   1.278   1.786   9.216 -0.8939  0.7094 -0.3471
  809MPD2    H711974   1.237   1.879   9.208 -2.5913  0.0079  0.2814
  810MPD2     C11975   4.697   0.616  10.096 -0.1503  0.4747  0.0715
  810MPD2    C111976   4.606   0.683  10.023 -0.0250  0.7978 -0.2659
  810MPD2    C211977   4.626   0.816   9.984  0.4617 -0.1421 -0.7887
  810MPD2    C311978   0.011   0.876  10.021 -0.5989  1.3179 -0.0458
  810MPD2    C411979   0.106   0.800  10.082 -0.5300 -0.1256  0.2896
  810MPD2    C511980   0.086   0.674  10.119 -0.3989 -0.2964  0.0279
  810MPD2     H11981   4.549   0.873   9.933 -0.4954 -1.5081 -0.8554
  810MPD2    H111982   0.202   0.850  10.089 -1.1613  0.9926  0.9019
  810MPD2    H211983   4.692   0.512  10.125 -1.8255  0.3860 -0.5347
  810MPD2    H311984   0.166   0.618  10.167 -1.5713 -2.5268 -0.5951
  810MPD2     N11985   0.042   1.016   9.996 -0.0390  1.0692  0.1365
  810MPD2    H511986   0.133   1.049  10.026  0.8763 -1.7478  0.4573
  810MPD2    N111987   4.472   0.628   9.998 -0.8790 -0.0444  0.2107
  810MPD2    H711988   4.447   0.536  10.034 -0.3654 -0.3756 -0.2890
  811MPD2     C11989   3.535   0.741   9.775 -0.4619  1.1341 -0.0904
  811MPD2    C111990   3.672   0.786   9.779 -0.2534  0.2403 -0.5186
  811MPD2    C211991   3.697   0.914   9.725 -0.0324 -0.1747 -0.6524
  811MPD2    C311992   3.603   0.988   9.660 -0.2820 -0.0374 -0.4645
  811MPD2    C411993   3.470   0.941   9.652  0.5616  0.2867 -0.0128
  811MPD2    C511994   3.439   0.814   9.709 -0.0691 -1.0486  0.1624
  811MPD2     H11995   3.797   0.956   9.735 -0.1545 -0.2047  0.6440
  811MPD2    H111996   3.393   0.997   9.600 -0.8157 -0.0956  1.6165
  811MPD2    H211997   3.506   0.643   9.813  1.5575  0.3676 -0.4725
  811MPD2    H311998   3.341   0.770   9.697 -1.1128  1.1562  0.5919
  811MPD2     N11999   3.649   1.117   9.628  0.6113  0.1399 -0.1781
  811MPD2    H512000   3.747   1.124   9.654  0.8954 -4.1035 -0.0865
  811MPD2    N112001   3.772   0.711   9.838  0.2342  0.1150 -0.5110
  811MPD2    H712002   3.742   0.619   9.870  0.1172  0.0159 -0.9061
  812MPD2     C12003   2.936   1.735  11.907 -0.5208 -0.7769  0.6399
  812MPD2    C112004   3.040   1.816  11.957  0.5273  0.4421  0.6221
  812MPD2    C212005   3.149   1.765  12.018  0.2006 -0.3983  0.1386
  812MPD2    C312006   3.162   1.630  12.030  0.8110 -0.0514  0.1106
  812MPD2    C412007   3.069   1.548  11.974  0.0431  0.1125  0.2987
  812MPD2    C512008   2.960   1.600  11.907  0.2454  0.0943  0.0036
  812MPD2     H12009   3.218   1.826  12.075  2.2874 -0.6838 -2.1123
  812MPD2    H112010   3.063   1.441  11.989 -0.6288 -0.0541 -1.1510
  812MPD2    H212011   2.841   1.761  11.861 -1.1308  1.7053  3.3044
  812MPD2    H312012   2.886   1.527  11.874  0.9430 -0.1304 -1.0475
  812MPD2     N12013   3.281   1.582  12.099  0.6790 -0.3022 -0.3092
  812MPD2    H512014   3.342   1.657  12.128 -0.8670  0.7215  0.3018
  812MPD2    N112015   3.030   1.960  11.963 -0.4092 -0.4572 -0.0866
  812MPD2    H712016   3.113   2.007  11.995 -0.5538 -1.1589  1.3291
  813MPD2     C12017   2.022   3.444  12.416 -0.7874 -0.7293  0.0839
  813MPD2    C112018   2.034   3.583  12.433  0.3885  0.3719 -0.1508
  813MPD2    C212019   2.072   3.639  12.555 -0.5593  0.4539 -0.6091
  813MPD2    C312020   2.086   3.559  12.672  0.7458 -0.0397  1.0126
  813MPD2    C412021   2.073   3.428  12.652 -0.1850  0.0774 -0.0886
  813MPD2    C512022   2.032   3.367  12.531 -0.1040  0.4595  0.9641
  813MPD2     H12023   2.086   3.747  12.559  1.3182  0.2596 -2.2553
  813MPD2    H112024   2.089   3.357  12.732  3.0848  1.7767  0.7549
  813MPD2    H212025   2.009   3.385  12.326 -0.0404  2.0683 -1.8880
  813MPD2    H312026   2.028   3.259  12.519  3.6096  0.7305 -2.5879
  813MPD2     N12027   2.127   3.613  12.800  0.0644 -0.3850  0.1908
  813MPD2    H512028   2.156   3.710  12.791 -0.5932 -0.2107 -0.0544
  813MPD2    N112029   2.026   3.656  12.312 -0.0126 -0.3757 -0.3096
  813MPD2    H712030   2.027   3.612  12.221  1.4036  2.0173 -1.4402
  814MPD2     C12031   2.665   0.349  12.446 -0.0370 -0.4899 -0.6395
  814MPD2    C112032   2.787   0.298  12.410 -0.1901  1.3036 -0.6769
  814MPD2    C212033   2.900   0.374  12.444 -0.2589  0.3808  0.2836
  814MPD2    C312034   2.895   0.500  12.499 -0.0192 -0.1636 -0.1254
  814MPD2    C412035   2.773   0.542  12.543  0.5167  0.9794 -0.9432
  814MPD2    C512036   2.658   0.471  12.509 -0.3877  0.4857  0.4465
  814MPD2     H12037   2.997   0.334  12.416  0.4495  2.0249  0.4208
  814MPD2    H112038   2.763   0.643  12.581  0.7501  0.0183  1.6788
  814MPD2    H212039   2.568   0.303  12.427  0.0092 -1.3242  1.1413
  814MPD2    H312040   2.561   0.514  12.530 -0.5083  1.1967 -1.5395
  814MPD2     N12041   3.003   0.578  12.525 -0.1934  0.0441  0.0527
  814MPD2    H512042   2.983   0.660  12.583 -0.5655  0.1598 -0.2377
  814MPD2    N112043   2.805   0.174  12.347 -0.1408  0.6034  0.0401
  814MPD2    H712044   2.896   0.147  12.311 -0.4863 -0.9628  0.3674
  815MPD2     C12045   3.524   2.955  11.929  0.0567 -0.2100 -0.2222
  815MPD2    C112046   3.399   2.913  11.888  0.1141 -0.6641  0.2333
  815MPD2    C212047   3.287   2.946  11.962  0.1591  0.4774  0.2211
  815MPD2    C312048   3.296   3.026  12.071  0.4840 -0.1978 -0.3058
  815MPD2    C412049   3.418   3.063  12.118  0.4243  0.7439 -1.0307
  815MPD2    C512050   3.536   3.026  12.048  0.0047 -0.6292  0.1110
  815MPD2     H12051   3.198   2.895  11.927  0.1168 -0.2730  1.4280
  815MPD2    H112052   3.423   3.109  12.216 -0.8036  1.5360 -1.3373
  815MPD2    H212053   3.612   2.930  11.872 -0.8362 -0.9429 -1.2857
  815MPD2    H312054   3.631   3.063  12.086 -0.0805 -0.0930 -0.1989
  815MPD2     N12055   3.185   3.063  12.153 -0.2011  0.5648  0.0820
  815MPD2    H512056   3.211   3.103  12.243  0.6131 -0.4139  0.2795
  815MPD2    N112057   3.394   2.845  11.770 -0.0172  0.6405  0.2200
  815MPD2    H712058   3.485   2.823  11.731 -1.1805  0.2577 -2.3067
  816MPD2     C12059   3.360   2.375  16.957  0.2070  0.3239  0.3107
  816MPD2    C112060   3.418   2.494  16.989 -0.0081 -0.0382  0.2826
  816MPD2    C212061   3.557   2.515  16.971  0.0339 -0.1403  0.6712
  816MPD2    C312062   3.632   2.400  16.929  0.6564 -0.3330  0.5063
  816MPD2    C412063   3.574   2.284  16.897  0.5335  1.0396  0.1048
  816MPD2    C512064   3.439   2.264  16.922  0.0461  0.0613  0.0373
  816MPD2     H12065   3.599   2.612  16.996  0.5645 -0.4836  1.1266
  816MPD2    H112066   3.629   2.196  16.866  1.0421  1.2799  0.3392
  816MPD2    H212067   3.253   2.361  16.965  0.3090 -0.3966  0.4159
  816MPD2    H312068   3.388   2.172  16.894 -2.8561  2.3143 -2.0840
  816MPD2     N12069   3.771   2.425  16.919 -0.3185 -0.0956 -0.5896
  816MPD2    H512070   3.807   2.520  16.925  0.5865 -0.5808  1.7163
  816MPD2    N112071   3.330   2.599  17.021  0.2764 -0.0693 -0.4255
  816MPD2    H712072   3.231   2.576  17.020  0.4220 -0.6281 -2.1484
  817MPD2     C12073   2.754   3.978   9.866  0.4417  0.3635 -0.5084
  817MPD2    C112074   2.661   3.904   9.799  0.2639  0.4581 -0.2750
  817MPD2    C212075   2.550   3.966   9.732 -0.7308 -0.4634  0.4166
  817MPD2    C312076   2.534   4.101   9.723 -0.4816 -0.4390  0.1963
  817MPD2    C412077   2.631   4.172   9.791  0.1815  0.1687  0.7831
  817MPD2    C512078   2.736   4.115   9.855 -0.4059 -0.2240  0.2166
  817MPD2     H12079   2.476   3.910   9.678  0.7261 -1.9240 -0.0764
  817MPD2    H112080   2.626   4.280   9.797  0.7356  0.3564 -2.4359
  817MPD2    H212081   2.848   3.940   9.905  0.0122 -1.2299 -1.0348
  817MPD2    H312082   2.818   4.175   9.893 -0.3451 -0.2156  0.0727
  817MPD2     N12083   2.432   4.165   9.650 -0.1784 -0.0206 -0.4740
  817MPD2    H512084   2.371   4.095   9.608  1.1268 -2.1741  1.2169
  817MPD2    N112085   2.673   3.766   9.768 -0.2401  0.0954  0.6573
  817MPD2    H712086   2.592   3.731   9.718 -0.6292  1.9233 -0.0043
  818MPD2     C12087   2.136   4.002  10.043 -0.2285  0.7340  0.2973
  818MPD2    C112088   2.056   3.904  10.098 -0.5906 -0.0360 -0.4258
  818MPD2    C212089   2.105   3.773  10.098 -0.0801  1.3051  0.2861
  818MPD2    C312090   2.234   3.742  10.061  0.0648 -0.1569 -0.3264
  818MPD2    C412091   2.312   3.843  10.003  0.6658 -0.6210  0.2403
  818MPD2    C512092   2.256   3.968   9.987  1.0242 -0.0272  0.5750
  818MPD2     H12093   2.030   3.702  10.130  2.0376 -1.4380 -0.8398
  818MPD2    H112094   2.417   3.841   9.975  0.0548  0.1177 -2.0849
  818MPD2    H212095   2.116   4.108  10.045 -0.7813  0.6144  1.5281
  818MPD2    H312096   2.309   4.053   9.947  1.5447 -1.3263 -1.4629
  818MPD2     N12097   2.275   3.609  10.070 -0.2957  0.1296  0.4752
  818MPD2    H512098   2.204   3.544  10.103  1.1967 -2.6231 -1.6450
  818MPD2    N112099   1.927   3.930  10.154 -0.7260  0.0391  0.4134
  818MPD2    H712100   1.877   3.844  10.177  3.1320 -1.6252  2.6426
  819MPD2     C12101   0.495   1.443  15.580  0.0207  0.6466 -0.6066
  819MPD2    C112102   0.391   1.364  15.619  0.3065 -0.1438  0.3127
  819MPD2    C212103   0.397   1.297  15.739 -0.1640  0.6384 -0.1112
  819MPD2    C312104   0.500   1.320  15.826 -0.2346  0.4518 -0.3229
  819MPD2    C412105   0.606   1.411  15.793  0.1695 -0.4444 -0.5864
  819MPD2    C512106   0.600   1.465  15.667 -0.5664 -0.4048 -0.0161
  819MPD2     H12107   0.309   1.240  15.769 -1.1007  1.3436 -1.5083
  819MPD2    H112108   0.690   1.428  15.859 -0.5638  0.6301  0.0645
  819MPD2    H212109   0.492   1.497  15.486 -0.3497  0.3936 -0.7404
  819MPD2    H312110   0.682   1.529  15.638 -0.6427  0.1998  1.0796
  819MPD2     N12111   0.497   1.237  15.944  0.3376 -0.0956  0.2699
  819MPD2    H512112   0.416   1.177  15.944  0.5567 -0.4038 -1.9254
  819MPD2    N112113   0.282   1.356  15.525 -0.1235 -0.1057 -0.3240
  819MPD2    H712114   0.293   1.409  15.439  1.3665 -0.4313 -0.3475
  820MPD2     C12115   4.403   1.690  14.885 -0.0358  0.9095 -0.0630
  820MPD2    C112116   4.332   1.637  14.988 -0.4267  0.3248 -0.2433
  820MPD2    C212117   4.397   1.596  15.103 -0.1183 -0.5151  0.9251
  820MPD2    C312118   4.530   1.583  15.105  0.4310 -0.6152 -0.2770
  820MPD2    C412119   4.604   1.639  15.002 -0.9331  0.0139  0.3874
  820MPD2    C512120   4.538   1.683  14.892  0.0617 -0.5001  1.1613
  820MPD2     H12121   4.341   1.558  15.188 -0.1077 -1.0491  0.6942
  820MPD2    H112122   4.711   1.622  15.009 -0.9927 -0.3166  0.4906
  820MPD2    H212123   4.344   1.728  14.802 -0.1640  0.1222 -0.3278
  820MPD2    H312124   4.586   1.721  14.802 -1.1376 -1.1905  0.2392
  820MPD2     N12125   4.598   1.529  15.219  0.1392  0.1432 -0.4140
  820MPD2    H512126   4.695   1.506  15.205  0.1921  0.7398 -0.9853
  820MPD2    N112127   4.192   1.631  14.969  0.1576 -0.3579  0.5041
  820MPD2    H712128   4.154   1.662  14.881 -0.6019 -1.3084  0.5013
  821MPD2     C12129   4.663   2.672  13.004  0.0022 -0.7745 -0.0598
  821MPD2    C112130   0.021   2.570  12.973  0.2958 -0.3451 -0.0849
  821MPD2    C212131   0.153   2.605  12.945 -0.3325  0.0852 -0.4474
  821MPD2    C312132   0.188   2.738  12.922  0.4843 -0.0077 -0.6401
  821MPD2    C412133   0.097   2.837  12.944  0.8131 -0.3393 -0.4732
  821MPD2    C512134   4.703   2.802  12.994  0.3492  0.4204 -0.4440
  821MPD2     H12135   0.223   2.526  12.919 -0.7428 -0.4171 -0.0406
  821MPD2    H112136   0.121   2.942  12.932 -0.6880  0.1936  1.3093
  821MPD2    H212137   4.567   2.648  13.047  0.2069 -1.0422  0.2495
  821MPD2    H312138   4.645   2.887  13.029 -1.2023 -0.3953 -1.0183
  821MPD2     N12139   0.315   2.780  12.885  0.1226  0.4282  0.2613
  821MPD2    H512140   0.331   2.880  12.875 -0.6271  0.5894  0.7323
  821MPD2    N112141   4.721   2.436  12.987  0.0752  0.2700 -0.1071
  821MPD2    H712142   0.064   2.376  12.966  0.5025  0.9522 -0.4585
  822MPD2     C12143   1.096   2.334  15.877 -0.0737  0.2170  0.0379
  822MPD2    C112144   1.062   2.272  15.998 -0.2874 -0.4367 -0.0754
  822MPD2    C212145   0.988   2.341  16.089 -0.0106 -0.0477 -0.8030
  822MPD2    C312146   0.948   2.471  16.065  0.3127 -0.4667  0.6606
  822MPD2    C412147   0.971   2.525  15.940 -1.0074  0.4378 -0.5980
  822MPD2    C512148   1.045   2.454  15.850  0.3008  0.2452  0.3289
  822MPD2     H12149   0.962   2.306  16.189  2.1704 -1.8723 -0.8883
  822MPD2    H112150   0.928   2.620  15.911  1.3707  1.5890 -0.3028
  822MPD2    H212151   1.166   2.277  15.817 -0.7043 -0.4568 -0.0586
  822MPD2    H312152   1.055   2.491  15.749  2.3713 -0.2362  0.3394
  822MPD2     N12153   0.904   2.555  16.171 -1.4242 -0.3091 -0.0568
  822MPD2    H512154   0.893   2.511  16.262 -2.3479 -0.3094 -0.1653
  822MPD2    N112155   1.107   2.142  16.033 -0.4922  0.6477 -0.5060
  822MPD2    H712156   1.084   2.116  16.128  1.1290 -1.6817 -0.7563
  823MPD2     C12157   0.733   2.685  16.973 -0.0872  0.2049  0.1957
  823MPD2    C112158   0.768   2.606  16.874 -0.0437 -0.4947  0.1474
  823MPD2    C212159   0.816   2.481  16.900 -0.2491 -0.0183 -0.2241
  823MPD2    C312160   0.836   2.441  17.027 -0.3406  0.4412  0.3501
  823MPD2    C412161   0.789   2.520  17.127 -0.0787 -1.0813  0.3076
  823MPD2    C512162   0.732   2.643  17.101 -0.4681  0.2754 -0.2656
  823MPD2     H12163   0.847   2.424  16.813 -1.8626  0.2033 -0.9495
  823MPD2    H112164   0.788   2.486  17.229 -1.8327 -2.3631 -0.1343
  823MPD2    H212165   0.692   2.782  16.947  0.6860  0.6533  0.6646
  823MPD2    H312166   0.689   2.702  17.181  2.1598 -0.1402  1.4795
  823MPD2     N12167   0.905   2.321  17.065 -0.3721  0.0951 -0.1347
  823MPD2    H512168   0.919   2.305  17.164 -2.4358 -0.0927  0.1463
  823MPD2    N112169   0.772   2.657  16.746  0.5080  0.3580 -0.8298
  823MPD2    H712170   0.777   2.758  16.740 -0.4575  0.4672  0.2137
  824MPD2     C12171   1.134   1.335  15.807 -0.2380  0.1526  0.2456
  824MPD2    C112172   1.236   1.430  15.794 -0.6220 -0.2625  0.2681
  824MPD2    C212173   1.335   1.413  15.703 -0.1022  0.1093 -0.3631
  824MPD2    C312174   1.349   1.298  15.632 -0.5672  0.5516 -0.4793
  824MPD2    C412175   1.257   1.195  15.647 -0.8217 -0.2921  0.3104
  824MPD2    C512176   1.154   1.219  15.733  0.5714  0.3268  0.4457
  824MPD2     H12177   1.409   1.490  15.688 -1.2197  1.1641 -0.4741
  824MPD2    H112178   1.261   1.100  15.596  0.7358  0.6653 -1.3533
  824MPD2    H212179   1.052   1.333  15.878 -1.0129  0.4617 -0.6486
  824MPD2    H312180   1.080   1.139  15.737 -0.2762  1.1153  0.5723
  824MPD2     N12181   1.469   1.286  15.555 -0.0506 -0.6055  0.0537
  824MPD2    H512182   1.534   1.363  15.563  1.6970 -2.0623  0.0362
  824MPD2    N112183   1.229   1.547  15.875 -0.2552 -0.0517 -0.3521
  824MPD2    H712184   1.291   1.624  15.853 -0.1303  0.4080  1.6753
  825MPD2     C12185   2.223   1.561  15.270 -0.8595 -0.1587  0.3351
  825MPD2    C112186   2.100   1.577  15.331 -0.1817  0.0945  0.6573
  825MPD2    C212187   2.070   1.705  15.372  0.6816 -0.0708  0.0974
  825MPD2    C312188   2.157   1.814  15.358 -0.0534 -0.4375 -0.4053
  825MPD2    C412189   2.277   1.798  15.291  0.5281 -0.6553 -0.0306
  825MPD2    C512190   2.305   1.671  15.257 -0.4824 -0.1495  0.6573
  825MPD2     H12191   1.977   1.723  15.424 -0.6301  0.8625 -2.6044
  825MPD2    H112192   2.345   1.882  15.280 -1.3779  0.8392 -0.3831
  825MPD2    H212193   2.254   1.464  15.233  0.2493 -0.7374  2.7740
  825MPD2    H312194   2.397   1.650  15.202 -1.9283 -0.8700 -1.5021
  825MPD2     N12195   2.117   1.945  15.394  0.8833 -0.1154 -0.2270
  825MPD2    H512196   2.160   2.026  15.351  0.3441  0.1114 -0.3338
  825MPD2    N112197   2.023   1.460  15.357 -0.1105 -0.6324  0.8156
  825MPD2    H712198   2.064   1.372  15.330  0.4241 -0.5175  1.2427
  826MPD2     C12199   1.840   2.123  13.708 -0.1719  0.2250  0.0568
  826MPD2    C112200   1.733   2.085  13.780 -0.0593 -0.2687  0.4770
  826MPD2    C212201   1.606   2.139  13.742 -0.1670 -0.2473  0.2528
  826MPD2    C312202   1.601   2.221  13.631 -0.1096 -0.4475 -0.7660
  826MPD2    C412203   1.713   2.270  13.565  0.0698  0.4323  0.0365
  826MPD2    C512204   1.833   2.213  13.599  0.1535 -0.1244 -0.4445
  826MPD2     H12205   1.522   2.104  13.801  0.1873 -3.3350 -1.0758
  826MPD2    H112206   1.709   2.346  13.487  0.3115 -0.5989 -0.9698
  826MPD2    H212207   1.941   2.087  13.723  0.0736  0.5873 -0.7175
  826MPD2    H312208   1.923   2.230  13.541  1.2275 -0.2074  1.1906
  826MPD2     N12209   1.483   2.282  13.583 -0.7814  0.1604  0.5007
  826MPD2    H512210   1.498   2.365  13.527  1.1722 -0.7192 -0.2819
  826MPD2    N112211   1.733   1.984  13.878  0.4902  1.3192 -0.1348
  826MPD2    H712212   1.645   1.959  13.921  0.5449 -0.7450 -1.2098
  827MPD2     C12213   2.480   2.859   9.683 -0.0060 -0.3675  0.3303
  827MPD2    C112214   2.374   2.825   9.757  0.1466 -0.1032 -0.0566
  827MPD2    C212215   2.262   2.780   9.692  0.3764  0.3293  0.6649
  827MPD2    C312216   2.254   2.782   9.553  0.1034 -0.4148 -0.1488
  827MPD2    C412217   2.364   2.829   9.480 -0.5323  0.8452 -0.3991
  827MPD2    C512218   2.477   2.872   9.546  0.1409  0.4632  0.1464
  827MPD2     H12219   2.171   2.748   9.742 -0.6149 -0.4464 -1.6574
  827MPD2    H112220   2.359   2.817   9.372 -0.7099 -1.5610 -0.1313
  827MPD2    H212221   2.574   2.865   9.737  1.9683 -0.8177 -3.0561
  827MPD2    H312222   2.564   2.899   9.487 -0.6824 -0.3980 -1.4623
  827MPD2     N12223   2.135   2.739   9.488 -0.2612  0.2846 -0.3623
  827MPD2    H512224   2.064   2.702   9.550 -0.7514  1.0302 -0.4723
  827MPD2    N112225   2.390   2.810   9.901 -0.5283 -0.2009 -0.7118
  827MPD2    H712226   2.484   2.830   9.934 -1.2413  0.5965  0.8296
  828MPD2     C12227   0.841   3.191  11.768 -0.0782 -0.4139 -0.4736
  828MPD2    C112228   0.736   3.243  11.698 -0.4151  0.2422  0.9759
  828MPD2    C212229   0.747   3.275  11.565 -0.1584  0.2271 -0.0673
  828MPD2    C312230   0.865   3.256  11.495 -0.2167  0.9834 -0.2723
  828MPD2    C412231   0.971   3.191  11.561 -0.1281 -0.1110  0.0867
  828MPD2    C512232   0.953   3.170  11.699  0.3959  0.5068  0.3440
  828MPD2     H12233   0.660   3.314  11.514 -1.0757 -1.3486  0.3046
  828MPD2    H112234   1.063   3.182  11.505 -0.3215  1.7641 -0.5440
  828MPD2    H212235   0.836   3.172  11.874 -0.3146  1.4058 -0.1576
  828MPD2    H312236   1.031   3.126  11.759 -0.1192 -0.9361 -0.0495
  828MPD2     N12237   0.892   3.284  11.356 -0.0037 -0.1249  0.2503
  828MPD2    H512238   0.990   3.264  11.339  0.3029  1.6301 -0.0213
  828MPD2    N112239   0.609   3.256  11.756 -0.0209  0.1778  0.5847
  828MPD2    H712240   0.531   3.282  11.696 -1.4744 -3.2616  0.9478
  829MPD2     C12241   4.699   2.839  11.496  0.0259 -0.3075  0.2269
  829MPD2    C112242   4.644   2.899  11.605  0.5923 -0.3264  0.3258
  829MPD2    C212243   4.695   3.016  11.652  0.1898 -1.2696  0.5714
  829MPD2    C312244   0.079   3.063  11.597 -0.1138  0.2738  0.2957
  829MPD2    C412245   0.139   2.992  11.487 -0.2499 -0.0092 -0.3339
  829MPD2    C512246   0.078   2.882  11.439  0.6352  0.3739 -0.1713
  829MPD2     H12247   4.645   3.073  11.730 -0.5398  3.2920 -3.1932
  829MPD2    H112248   0.226   3.028  11.435 -0.0822  0.2781  0.1423
  829MPD2    H212249   4.659   2.742  11.468  0.1003 -0.3804  0.3733
  829MPD2    H312250   0.129   2.833  11.357  0.5182 -2.2036  1.3105
  829MPD2     N12251   0.139   3.181  11.630  0.1713 -0.7859  0.2395
  829MPD2    H512252   0.228   3.209  11.590 -0.5810 -1.0524 -1.6151
  829MPD2    N112253   4.544   2.833  11.673  0.1376 -0.5576 -0.2905
  829MPD2    H712254   4.505   2.750  11.630 -1.2572 -1.0009  1.8467
  830MPD2     C12255   0.621   0.526  16.075 -0.1020 -0.5507 -0.0131
  830MPD2    C112256   0.536   0.624  16.026 -0.4811 -0.3891  0.0881
  830MPD2    C212257   0.521   0.624  15.886 -0.0246  0.0748 -0.2713
  830MPD2    C312258   0.585   0.526  15.814 -0.0500 -0.2959 -0.1169
  830MPD2    C412259   0.672   0.438  15.867  0.1407  0.0100  0.3519
  830MPD2    C512260   0.687   0.436  16.003  0.2238 -0.4592  0.2876
  830MPD2     H12261   0.465   0.706  15.842  1.3902  0.2214 -1.7645
  830MPD2    H112262   0.721   0.362  15.807  0.0476  0.1322  0.1213
  830MPD2    H212263   0.645   0.518  16.180 -0.1664  1.4566  0.1451
  830MPD2    H312264   0.737   0.355  16.055 -0.4332 -2.6442 -2.5398
  830MPD2     N12265   0.565   0.514  15.678  0.2595 -0.1629  0.0957
  830MPD2    H512266   0.624   0.446  15.632 -2.5097 -1.9500 -0.8337
  830MPD2    N112267   0.484   0.716  16.121 -0.3164  0.4060 -0.2017
  830MPD2    H712268   0.504   0.700  16.220 -1.3990 -0.1414 -0.0750
  831MPD2     C12269   1.234   2.556  16.370  0.7383 -0.1141  0.8160
  831MPD2    C112270   1.259   2.433  16.302  0.1397  0.2975  0.4407
  831MPD2    C212271   1.190   2.327  16.346 -0.1138  0.1920 -0.6262
  831MPD2    C312272   1.093   2.334  16.445  0.0899  0.7155  0.1008
  831MPD2    C412273   1.077   2.453  16.507 -0.0692  0.2296 -0.4307
  831MPD2    C512274   1.152   2.565  16.475 -0.5654  0.0976  0.2846
  831MPD2     H12275   1.211   2.228  16.308  0.4898 -0.0693  0.3910
  831MPD2    H112276   1.016   2.456  16.596 -0.1278 -0.0163 -0.4627
  831MPD2    H212277   1.283   2.649  16.345  1.2825 -0.0218  2.2647
  831MPD2    H312278   1.143   2.657  16.531 -0.8526  0.0514  0.3157
  831MPD2     N12279   0.998   2.239  16.478 -0.1455 -0.1319 -0.5443
  831MPD2    H512280   0.935   2.261  16.555 -2.4560 -0.9527 -2.2061
  831MPD2    N112281   1.343   2.442  16.187  0.7937 -0.7723 -0.2232
  831MPD2    H712282   1.362   2.535  16.153  0.6314 -0.3277  0.8904
  832MPD2     C12283   4.370   3.384  17.258  0.4317 -0.3437  0.1514
  832MPD2    C112284   4.351   3.522  17.256 -0.6717  0.0448  0.4598
  832MPD2    C212285   4.250   3.575  17.179 -0.3429 -0.7746 -0.2339
  832MPD2    C312286   4.151   3.500  17.121 -0.4509  0.4646  0.7182
  832MPD2    C412287   4.166   3.360  17.126  0.1801  0.8805 -0.1181
  832MPD2    C512288   4.277   3.302  17.193 -0.0159 -0.0418 -1.2111
  832MPD2     H12289   4.228   3.681  17.187 -0.7726 -0.7057 -2.3734
  832MPD2    H112290   4.087   3.298  17.085  0.2054 -0.3800  1.7195
  832MPD2    H212291   4.443   3.322  17.309 -2.8375 -3.4662  1.0051
  832MPD2    H312292   4.287   3.195  17.188 -0.6975 -0.0481 -2.4714
  832MPD2     N12293   4.037   3.552  17.052 -0.5156  0.2875  0.3662
  832MPD2    H512294   3.975   3.489  17.002 -2.0044  1.0506  1.2532
  832MPD2    N112295   4.442   3.602  17.338  0.4336  1.1674  0.1440
  832MPD2    H712296   4.489   3.549  17.410 -1.7040  0.7388  1.2435
  833MPD2     C12297   1.221   4.615  12.865  0.5960 -0.3095  0.3806
  833MPD2    C112298   1.239   4.717  12.770 -0.4216 -0.0213 -0.0420
  833MPD2    C212299   1.298   4.689  12.646  0.5316 -0.5569 -1.3544
  833MPD2    C312300   1.324   4.554  12.610 -0.3832  0.5012  0.0653
  833MPD2    C412301   1.301   4.458  12.711  0.0928  0.3005  0.3574
  833MPD2    C512302   1.249   4.490  12.834 -0.5012  0.3913  0.0305
  833MPD2     H12303   1.314   0.035  12.576 -0.1075  0.9311  0.2166
  833MPD2    H112304   1.308   4.351  12.696  0.6464  0.2153  1.2731
  833MPD2    H212305   1.190   4.637  12.966  0.8351 -2.7314  0.9799
  833MPD2    H312306   1.214   4.414  12.904 -1.7051 -0.1410 -1.1512
  833MPD2     N12307   1.369   4.508  12.485 -0.9472  1.1262 -0.3874
  833MPD2    H512308   1.362   4.408  12.470  2.3254  0.8678 -0.2953
  833MPD2    N112309   1.215   0.112  12.822 -0.6226  0.3667  0.6902
  833MPD2    H712310   1.186   0.120  12.919 -1.5369  3.2295  0.1682
  834MPD2     C12311   0.992   3.983  11.741  0.1831  0.0187  0.5595
  834MPD2    C112312   1.088   4.048  11.670 -0.2139  0.2282 -0.5719
  834MPD2    C212313   1.161   4.150  11.741 -1.0221 -0.6493 -0.3788
  834MPD2    C312314   1.135   4.181  11.870 -0.0886  0.8031 -0.4013
  834MPD2    C412315   1.035   4.115  11.944 -0.1433 -0.2030 -0.0841
  834MPD2    C512316   0.970   4.019  11.879 -0.6484  0.0860  0.3606
  834MPD2     H12317   1.230   4.209  11.682  1.2108 -1.1635  1.7321
  834MPD2    H112318   1.002   4.142  12.044  1.3110  1.2141  0.0229
  834MPD2    H212319   0.932   3.910  11.689  0.3362 -0.7027  1.3816
  834MPD2    H312320   0.901   3.961  11.938 -1.8963 -2.3141 -3.4825
  834MPD2     N12321   1.201   4.294  11.928  0.2277 -0.0035 -0.2549
  834MPD2    H512322   1.253   4.347  11.858  2.2851 -0.4915  0.8856
  834MPD2    N112323   1.122   4.007  11.536  0.4171  0.5279  0.4185
  834MPD2    H712324   1.072   3.925  11.502 -0.9720  0.8483  1.6893
  835MPD2     C12325   1.493   1.806  10.900 -0.2632 -0.0564 -0.5350
  835MPD2    C112326   1.458   1.930  10.953 -0.6463  0.3335  0.0044
  835MPD2    C212327   1.468   1.953  11.095 -0.1114 -0.5740 -0.5826
  835MPD2    C312328   1.515   1.854  11.179  0.4545  0.3017  0.1514
  835MPD2    C412329   1.560   1.735  11.120 -0.0541 -0.6391  0.2607
  835MPD2    C512330   1.552   1.719  10.983  0.0049 -0.1379  0.2504
  835MPD2     H12331   1.430   2.048  11.131  2.1898  0.2600 -0.3567
  835MPD2    H112332   1.606   1.657  11.179 -1.4663 -2.0772 -0.5329
  835MPD2    H212333   1.486   1.785  10.794  2.6861 -2.7166 -0.2111
  835MPD2    H312334   1.589   1.630  10.934 -0.0287  0.3066 -0.5857
  835MPD2     N12335   1.522   1.861  11.322 -0.7243  0.4601  0.3370
  835MPD2    H512336   1.550   1.778  11.372  0.5114  0.4341 -0.3859
  835MPD2    N112337   1.390   2.038  10.877 -0.2369 -0.1455 -0.1085
  835MPD2    H712338   1.372   2.126  10.925 -0.0490  0.6930 -1.6030
  836MPD2     C12339   1.208   2.393  11.328 -0.3660 -0.4424  0.9877
  836MPD2    C112340   1.185   2.359  11.455  0.0830  0.0693  0.5957
  836MPD2    C212341   1.109   2.449  11.533 -0.5558  0.3626  0.0798
  836MPD2    C312342   1.045   2.556  11.475 -0.0593  0.5896 -0.7813
  836MPD2    C412343   1.070   2.574  11.340 -0.0339  0.3936  0.1452
  836MPD2    C512344   1.153   2.498  11.268  0.4166 -0.2220 -0.7885
  836MPD2     H12345   1.111   2.427  11.639 -2.4457  0.3504  0.1134
  836MPD2    H112346   1.036   2.661  11.285 -0.1081  1.0597  1.2428
  836MPD2    H212347   1.280   2.342  11.265 -3.1763 -4.9987  1.4729
  836MPD2    H312348   1.190   2.526  11.170 -0.7049  1.7564 -0.6572
  836MPD2     N12349   0.959   2.647  11.540  0.3600  0.4180 -0.2892
  836MPD2    H512350   0.923   2.712  11.471 -2.3513  0.7989  1.5034
  836MPD2    N112351   1.259   2.247  11.506  0.6659  0.6308 -0.4194
  836MPD2    H712352   1.313   2.185  11.446 -0.1002 -0.1937 -0.2695
  837MPD2     C12353   4.177   1.623   9.831 -0.1117  0.3644  1.0712
  837MPD2    C112354   4.050   1.649   9.867 -0.2662  0.7412  0.4209
  837MPD2    C212355   4.023   1.764   9.941  0.1725 -0.1133  0.2545
  837MPD2    C312356   4.125   1.857   9.950  0.3615 -0.6226 -0.2388
  837MPD2    C412357   4.257   1.827   9.913  0.4893 -0.3352 -0.5654
  837MPD2    C512358   4.281   1.712   9.847 -0.7061  0.0401 -0.0004
  837MPD2     H12359   3.928   1.767   9.993 -0.9812  0.7515 -1.9243
  837MPD2    H112360   4.337   1.896   9.940 -0.6865  0.7328  0.2204
  837MPD2    H212361   4.197   1.536   9.770  0.5034  0.3107  1.3426
  837MPD2    H312362   4.380   1.693   9.806 -0.8485 -0.2503 -0.2087
  837MPD2     N12363   4.085   1.987   9.995  0.6554  0.2787  0.1097
  837MPD2    H512364   3.989   1.996  10.027  0.3339 -3.4685  0.1664
  837MPD2    N112365   3.940   1.569   9.833 -0.6741  0.0903 -0.5775
  837MPD2    H712366   3.852   1.599   9.873 -0.9235 -2.4297  0.7362
  838MPD2     C12367   2.309   1.253  11.922  0.7329 -0.0119 -0.3490
  838MPD2    C112368   2.271   1.121  11.942 -0.4953  0.3549  1.3433
  838MPD2    C212369   2.144   1.097  11.969 -0.4586  0.8291 -0.1738
  838MPD2    C312370   2.050   1.203  11.984 -0.5493 -0.1391  0.0092
  838MPD2    C412371   2.090   1.333  11.960  0.1707 -0.6372  0.1632
  838MPD2    C512372   2.217   1.356  11.915 -0.3914  0.2323  0.1349
  838MPD2     H12373   2.109   0.995  11.982  0.1509  0.4501 -1.4151
  838MPD2    H112374   2.031   1.423  11.973  0.8652 -0.4902  2.2380
  838MPD2    H212375   2.410   1.278  11.891 -0.0169  1.6220 -1.4460
  838MPD2    H312376   2.251   1.454  11.885  0.9972  0.2227  1.7258
  838MPD2     N12377   1.923   1.176  12.040 -0.6512 -0.4175  0.0966
  838MPD2    H512378   1.903   1.079  12.061  0.7074 -0.5144  0.8889
  838MPD2    N112379   2.353   1.008  11.911 -0.5346 -0.2429 -0.4066
  838MPD2    H712380   2.312   0.915  11.921  1.0366 -0.7871  0.9182
  839MPD2     C12381   2.153   0.194  11.997  0.2358 -0.2749  0.3838
  839MPD2    C112382   2.267   0.174  11.913  0.3622  0.5048 -1.6230
  839MPD2    C212383   2.343   0.290  11.892 -0.4261  0.1958  0.0734
  839MPD2    C312384   2.319   0.407  11.965  0.2284 -0.0190  0.5797
  839MPD2    C412385   2.212   0.416  12.045 -0.2834 -0.0744 -0.2749
  839MPD2    C512386   2.123   0.313  12.059  1.5669  0.4793  0.0485
  839MPD2     H12387   2.426   0.285  11.821  0.1738 -0.1946  0.8045
  839MPD2    H112388   2.188   0.511  12.093 -0.9733 -1.7310  2.6786
  839MPD2    H212389   2.083   0.113  12.014  0.2162 -1.0063 -3.0948
  839MPD2    H312390   2.051   0.326  12.138  0.1441  0.7684 -1.2841
  839MPD2     N12391   2.400   0.523  11.949 -0.2680  0.1407  0.0926
  839MPD2    H512392   2.374   0.604  12.005  0.9682  1.5362 -1.3462
  839MPD2    N112393   2.289   0.048  11.849 -0.0137  0.2304 -0.0122
  839MPD2    H712394   2.355   0.057  11.773 -0.0543  1.0763  0.0570
  840MPD2     C12395   2.774   3.160  10.222 -0.2387  0.2870  0.4953
  840MPD2    C112396   2.732   3.070  10.317 -0.0185  0.2652  0.4308
  840MPD2    C212397   2.809   3.055  10.428 -0.5578 -0.1909  0.5841
  840MPD2    C312398   2.944   3.108  10.435  0.1858 -0.1317 -0.0513
  840MPD2    C412399   2.977   3.202  10.339 -0.2600 -0.1039 -0.6272
  840MPD2    C512400   2.892   3.229  10.237  0.5036 -0.3816 -0.4661
  840MPD2     H12401   2.780   2.990  10.510 -0.7044  0.2099  0.8465
  840MPD2    H112402   3.072   3.252  10.322 -0.2835  1.0020  2.4857
  840MPD2    H212403   2.722   3.164  10.127  0.2319 -2.0925  0.1321
  840MPD2    H312404   2.921   3.291  10.153  1.6489 -2.8475 -1.9225
  840MPD2     N12405   3.023   3.073  10.551  0.1789 -0.3759  0.0005
  840MPD2    H512406   2.982   3.018  10.626 -0.4745  0.7743  0.4785
  840MPD2    N112407   2.615   2.997  10.287  0.0815  0.3034  0.6820
  840MPD2    H712408   2.568   3.033  10.204 -1.3721 -0.2674  1.2633
  841MPD2     C12409   2.394   3.063  14.440  0.0905 -0.4635 -0.7888
  841MPD2    C112410   2.456   2.943  14.426 -0.2567  0.7806 -0.3647
  841MPD2    C212411   2.591   2.929  14.427 -0.1380 -0.4777  0.0859
  841MPD2    C312412   2.670   3.034  14.449  0.1070 -0.7152  0.0597
  841MPD2    C412413   2.613   3.162  14.465  0.1494  0.3105  0.2558
  841MPD2    C512414   2.477   3.175  14.456 -0.1594 -0.2490  0.3950
  841MPD2     H12415   2.637   2.832  14.416 -3.1341 -1.6282 -2.4439
  841MPD2    H112416   2.679   3.247  14.476 -0.9310  1.3248 -1.2597
  841MPD2    H212417   2.289   3.064  14.411  0.1732  2.9217 -1.0247
  841MPD2    H312418   2.442   3.276  14.442 -3.0390 -1.4232 -0.7582
  841MPD2     N12419   2.805   3.002  14.459 -0.0130 -0.4447  0.0694
  841MPD2    H512420   2.835   2.906  14.474  0.7586  0.1053  2.0057
  841MPD2    N112421   2.384   2.830  14.391 -0.0713 -0.1930  0.3628
  841MPD2    H712422   2.440   2.768  14.333 -0.0703  0.5959 -0.4724
  842MPD2     C12423   3.489   4.122  17.389 -0.3171  0.4207 -0.6149
  842MPD2    C112424   3.443   4.071  17.267 -0.8825  1.1476 -0.3826
  842MPD2    C212425   3.375   3.944  17.264 -0.0888  0.2983  0.4087
  842MPD2    C312426   3.354   3.873  17.380  0.6799  0.9177  0.7250
  842MPD2    C412427   3.383   3.932  17.494  0.2631 -0.0802  0.5761
  842MPD2    C512428   3.443   4.052  17.499  0.1218  0.0728 -0.1026
  842MPD2     H12429   3.362   3.895  17.169  1.7814  0.4332  0.0893
  842MPD2    H112430   3.344   3.903  17.591  2.3590  2.2961  2.1510
  842MPD2    H212431   3.556   4.207  17.395  0.1879  0.0770 -1.3513
  842MPD2    H312432   3.466   4.097  17.595  1.9757  3.5201 -2.2044
  842MPD2     N12433   3.289   3.749  17.385  0.1249 -0.5479  0.7423
  842MPD2    H512434   3.233   3.733  17.468 -2.3092  0.9010 -0.6269
  842MPD2    N112435   3.473   4.145  17.154 -0.5294  0.0134 -0.2791
  842MPD2    H712436   3.547   4.214  17.150 -1.1498  0.6812 -0.0915
  843MPD2     C12437   1.000   4.458   0.137  0.2660  0.4381 -0.3060
  843MPD2    C112438   1.131   4.477   0.179 -0.3154  0.2182 -0.8404
  843MPD2    C212439   1.161   4.597   0.246  0.0935  0.2048  0.1815
  843MPD2    C312440   1.072   4.695   0.265 -0.7722  0.6745 -0.4006
  843MPD2    C412441   0.938   4.671   0.221  0.3746 -0.1469 -0.5561
  843MPD2    C512442   0.905   4.556   0.154 -0.2079  0.0870  0.2945
  843MPD2     H12443   1.254   4.610   0.300  1.5632 -0.6368 -2.1255
  843MPD2    H112444   0.851   0.000   0.230 -2.3585 -3.7016 -1.5541
  843MPD2    H212445   0.968   4.372   0.080 -1.1949  1.6080 -1.2602
  843MPD2    H312446   0.808   4.531   0.113 -0.4877  0.9119  0.4666
  843MPD2     N12447   1.100   0.075   0.338  0.1341 -0.2270  0.1740
  843MPD2    H512448   1.043   0.159   0.328 -0.3859 -0.6819 -0.7463
  843MPD2    N112449   1.214   4.369   0.164  0.6898  0.3184 -0.2548
  843MPD2    H712450   1.177   4.281   0.129  1.3746 -0.6951  1.5912
  844MPD2     C12451   3.690   3.666  16.388  0.4339  0.8120 -0.0139
  844MPD2    C112452   3.799   3.583  16.390 -0.2833 -0.2521  0.2206
  844MPD2    C212453   3.909   3.624  16.452 -0.4989  0.3238 -0.0476
  844MPD2    C312454   3.932   3.750  16.498 -0.0657 -0.2497 -0.0056
  844MPD2    C412455   3.821   3.835  16.488  0.3536 -0.0175  0.2277
  844MPD2    C512456   3.705   3.788  16.436  0.0700  0.5699 -0.2394
  844MPD2     H12457   3.990   3.552  16.457 -0.3990  0.5556  1.4948
  844MPD2    H112458   3.826   3.939  16.518  1.4620  0.2145 -0.7240
  844MPD2    H212459   3.599   3.654  16.330  0.0978 -0.5890  0.8144
  844MPD2    H312460   3.625   3.858  16.416 -3.1259 -2.5789  1.6803
  844MPD2     N12461   4.053   3.784  16.564 -0.5717 -0.3827  0.8195
  844MPD2    H512462   4.098   3.705  16.609 -0.9501 -1.1779 -0.1931
  844MPD2    N112463   3.797   3.452  16.331 -0.2466 -0.2219  0.3954
  844MPD2    H712464   3.880   3.397  16.349  0.3768  0.1636 -1.3116
  845MPD2     C12465   4.450   4.497  17.307 -0.1589  0.4136 -0.4290
  845MPD2    C112466   4.432   4.376  17.362 -0.0961 -0.6619 -0.5941
  845MPD2    C212467   4.367   4.274  17.292  0.5286 -0.4924  0.0016
  845MPD2    C312468   4.306   4.296  17.171  0.4918 -0.2037 -0.0567
  845MPD2    C412469   4.328   4.425  17.119 -0.0737  0.8406 -0.2979
  845MPD2    C512470   4.396   4.523  17.183 -0.4771 -0.5334  0.1697
  845MPD2     H12471   4.351   4.176  17.335  0.9243  0.3547  2.0755
  845MPD2    H112472   4.289   4.455  17.022  2.9055 -2.0975 -2.3845
  845MPD2    H212473   4.492   4.577  17.367 -0.0326  0.2729 -0.3301
  845MPD2    H312474   4.398   4.621  17.137 -2.7095 -0.2870  0.5891
  845MPD2     N12475   4.246   4.190  17.097  0.5130 -0.2844  0.0354
  845MPD2    H512476   4.216   4.109  17.149 -1.5882 -0.2095 -1.0499
  845MPD2    N112477   4.487   4.360  17.491  0.0623 -0.1717  0.6934
  845MPD2    H712478   4.538   4.441  17.523  0.5030  0.3515 -1.3232
  846MPD2     C12479   0.557   4.350  13.541  0.2431 -0.4406 -0.5182
  846MPD2    C112480   0.507   4.482  13.542 -0.5825  0.5522 -0.2123
  846MPD2    C212481   0.501   4.554  13.664  0.0374  0.1654  0.7218
  846MPD2    C312482   0.577   4.509  13.776  0.0227 -0.3686  1.1286
  846MPD2    C412483   0.642   4.392  13.767  0.4068  0.2618 -0.2081
  846MPD2    C512484   0.617   4.307  13.661  0.0711 -0.5626  0.3794
  846MPD2     H12485   0.452   4.651  13.671  0.1513  0.2060  0.9756
  846MPD2    H112486   0.706   4.346  13.841  1.3514 -1.0239 -1.8173
  846MPD2    H212487   0.555   4.290  13.451  2.7732 -1.0220 -0.1677
  846MPD2    H312488   0.661   4.208  13.670  1.6152  0.0997  0.1297
  846MPD2     N12489   0.594   4.599  13.883  0.3218  0.1553  0.0012
  846MPD2    H512490   0.538   4.684  13.886  0.2133  0.0695  0.4209
  846MPD2    N112491   0.464   4.553  13.429 -0.1533 -0.0191 -0.4919
  846MPD2    H712492   0.436   4.650  13.443 -0.7965 -0.0889 -1.2782
  847MPD2     C12493   0.307   0.474  14.852  0.1642 -0.6682  0.0358
  847MPD2    C112494   0.432   0.506  14.817  0.6497  0.6197  0.0993
  847MPD2    C212495   0.534   0.423  14.855  0.6852  0.1030  0.2637
  847MPD2    C312496   0.515   0.317  14.942  0.1509 -0.0512 -0.4627
  847MPD2    C412497   0.389   0.282  14.981  0.3546  0.1549  0.8333
  847MPD2    C512498   0.291   0.362  14.929  0.3629 -0.4583 -0.6752
  847MPD2     H12499   0.638   0.450  14.841  0.2667  1.9961  0.8901
  847MPD2    H112500   0.365   0.201  15.048  0.9982  0.3565  1.3042
  847MPD2    H212501   0.217   0.526  14.823 -0.0575 -0.5185  0.9694
  847MPD2    H312502   0.193   0.344  14.970 -0.3387 -0.1170 -2.2007
  847MPD2     N12503   0.634   0.266  15.003 -0.0451  0.5844 -0.1248
  847MPD2    H512504   0.718   0.293  14.952  1.0095 -0.9888  0.7908
  847MPD2    N112505   0.473   0.627  14.755  0.2234  1.0144  0.2575
  847MPD2    H712506   0.566   0.634  14.716  0.7265 -0.7407  1.1367
  848MPD2     C12507   3.754   4.206  16.646  0.3307 -0.1818 -0.2573
  848MPD2    C112508   3.797   4.191  16.779 -1.0978  0.4970 -0.1150
  848MPD2    C212509   3.869   4.297  16.839  0.2277  0.2965 -0.0665
  848MPD2    C312510   3.908   4.406  16.755  0.1981 -0.1410  0.3858
  848MPD2    C412511   3.871   4.411  16.629  0.4093 -0.2692  0.4533
  848MPD2    C512512   3.793   4.313  16.570 -0.3884 -0.2967  0.1323
  848MPD2     H12513   3.899   4.295  16.943 -2.3440  2.3128  0.7136
  848MPD2    H112514   3.905   4.498  16.573 -1.2869  0.6240  0.8166
  848MPD2    H212515   3.690   4.132  16.599 -1.1765  0.4916  0.7302
  848MPD2    H312516   3.750   4.333  16.473  1.8883  1.9408 -0.4131
  848MPD2     N12517   3.997   4.514  16.797  0.6659  0.3086 -0.3120
  848MPD2    H512518   4.048   4.564  16.725 -1.3896  2.0991 -0.5095
  848MPD2    N112519   3.778   4.067  16.851  0.6853  0.7008  0.4100
  848MPD2    H712520   3.809   4.065  16.948  0.8484  0.3089  0.3472
  849MPD2     C12521   2.413   3.991  13.115 -0.5937  0.0786  0.1811
  849MPD2    C112522   2.536   3.921  13.113 -0.5968 -0.1918 -0.1861
  849MPD2    C212523   2.575   3.847  13.221 -1.0639 -1.1817  0.1113
  849MPD2    C312524   2.497   3.840  13.332  0.2325  0.8574  0.1668
  849MPD2    C412525   2.385   3.915  13.345  0.4138  0.0719 -0.4319
  849MPD2    C512526   2.346   3.984  13.239 -0.7066  0.1453 -0.2879
  849MPD2     H12527   2.661   3.782  13.229  0.5586  1.3072  3.0503
  849MPD2    H112528   2.315   3.898  13.426  0.4485  1.6316 -0.0727
  849MPD2    H212529   2.376   4.050  13.032  1.5054 -0.3141 -1.0269
  849MPD2    H312530   2.257   4.046  13.245 -0.5018  0.6278 -2.1873
  849MPD2     N12531   2.537   3.747  13.425 -0.0607 -0.3317 -0.4321
  849MPD2    H512532   2.622   3.701  13.395  0.0108 -1.1608  1.0245
  849MPD2    N112533   2.622   3.912  12.999  0.1134  0.0311 -0.0232
  849MPD2    H712534   2.706   3.854  13.002 -1.0488 -1.7214 -1.2491
  850MPD2     C12535   0.776   1.683  14.510  0.1682  0.4386 -0.3535
  850MPD2    C112536   0.766   1.718  14.646  0.0443 -0.6449  0.3293
  850MPD2    C212537   0.863   1.801  14.706 -0.4218 -0.1904  0.1658
  850MPD2    C312538   0.947   1.866  14.621 -0.0671 -0.2446 -0.1433
  850MPD2    C412539   0.950   1.845  14.484 -0.2868  0.0808 -0.0584
  850MPD2    C512540   0.873   1.739  14.440 -0.1087 -0.1647  0.4521
  850MPD2     H12541   0.854   1.804  14.814 -0.9722  0.1087  0.1143
  850MPD2    H112542   1.027   1.893  14.425  0.6247 -0.3916  0.7425
  850MPD2    H212543   0.711   1.612  14.460  0.7906  0.4719 -1.1997
  850MPD2    H312544   0.878   1.709  14.336  0.1441 -0.9679  0.6950
  850MPD2     N12545   1.048   1.955  14.665 -0.2727  0.1225 -0.3377
  850MPD2    H512546   1.092   2.012  14.593  1.2032  1.7322  1.8136
  850MPD2    N112547   0.667   1.642  14.722 -0.5304 -0.0057  0.2257
  850MPD2    H712548   0.632   1.559  14.676  1.0460 -0.8235  0.5100
  851MPD2     C12549   0.838   1.084  15.006 -0.4218  0.2067 -0.4884
  851MPD2    C112550   0.709   1.074  14.995 -0.0963  0.3418 -0.3941
  851MPD2    C212551   0.643   0.966  15.038 -0.4156 -0.7860  0.6370
  851MPD2    C312552   0.720   0.867  15.104 -0.2935 -0.6454 -1.0117
  851MPD2    C412553   0.855   0.880  15.126  0.5180  0.1738 -0.1924
  851MPD2    C512554   0.912   0.992  15.067  0.2373  0.6588  0.3367
  851MPD2     H12555   0.535   0.963  15.042 -0.4408 -0.4279  0.2282
  851MPD2    H112556   0.914   0.802  15.174  1.1658  1.0218  0.4076
  851MPD2    H212557   0.897   1.167  14.970  0.1331  0.5382  1.1649
  851MPD2    H312558   1.018   1.007  15.081  0.6347  0.7276 -2.8904
  851MPD2     N12559   0.647   0.749  15.145 -0.6913 -0.6252  0.2378
  851MPD2    H512560   0.547   0.753  15.130 -0.2073  0.3415 -2.8100
  851MPD2    N112561   0.640   1.192  14.943  0.1557  0.5133 -0.0873
  851MPD2    H712562   0.702   1.269  14.921  0.6582 -0.1311 -0.9263
  852MPD2     C12563   4.670   4.311  10.199  0.1110  0.0396  0.4549
  852MPD2    C112564   0.042   4.297  10.287 -1.0905  0.5433  0.3290
  852MPD2    C212565   0.139   4.394  10.282  0.3419  0.0376  0.1697
  852MPD2    C312566   0.133   4.506  10.204  0.0270  0.2056 -0.3339
  852MPD2    C412567   0.026   4.519  10.111  0.0445 -0.9610 -0.6185
  852MPD2    C512568   4.670   4.419  10.108 -0.4757 -0.0033  0.4656
  852MPD2     H12569   0.227   4.384  10.345  1.7603  0.3222 -1.7509
  852MPD2    H112570   0.016   4.604  10.045 -0.1138 -0.6220 -0.1599
  852MPD2    H212571   4.591   4.237  10.189  0.9389 -0.5455 -1.9853
  852MPD2    H312572   4.588   4.426  10.037  0.2039  1.1604 -0.2027
  852MPD2     N12573   0.238   4.604  10.217 -0.1365 -0.1968  0.3449
  852MPD2    H512574   0.318   4.573  10.270  0.2534  0.9412  0.4062
  852MPD2    N112575   0.047   4.187  10.376  0.8937 -0.0248  0.0911
  852MPD2    H712576   0.119   4.185  10.448  0.3452 -0.5812  0.6242
  853MPD2     C12577   1.788   4.706  12.104 -0.7531  0.4468  0.0707
  853MPD2    C112578   1.765   4.586  12.166 -0.1049  0.6154  0.1845
  853MPD2    C212579   1.760   4.467  12.089 -0.6793 -1.3045 -0.4585
  853MPD2    C312580   1.783   4.476  11.948  0.2637  0.1659 -0.4357
  853MPD2    C412581   1.807   4.597  11.890  0.1249 -0.2915 -0.2957
  853MPD2    C512582   1.800   4.708  11.971  0.1991  0.0691  0.5420
  853MPD2     H12583   1.743   4.372  12.138 -1.0520 -0.1507  1.6405
  853MPD2    H112584   1.837   4.599  11.786  0.7880  0.8865 -0.0718
  853MPD2    H212585   1.797   0.059  12.166 -1.5851  0.3740  0.2983
  853MPD2    H312586   1.832   0.067  11.928  1.1024 -0.3809  0.2120
  853MPD2     N12587   1.791   4.372  11.857  1.3166 -0.1065  0.1658
  853MPD2    H512588   1.797   4.398  11.760  1.4459 -1.0387 -0.0795
  853MPD2    N112589   1.767   4.589  12.313  0.3114 -0.5217  0.0374
  853MPD2    H712590   1.782   4.679  12.359  2.7201 -0.3958 -0.9754
  854MPD2     C12591   4.382   4.259  12.592 -0.4150 -0.7213  0.0830
  854MPD2    C112592   4.284   4.232  12.690  0.4393  0.0743 -0.4652
  854MPD2    C212593   4.301   4.124  12.768 -0.2751  0.5834 -0.4702
  854MPD2    C312594   4.417   4.045  12.752 -0.5779  0.7793  0.1015
  854MPD2    C412595   4.514   4.075  12.652  0.0775 -0.1133 -0.0592
  854MPD2    C512596   4.493   4.186  12.569  0.0063  0.2152 -0.0521
  854MPD2     H12597   4.232   4.107  12.850  1.0249 -0.3250  0.4458
  854MPD2    H112598   4.602   4.015  12.635  0.0205  0.5388 -2.5491
  854MPD2    H212599   4.362   4.337  12.519  2.0058 -1.6100 -1.5259
  854MPD2    H312600   4.559   4.215  12.488 -0.0333  1.2521  0.2900
  854MPD2     N12601   4.447   3.930  12.834 -0.2880  0.2416  0.3992
  854MPD2    H512602   4.531   3.879  12.809  0.2926  0.7469  1.3286
  854MPD2    N112603   4.165   4.315  12.692 -0.2162  0.2050  0.5117
  854MPD2    H712604   4.158   4.386  12.620  0.0047  1.3044  1.5666
  855MPD2     C12605   4.693   3.997  13.702  0.4324 -0.2432  0.0994
  855MPD2    C112606   4.666   3.861  13.704  0.3520  0.1726  0.4127
  855MPD2    C212607   4.627   3.798  13.589  0.5867  0.5676  0.1399
  855MPD2    C312608   4.604   3.867  13.473 -0.2651  0.3753 -0.2114
  855MPD2    C412609   4.626   4.004  13.477  0.6298 -0.4415 -0.3191
  855MPD2    C512610   4.674   4.070  13.588  0.3715  0.5880  0.8584
  855MPD2     H12611   4.610   3.692  13.599  5.3608 -0.3404 -1.1415
  855MPD2    H112612   4.607   4.066  13.390  3.5234 -1.0857 -1.4279
  855MPD2    H212613   4.724   4.050  13.791  0.4032 -2.6468  1.5180
  855MPD2    H312614   4.700   4.175  13.585 -2.6943  1.2613 -1.4353
  855MPD2     N12615   4.547   3.816  13.359 -0.0234 -0.1945  0.2934
  855MPD2    H512616   4.529   3.880  13.282  0.6442 -1.1989 -0.6988
  855MPD2    N112617   4.677   3.775  13.819  0.5080  0.0774 -0.1891
  855MPD2    H712618   4.660   3.675  13.809  0.7408  0.2162 -2.0627
  856MPD2     C12619   1.633   0.118  13.889 -0.0866 -0.3307 -0.4779
  856MPD2    C112620   1.635   0.250  13.925  0.0019  0.5430  0.1645
  856MPD2    C212621   1.523   0.326  13.905  0.1006 -0.4702  0.3571
  856MPD2    C312622   1.419   0.277  13.831  0.1869 -0.3839 -0.0569
  856MPD2    C412623   1.427   0.151  13.779 -0.3251 -0.5892  0.2288
  856MPD2    C512624   1.528   0.071  13.818  0.0595 -0.8305  0.2730
  856MPD2     H12625   1.527   0.429  13.939 -0.8401 -0.4340  0.3427
  856MPD2    H112626   1.350   0.102  13.721 -0.8269  0.8710 -0.3498
  856MPD2    H212627   1.714   0.052  13.918 -0.7096 -0.7979  0.1993
  856MPD2    H312628   1.513   4.704  13.786  0.8405 -1.0968  0.7663
  856MPD2     N12629   1.305   0.352  13.796  0.2747  0.0755 -0.5325
  856MPD2    H512630   1.228   0.299  13.757 -0.1666  1.2580 -1.2701
  856MPD2    N112631   1.739   0.317  13.992  0.0772 -0.2575  0.1917
  856MPD2    H712632   1.725   0.415  14.016  2.7794  0.5734 -1.6061
  857MPD2     C12633   3.609   2.561  12.197  0.0357  0.4607  0.5866
  857MPD2    C112634   3.673   2.487  12.290  0.1620  0.8074 -0.0149
  857MPD2    C212635   3.769   2.544  12.377  0.2743 -0.0844  1.2000
  857MPD2    C312636   3.795   2.682  12.368  0.3500  0.4203  0.2809
  857MPD2    C412637   3.723   2.761  12.275  1.2103 -0.2464  0.1320
  857MPD2    C512638   3.625   2.699  12.200  0.3593 -0.5612  0.6989
  857MPD2     H12639   3.834   2.486  12.443  1.0794  0.3540  0.7931
  857MPD2    H112640   3.731   2.869  12.269 -0.6128 -0.0323  1.5071
  857MPD2    H212641   3.536   2.518  12.130  1.6100  1.0596 -1.5082
  857MPD2    H312642   3.571   2.763  12.131  2.6030  0.7409  0.1560
  857MPD2     N12643   3.894   2.740  12.453 -0.5948  0.3523  0.4751
  857MPD2    H512644   3.922   2.686  12.535 -0.4410  2.1443  1.6113
  857MPD2    N112645   3.661   2.346  12.274  0.6080 -0.3072 -0.2657
  857MPD2    H712646   3.625   2.306  12.188  0.1594 -0.7587  0.1270
  858MPD2     C12647   3.859   1.437  16.521  0.2581  0.2251 -0.2747
  858MPD2    C112648   3.966   1.361  16.567 -0.3739  0.3047  0.3847
  858MPD2    C212649   4.007   1.364  16.697  0.4832 -0.3744  0.1684
  858MPD2    C312650   3.944   1.450  16.788 -0.5556  0.4748  0.6744
  858MPD2    C412651   3.836   1.523  16.747  0.4575 -0.8709 -0.2073
  858MPD2    C512652   3.800   1.525  16.614 -0.3085  0.7886  0.4432
  858MPD2     H12653   4.091   1.299  16.721  0.5382 -0.1995  0.4573
  858MPD2    H112654   3.769   1.562  16.822 -0.0418 -2.2476  0.0625
  858MPD2    H212655   3.831   1.446  16.417 -0.1535  2.2856  0.0193
  858MPD2    H312656   3.719   1.592  16.585 -1.5800  0.4676  3.2439
  858MPD2     N12657   3.956   1.435  16.930 -0.0674 -0.0454 -0.6132
  858MPD2    H512658   3.915   1.512  16.981  0.2551 -0.6580  0.5722
  858MPD2    N112659   4.036   1.270  16.485 -0.6776 -0.3598 -0.2433
  858MPD2    H712660   4.122   1.227  16.517 -0.9367 -1.7845 -1.4568
  859MPD2     C12661   2.826   3.661  15.414 -0.1824  0.4205 -0.3687
  859MPD2    C112662   2.799   3.596  15.298  0.0270  0.4003  0.5295
  859MPD2    C212663   2.754   3.461  15.309  0.2953  0.0966  0.3813
  859MPD2    C312664   2.722   3.401  15.434 -0.2679 -0.5579 -0.0765
  859MPD2    C412665   2.744   3.479  15.542  0.0458 -0.0858 -0.2311
  859MPD2    C512666   2.793   3.613  15.538  0.4570  0.0851  0.0990
  859MPD2     H12667   2.748   3.407  15.215 -2.4699 -0.8305  1.0989
  859MPD2    H112668   2.717   3.428  15.634 -0.5446 -0.1641 -0.4482
  859MPD2    H212669   2.865   3.763  15.409 -1.0749  0.7065 -1.2438
  859MPD2    H312670   2.799   3.669  15.630  1.9754 -1.9903  1.2734
  859MPD2     N12671   2.686   3.261  15.453 -0.1071  0.4136  0.1752
  859MPD2    H512672   2.653   3.230  15.544  1.5092  1.4282  1.0976
  859MPD2    N112673   2.826   3.666  15.179  0.1956 -0.0937 -0.3823
  859MPD2    H712674   2.887   3.746  15.178  1.4900 -1.0592  0.8728
  860MPD2     C12675   0.747   3.637  11.525  0.0680  0.3120 -0.6890
  860MPD2    C112676   0.776   3.624  11.664 -0.2857  0.5670 -0.1989
  860MPD2    C212677   0.674   3.631  11.750 -0.3870 -0.8823 -1.5007
  860MPD2    C312678   0.539   3.636  11.715 -0.1230  0.0902 -0.5659
  860MPD2    C412679   0.508   3.627  11.583  0.1809  0.1238  0.9661
  860MPD2    C512680   0.613   3.633  11.493 -0.5546 -1.4421 -0.1681
  860MPD2     H12681   0.704   3.627  11.854 -1.5749 -1.5465 -1.1846
  860MPD2    H112682   0.406   3.626  11.548  0.2360 -2.5004  0.8540
  860MPD2    H212683   0.822   3.619  11.449  0.5268 -3.5681  0.7111
  860MPD2    H312684   0.590   3.611  11.389  0.8312 -0.0385 -0.7763
  860MPD2     N12685   0.454   3.654  11.815  0.3730  0.1779  0.1787
  860MPD2    H512686   0.488   3.645  11.910  0.7680  0.0375  0.0224
  860MPD2    N112687   0.908   3.607  11.713  0.1377 -0.0518 -0.1988
  860MPD2    H712688   0.912   3.598  11.814 -1.6108 -1.9089 -0.2869
  861MPD2     C12689   3.392   1.613  11.064  0.0824 -0.0906 -0.1746
  861MPD2    C112690   3.279   1.646  11.140  0.0865 -0.2180  0.4328
  861MPD2    C212691   3.170   1.702  11.090  0.8353  0.1809 -0.3731
  861MPD2    C312692   3.171   1.728  10.954  0.3714 -0.8082 -0.5002
  861MPD2    C412693   3.284   1.702  10.877  0.5522  0.2417 -0.0548
  861MPD2    C512694   3.396   1.653  10.938 -0.5551  0.6286  0.6025
  861MPD2     H12695   3.087   1.721  11.157  3.5311  1.1824  2.7365
  861MPD2    H112696   3.271   1.731  10.774 -1.2216 -1.0432 -0.2043
  861MPD2    H212697   3.479   1.577  11.118 -0.5246 -0.9035  0.2741
  861MPD2    H312698   3.483   1.639  10.875 -1.2581  1.1637 -0.4972
  861MPD2     N12699   3.062   1.783  10.882  0.4773  0.6510 -0.1151
  861MPD2    H512700   3.075   1.821  10.789 -1.9773 -1.3631 -1.2940
  861MPD2    N112701   3.276   1.629  11.278 -0.4271  0.1126 -0.3914
  861MPD2    H712702   3.187   1.630  11.327  0.9938  2.6169  2.1041
  862MPD2     C12703   2.590   1.892  10.296 -0.3820 -0.3619  0.5187
  862MPD2    C112704   2.714   1.845  10.353  0.1716  0.2175 -0.6430
  862MPD2    C212705   2.790   1.744  10.286 -0.1687  0.2842 -0.4428
  862MPD2    C312706   2.738   1.689  10.168  0.1969  0.2858 -0.8825
  862MPD2    C412707   2.617   1.726  10.115  0.1541 -0.5204 -0.2915
  862MPD2    C512708   2.547   1.820  10.187 -0.3119 -0.2278 -0.7623
  862MPD2     H12709   2.883   1.720  10.337  2.5220  3.0960 -3.9384
  862MPD2    H112710   2.570   1.691  10.024  1.8952 -1.5170 -0.8012
  862MPD2    H212711   2.527   1.968  10.340  1.1773  1.0797  0.2398
  862MPD2    H312712   2.449   1.838  10.144 -0.1739 -2.3704 -1.9992
  862MPD2     N12713   2.810   1.587  10.106  0.2309  0.7211 -0.9155
  862MPD2    H512714   2.773   1.530  10.031 -0.7017  1.5874 -1.0983
  862MPD2    N112715   2.773   1.898  10.468 -0.1721  0.3494 -0.0364
  862MPD2    H712716   2.867   1.865  10.487 -1.6708 -4.2870 -0.6902
  863MPD2     C12717   2.650   0.068  16.295  0.4822  0.8899 -0.3423
  863MPD2    C112718   2.578   0.100  16.409 -0.1764  0.1099  0.7038
  863MPD2    C212719   2.646   0.104  16.531 -0.4955 -0.0006  0.6498
  863MPD2    C312720   2.786   0.083  16.547  0.0679  0.5279  0.0705
  863MPD2    C412721   2.850   0.044  16.430 -0.2166  0.2192 -0.0451
  863MPD2    C512722   2.785   0.037  16.306  0.6468  0.1693 -0.1962
  863MPD2     H12723   2.597   0.151  16.615  0.2120 -1.4225  1.8776
  863MPD2    H112724   2.955   0.019  16.428 -0.1159  0.6048  0.2908
  863MPD2    H212725   2.601   0.062  16.198 -1.1826 -0.6958  0.5898
  863MPD2    H312726   2.847   0.015  16.220  0.6419  0.6479 -0.3231
  863MPD2     N12727   2.853   0.087  16.671 -0.1292  0.0503 -0.4447
  863MPD2    H512728   2.953   0.068  16.670 -0.1716 -0.3071  1.8200
  863MPD2    N112729   2.442   0.133  16.397 -0.3233 -0.3972 -0.2777
  863MPD2    H712730   2.410   0.143  16.302  0.7052  0.0849 -0.5772
  864MPD2     C12731   2.839   1.003  17.314 -0.7098 -0.1555 -1.2032
  864MPD2    C112732   2.822   0.992  17.183 -0.4218  0.1471 -0.0931
  864MPD2    C212733   2.812   1.112  17.114 -1.1472 -0.0251 -0.2198
  864MPD2    C312734   2.819   1.239  17.169  0.4402  0.1906  0.0546
  864MPD2    C412735   2.844   1.236  17.303 -0.6708 -0.1394  0.3807
  864MPD2    C512736   2.848   1.123  17.378  0.3098  0.4862 -0.0920
  864MPD2     H12737   2.825   1.103  17.007 -0.6517 -0.8673 -0.0854
  864MPD2    H112738   2.861   1.334  17.347  2.4364 -1.3298  1.8322
  864MPD2    H212739   2.849   0.911  17.370 -0.5870  0.6269  0.0677
  864MPD2    H312740   2.871   1.123  17.484  1.0854  2.9864 -0.2605
  864MPD2     N12741   2.819   1.357  17.096 -0.4686 -0.5039  1.0057
  864MPD2    H512742   2.820   1.441  17.153 -0.9004 -0.6283  1.1980
  864MPD2    N112743   2.821   0.860  17.130 -0.6049 -0.6141  0.3919
  864MPD2    H712744   2.822   0.790  17.204 -0.2918  0.2983  1.2578
  865MPD2     C12745   2.444   1.401  16.211  0.3849  0.7472 -1.0067
  865MPD2    C112746   2.577   1.391  16.237 -0.3540  0.0069 -0.0482
  865MPD2    C212747   2.635   1.456  16.341  0.2393  0.7309  0.2778
  865MPD2    C312748   2.562   1.521  16.430 -0.2269  0.4363 -0.6560
  865MPD2    C412749   2.427   1.531  16.415  0.6261  0.0616  0.2919
  865MPD2    C512750   2.370   1.470  16.303 -0.4191  0.9330 -0.2798
  865MPD2     H12751   2.739   1.431  16.356  0.2805 -0.7589 -2.4954
  865MPD2    H112752   2.368   1.593  16.482 -0.8054 -1.6341  0.5797
  865MPD2    H212753   2.384   1.365  16.129 -2.4650  2.6765  0.2349
  865MPD2    H312754   2.263   1.479  16.287 -0.5344 -2.1176 -1.2282
  865MPD2     N12755   2.621   1.584  16.545 -0.0463 -0.0789 -0.1597
  865MPD2    H512756   2.564   1.604  16.627  2.1470  4.6638  0.1983
  865MPD2    N112757   2.648   1.310  16.155 -0.1870  0.3880  0.1398
  865MPD2    H712758   2.601   1.249  16.089  1.0483 -1.3068  0.8160
  866MPD2     C12759   4.004   1.341  11.190 -0.3897  0.2198  0.5260
  866MPD2    C112760   4.033   1.446  11.104  0.0957  0.2771  0.4701
  866MPD2    C212761   3.936   1.550  11.095 -0.4060  0.7546  0.3501
  866MPD2    C312762   3.819   1.556  11.172  0.4985  0.3062 -0.5667
  866MPD2    C412763   3.805   1.453  11.258  0.4253  0.1849 -0.3426
  866MPD2    C512764   3.896   1.352  11.274 -0.1989  0.1383 -0.9784
  866MPD2     H12765   3.959   1.637  11.035  1.7099  0.9569  1.4485
  866MPD2    H112766   3.725   1.447  11.331 -1.6075  0.3788 -2.5392
  866MPD2    H212767   4.079   1.264  11.204  0.3347  0.6374 -0.9933
  866MPD2    H312768   3.896   1.279  11.354 -0.1189  0.1824 -0.9376
  866MPD2     N12769   3.721   1.659  11.174  0.5675  0.2680 -0.3401
  866MPD2    H512770   3.643   1.646  11.237 -0.2481  0.3964 -1.3037
  866MPD2    N112771   4.146   1.439  11.024  0.0165 -0.2313 -0.1588
  866MPD2    H712772   4.210   1.360  11.028  0.8811  0.6500  3.4173
  867MPD2     C12773   1.939   1.717  16.334 -0.0253  0.1079 -0.2055
  867MPD2    C112774   2.032   1.649  16.414 -0.1535  0.6641  0.7709
  867MPD2    C212775   2.137   1.720  16.473 -0.5054 -0.4549 -0.6468
  867MPD2    C312776   2.159   1.854  16.440 -0.0061 -0.7018 -0.1648
  867MPD2    C412777   2.058   1.920  16.373  0.1640  0.5885 -0.8548
  867MPD2    C512778   1.950   1.848  16.328 -0.2129  0.0556 -0.4022
  867MPD2     H12779   2.197   1.684  16.556 -0.0877 -0.6455 -1.0290
  867MPD2    H112780   2.065   2.026  16.349  1.8882  1.0134  1.5835
  867MPD2    H212781   1.861   1.664  16.280 -1.2728  3.0749 -1.2944
  867MPD2    H312782   1.882   1.898  16.260  1.2728  1.3323 -0.9537
  867MPD2     N12783   2.275   1.930  16.478 -0.7076  0.3176  0.4098
  867MPD2    H512784   2.263   2.028  16.453 -0.5650  0.5168  1.1211
  867MPD2    N112785   2.017   1.509  16.442 -0.3388 -0.0159  0.0656
  867MPD2    H712786   1.969   1.461  16.367  1.7428 -2.4902  0.2869
  868MPD2     C12787   3.301   1.206  12.801  0.6318 -0.5647 -0.2975
  868MPD2    C112788   3.366   1.095  12.852 -0.9096 -0.0498 -0.1918
  868MPD2    C212789   3.358   1.077  12.988 -0.3704  0.2133 -0.4374
  868MPD2    C312790   3.252   1.133  13.063 -0.2162 -0.0672 -0.3029
  868MPD2    C412791   3.172   1.229  13.005  0.3627 -0.1987 -0.1749
  868MPD2    C512792   3.198   1.263  12.872  0.2068  0.0876  0.3115
  868MPD2     H12793   3.431   1.006  13.025 -0.8725 -1.0551 -1.9138
  868MPD2    H112794   3.090   1.279  13.055 -0.1752 -0.7099 -0.5535
  868MPD2    H212795   3.308   1.234  12.697  1.6244 -0.1013 -0.1037
  868MPD2    H312796   3.123   1.333  12.837 -1.8097 -1.2509  1.9562
  868MPD2     N12797   3.226   1.109  13.199 -0.0002 -0.0897 -0.0806
  868MPD2    H512798   3.164   1.179  13.238  0.0686 -0.9708  1.6123
  868MPD2    N112799   3.459   1.016  12.770 -0.4978 -0.1729 -0.6320
  868MPD2    H712800   3.491   1.054  12.681  0.1240 -1.0147 -0.7635
  869MPD2     C12801   0.249   3.032   0.920 -0.1909  0.2121 -0.1797
  869MPD2    C112802   0.340   3.023   0.816 -0.1382  0.2738  0.4359
  869MPD2    C212803   0.442   3.119   0.800 -0.5604  0.1436 -0.3240
  869MPD2    C312804   0.437   3.238   0.878  0.1215 -0.6545 -0.1570
  869MPD2    C412805   0.337   3.250   0.972 -0.6000 -0.0894  0.3499
  869MPD2    C512806   0.247   3.143   0.994 -0.6101 -0.5109  0.2004
  869MPD2     H12807   0.520   3.108   0.726  1.2089  1.7652  1.3144
  869MPD2    H112808   0.326   3.342   1.028 -0.3795  1.0217 -1.4306
  869MPD2    H212809   0.200   2.937   0.938  0.1476  0.2479  0.9097
  869MPD2    H312810   0.165   3.160   1.063  0.3733  0.7195  1.0933
  869MPD2     N12811   0.517   3.345   0.850  0.6073  0.0370 -0.0527
  869MPD2    H512812   0.509   3.425   0.913 -0.9338 -0.3303  0.2118
  869MPD2    N112813   0.305   2.927   0.718 -0.1013 -0.4344 -0.4400
  869MPD2    H712814   0.225   2.870   0.744 -1.3976  1.0891 -1.0764
  870MPD2     C12815   0.710   2.579   1.426 -0.1292 -0.1618 -0.3727
  870MPD2    C112816   0.627   2.499   1.346 -0.7022 -0.1766  0.1375
  870MPD2    C212817   0.491   2.493   1.359 -0.0932 -0.2883  0.0493
  870MPD2    C312818   0.429   2.582   1.447  0.1209  0.3618  0.4426
  870MPD2    C412819   0.513   2.648   1.533  0.6362  1.4712  0.1425
  870MPD2    C512820   0.649   2.653   1.522 -0.5212 -0.2294  0.2054
  870MPD2     H12821   0.433   2.433   1.290  0.9552 -1.4103  0.1428
  870MPD2    H112822   0.468   2.713   1.607  0.2850  0.4405  0.8440
  870MPD2    H212823   0.818   2.570   1.424 -0.1315 -0.1732 -0.4522
  870MPD2    H312824   0.712   2.708   1.592  0.5787 -1.5091  0.2154
  870MPD2     N12825   0.288   2.579   1.460 -0.6495 -0.0611 -0.0986
  870MPD2    H512826   0.236   2.509   1.408  1.8948 -1.6411 -0.5374
  870MPD2    N112827   0.693   2.402   1.264  0.2970  0.6479 -0.0920
  870MPD2    H712828   0.786   2.390   1.302  1.0900  1.2082 -1.8418
  871MPD2     C12829   0.920   1.684  16.574  0.0018  0.0912  0.0447
  871MPD2    C112830   0.917   1.653  16.711 -0.7825  0.3130 -0.4090
  871MPD2    C212831   0.876   1.519  16.749 -0.3842  0.0521 -0.5936
  871MPD2    C312832   0.860   1.421  16.651 -0.4679 -0.2644  0.5863
  871MPD2    C412833   0.855   1.458  16.518 -0.6271  0.5016  0.3821
  871MPD2    C512834   0.882   1.588  16.481 -0.3049  0.7095 -0.5258
  871MPD2     H12835   0.886   1.484  16.851 -1.4865 -1.4686 -1.0121
  871MPD2    H112836   0.840   1.379  16.445 -1.3767  0.6601  0.3640
  871MPD2    H212837   0.948   1.784  16.544 -1.8354  0.7424  0.4737
  871MPD2    H312838   0.873   1.617  16.377 -1.7019  2.5659  0.1022
  871MPD2     N12839   0.842   1.290  16.690 -0.3203 -0.7440 -0.5992
  871MPD2    H512840   0.855   1.266  16.788  1.9605  1.0064 -0.4864
  871MPD2    N112841   0.953   1.744  16.809 -0.1161  0.6064 -0.5480
  871MPD2    H712842   0.995   1.828  16.770  0.0684  0.9570  0.4091
  872MPD2     C12843   1.300   4.078  13.860 -0.4574  0.5658  0.3651
  872MPD2    C112844   1.337   4.197  13.914  0.0619  0.4507 -0.0440
  872MPD2    C212845   1.272   4.240  14.030  0.1860 -0.1410  0.6463
  872MPD2    C312846   1.170   4.170  14.080  0.2438 -1.0789  0.1657
  872MPD2    C412847   1.132   4.053  14.018 -0.9581  0.0566 -0.7288
  872MPD2    C512848   1.196   4.002  13.910  0.0065  0.2795  0.0429
  872MPD2     H12849   1.299   4.332  14.082  0.2616  0.6173 -0.7443
  872MPD2    H112850   1.044   4.001  14.054 -0.9086 -0.1139 -0.8576
  872MPD2    H212851   1.342   4.051  13.764  1.9025 -0.5447  1.7378
  872MPD2    H312852   1.150   3.924  13.850  0.9433  0.6811 -1.2046
  872MPD2     N12853   1.102   4.208  14.192 -0.0983 -0.3525  0.0301
  872MPD2    H512854   1.027   4.144  14.217 -2.2351  2.6202  1.2881
  872MPD2    N112855   1.436   4.273  13.860  0.4890  0.2892 -0.4288
  872MPD2    H712856   1.447   4.369  13.893 -0.6650  0.2089  0.2070
  873MPD2     C12857   4.182   4.373   0.595 -0.0393  0.3448 -0.0046
  873MPD2    C112858   4.055   4.380   0.648  0.4741  0.0903 -0.6606
  873MPD2    C212859   3.966   4.270   0.618  0.0262  0.0811 -0.2797
  873MPD2    C312860   4.006   4.169   0.541 -0.3483  0.1152  0.3456
  873MPD2    C412861   4.132   4.170   0.480 -0.1420  0.3555  0.1529
  873MPD2    C512862   4.221   4.268   0.511  0.2142 -0.2621 -0.7330
  873MPD2     H12863   3.870   4.270   0.668  1.1191 -0.3048  1.8232
  873MPD2    H112864   4.183   4.098   0.417  1.1714  0.5062  1.0311
  873MPD2    H212865   4.260   4.436   0.637 -1.0395 -0.9224  3.6932
  873MPD2    H312866   4.325   4.263   0.480  0.7892  2.4485  0.7678
  873MPD2     N12867   3.929   4.055   0.521  0.5716  0.5866 -0.0719
  873MPD2    H512868   3.967   3.996   0.447  2.1594  0.6601  0.6888
  873MPD2    N112869   4.028   4.485   0.735  0.6917 -0.0009  0.1516
  873MPD2    H712870   4.108   4.538   0.766 -0.1930  1.1458  0.4635
  874MPD2     C12871   3.491   0.095  16.626 -0.0133 -0.3139  0.6977
  874MPD2    C112872   3.550   4.723  16.684  0.1137  0.6133  0.0961
  874MPD2    C212873   3.687   4.725  16.715  0.7053  0.0899 -0.0100
  874MPD2    C312874   3.758   0.107  16.706 -0.0687  0.5641  0.5370
  874MPD2    C412875   3.698   0.215  16.649  0.0940 -0.1709  0.3013
  874MPD2    C512876   3.567   0.210  16.604 -0.2560 -0.2446 -0.8163
  874MPD2     H12877   3.741   4.638  16.749  1.3712 -0.5342 -2.6086
  874MPD2    H112878   3.751   0.308  16.634 -0.0208 -0.0025  0.9876
  874MPD2    H212879   3.385   0.100  16.604  0.2055 -2.3501 -0.7544
  874MPD2    H312880   3.527   0.293  16.548 -0.5601  0.9048  1.0999
  874MPD2     N12881   3.895   0.099  16.744  0.2815 -0.2579 -0.0811
  874MPD2    H512882   3.926   0.005  16.767  0.1313 -0.2600  0.1064
  874MPD2    N112883   3.478   4.611  16.709  0.2448 -0.1704 -0.0129
  874MPD2    H712884   3.386   4.597  16.669  0.8974 -1.6112 -0.9924
  875MPD2     C12885   4.394   2.552  14.402 -0.5931  0.0464  0.3891
  875MPD2    C112886   4.281   2.507  14.460  0.1901 -0.0050  0.2486
  875MPD2    C212887   4.281   2.493  14.598  0.6522  0.4542  0.2076
  875MPD2    C312888   4.380   2.520  14.682  0.3930 -0.0009  0.2982
  875MPD2    C412889   4.494   2.568  14.625  0.5214 -0.5494  0.1910
  875MPD2    C512890   4.492   2.593  14.489 -0.1439 -0.5373  0.2031
  875MPD2     H12891   4.183   2.471  14.638  0.2797 -0.4788 -1.2109
  875MPD2    H112892   4.566   2.621  14.687 -0.5222  2.2941 -1.0219
  875MPD2    H212893   4.400   2.581  14.298  1.6098  0.4811  0.6397
  875MPD2    H312894   4.587   2.622  14.446  0.2443 -0.8240  0.8625
  875MPD2     N12895   4.384   2.513  14.819 -1.0314 -0.2740 -0.4207
  875MPD2    H512896   4.466   2.557  14.859 -0.3906 -2.3653  0.5815
  875MPD2    N112897   4.155   2.490  14.387  0.2822  0.4916 -0.1104
  875MPD2    H712898   4.070   2.473  14.440  0.8020 -1.1874  0.1936
  876MPD2     C12899   2.960   4.065  15.624 -0.3186 -0.0540  0.6350
  876MPD2    C112900   3.092   4.038  15.644  0.7293  0.4482 -0.6819
  876MPD2    C212901   3.133   3.932  15.721 -0.1873 -0.6033  0.0744
  876MPD2    C312902   3.042   3.842  15.770 -0.0404  0.0904  0.2159
  876MPD2    C412903   2.911   3.876  15.767 -0.4235  0.0499 -0.6095
  876MPD2    C512904   2.876   3.983  15.691  0.0401  0.6903  0.0447
  876MPD2     H12905   3.237   3.902  15.732  0.0269  0.1347  0.0468
  876MPD2    H112906   2.837   3.828  15.831 -0.6336  0.5906 -0.4442
  876MPD2    H212907   2.927   4.151  15.566  0.6719  1.4782  2.3300
  876MPD2    H312908   2.769   4.001  15.695 -0.2395 -1.4314  1.9290
  876MPD2     N12909   3.093   3.720  15.825  0.5520  0.2131 -0.6114
  876MPD2    H512910   3.193   3.714  15.840  0.4552  0.3804  0.1042
  876MPD2    N112911   3.182   4.113  15.561  0.4229  0.2389  0.3061
  876MPD2    H712912   3.136   4.173  15.494 -1.7147 -0.7177  0.9302
  877MPD2     C12913   2.977   4.241  15.048 -0.0935 -0.7316 -0.2749
  877MPD2    C112914   3.100   4.282  15.010  0.7663  0.2904 -0.1116
  877MPD2    C212915   3.147   4.271  14.883 -0.3701  0.0888  0.4213
  877MPD2    C312916   3.062   4.223  14.783 -0.2793  0.3883  0.1618
  877MPD2    C412917   2.938   4.184  14.828  0.0258 -0.6103  0.0864
  877MPD2    C512918   2.887   4.199  14.952  0.5293  1.1261 -0.0949
  877MPD2     H12919   3.242   4.314  14.855  0.0193 -0.9771  0.0965
  877MPD2    H112920   2.866   4.139  14.761 -0.6660  2.3137 -1.1416
  877MPD2    H212921   2.937   4.259  15.147  2.2620 -0.8887  0.6994
  877MPD2    H312922   2.787   4.162  14.966  0.6858  0.5458 -0.4862
  877MPD2     N12923   3.095   4.215  14.646 -0.1873 -0.5451  0.3479
  877MPD2    H512924   3.019   4.184  14.586  0.3059 -0.1564 -0.4727
  877MPD2    N112925   3.196   4.320  15.103 -0.4017  0.0097  0.0125
  877MPD2    H712926   3.274   4.358  15.051  1.2890 -1.9691  1.1002
  878MPD2     C12927   2.615   3.712  12.058 -0.3671 -0.8067 -0.0834
  878MPD2    C112928   2.541   3.806  12.123 -0.1142 -0.5512 -0.3151
  878MPD2    C212929   2.585   3.843  12.254 -0.7037  0.3391 -0.9016
  878MPD2    C312930   2.705   3.793  12.308  0.5339 -0.3869 -0.4914
  878MPD2    C412931   2.785   3.706  12.226 -0.0629 -0.9655 -0.0338
  878MPD2    C512932   2.725   3.656  12.112 -0.3506 -0.2661 -0.6156
  878MPD2     H12933   2.526   3.914  12.310  0.2463  0.4079  0.0074
  878MPD2    H112934   2.866   3.645  12.265  1.6727  0.6273 -1.1765
  878MPD2    H212935   2.573   3.666  11.969  1.3025 -1.8587 -0.3241
  878MPD2    H312936   2.770   3.578  12.051  1.8195  0.3676  0.1778
  878MPD2     N12937   2.738   3.827  12.440  0.1359  0.1055 -0.1617
  878MPD2    H512938   2.667   3.874  12.494 -0.2769  1.5967 -2.0430
  878MPD2    N112939   2.418   3.833  12.062  0.2385 -0.3082  0.0686
  878MPD2    H712940   2.399   3.772  11.983  1.5997  0.5272 -0.9187
  879MPD2     C12941   3.260   4.516  17.198 -0.2048 -0.4630 -0.7419
  879MPD2    C112942   3.276   4.589  17.081 -0.5364 -0.4066 -0.1224
  879MPD2    C212943   3.208   4.542  16.968  0.3000  0.5161  0.2090
  879MPD2    C312944   3.139   4.416  16.972 -0.3400  0.6549  0.0469
  879MPD2    C412945   3.127   4.348  17.091  0.6696 -0.4320  0.4296
  879MPD2    C512946   3.190   4.397  17.203 -0.4090  0.2696 -0.4600
  879MPD2     H12947   3.220   4.598  16.876  0.9985 -2.4944 -1.5408
  879MPD2    H112948   3.081   4.250  17.099 -1.1576  0.4325  0.5875
  879MPD2    H212949   3.305   4.554  17.289  0.5602 -0.5675 -1.0781
  879MPD2    H312950   3.191   4.345  17.298 -0.6202  1.3277  0.1247
  879MPD2     N12951   3.068   4.359  16.857  0.1286  0.3681 -0.3142
  879MPD2    H512952   3.012   4.278  16.881  1.4396 -0.5878 -0.4567
  879MPD2    N112953   3.358   4.700  17.086 -1.0164  0.4079  0.0036
  879MPD2    H712954   3.419   4.712  17.166 -0.2779 -0.8132 -0.3742
  880MPD2     C12955   4.621   1.743   0.376  0.0518 -0.4015 -0.0426
  880MPD2    C112956   4.702   1.851   0.405 -0.5059 -0.4304 -0.4005
  880MPD2    C212957   0.097   1.814   0.439 -0.9748  0.0154  1.1115
  880MPD2    C312958   0.137   1.689   0.461 -0.6531 -0.3822  0.5153
  880MPD2    C412959   0.057   1.584   0.414 -0.3015 -0.4517 -0.0572
  880MPD2    C512960   4.671   1.614   0.371 -0.1301 -0.0725 -0.6777
  880MPD2     H12961   0.171   1.889   0.462 -0.0360 -0.5697  0.0232
  880MPD2    H112962   0.086   1.481   0.431 -0.9298 -0.4980  0.7263
  880MPD2    H212963   4.514   1.753   0.360  0.0887 -1.2548 -0.8316
  880MPD2    H312964   4.601   1.534   0.352 -2.5481  2.3135 -1.7832
  880MPD2     N12965   0.257   1.672   0.526  0.6433 -0.3933  0.5734
  880MPD2    H512966   0.306   1.759   0.544 -1.2537  0.8913 -0.5143
  880MPD2    N112967   4.650   1.982   0.414  0.1248 -0.2504  0.0642
  880MPD2    H712968   4.561   1.993   0.366 -0.1901  0.7647  0.8934
  881MPD2     C12969   4.576   2.711  17.551  0.0999 -0.4480 -0.3721
  881MPD2    C112970   4.682   2.667  17.627 -0.3934  0.5559  0.2471
  881MPD2    C212971   4.645   2.601   0.007 -0.6786  0.1026  0.5164
  881MPD2    C312972   4.519   2.605   0.058 -0.0900  0.4241  0.1612
  881MPD2    C412973   4.418   2.657  17.722  0.3057 -0.1345  0.4660
  881MPD2    C512974   4.448   2.693  17.591  0.8994  0.0405  0.2184
  881MPD2     H12975   4.725   2.551   0.062  2.5782  1.6569 -2.8496
  881MPD2    H112976   4.313   2.650   0.009  0.9470 -1.7256  2.6623
  881MPD2    H212977   4.583   2.724  17.444  1.2210  0.3931 -0.1926
  881MPD2    H312978   4.359   2.723  17.537  0.6863 -2.3168 -0.7148
  881MPD2     N12979   4.475   2.528   0.175  0.6099  0.0826 -0.3608
  881MPD2    H512980   4.375   2.534   0.192  0.3830  0.3104 -1.7396
  881MPD2    N112981   0.063   2.633  17.560  0.3414  0.0841  0.3953
  881MPD2    H712982   0.082   2.676  17.470 -1.3637 -0.9555 -0.4657
  882MPD2     C12983   3.110   4.499  13.926 -0.9742  0.0892  0.3664
  882MPD2    C112984   3.091   4.378  13.976  0.4914  0.1399  0.6794
  882MPD2    C212985   2.977   4.311  13.943  0.3610  0.5527  0.5155
  882MPD2    C312986   2.886   4.351  13.849 -0.5569 -0.5486  0.1354
  882MPD2    C412987   2.912   4.474  13.784  0.5417 -0.2049 -0.9214
  882MPD2    C512988   3.022   4.544  13.830  0.7550 -0.0556  0.3255
  882MPD2     H12989   2.950   4.220  13.996  0.7371 -0.1732 -0.5456
  882MPD2    H112990   2.832   4.527  13.733  1.8987 -0.2687 -3.0770
  882MPD2    H212991   3.191   4.562  13.959 -1.9436  0.5650  1.8231
  882MPD2    H312992   3.043   4.647  13.805 -1.2629 -0.3701 -2.7233
  882MPD2     N12993   2.756   4.294  13.837 -0.4295  0.0445  0.2241
  882MPD2    H512994   2.689   4.338  13.775 -0.0259 -0.6698 -0.7076
  882MPD2    N112995   3.169   4.312  14.072  0.5397 -0.0090 -0.1835
  882MPD2    H712996   3.155   4.211  14.080 -2.3772  0.3357 -0.9849
  883MPD2     C12997   0.245   3.832  16.006  0.7290  0.3871 -0.4565
  883MPD2    C112998   0.206   3.966  15.969 -0.3470  0.5016  0.2395
  883MPD2    C212999   0.284   4.073  16.011 -0.1120  0.2392 -0.1989
  883MPD2    C313000   0.378   4.060  16.111 -0.8184 -0.1359 -0.6095
  883MPD2    C413001   0.406   3.930  16.151 -0.1467  0.0307  0.2804
  883MPD2    C513002   0.341   3.823  16.099 -0.1396 -0.2029 -0.0885
  883MPD2     H13003   0.276   4.175  15.975  0.0139 -0.3938 -2.0175
  883MPD2    H113004   0.475   3.910  16.232 -0.0159 -1.5660 -0.2241
  883MPD2    H213005   0.196   3.745  15.964  0.5418  0.8713 -1.2615
  883MPD2    H313006   0.381   3.727  16.128 -2.3553 -0.6450  1.5049
  883MPD2     N13007   0.458   4.174  16.140  0.0392  0.3380  0.0954
  883MPD2    H513008   0.442   4.262  16.092  1.4715  1.9120  2.4541
  883MPD2    N113009   0.094   3.985  15.882 -0.0092  0.2124 -0.7246
  883MPD2    H713010   0.071   4.084  15.873 -1.6844  0.0031  1.2743
  884MPD2     C13011   2.226   0.190  15.020  0.1772 -0.8410 -0.2224
  884MPD2    C113012   2.189   0.317  14.977 -0.1288 -0.7162  0.2177
  884MPD2    C213013   2.056   0.359  15.015 -0.0371  0.3530  0.2777
  884MPD2    C313014   1.975   0.267  15.082  0.2694 -0.4909 -1.1149
  884MPD2    C413015   2.016   0.141  15.109  0.1088 -0.1459 -1.0436
  884MPD2    C513016   2.137   0.093  15.065 -0.3073  0.2786  0.2930
  884MPD2     H13017   2.017   0.459  15.000 -3.8080 -1.0041  1.2158
  884MPD2    H113018   1.948   0.079  15.166  0.6930  0.4115  0.2626
  884MPD2    H213019   2.324   0.151  14.996 -0.1010  0.1025 -2.8767
  884MPD2    H313020   2.165   4.730  15.101  1.3299 -0.0469 -1.9391
  884MPD2     N13021   1.845   0.313  15.106 -0.1752 -0.0635 -0.6655
  884MPD2    H513022   1.825   0.401  15.061 -2.6202  0.0930  0.6658
  884MPD2    N113023   2.271   0.416  14.911  0.2830  0.1758 -0.4760
  884MPD2    H713024   2.232   0.510  14.906 -1.0363 -0.3593 -0.1483
  885MPD2     C13025   0.607   1.192   0.248  0.0601  0.4944  0.0482
  885MPD2    C113026   0.609   1.063   0.295  0.4980 -0.2451  0.5263
  885MPD2    C213027   0.563   0.971   0.207 -0.5843  0.3060  0.2710
  885MPD2    C313028   0.514   1.005   0.080 -0.1713 -0.4088  0.2085
  885MPD2    C413029   0.498   1.135   0.041  0.2935  0.1747  0.1297
  885MPD2    C513030   0.551   1.226   0.131 -0.4023  0.1716  0.4103
  885MPD2     H13031   0.577   0.867   0.235  0.1980  0.5009  0.6297
  885MPD2    H113032   0.461   1.170  17.685 -0.3065 -1.3727 -0.2106
  885MPD2    H213033   0.654   1.268   0.309  0.1052  0.2582  0.3058
  885MPD2    H313034   0.557   1.330   0.102  1.5924  0.0468  0.4195
  885MPD2     N13035   0.488   0.894  17.730  0.3182  0.6044  0.6575
  885MPD2    H513036   0.535   0.806   0.012  1.3291  1.5150  2.2136
  885MPD2    N113037   0.684   1.034   0.416  0.4248  0.0101 -0.3366
  885MPD2    H713038   0.721   1.117   0.462 -1.6549  1.6927 -1.7324
  886MPD2     C13039   1.384   3.792  15.161  0.0994 -0.3449 -0.6152
  886MPD2    C113040   1.520   3.822  15.189  0.0247 -0.1702 -0.4190
  886MPD2    C213041   1.587   3.911  15.114  0.1373  0.3533  0.1651
  886MPD2    C313042   1.531   3.953  14.996  0.4933  0.8354 -0.6332
  886MPD2    C413043   1.401   3.918  14.969  0.9593  0.7709 -0.5840
  886MPD2    C513044   1.325   3.835  15.048  0.2673 -0.4534 -0.5557
  886MPD2     H13045   1.691   3.922  15.141  0.4274 -0.4584 -0.5790
  886MPD2    H113046   1.359   3.947  14.873 -1.6041  0.9497  0.6045
  886MPD2    H213047   1.324   3.720  15.215  0.4709  1.4851  2.3194
  886MPD2    H313048   1.225   3.810  15.014  0.0264 -1.4227  0.8708
  886MPD2     N13049   1.602   4.037  14.904 -0.0917  0.2614 -0.4130
  886MPD2    H513050   1.563   4.060  14.813  0.0681  0.0470 -0.5333
  886MPD2    N113051   1.587   3.765  15.302 -0.3076 -0.9880 -0.3688
  886MPD2    H713052   1.687   3.781  15.308 -0.7899  1.3317  1.2833
  887MPD2     C13053   2.253   3.559  15.434  0.5924 -0.6684 -0.3780
  887MPD2    C113054   2.157   3.652  15.410  0.1702 -0.4626 -0.5840
  887MPD2    C213055   2.193   3.781  15.380  0.7527 -0.3306  0.5666
  887MPD2    C313056   2.329   3.812  15.383  0.3377 -0.2959  0.8330
  887MPD2    C413057   2.429   3.712  15.385  0.6238 -0.2439 -0.2099
  887MPD2    C513058   2.389   3.584  15.417 -0.0263  0.8013 -0.1169
  887MPD2     H13059   2.112   3.851  15.360  1.2858  0.0320 -0.3775
  887MPD2    H113060   2.535   3.722  15.367  0.3226 -1.0922 -2.4410
  887MPD2    H213061   2.234   3.454  15.453 -0.8564 -0.6274 -1.5991
  887MPD2    H313062   2.458   3.500  15.415 -0.8574  0.0524  2.1706
  887MPD2     N13063   2.362   3.948  15.370  0.2038 -0.1310 -0.5364
  887MPD2    H513064   2.291   4.013  15.339  0.1594 -0.5726 -1.3628
  887MPD2    N113065   2.018   3.621  15.437  0.2944  0.3334  0.5233
  887MPD2    H713066   1.947   3.686  15.405 -1.3501 -0.3677  2.7568
  888MPD2     C13067   4.119   3.800  14.647 -0.6945  0.0170 -0.0431
  888MPD2    C113068   4.167   3.793  14.778  0.2827 -0.3480  0.6906
  888MPD2    C213069   4.250   3.895  14.835 -0.3418 -0.5467  0.7938
  888MPD2    C313070   4.284   3.998  14.750  0.2212 -0.3078 -0.8376
  888MPD2    C413071   4.237   4.001  14.619 -0.5897 -0.2485 -0.7594
  888MPD2    C513072   4.154   3.905  14.575 -0.3524 -0.3355  0.4428
  888MPD2     H13073   4.280   3.903  14.939 -1.6650 -1.3016  1.2348
  888MPD2    H113074   4.255   4.087  14.555  0.6657 -0.0276 -0.1002
  888MPD2    H213075   4.073   3.723  14.586  0.2775 -0.8632  0.3495
  888MPD2    H313076   4.133   3.917  14.469 -1.3111  1.6364  0.8519
  888MPD2     N13077   4.349   4.109  14.805 -0.3204 -0.5359 -0.0721
  888MPD2    H513078   4.369   4.100  14.904 -0.9272 -0.3441  0.0712
  888MPD2    N113079   4.143   3.675  14.858  0.5148  0.2772 -0.4513
  888MPD2    H713080   4.191   3.658  14.946 -0.2942 -1.7193 -0.3932
  889MPD2     C13081   3.868   3.573  12.566 -0.0820  0.3925  0.6591
  889MPD2    C113082   3.858   3.493  12.682 -0.4771 -0.2861 -0.5054
  889MPD2    C213083   3.757   3.534  12.776  0.1447  0.0932 -0.1424
  889MPD2    C313084   3.685   3.641  12.763  0.0514 -0.0246 -0.1631
  889MPD2    C413085   3.708   3.729  12.660  0.1468 -0.1088 -0.2559
  889MPD2    C513086   3.798   3.689  12.566 -0.6379  0.1297 -0.0903
  889MPD2     H13087   3.742   3.469  12.862 -0.7191  0.0754 -0.3112
  889MPD2    H113088   3.669   3.829  12.645 -1.4980 -0.5459  1.0203
  889MPD2    H213089   3.916   3.549  12.472 -1.4744  0.3000 -0.0353
  889MPD2    H313090   3.821   3.758  12.486 -1.2680 -0.8286 -1.0999
  889MPD2     N13091   3.591   3.667  12.865  0.0181  0.0407  0.1690
  889MPD2    H513092   3.579   3.597  12.937  1.2021  0.4621  0.7771
  889MPD2    N113093   3.895   3.359  12.690  0.0639 -0.1018  0.7035
  889MPD2    H713094   3.854   3.314  12.770 -1.3044  0.6552  0.4224
  890MPD2     C13095   2.923   0.761  14.512 -0.0126  0.3423 -0.1927
  890MPD2    C113096   3.060   0.751  14.488 -0.5787 -0.1659  0.0985
  890MPD2    C213097   3.137   0.645  14.543  0.2088  0.3672  0.1351
  890MPD2    C313098   3.062   0.553  14.613 -0.3381 -0.4937  0.5398
  890MPD2    C413099   2.925   0.554  14.629 -0.8843 -0.2300 -0.2723
  890MPD2    C513100   2.855   0.669  14.581  1.2114 -0.2511 -0.1801
  890MPD2     H13101   3.244   0.633  14.535  0.3344 -0.2920  2.9953
  890MPD2    H113102   2.868   0.469  14.666 -0.4667 -0.2511  0.3241
  890MPD2    H213103   2.862   0.843  14.475 -0.2080  2.4729  4.9578
  890MPD2    H313104   2.747   0.676  14.589  1.0192  0.1909 -3.0589
  890MPD2     N13105   3.138   0.439  14.651  0.4549 -0.2915  0.4020
  890MPD2    H513106   3.237   0.433  14.626  0.3681  1.9126 -0.4854
  890MPD2    N113107   3.115   0.862  14.412  0.0701  0.3636  0.3328
  890MPD2    H713108   3.047   0.925  14.370 -1.4538 -0.2417  1.9037
  891MPD2     C13109   1.120   3.165  16.844 -0.4320  0.1809  0.0035
  891MPD2    C113110   1.111   3.302  16.879 -0.8968  0.6581 -0.1836
  891MPD2    C213111   1.194   3.346  16.978  0.3960 -0.1835 -0.0645
  891MPD2    C313112   1.290   3.267  17.041 -0.5358 -0.1293 -0.3258
  891MPD2    C413113   1.302   3.137  16.995  0.1373 -0.8539  0.8489
  891MPD2    C513114   1.209   3.084  16.913  0.7818 -0.1276  0.5818
  891MPD2     H13115   1.182   3.447  17.016  0.8078 -0.5143  0.9484
  891MPD2    H113116   1.367   3.074  17.054  1.2774 -0.2628  0.2160
  891MPD2    H213117   1.048   3.118  16.777  0.6900 -1.8195  0.1948
  891MPD2    H313118   1.225   2.985  16.874  1.4150 -0.3864  1.4934
  891MPD2     N13119   1.367   3.323  17.147 -0.8348 -0.1527 -0.0998
  891MPD2    H513120   1.354   3.419  17.178 -3.0763 -1.6845  3.6319
  891MPD2    N113121   1.000   3.379  16.817  0.1266  0.0307 -0.0977
  891MPD2    H713122   0.932   3.321  16.769 -1.0011  1.3683 -0.1252
  892MPD2     C13123   2.267   0.042  14.274  0.2443  0.0770  0.3667
  892MPD2    C113124   2.161   4.685  14.245 -0.9820  0.4574  0.1688
  892MPD2    C213125   2.196   4.581  14.156  0.3088  0.2172  0.5139
  892MPD2    C313126   2.333   4.559  14.118 -0.5380 -0.0616  0.0626
  892MPD2    C413127   2.425   4.652  14.148  0.5828  0.5895  0.3934
  892MPD2    C513128   2.393   0.029  14.225  0.2123  0.3079 -0.8678
  892MPD2     H13129   2.111   4.523  14.121  0.3315  0.9201 -0.7080
  892MPD2    H113130   2.529   4.638  14.118  0.5198  3.8872 -1.4375
  892MPD2    H213131   2.251   0.128  14.338  0.0564  0.8401 -0.7083
  892MPD2    H313132   2.463   0.108  14.252 -0.3139  0.6082 -0.3826
  892MPD2     N13133   2.384   4.441  14.050 -0.5645 -0.3593  0.3982
  892MPD2    H513134   2.484   4.439  14.036 -1.0656 -1.7146 -2.8185
  892MPD2    N113135   2.029   4.683  14.307  0.5934  0.0268 -0.5348
  892MPD2    H713136   1.966   4.612  14.273 -0.8907  1.7827 -1.4529
  893MPD2     C13137   4.132   3.652   1.517 -0.0395  0.3998  0.4901
  893MPD2    C113138   4.129   3.545   1.435 -0.3750 -0.1863 -0.3337
  893MPD2    C213139   4.010   3.486   1.404 -0.4449  0.4492  0.3229
  893MPD2    C313140   3.889   3.524   1.467 -0.1915  0.1518 -0.7055
  893MPD2    C413141   3.896   3.631   1.558 -0.0259 -0.1400 -0.0556
  893MPD2    C513142   4.018   3.696   1.579  0.0267  0.1751  0.1653
  893MPD2     H13143   3.995   3.410   1.328  2.6723 -1.2084  1.3982
  893MPD2    H113144   3.810   3.649   1.622  0.0326  2.1632 -0.6451
  893MPD2    H213145   4.231   3.694   1.528  0.5977 -0.3231 -2.5217
  893MPD2    H313146   4.029   3.773   1.654 -0.9124 -0.4884  0.9846
  893MPD2     N13147   3.763   3.457   1.444 -0.3692  0.4286  0.2747
  893MPD2    H513148   3.689   3.482   1.509  0.8052  1.0407  1.3718
  893MPD2    N113149   4.249   3.506   1.369 -0.4450 -0.2165  0.4174
  893MPD2    H713150   4.335   3.534   1.416 -0.9999 -1.8814  2.4077
  894MPD2     C13151   2.600   0.814   0.941 -0.5272 -0.1655  0.2306
  894MPD2    C113152   2.616   0.889   1.057  0.3005 -0.2986 -0.0783
  894MPD2    C213153   2.671   1.018   1.039  0.7671 -0.0369  0.3387
  894MPD2    C313154   2.686   1.075   0.915 -0.2574  0.2466  0.0642
  894MPD2    C413155   2.650   1.002   0.806 -0.7352 -0.2046  1.0973
  894MPD2    C513156   2.612   0.874   0.822  0.0435 -0.5915  0.2384
  894MPD2     H13157   2.699   1.071   1.129  1.3968  1.8400 -0.9777
  894MPD2    H113158   2.657   1.034   0.703 -1.8811 -1.0465  0.7510
  894MPD2    H213159   2.572   0.710   0.944 -1.3190  0.0895  1.6079
  894MPD2    H313160   2.580   0.814   0.737 -1.7609  2.3293 -1.1168
  894MPD2     N13161   2.742   1.202   0.905 -0.5344 -0.0690  0.1486
  894MPD2    H513162   2.779   1.243   0.990 -1.4405 -2.0182  1.4923
  894MPD2    N113163   2.586   0.850   1.190  0.3314  0.1584  0.6512
  894MPD2    H713164   2.607   0.917   1.263  1.8045  0.9889 -0.5057
  895MPD2     C13165   1.288   3.722  13.657  0.1835  0.6855  0.1577
  895MPD2    C113166   1.184   3.628  13.639  0.0765  0.0228 -0.3338
  895MPD2    C213167   1.218   3.494  13.631  0.3002 -0.0294  0.0622
  895MPD2    C313168   1.349   3.453  13.636 -0.2993 -0.7218  0.5296
  895MPD2    C413169   1.453   3.546  13.660  0.2339  0.3383 -0.8025
  895MPD2    C513170   1.417   3.678  13.665 -0.4921 -0.0420 -0.1990
  895MPD2     H13171   1.146   3.413  13.632  1.3701 -0.9442  1.5520
  895MPD2    H113172   1.557   3.518  13.661 -0.4683 -2.2273 -0.2798
  895MPD2    H213173   1.276   3.830  13.663  0.2599  0.5903  1.8151
  895MPD2    H313174   1.493   3.752  13.685  1.1673 -1.2163 -2.0799
  895MPD2     N13175   1.361   3.311  13.622  0.0123  0.0624  0.0346
  895MPD2    H513176   1.274   3.260  13.608  0.3783  0.0701 -2.2926
  895MPD2    N113177   1.050   3.654  13.625  0.1419  0.0993 -0.2231
  895MPD2    H713178   0.984   3.578  13.617 -2.2189  2.3007 -1.4674
  896MPD2     C13179   4.459   1.637   1.325 -0.9299 -0.2512 -0.2315
  896MPD2    C113180   4.438   1.546   1.223  0.8865  0.2398  0.3927
  896MPD2    C213181   4.303   1.510   1.199  0.3162 -0.1607 -0.0723
  896MPD2    C313182   4.198   1.560   1.275 -0.6657 -0.0637 -0.3837
  896MPD2    C413183   4.225   1.652   1.377 -0.1142 -0.4655 -0.1192
  896MPD2    C513184   4.355   1.678   1.402  0.3557 -0.2599  0.6543
  896MPD2     H13185   4.278   1.448   1.114  0.0274  2.1623 -1.6601
  896MPD2    H113186   4.160   1.694   1.453  0.2818 -0.8749  0.4472
  896MPD2    H213187   4.552   1.685   1.352 -1.8762  0.4685  1.7812
  896MPD2    H313188   4.373   1.752   1.478  0.0184  1.2352 -0.7184
  896MPD2     N13189   4.069   1.524   1.233 -0.5088  0.0223 -0.0148
  896MPD2    H513190   4.058   1.458   1.156 -2.0881  0.3738 -0.0736
  896MPD2    N113191   4.544   1.522   1.126 -0.2541 -0.7072 -0.0560
  896MPD2    H713192   4.631   1.573   1.126 -0.4935 -0.2994 -0.4370
  897MPD2     C13193   4.222   1.874  10.326  0.0536 -0.1258 -1.0760
  897MPD2    C113194   4.225   2.016  10.326  0.4027  0.3558  1.1578
  897MPD2    C213195   4.143   2.084  10.414  0.1652  0.3422  0.2359
  897MPD2    C313196   4.049   2.017  10.486  0.0672  0.0946 -0.3573
  897MPD2    C413197   4.034   1.881  10.475 -0.3967 -0.2417  0.6140
  897MPD2    C513198   4.119   1.812  10.397 -0.1317 -0.2297  0.3261
  897MPD2     H13199   4.142   2.192  10.426  0.2747  0.0376  3.1702
  897MPD2    H113200   3.966   1.818  10.532 -0.3455 -0.8065  0.0471
  897MPD2    H213201   4.297   1.817  10.271  0.5753  0.2347 -0.7306
  897MPD2    H313202   4.121   1.703  10.403 -1.1127 -0.1988  1.1246
  897MPD2     N13203   3.988   2.097  10.584  0.7621  0.5514  0.3589
  897MPD2    H513204   4.009   2.195  10.571 -1.2736  1.3518  3.0914
  897MPD2    N113205   4.329   2.082  10.259 -0.9456 -0.3162  0.3622
  897MPD2    H713206   4.397   2.019  10.219  0.2108  1.1445  0.0257
  898MPD2     C13207   2.103   4.437   0.699 -0.5719 -0.2015 -0.0917
  898MPD2    C113208   2.096   4.372   0.579 -0.6219  0.4403  1.1439
  898MPD2    C213209   2.072   4.448   0.467  0.0112 -0.5105  0.1604
  898MPD2    C313210   2.079   4.589   0.472 -0.7011 -0.3341  0.6467
  898MPD2    C413211   2.093   4.647   0.593  0.4353 -0.4251 -0.3931
  898MPD2    C513212   2.112   4.574   0.705  0.7586 -0.5669 -0.1351
  898MPD2     H13213   2.055   4.405   0.369  1.4693  0.4787 -0.5243
  898MPD2    H113214   2.098   0.019   0.610  2.2073 -0.6677  0.6956
  898MPD2    H213215   2.131   4.386   0.791  0.7130  2.0615  0.7783
  898MPD2    H313216   2.120   4.621   0.803  0.5389 -2.9922  1.0547
  898MPD2     N13217   2.045   4.654   0.356  0.2865 -0.8827  0.3988
  898MPD2    H513218   2.015   4.599   0.276  4.2979 -0.0797 -1.6477
  898MPD2    N113219   2.095   4.234   0.558  0.3546 -0.5587 -0.3438
  898MPD2    H713220   2.091   4.208   0.460  2.5659 -0.1131 -0.5363
  899MPD2     C13221   2.846   4.393  17.254 -0.1392 -0.0203 -0.1001
  899MPD2    C113222   2.889   4.511  17.315  0.3610  0.1074  0.5352
  899MPD2    C213223   2.913   4.522  17.451  0.0120 -0.3288 -0.0616
  899MPD2    C313224   2.897   4.411  17.529  0.4126  0.2748  0.7641
  899MPD2    C413225   2.864   4.290  17.475 -0.4212 -0.1620  0.2646
  899MPD2    C513226   2.830   4.277  17.333 -0.7894 -0.1723 -0.0630
  899MPD2     H13227   2.962   4.608  17.495 -1.7260  1.5059 -1.7494
  899MPD2    H113228   2.850   4.199  17.532  1.5509  0.4690  1.7324
  899MPD2    H213229   2.826   4.395  17.147 -0.7476  1.0859  0.0398
  899MPD2    H313230   2.799   4.183  17.290 -0.5490  0.9219 -2.6188
  899MPD2     N13231   2.903   4.423  17.669 -0.0338  0.5043 -0.1078
  899MPD2    H513232   2.907   4.521  17.695  0.7942  0.5148 -0.2697
  899MPD2    N113233   2.907   4.618  17.225 -0.3343  0.2551  0.0078
  899MPD2    H713234   2.899   4.603  17.125 -0.9172  0.0970  0.0810
  900MPD2     C13235   2.233   1.554  12.751 -0.2498  0.1339 -0.1743
  900MPD2    C113236   2.190   1.427  12.762 -0.2395  0.4713  0.2369
  900MPD2    C213237   2.061   1.391  12.714  0.4733  0.4307 -0.0664
  900MPD2    C313238   1.973   1.486  12.674  0.6044  0.1484  0.4573
  900MPD2    C413239   2.024   1.613  12.654 -0.1057  0.0250  0.5843
  900MPD2    C513240   2.154   1.645  12.682 -0.8518 -0.0499  0.2946
  900MPD2     H13241   2.025   1.290  12.728  1.2807  0.3057  1.1114
  900MPD2    H113242   1.957   1.685  12.607 -0.2333 -1.8157 -2.0832
  900MPD2    H213243   2.321   1.587  12.804  1.0178 -0.3341 -2.0062
  900MPD2    H313244   2.188   1.747  12.669 -2.3298  0.5617  1.1708
  900MPD2     N13245   1.840   1.448  12.650  0.0340 -0.3334 -0.1862
  900MPD2    H513246   1.820   1.349  12.652  1.0569 -0.4934  1.9094
  900MPD2    N113247   2.283   1.340  12.822  0.8919 -0.0560  0.0321
  900MPD2    H713248   2.369   1.388  12.845 -0.0095  1.1827  0.7853
  901MPD2     C13249   2.205   0.371  13.140  0.2292 -0.1495  0.3193
  901MPD2    C113250   2.167   0.437  13.030 -0.3364  0.0818  0.1624
  901MPD2    C213251   2.200   0.576  13.015  0.6217  0.8265  0.3264
  901MPD2    C313252   2.269   0.642  13.116  0.0142  0.1943 -0.3016
  901MPD2    C413253   2.308   0.566  13.228 -0.1580 -0.4811  1.1762
  901MPD2    C513254   2.274   0.436  13.238 -0.2220  0.3163 -0.3766
  901MPD2     H13255   2.173   0.623  12.921  0.0902  0.3158  0.2231
  901MPD2    H113256   2.374   0.607  13.303  1.7776 -0.0148 -0.8046
  901MPD2    H213257   2.183   0.266  13.150 -1.4710  0.2099  0.2540
  901MPD2    H313258   2.311   0.387  13.327 -0.0486  3.8979  1.4972
  901MPD2     N13259   2.303   0.774  13.091  0.5701  0.0826 -0.4068
  901MPD2    H513260   2.263   0.811  13.006 -0.6456  2.2279  1.0851
  901MPD2    N113261   2.114   0.359  12.929 -0.2428 -0.6387  0.5477
  901MPD2    H713262   2.088   0.263  12.950  1.4324 -1.1210  0.4271
  902MPD2     C13263   0.904   3.724  13.015  0.8864 -0.5133 -0.2984
  902MPD2    C113264   0.981   3.825  12.965 -0.6345 -1.1085 -0.2326
  902MPD2    C213265   1.100   3.799  12.909 -0.4031  0.4210  0.4372
  902MPD2    C313266   1.144   3.670  12.887  0.4425 -0.2022 -0.2478
  902MPD2    C413267   1.067   3.565  12.939 -0.2280  0.7872  0.0909
  902MPD2    C513268   0.947   3.593  13.002 -0.1439  0.4335 -0.8195
  902MPD2     H13269   1.162   3.885  12.886  0.6118 -0.6869 -1.0348
  902MPD2    H113270   1.089   3.459  12.932 -1.8324  0.4437  0.3216
  902MPD2    H213271   0.808   3.739  13.062  2.2520  0.6734  2.0861
  902MPD2    H313272   0.899   3.519  13.065  2.0187  0.4807  0.8970
  902MPD2     N13273   1.275   3.646  12.831  0.7463 -0.4277  0.0795
  902MPD2    H513274   1.295   3.547  12.826 -2.5382 -1.1861  2.3435
  902MPD2    N113275   0.926   3.957  12.973  0.2077  0.8095  0.1485
  902MPD2    H713276   0.836   3.971  13.017 -1.4650 -0.2273 -2.8955
  903MPD2     C13277   1.612   4.033  12.232 -0.1881  0.3859  0.1605
  903MPD2    C113278   1.587   3.900  12.284  0.0893  0.4051  0.1446
  903MPD2    C213279   1.511   3.820  12.200 -0.8470  0.0652 -0.6358
  903MPD2    C313280   1.483   3.853  12.067  0.1414  0.4656  0.3872
  903MPD2    C413281   1.505   3.977  12.026  0.2841  0.0100 -0.3824
  903MPD2    C513282   1.564   4.069  12.110 -0.4578 -0.2903  0.4741
  903MPD2     H13283   1.482   3.721  12.234  0.3334 -0.2311 -0.4784
  903MPD2    H113284   1.467   3.998  11.927 -0.4045  1.9867  0.3122
  903MPD2    H213285   1.669   4.104  12.291  0.8900 -1.0676  0.8827
  903MPD2    H313286   1.572   4.172  12.077 -1.5224  0.0723  1.3550
  903MPD2     N13287   1.417   3.753  11.991  0.4657 -0.3602 -0.1500
  903MPD2    H513288   1.390   3.666  12.038 -0.8643  0.1500  0.0216
  903MPD2    N113289   1.628   3.859  12.411  0.6741 -0.1495 -0.3350
  903MPD2    H713290   1.659   3.932  12.474  1.3268 -0.0230 -0.8084
  904MPD2     C13291   1.194   2.954  14.363  0.1217  0.8460 -0.4418
  904MPD2    C113292   1.169   3.066  14.279 -0.0090  0.4194  0.6250
  904MPD2    C213293   1.271   3.128  14.213 -0.8278  0.5359 -0.1071
  904MPD2    C313294   1.402   3.079  14.228 -0.5828 -0.5604  0.0520
  904MPD2    C413295   1.425   2.969  14.306  0.1755  0.0807 -0.8448
  904MPD2    C513296   1.321   2.905  14.377 -0.8629 -0.4900  0.0180
  904MPD2     H13297   1.270   3.217  14.153 -1.5856  0.7785  0.2590
  904MPD2    H113298   1.526   2.938  14.331  0.0177  0.3997  0.2057
  904MPD2    H213299   1.117   2.903  14.419  2.7515 -0.3872  2.0411
  904MPD2    H313300   1.343   2.827  14.449 -1.9106 -1.2188 -0.4570
  904MPD2     N13301   1.503   3.149  14.160  0.1462  0.2939  0.1341
  904MPD2    H513302   1.471   3.230  14.108  1.6735  1.9311  1.7443
  904MPD2    N113303   1.040   3.116  14.251  0.0944 -0.2336 -0.4374
  904MPD2    H713304   1.034   3.204  14.201 -0.5921 -1.1839 -2.0046
  905MPD2     C13305   0.652   2.914  13.649 -0.4476 -0.1855  1.1953
  905MPD2    C113306   0.743   2.993  13.724  0.7013  0.9144 -0.2404
  905MPD2    C213307   0.876   2.988  13.686  0.1371  0.0357 -0.1827
  905MPD2    C313308   0.912   2.910  13.574 -0.8932  0.2582  0.7323
  905MPD2    C413309   0.826   2.833  13.507  0.0970 -0.1944 -0.8354
  905MPD2    C513310   0.693   2.837  13.546 -0.2743  0.6894 -0.1169
  905MPD2     H13311   0.945   3.038  13.754  0.5343 -2.7614  1.4906
  905MPD2    H113312   0.862   2.780  13.420  0.6394  1.7877 -1.8331
  905MPD2    H213313   0.548   2.915  13.677 -0.0354  0.6313  2.7367
  905MPD2    H313314   0.619   2.777  13.494  0.2611 -1.1237  1.1860
  905MPD2     N13315   1.045   2.906  13.526  0.6128 -0.0292  0.4763
  905MPD2    H513316   1.072   2.827  13.469 -0.5969 -0.0084 -0.1342
  905MPD2    N113317   0.693   3.058  13.845 -0.2571 -0.2632  0.2911
  905MPD2    H713318   0.608   3.027  13.891 -0.0569  2.0413  2.2413
  906MPD2     C13319   3.046   3.114  11.290 -0.1687 -0.2639 -0.1819
  906MPD2    C113320   2.979   3.067  11.182  0.7760  0.4989 -0.0515
  906MPD2    C213321   2.842   3.043  11.182 -0.5320  0.1149  0.4662
  906MPD2    C313322   2.771   3.079  11.302  0.0206 -0.8291  0.3148
  906MPD2    C413323   2.838   3.146  11.401 -0.0710 -0.1418  0.5961
  906MPD2    C513324   2.973   3.171  11.393 -0.8514  0.2880 -0.4002
  906MPD2     H13325   2.790   3.008  11.094 -0.9190 -1.5161  1.3532
  906MPD2    H113326   2.790   3.187  11.489 -1.1534 -1.1127  0.4603
  906MPD2    H213327   3.153   3.129  11.289 -0.2041 -0.1877 -2.1965
  906MPD2    H313328   3.024   3.229  11.469  0.8552 -0.6776 -0.8120
  906MPD2     N13329   2.630   3.053  11.314 -0.4007  0.0400 -0.4146
  906MPD2    H513330   2.599   3.037  11.410  0.6417 -0.6640 -0.1951
  906MPD2    N113331   3.047   3.037  11.065 -0.2587 -0.8306 -0.1045
  906MPD2    H713332   2.981   2.991  11.003 -2.8928  1.2591  1.1620
  907MPD2     C13333   2.059   2.557  15.900 -0.0318  0.2620  0.4589
  907MPD2    C113334   2.096   2.430  15.858  0.7387  0.0132 -0.2861
  907MPD2    C213335   2.221   2.388  15.886  0.2467 -0.4017 -0.3445
  907MPD2    C313336   2.326   2.464  15.938  0.0202  0.1927 -0.3521
  907MPD2    C413337   2.288   2.583  15.987 -0.4432  0.1522 -0.3804
  907MPD2    C513338   2.154   2.626  15.967 -0.9368  0.3072  0.2587
  907MPD2     H13339   2.242   2.286  15.855  1.3852 -0.8133  1.7202
  907MPD2    H113340   2.366   2.652  16.016  0.8125 -1.5844  0.3557
  907MPD2    H213341   1.959   2.597  15.889 -0.7953 -1.4053  1.2828
  907MPD2    H313342   2.139   2.729  15.997  0.3309  0.9077 -1.1524
  907MPD2     N13343   2.452   2.400  15.946  0.4739  0.5965 -0.5212
  907MPD2    H513344   2.455   2.308  15.904 -1.4967 -0.7524  2.2963
  907MPD2    N113345   2.019   2.341  15.778 -0.2602 -0.2630 -0.6015
  907MPD2    H713346   2.066   2.252  15.766 -1.3872 -0.8040 -0.9992
  908MPD2     C13347   4.675   1.922   9.448 -0.0252 -1.0270 -0.5719
  908MPD2    C113348   4.575   1.864   9.528 -0.1364  0.0286 -0.6884
  908MPD2    C213349   4.546   1.931   9.648  0.2710 -0.0717  0.0018
  908MPD2    C313350   4.611   2.046   9.691  1.0597 -0.3755  0.1143
  908MPD2    C413351   4.717   2.083   9.608 -0.3546 -0.6325 -0.1116
  908MPD2    C513352   0.009   2.027   9.493  0.6646 -0.3581 -0.2285
  908MPD2     H13353   4.470   1.889   9.713  1.0465 -0.7792  0.4651
  908MPD2    H113354   0.043   2.166   9.641 -0.6377 -1.2300  1.9607
  908MPD2    H213355   4.706   1.877   9.355  0.8482 -0.5717 -0.4986
  908MPD2    H313356   0.091   2.056   9.429  1.2442 -0.9452  0.2509
  908MPD2     N13357   4.585   2.108   9.819 -0.1591  0.2449  0.4726
  908MPD2    H513358   4.513   2.060   9.871  2.0022 -3.2873  0.2607
  908MPD2    N113359   4.507   1.750   9.475  0.0470 -0.1523 -0.3091
  908MPD2    H713360   4.542   1.707   9.390  1.6523 -0.2994  0.4285
  909MPD2     C13361   0.375   1.209  11.618 -0.2131 -0.3743  0.0187
  909MPD2    C113362   0.326   1.291  11.518  0.0580  0.1551 -0.3919
  909MPD2    C213363   0.205   1.357  11.549  0.3227 -0.1839 -0.0813
  909MPD2    C313364   0.133   1.340  11.666  0.3410 -0.4361 -0.6942
  909MPD2    C413365   0.185   1.253  11.763 -0.5617 -0.3403  0.3020
  909MPD2    C513366   0.304   1.185  11.731 -0.1403 -0.3282  0.3760
  909MPD2     H13367   0.165   1.421  11.471  1.8268 -0.4517 -1.0812
  909MPD2    H113368   0.142   1.226  11.859  0.0545 -1.4679  0.2518
  909MPD2    H213369   0.465   1.148  11.610 -1.0486 -1.4571 -1.1667
  909MPD2    H313370   0.347   1.115  11.801 -0.4855 -1.8261 -0.8965
  909MPD2     N13371   0.013   1.412  11.683 -0.2306  0.0672  0.4965
  909MPD2    H513372   4.707   1.460  11.603  0.6956  1.5965  0.9226
  909MPD2    N113373   0.388   1.319  11.394 -0.5500  0.0017  0.3868
  909MPD2    H713374   0.357   1.396  11.336  0.0998 -1.3841 -1.8143
  910MPD2     C13375   1.416   2.944  16.174 -0.0992 -0.6081 -0.3580
  910MPD2    C113376   1.508   2.897  16.075 -0.3885  0.0694 -0.6734
  910MPD2    C213377   1.486   2.943  15.942 -0.2618 -0.5500  0.1283
  910MPD2    C313378   1.381   3.028  15.910  0.1299 -0.0147  0.1458
  910MPD2    C413379   1.288   3.055  16.003 -0.4371  0.0075 -0.8927
  910MPD2    C513380   1.303   3.014  16.134  0.0384 -0.1811 -0.3782
  910MPD2     H13381   1.553   2.921  15.860  0.2082 -0.7198  0.5625
  910MPD2    H113382   1.202   3.111  15.969 -1.5157 -2.0165 -1.4990
  910MPD2    H213383   1.426   2.924  16.280  0.8181  0.2037 -0.2960
  910MPD2    H313384   1.230   3.047  16.207 -0.5165 -1.3261 -0.4168
  910MPD2     N13385   1.370   3.102  15.793 -0.1127  0.0314 -0.6259
  910MPD2    H513386   1.306   3.181  15.795  0.9426  0.8915 -0.7987
  910MPD2    N113387   1.625   2.821  16.112 -0.9642 -0.1350  0.1426
  910MPD2    H713388   1.675   2.777  16.035  1.3603 -0.9028  2.0849
  911MPD2     C13389   4.203   3.485  16.179  0.4682 -0.3977 -0.1475
  911MPD2    C113390   4.263   3.583  16.255 -0.2446  0.1304  0.2795
  911MPD2    C213391   4.203   3.709  16.244 -0.1419  0.1774  0.1401
  911MPD2    C313392   4.093   3.730  16.163 -0.6158  0.4489  0.1585
  911MPD2    C413393   4.033   3.626  16.096  0.5421 -0.2549  0.1385
  911MPD2    C513394   4.094   3.506  16.101 -0.0769  0.3813 -0.8995
  911MPD2     H13395   4.230   3.792  16.308  0.7389  0.1267 -0.1612
  911MPD2    H113396   3.937   3.637  16.047 -0.2625  1.9000  2.1964
  911MPD2    H213397   4.255   3.389  16.175  3.1413  1.0888 -1.1102
  911MPD2    H313398   4.053   3.420  16.050 -0.4437 -1.6271  2.7974
  911MPD2     N13399   4.031   3.855  16.162  0.2894 -0.2657 -0.4400
  911MPD2    H513400   3.943   3.848  16.111  0.5421 -0.2591 -0.8795
  911MPD2    N113401   4.368   3.542  16.340 -0.4362 -0.2674 -0.9305
  911MPD2    H713402   4.384   3.442  16.345 -0.5799 -0.3383 -1.8476
  912MPD2     C13403   3.838   3.767  15.715 -0.5783  0.9768 -0.2227
  912MPD2    C113404   3.766   3.772  15.832  0.0465  0.0261 -0.4147
  912MPD2    C213405   3.723   3.650  15.883  0.2583 -0.6468  0.7188
  912MPD2    C313406   3.761   3.527  15.828  0.2293  0.6454  0.4497
  912MPD2    C413407   3.847   3.530  15.722  0.2716  0.3495  1.7031
  912MPD2    C513408   3.870   3.647  15.653 -0.4468 -0.1275  0.1775
  912MPD2     H13409   3.668   3.642  15.976  0.6890  0.3513  1.0650
  912MPD2    H113410   3.878   3.433  15.686  1.4071  1.9524 -1.7149
  912MPD2    H213411   3.866   3.862  15.671 -0.5833  0.7549 -0.7062
  912MPD2    H313412   3.929   3.644  15.562 -1.5118  0.4512 -0.5289
  912MPD2     N13413   3.716   3.410  15.896 -0.4186  0.4291  0.4403
  912MPD2    H513414   3.669   3.417  15.985  0.0484  1.2697  0.6200
  912MPD2    N113415   3.745   3.904  15.882 -0.5790 -0.6569 -0.2163
  912MPD2    H713416   3.777   3.984  15.828 -3.4088  1.7315  1.6670
  913MPD2     C13417   4.311   3.758  10.400 -0.1069 -0.1591  0.0770
  913MPD2    C113418   4.390   3.789  10.508 -0.4452 -0.8605  0.3028
  913MPD2    C213419   4.421   3.921  10.541  0.3421  0.1533 -0.3311
  913MPD2    C313420   4.375   4.021  10.459  0.1661 -0.3290 -1.1643
  913MPD2    C413421   4.289   3.990  10.354 -0.1640  0.0534  0.4095
  913MPD2    C513422   4.263   3.858  10.326 -0.3286  0.4883 -0.0867
  913MPD2     H13423   4.485   3.948  10.624  0.2128 -0.6205  0.0159
  913MPD2    H113424   4.243   4.077  10.308 -0.1824 -0.5274 -0.6519
  913MPD2    H213425   4.274   3.658  10.379 -1.8504  0.6802 -0.8260
  913MPD2    H313426   4.197   3.831  10.246  0.7172  2.5890 -1.6731
  913MPD2     N13427   4.411   4.155  10.471  0.0555 -0.2589  0.5324
  913MPD2    H513428   4.360   4.226  10.418 -0.8838 -2.1321 -1.0701
  913MPD2    N113429   4.434   3.685  10.599 -0.2888  0.2195 -0.0737
  913MPD2    H713430   4.412   3.589  10.577 -2.1849  0.8114 -0.7548
  914MPD2     C13431   1.532   0.511  12.109  0.2083 -0.1154 -0.5183
  914MPD2    C113432   1.618   0.603  12.169  0.2648 -1.0157 -0.4626
  914MPD2    C213433   1.720   0.547  12.254 -0.4361  0.1166  0.1576
  914MPD2    C313434   1.742   0.410  12.266  0.4783 -0.4026 -1.1268
  914MPD2    C413435   1.656   0.326  12.205  0.2354  0.0847 -0.2313
  914MPD2    C513436   1.561   0.376  12.119 -0.3290 -0.5452  0.1101
  914MPD2     H13437   1.798   0.612  12.292  0.8392 -1.8905  0.9678
  914MPD2    H113438   1.672   0.218  12.210  0.0930 -0.0723 -3.1397
  914MPD2    H213439   1.454   0.541  12.039  0.9020  2.4623 -0.1774
  914MPD2    H313440   1.486   0.310  12.078 -1.3707 -0.2919  1.5983
  914MPD2     N13441   1.850   0.373  12.353 -0.7081  0.2480  0.2332
  914MPD2    H513442   1.902   0.446  12.401  0.7752 -0.4512 -0.3130
  914MPD2    N113443   1.588   0.740  12.154 -0.4953 -0.6250  0.1001
  914MPD2    H713444   1.501   0.758  12.105 -0.5615  0.1475  0.5039
  915MPD2     C13445   0.231   0.228  15.442 -0.6091  0.4698 -0.4697
  915MPD2    C113446   0.115   0.271  15.495 -0.6674  0.2216 -0.1622
  915MPD2    C213447   0.119   0.298  15.631 -0.4822  0.2470  0.8503
  915MPD2    C313448   0.228   0.274  15.710  0.0567  0.4980 -0.4651
  915MPD2    C413449   0.343   0.222  15.654  0.2613  0.1305  0.2394
  915MPD2    C513450   0.347   0.208  15.517 -0.4195 -0.2457  0.1497
  915MPD2     H13451   0.027   0.335  15.676 -0.4206  3.2696 -1.5175
  915MPD2    H113452   0.435   0.199  15.707 -0.0243 -2.3094 -0.3092
  915MPD2    H213453   0.248   0.214  15.336  0.0450 -0.6023 -0.2171
  915MPD2    H313454   0.440   0.177  15.471  0.0743  0.4536  0.6602
  915MPD2     N13455   0.219   0.302  15.845 -0.1899 -0.3147  0.0544
  915MPD2    H513456   0.135   0.346  15.881 -0.1133  0.0765 -0.2412
  915MPD2    N113457   4.734   0.289  15.424 -0.6796 -0.1462  0.2032
  915MPD2    H713458   4.661   0.337  15.475 -1.3769 -0.5598 -0.3892
  916MPD2     C13459   3.317   3.313  15.408  0.2732  0.3428  0.0664
  916MPD2    C113460   3.355   3.251  15.519  0.2640  0.1083  0.3053
  916MPD2    C213461   3.468   3.165  15.514  0.0912  0.1827 -0.2896
  916MPD2    C313462   3.527   3.142  15.394 -0.3292  0.2314  0.0063
  916MPD2    C413463   3.480   3.205  15.278 -0.1096  0.3121  0.0421
  916MPD2    C513464   3.369   3.291  15.282  0.0088  0.3661  0.1966
  916MPD2     H13465   3.490   3.099  15.597  0.6661  0.4024 -0.2688
  916MPD2    H113466   3.527   3.191  15.181  0.2819 -1.5161  0.4859
  916MPD2    H213467   3.229   3.377  15.408  0.2120  0.2555 -0.2540
  916MPD2    H313468   3.325   3.337  15.194 -0.5914 -2.1519 -0.8169
  916MPD2     N13469   3.629   3.038  15.388 -0.4215 -0.2539 -0.2341
  916MPD2    H513470   3.642   2.983  15.472  0.1279 -0.0450 -0.1798
  916MPD2    N113471   3.289   3.290  15.635 -0.8795 -0.1194 -0.1558
  916MPD2    H713472   3.207   3.348  15.624 -0.3746  0.0709 -2.9030
  917MPD2     C13473   3.309   0.383  11.000  0.2966 -0.1226  0.0459
  917MPD2    C113474   3.378   0.481  11.069 -0.6264 -0.3126  0.2578
  917MPD2    C213475   3.472   0.565  11.006  0.3118  0.1858 -0.4191
  917MPD2    C313476   3.504   0.539  10.873 -0.1143  0.1221 -0.1217
  917MPD2    C413477   3.432   0.448  10.804 -0.4111 -0.2413  0.0248
  917MPD2    C513478   3.347   0.364  10.870 -0.2908 -0.0040  0.0236
  917MPD2     H13479   3.523   0.633  11.074  1.3616 -1.6882  0.6699
  917MPD2    H113480   3.432   0.439  10.696  1.4299 -0.8900  0.0858
  917MPD2    H213481   3.221   0.328  11.031  0.9633 -0.9725  0.4180
  917MPD2    H313482   3.281   0.302  10.811  0.8738 -0.9989 -0.2224
  917MPD2     N13483   3.600   0.620  10.808  0.2594  0.3405 -0.2164
  917MPD2    H513484   3.596   0.619  10.707  1.1517 -0.5612 -0.2358
  917MPD2    N113485   3.339   0.499  11.210 -0.1497  0.1141  0.3786
  917MPD2    H713486   3.271   0.428  11.237 -1.7079  0.7366 -1.9495
  918MPD2     C13487   3.547   1.161  11.965 -0.4012 -0.4235  0.4397
  918MPD2    C113488   3.629   1.090  11.882 -0.1520 -0.0141 -0.5859
  918MPD2    C213489   3.583   0.998  11.791  0.6106  0.5725  0.2987
  918MPD2    C313490   3.447   0.966  11.790 -0.1293  0.1052 -0.3804
  918MPD2    C413491   3.363   1.034  11.871 -0.4669 -0.2102  0.3591
  918MPD2    C513492   3.414   1.128  11.962 -0.4164 -0.4655  0.2365
  918MPD2     H13493   3.648   0.925  11.744  1.9395  4.0189 -3.2760
  918MPD2    H113494   3.255   1.022  11.879 -0.3459 -0.8502  0.9947
  918MPD2    H213495   3.588   1.236  12.032 -0.4046  0.3772 -0.4517
  918MPD2    H313496   3.338   1.180  12.020 -1.1627 -2.5408  1.1340
  918MPD2     N13497   3.407   0.861  11.703 -0.1113 -0.8400  0.4552
  918MPD2    H513498   3.462   0.828  11.625 -1.0837  1.4429 -1.2115
  918MPD2    N113499   3.769   1.109  11.890  0.0280  0.0038 -0.3309
  918MPD2    H713500   3.818   1.090  11.803 -0.2381 -0.7751 -0.3097
  919MPD2     C13501   4.378   3.961  11.577 -0.9746  0.5412  0.1360
  919MPD2    C113502   4.341   3.843  11.523 -0.0707 -0.9750  0.6231
  919MPD2    C213503   4.331   3.834  11.385 -0.4184  0.3298  0.3210
  919MPD2    C313504   4.329   3.948  11.305 -0.2895 -0.5497 -0.4958
  919MPD2    C413505   4.362   4.064  11.359 -0.1105 -0.5578 -0.0671
  919MPD2    C513506   4.395   4.071  11.493  0.8564  0.0898 -0.2409
  919MPD2     H13507   4.302   3.738  11.343  0.0906 -0.8664  2.7192
  919MPD2    H113508   4.375   4.149  11.294 -0.4950 -0.3852  0.0839
  919MPD2    H213509   4.390   3.970  11.685  0.5982 -1.3844  0.1212
  919MPD2    H313510   4.427   4.162  11.542 -1.0714 -0.1755  1.5133
  919MPD2     N13511   4.285   3.947  11.173  0.2013 -0.2674  0.2179
  919MPD2    H513512   4.280   4.041  11.134  2.9552 -0.3339 -0.3180
  919MPD2    N113513   4.308   3.735  11.606  0.2365 -0.2373  1.0331
  919MPD2    H713514   4.304   3.644  11.560 -0.5574  0.6255 -0.6113
  920MPD2     C13515   4.046   4.613  10.534 -0.1569 -0.1355 -0.6282
  920MPD2    C113516   3.962   4.514  10.499 -0.9762 -0.5383  1.0117
  920MPD2    C213517   3.973   4.382  10.549 -0.6338  0.2177 -0.1353
  920MPD2    C313518   4.080   4.354  10.635  0.2403 -0.5702 -0.1537
  920MPD2    C413519   4.160   4.457  10.675  0.1136 -0.1507 -0.7748
  920MPD2    C513520   4.143   4.587  10.627 -0.4079 -0.4084 -0.1733
  920MPD2     H13521   3.891   4.312  10.534  0.6628 -1.3893  0.3407
  920MPD2    H113522   4.246   4.450  10.741  0.1848  0.7184 -0.7747
  920MPD2    H213523   4.022   4.715  10.507  1.1987  0.5182  0.6006
  920MPD2    H313524   4.204   4.668  10.667 -1.7019  0.9204 -0.9151
  920MPD2     N13525   4.103   4.220  10.682  0.1021 -0.3401 -0.0152
  920MPD2    H513526   4.048   4.148  10.637  0.2526 -1.0298  0.8994
  920MPD2    N113527   3.871   4.533  10.393  0.2289  0.4076 -0.0555
  920MPD2    H713528   3.801   4.462  10.374 -0.4602  0.7557  1.2040
  921MPD2     C13529   0.361   4.025  16.780 -0.8551  0.4418  0.9961
  921MPD2    C113530   0.390   3.894  16.776 -0.8745  0.7902 -0.0876
  921MPD2    C213531   0.291   3.794  16.780 -0.1856 -0.3160 -0.3844
  921MPD2    C313532   0.160   3.831  16.765  0.0699  0.1654  0.3880
  921MPD2    C413533   0.135   3.966  16.767  0.0952  0.3315  0.8886
  921MPD2    C513534   0.232   4.063  16.787 -0.9363 -0.0604  0.3967
  921MPD2     H13535   0.311   3.689  16.794 -1.2349 -0.4161  0.3441
  921MPD2    H113536   0.032   3.999  16.771 -0.7636 -2.3486  1.3097
  921MPD2    H213537   0.438   4.101  16.776  0.6653 -1.1934 -1.1533
  921MPD2    H313538   0.202   4.167  16.787 -1.0944 -0.1067  0.7056
  921MPD2     N13539   0.046   3.736  16.744  0.7481  0.6987 -0.3117
  921MPD2    H513540   4.691   3.783  16.747  0.2581 -0.2168 -0.6919
  921MPD2    N113541   0.528   3.865  16.756  0.4741 -0.1215  0.1641
  921MPD2    H713542   0.594   3.933  16.719  0.2289  0.8466  1.5296
  922MPD2     C13543   1.508   1.103  16.976 -0.0559  0.3114  0.3693
  922MPD2    C113544   1.498   1.219  17.050  0.4695 -0.2611  0.9199
  922MPD2    C213545   1.425   1.219  17.170  0.7778 -0.1763 -0.3237
  922MPD2    C313546   1.372   1.104  17.221  0.4312  0.1270 -0.7955
  922MPD2    C413547   1.362   0.996  17.131 -0.2551  0.2831 -0.5279
  922MPD2    C513548   1.433   0.995  17.011  0.1386 -0.3789 -0.5663
  922MPD2     H13549   1.418   1.311  17.226  1.2214 -0.1910 -0.2459
  922MPD2    H113550   1.301   0.911  17.159 -2.0830  0.9622 -2.4350
  922MPD2    H213551   1.576   1.098  16.891  0.9810 -1.7292  1.3035
  922MPD2    H313552   1.430   0.907  16.946 -0.6537 -0.3638 -0.5485
  922MPD2     N13553   1.309   1.103  17.345  0.2047 -0.1562  0.3959
  922MPD2    H513554   1.325   1.187  17.399  0.8575 -0.7747  1.1663
  922MPD2    N113555   1.560   1.341  17.007  0.6655  0.6023  0.1392
  922MPD2    H713556   1.552   1.417  17.073 -0.1875 -0.7139  1.5603
  923MPD2     C13557   1.921   3.236   8.617  0.1205 -0.2025  0.3277
  923MPD2    C113558   1.856   3.230   8.738 -0.2435  0.7028 -0.1754
  923MPD2    C213559   1.928   3.256   8.856  0.2103 -0.1519 -0.0125
  923MPD2    C313560   2.053   3.297   8.848 -0.0024 -0.3340 -0.2914
  923MPD2    C413561   2.122   3.299   8.726 -0.1437 -0.1214 -0.8454
  923MPD2    C513562   2.050   3.283   8.613  0.1573 -0.0459 -0.1420
  923MPD2     H13563   1.874   3.269   8.949  1.5836  1.9892  0.4904
  923MPD2    H113564   2.228   3.319   8.716  0.0501 -1.0142 -0.5946
  923MPD2    H213565   1.867   3.234   8.522 -0.2295 -0.1416  0.5241
  923MPD2    H313566   2.101   3.283   8.517  1.8748  0.4163  0.7616
  923MPD2     N13567   2.122   3.345   8.964 -0.3780 -0.3181  0.5087
  923MPD2    H513568   2.218   3.376   8.951 -0.4880 -0.6975 -1.1354
  923MPD2    N113569   1.713   3.203   8.731  0.3625  0.3540 -0.0458
  923MPD2    H713570   1.675   3.172   8.642  1.0100  1.4300 -0.7026
  924MPD2     C13571   2.974   1.579  15.804  0.3958  0.0616  0.2945
  924MPD2    C113572   2.850   1.623  15.834  0.0193 -0.1489  0.0435
  924MPD2    C213573   2.822   1.755  15.846 -0.1921  0.3293 -0.4405
  924MPD2    C313574   2.925   1.844  15.857 -0.6467 -0.9404  0.6275
  924MPD2    C413575   3.058   1.796  15.838  0.7453  0.6921 -0.6526
  924MPD2    C513576   3.082   1.664  15.810  0.5550  0.0281  0.3215
  924MPD2     H13577   2.721   1.794  15.854 -0.3190 -0.5368  2.3224
  924MPD2    H113578   3.138   1.868  15.843  1.4226 -0.1658  1.0145
  924MPD2    H213579   2.996   1.475  15.784  0.3269 -0.7942  4.5244
  924MPD2    H313580   3.179   1.621  15.788  0.2698 -0.7918  0.6540
  924MPD2     N13581   2.904   1.983  15.870  0.3535 -0.0435  0.2969
  924MPD2    H513582   2.981   2.049  15.875  1.1078 -0.9736  0.9235
  924MPD2    N113583   2.752   1.525  15.857  0.2047 -0.1910  0.4678
  924MPD2    H713584   2.777   1.436  15.815 -0.7017  0.6837 -1.9127
  925MPD2     C13585   1.256   4.231  14.981 -0.2542  0.2029 -0.7981
  925MPD2    C113586   1.122   4.250  14.968 -0.3402  0.4795  0.0798
  925MPD2    C213587   1.043   4.275  15.083  0.1315  0.1625 -0.3548
  925MPD2    C313588   1.099   4.259  15.210  0.2846 -0.5407  0.5811
  925MPD2    C413589   1.235   4.233  15.219  0.5087 -0.1087 -0.5136
  925MPD2    C513590   1.306   4.222  15.105 -0.2987  1.0310 -0.1147
  925MPD2     H13591   0.942   4.312  15.069  0.4549  1.0145 -0.4770
  925MPD2    H113592   1.284   4.209  15.313  0.2957  1.8697  0.1050
  925MPD2    H213593   1.328   4.231  14.900  0.2393  1.8140 -0.3519
  925MPD2    H313594   1.414   4.209  15.102 -0.5436 -0.9043 -0.4969
  925MPD2     N13595   1.028   4.279  15.335  0.0875 -0.3239  0.0316
  925MPD2    H513596   1.090   4.276  15.415  1.0700  0.2693 -0.7063
  925MPD2    N113597   1.063   4.250  14.835  0.2213 -0.2254 -0.2678
  925MPD2    H713598   0.962   4.256  14.828  0.1302  2.0238  2.5158
  926MPD2     C13599   4.350   2.540  13.585 -0.3401 -0.3009 -0.8371
  926MPD2    C113600   4.332   2.675  13.573 -0.3505 -0.7798  0.0897
  926MPD2    C213601   4.335   2.735  13.455 -0.0770  0.3573 -0.0880
  926MPD2    C313602   4.350   2.662  13.338 -0.1264 -0.3978 -0.1449
  926MPD2    C413603   4.380   2.525  13.351  0.1048  0.5051 -0.3965
  926MPD2    C513604   4.373   2.470  13.473 -0.3636  0.6586  0.8136
  926MPD2     H13605   4.337   2.843  13.458  3.6174  0.2716  0.5210
  926MPD2    H113606   4.384   2.463  13.262  1.4881  0.2320 -0.1380
  926MPD2    H213607   4.331   2.491  13.680  2.6853 -0.4772 -0.3143
  926MPD2    H313608   4.379   2.363  13.488  0.3764  0.5391 -0.3514
  926MPD2     N13609   4.334   2.710  13.211  0.4557 -0.2757  0.9365
  926MPD2    H513610   4.314   2.638  13.142  0.0426  0.8019 -0.0775
  926MPD2    N113611   4.309   2.763  13.683  0.1523  0.8388  0.6143
  926MPD2    H713612   4.283   2.859  13.664 -0.0426  0.9456  1.4108
  927MPD2     C13613   0.526   4.650   0.121  0.5113  0.5720  0.4866
  927MPD2    C113614   0.487   0.045   0.096  0.1719  0.2638  0.0837
  927MPD2    C213615   0.474   0.079  17.702 -0.3972 -0.2293 -0.3811
  927MPD2    C313616   0.500   4.729  17.594 -0.0114  0.5180  0.0847
  927MPD2    C413617   0.527   4.600  17.625 -0.3943  0.1507 -0.5452
  927MPD2    C513618   0.539   4.563   0.017  0.1240 -0.0503  0.2353
  927MPD2     H13619   0.456   0.182  17.674  0.3452 -0.5057 -1.8582
  927MPD2    H113620   0.532   4.526  17.546 -2.3426  0.9416 -1.4349
  927MPD2    H213621   0.544   4.616   0.222  1.2232  0.0353  0.1839
  927MPD2    H313622   0.566   4.460   0.038  2.5563  0.9178  1.8826
  927MPD2     N13623   0.509   0.051  17.461 -0.3023  0.4874  0.1835
  927MPD2    H513624   0.479   0.147  17.455  1.4498  0.8865 -2.0928
  927MPD2    N113625   0.457   0.132   0.204  0.6849  0.4131  0.5131
  927MPD2    H713626   0.473   0.093   0.297  0.1894 -3.3558 -0.9535
  928MPD2     C13627   3.671   3.545   0.687 -0.0454 -0.4327  0.5488
  928MPD2    C113628   3.632   3.652   0.764  0.6973 -0.2327  0.0690
  928MPD2    C213629   3.498   3.685   0.764 -0.4322  0.1526  0.3013
  928MPD2    C313630   3.402   3.624   0.683 -0.5545 -0.1231  0.4448
  928MPD2    C413631   3.445   3.513   0.616  0.2743  0.1365  0.6135
  928MPD2    C513632   3.579   3.477   0.613 -0.5053  0.2302 -0.3929
  928MPD2     H13633   3.466   3.763   0.833  1.5616 -0.1358  1.5513
  928MPD2    H113634   3.364   3.452   0.578  1.0872  0.2066 -1.2119
  928MPD2    H213635   3.767   3.497   0.706 -0.2824  0.4941  4.0328
  928MPD2    H313636   3.611   3.389   0.558 -2.5033  0.8215 -2.5294
  928MPD2     N13637   3.266   3.668   0.672  0.2683  0.2221 -0.2193
  928MPD2    H513638   3.206   3.615   0.610  0.3062 -0.3967  0.2664
  928MPD2    N113639   3.738   3.711   0.830 -0.1955  0.4507 -0.3245
  928MPD2    H713640   3.829   3.666   0.830 -0.1980  0.4442  0.0111
  929MPD2     C13641   2.322   2.977  10.695  0.1326 -0.8136 -0.0548
  929MPD2    C113642   2.213   2.966  10.613  0.1719  0.8885  0.1888
  929MPD2    C213643   2.212   3.022  10.488  0.3650 -0.1635  0.2353
  929MPD2    C313644   2.309   3.115  10.446  0.8106 -0.0752 -0.4489
  929MPD2    C413645   2.408   3.135  10.537 -0.2987 -0.3556 -0.7632
  929MPD2    C513646   2.410   3.073  10.660 -0.0750 -0.5223  0.4240
  929MPD2     H13647   2.113   3.039  10.448  0.0181  0.6883  1.4538
  929MPD2    H113648   2.483   3.213  10.524 -1.4705  0.9782  0.4798
  929MPD2    H213649   2.319   2.932  10.794 -1.2871 -0.0162  0.2706
  929MPD2    H313650   2.490   3.102  10.728  0.0143 -0.4201  0.2776
  929MPD2     N13651   2.330   3.177  10.320 -0.3144  0.9433  0.6330
  929MPD2    H513652   2.406   3.243  10.314  1.3033 -1.1123 -1.3029
  929MPD2    N113653   2.101   2.895  10.660  0.2081  0.1769  0.2558
  929MPD2    H713654   2.104   2.870  10.758 -2.1150 -1.3152 -0.0748
  930MPD2     C13655   3.885   1.175  13.567  0.3649 -0.0757 -0.2245
  930MPD2    C113656   3.986   1.092  13.525  0.3797  0.3368 -0.4650
  930MPD2    C213657   3.964   0.960  13.497 -0.2752 -0.5942 -0.0813
  930MPD2    C313658   3.840   0.900  13.513 -0.5504 -0.1135  0.2654
  930MPD2    C413659   3.736   0.985  13.552 -0.6361 -1.1143  1.4060
  930MPD2    C513660   3.759   1.122  13.572  0.1216 -0.2884  0.3598
  930MPD2     H13661   4.051   0.900  13.474  0.0194  0.2266 -1.0745
  930MPD2    H113662   3.635   0.950  13.572 -1.0932  0.1237  1.2921
  930MPD2    H213663   3.904   1.275  13.605  2.4520 -0.9909  1.1612
  930MPD2    H313664   3.681   1.186  13.612 -1.1005 -1.5250 -0.0953
  930MPD2     N13665   3.813   0.760  13.497  0.0049  0.0482  0.0280
  930MPD2    H513666   3.719   0.735  13.529 -1.0873  1.6755 -1.9499
  930MPD2    N113667   4.107   1.156  13.501  0.8457  0.0785 -0.2215
  930MPD2    H713668   4.108   1.252  13.533  0.5446 -0.2372  0.7286
  931MPD2     C13669   0.645   0.179   0.840  0.4594 -0.2463 -0.2546
  931MPD2    C113670   0.507   0.153   0.825  0.0526 -0.0368  0.1870
  931MPD2    C213671   0.445   0.064   0.907  0.2646  0.4015 -0.2577
  931MPD2    C313672   0.516   4.727   1.005 -0.0778 -0.0267  0.2765
  931MPD2    C413673   0.651   0.018   1.018 -0.0091  0.2382 -0.7959
  931MPD2    C513674   0.711   0.108   0.937 -0.4380  0.5200 -0.8118
  931MPD2     H13675   0.343   0.039   0.882  0.0837  0.3334  0.5421
  931MPD2    H113676   0.703   4.708   1.102 -0.5052  0.5228 -0.3368
  931MPD2    H213677   0.689   0.247   0.769 -1.2013  0.7738 -0.3129
  931MPD2    H313678   0.816   0.133   0.953  0.0044 -2.0883  0.4246
  931MPD2     N13679   0.455   4.628   1.089  0.1719  0.0272  0.3427
  931MPD2    H513680   0.516   4.566   1.141 -0.4288 -0.8636 -0.0199
  931MPD2    N113681   0.444   0.212   0.707 -0.6534  0.8370 -0.4502
  931MPD2    H713682   0.493   0.282   0.650  1.1849  1.0446  1.3833
  932MPD2     C13683   1.232   3.401  11.138  0.1055 -0.9077  0.4969
  932MPD2    C113684   1.210   3.458  11.257 -0.0273  0.0930  0.0577
  932MPD2    C213685   1.248   3.398  11.370 -0.6378  0.1328 -0.8863
  932MPD2    C313686   1.297   3.261  11.362  0.4921  0.1503  0.0020
  932MPD2    C413687   1.287   3.194  11.240  0.2231  0.1992 -0.3422
  932MPD2    C513688   1.271   3.271  11.129  0.6829 -1.2424 -0.0763
  932MPD2     H13689   1.246   3.456  11.462  0.6395  0.5422 -1.1133
  932MPD2    H113690   1.310   3.091  11.217 -0.2834 -0.0059  0.0674
  932MPD2    H213691   1.225   3.446  11.039  2.0105  0.1725  0.8604
  932MPD2    H313692   1.296   3.225  11.035  1.9977 -1.5245  0.4201
  932MPD2     N13693   1.353   3.190  11.477  0.2432  0.4329 -0.3037
  932MPD2    H513694   1.362   3.089  11.466 -0.4120  0.4264 -0.7915
  932MPD2    N113695   1.167   3.594  11.273 -0.0381  0.3754  0.0174
  932MPD2    H713696   1.150   3.624  11.368 -0.1241 -1.2771  0.5282
  933MPD2     C13697   4.018   4.108   1.610 -0.4338  0.4831  0.1544
  933MPD2    C113698   3.915   4.038   1.563 -0.4077  0.6431 -0.2267
  933MPD2    C213699   3.805   4.022   1.645 -0.7671 -0.6003  0.5943
  933MPD2    C313700   3.793   4.078   1.764  0.8581 -0.1728  0.0626
  933MPD2    C413701   3.909   4.136   1.820  0.4990 -0.1735  0.5601
  933MPD2    C513702   4.019   4.150   1.737  0.5425 -0.2948  0.1741
  933MPD2     H13703   3.720   3.964   1.612  0.3545 -2.2059  0.5286
  933MPD2    H113704   3.921   4.168   1.923 -3.5724 -0.4364  1.1317
  933MPD2    H213705   4.115   4.122   1.564 -0.4784 -1.8654 -0.6596
  933MPD2    H313706   4.109   4.191   1.781 -0.3212  0.4170  1.2846
  933MPD2     N13707   3.675   4.047   1.845  0.1349  0.1014  0.3870
  933MPD2    H513708   3.604   3.991   1.800  0.5042  0.4281 -0.6016
  933MPD2    N113709   3.924   3.992   1.430  0.7312  0.5194  0.6186
  933MPD2    H713710   4.017   3.996   1.388  0.3826  0.9771 -0.0955
  934MPD2     C13711   3.433   0.599   2.011 -0.9591  0.5921 -0.0902
  934MPD2    C113712   3.543   0.538   1.952  0.1358 -0.3042  0.7560
  934MPD2    C213713   3.564   0.559   1.817 -0.3463  0.7286 -0.2672
  934MPD2    C313714   3.481   0.643   1.740  0.7795  0.3043 -0.0958
  934MPD2    C413715   3.369   0.706   1.805 -0.2775 -0.2158  0.3335
  934MPD2    C513716   3.354   0.683   1.939  0.3080  0.7628  0.3093
  934MPD2     H13717   3.648   0.510   1.769 -0.6011  0.1989 -0.1700
  934MPD2    H113718   3.303   0.770   1.748  0.9577  0.5531 -0.2219
  934MPD2    H213719   3.416   0.589   2.117  1.4762  1.9923  0.4387
  934MPD2    H313720   3.272   0.739   1.983 -0.1653 -1.5914  2.4270
  934MPD2     N13721   3.484   0.669   1.597  0.0828  0.5791  0.1477
  934MPD2    H513722   3.397   0.704   1.556  0.1035  0.2276 -0.1955
  934MPD2    N113723   3.618   0.432   2.013  0.6227 -0.0770 -0.1824
  934MPD2    H713724   3.664   0.380   1.939  1.5621  0.5465 -0.0248
  935MPD2     C13725   4.046   0.190   0.908 -0.6256 -0.2307 -0.0366
  935MPD2    C113726   3.937   0.229   0.844 -0.2995  0.7408  0.3647
  935MPD2    C213727   3.840   0.319   0.901  0.0780  0.6080 -0.7985
  935MPD2    C313728   3.853   0.358   1.030  0.9745  0.6331 -0.3600
  935MPD2    C413729   3.959   0.301   1.095 -0.0099 -0.6338  0.1425
  935MPD2    C513730   4.053   0.230   1.037  0.3691  0.0399  1.0681
  935MPD2     H13731   3.752   0.347   0.843 -1.4520 -1.8144  0.3528
  935MPD2    H113732   3.971   0.322   1.201 -0.9529 -2.1669  0.5556
  935MPD2    H213733   4.115   0.111   0.882  0.9936  0.2153  2.8457
  935MPD2    H313734   4.136   0.197   1.099  1.3503 -0.9173 -0.7553
  935MPD2     N13735   3.771   0.454   1.097 -0.3567 -0.1895  0.0928
  935MPD2    H513736   3.799   0.475   1.192 -0.3999  1.9646 -0.3704
  935MPD2    N113737   3.892   0.166   0.719  0.2372 -0.5793 -0.6199
  935MPD2    H713738   3.799   0.191   0.685 -0.2426  0.3616  1.3588
  936MPD2     C13739   1.856   2.050  12.478  0.1657 -0.5893  0.0439
  936MPD2    C113740   1.879   2.052  12.612 -1.1924  0.9895 -0.7962
  936MPD2    C213741   2.003   2.042  12.665 -0.4232 -0.3459 -0.3204
  936MPD2    C313742   2.106   2.033  12.578 -0.0701 -0.1755 -1.0889
  936MPD2    C413743   2.086   2.007  12.444  0.5790 -0.4716  0.8870
  936MPD2    C513744   1.962   2.029  12.387  0.3326 -0.5117  0.6093
  936MPD2     H13745   2.033   2.048  12.769 -1.7641 -0.3481  0.0675
  936MPD2    H113746   2.164   1.975  12.376  0.3077  0.7966 -0.0222
  936MPD2    H213747   1.754   2.054  12.441  1.1849 -1.0128 -2.7912
  936MPD2    H313748   1.948   2.020  12.280 -1.0398  2.5829  0.5296
  936MPD2     N13749   2.231   2.014  12.636 -0.3352 -0.2559  0.9437
  936MPD2    H513750   2.236   2.014  12.738  1.2223  2.0960  0.8717
  936MPD2    N113751   1.777   2.096  12.710  0.3190  0.5951 -0.1675
  936MPD2    H713752   1.814   2.105  12.804 -3.7533  0.3319  1.4487
  937MPD2     C13753   4.250   3.062  11.487  0.6740 -0.4385 -0.6316
  937MPD2    C113754   4.346   3.160  11.502  0.0047  0.8102 -0.1536
  937MPD2    C213755   4.438   3.168  11.394  0.3319  0.5485 -0.2098
  937MPD2    C313756   4.459   3.065  11.300 -0.0683  0.6462 -0.0948
  937MPD2    C413757   4.374   2.957  11.305  0.1934 -0.2120  0.4089
  937MPD2    C513758   4.261   2.964  11.390 -0.1625 -0.3800  0.0245
  937MPD2     H13759   4.502   3.255  11.398 -0.8224  1.3766  0.2006
  937MPD2    H113760   4.387   2.875  11.235 -1.8462  0.5786 -0.9050
  937MPD2    H213761   4.166   3.054  11.554  1.1353  4.3070  0.4990
  937MPD2    H313762   4.184   2.888  11.385 -2.0076  1.3612  1.4967
  937MPD2     N13763   4.572   3.072  11.219  0.7047  0.2627  0.2712
  937MPD2    H513764   4.627   3.157  11.228  0.2064  0.6380 -0.2299
  937MPD2    N113765   4.317   3.262  11.594 -0.5608 -0.1670 -0.4963
  937MPD2    H713766   4.352   3.355  11.577 -0.2912 -0.0062  0.9443
  938MPD2     C13767   2.828   0.623   0.312 -0.5310  0.4585 -0.8770
  938MPD2    C113768   2.856   0.693   0.426  0.0735  1.0074 -0.8595
  938MPD2    C213769   2.845   0.622   0.544 -0.4354 -0.5988  0.6096
  938MPD2    C313770   2.819   0.486   0.549  0.5300  0.6183  0.7258
  938MPD2    C413771   2.798   0.421   0.431 -0.5858 -0.3332 -0.6740
  938MPD2    C513772   2.798   0.486   0.312  0.0634  0.6611  0.3617
  938MPD2     H13773   2.853   0.687   0.630 -2.4693 -0.0177  0.3544
  938MPD2    H113774   2.769   0.316   0.421 -1.2656 -0.1127 -1.0335
  938MPD2    H213775   2.830   0.677   0.218  1.2694  0.9764 -0.5364
  938MPD2    H313776   2.780   0.443   0.214 -0.3646 -0.9223  1.1256
  938MPD2     N13777   2.771   0.436   0.668  0.5956  0.2627 -0.8279
  938MPD2    H513778   2.759   0.336   0.666 -0.5041  0.4321 -2.4045
  938MPD2    N113779   2.899   0.830   0.431 -0.1712  0.0790  0.2650
  938MPD2    H713780   2.913   0.859   0.528  1.3118 -1.1321  0.3962
  939MPD2     C13781   4.077   1.729   0.893 -0.0459  1.0706  0.6403
  939MPD2    C113782   3.950   1.773   0.892 -0.0330  0.4096  0.7526
  939MPD2    C213783   3.852   1.704   0.830  0.0512 -0.1772  0.4549
  939MPD2    C313784   3.873   1.576   0.791  0.5087  0.2359  0.5656
  939MPD2    C413785   4.008   1.530   0.789  0.0696  0.0218 -1.0253
  939MPD2    C513786   4.107   1.605   0.850  0.3235 -1.1118 -0.5307
  939MPD2     H13787   3.753   1.743   0.811 -0.6059 -1.8649  0.4251
  939MPD2    H113788   4.048   1.439   0.746 -0.1136 -0.1204 -0.8985
  939MPD2    H213789   4.154   1.801   0.916 -0.1446  0.6273  2.3421
  939MPD2    H313790   4.211   1.575   0.859  0.6365  0.5511  1.3506
  939MPD2     N13791   3.773   1.496   0.721 -0.4877  0.8653 -0.7431
  939MPD2    H513792   3.813   1.419   0.669 -0.8938 -2.0746  3.2820
  939MPD2    N113793   3.931   1.899   0.952 -0.3443 -0.3254 -0.4782
  939MPD2    H713794   4.013   1.919   1.008 -0.0468  0.8705 -1.3479
  940MPD2     C13795   3.157   2.532  13.062  0.0618  0.0660  1.2255
  940MPD2    C113796   3.054   2.443  13.075 -0.0863 -0.1980 -0.7225
  940MPD2    C213797   3.041   2.365  12.966  0.2953  0.5220  0.3659
  940MPD2    C313798   3.114   2.383  12.847  0.2463 -0.4691 -0.6324
  940MPD2    C413799   3.215   2.474  12.853 -0.0651  0.1686 -0.0924
  940MPD2    C513800   3.240   2.552  12.955  0.0971  0.1444 -0.5285
  940MPD2     H13801   2.971   2.284  12.979  1.1358  0.1302  2.3691
  940MPD2    H113802   3.275   2.484  12.763 -1.9858 -0.5534 -1.4572
  940MPD2    H213803   3.185   2.599  13.143  0.9352  1.2911 -0.0819
  940MPD2    H313804   3.324   2.616  12.976 -0.0814 -0.2840  1.5021
  940MPD2     N13805   3.083   2.313  12.730 -0.0949 -0.1297 -0.0910
  940MPD2    H513806   3.144   2.322  12.648 -1.6156  1.1240 -1.1007
  940MPD2    N113807   2.973   2.423  13.190 -0.3280 -0.2051 -0.5967
  940MPD2    H713808   2.896   2.358  13.185 -1.2473  0.7609  1.0290
  941MPD2     C13809   1.150   1.953   9.998  0.5260 -0.2439 -0.4073
  941MPD2    C113810   1.249   1.855  10.000  0.4204  0.5903  0.0349
  941MPD2    C213811   1.207   1.722   9.992  0.6744  0.0350  0.4954
  941MPD2    C313812   1.070   1.687   9.992 -0.0603  0.7451  0.4198
  941MPD2    C413813   0.975   1.782   9.983 -0.3677 -0.0614 -0.6773
  941MPD2    C513814   1.019   1.917   9.990 -0.1603 -0.8289 -0.2449
  941MPD2     H13815   1.288   1.650  10.001  1.2638  0.9143  2.1264
  941MPD2    H113816   0.869   1.762   9.979  0.4479 -4.3336 -1.1831
  941MPD2    H213817   1.167   2.058  10.016 -0.6022 -0.1817  0.3107
  941MPD2    H313818   0.947   1.996  10.002  0.7773  0.1021 -0.7675
  941MPD2     N13819   1.022   1.555  10.008 -0.1941  0.4357  0.7375
  941MPD2    H513820   0.923   1.533  10.018 -0.0785 -0.7751 -0.8516
  941MPD2    N113821   1.388   1.872  10.017  0.6900  0.0354  0.0032
  941MPD2    H713822   1.448   1.793  10.037  0.8509  0.0534 -0.4254
  942MPD2     C13823   1.507   2.868   9.033  0.6109  0.3916 -0.0252
  942MPD2    C113824   1.495   2.831   8.903  0.2571  0.2388  0.2533
  942MPD2    C213825   1.605   2.832   8.819  0.1365  0.0204  0.4353
  942MPD2    C313826   1.726   2.881   8.865  0.2401  0.1473 -0.0989
  942MPD2    C413827   1.734   2.908   8.999  0.5448 -0.0597  0.3727
  942MPD2    C513828   1.628   2.890   9.081 -0.0809 -0.4221  0.6929
  942MPD2     H13829   1.606   2.797   8.716 -1.0731 -3.2991  1.5533
  942MPD2    H113830   1.827   2.933   9.049  0.4134  0.8451  0.1607
  942MPD2    H213831   1.426   2.872   9.105  0.9152 -1.8997  0.4350
  942MPD2    H313832   1.629   2.915   9.186  0.2013 -0.1296  0.6217
  942MPD2     N13833   1.844   2.894   8.786 -0.0429 -0.2574  0.0789
  942MPD2    H513834   1.922   2.934   8.838  0.5115  0.9879 -1.7054
  942MPD2    N113835   1.372   2.791   8.853  0.3987  0.0599 -0.1921
  942MPD2    H713836   1.376   2.759   8.757  0.2009 -1.5527  0.3266
  943MPD2     C13837   0.997   0.608  10.711 -0.4022  0.1209  0.3891
  943MPD2    C113838   0.865   0.589  10.735  1.4707  0.6561 -0.3274
  943MPD2    C213839   0.774   0.685  10.690 -0.2888  0.1552 -0.2842
  943MPD2    C313840   0.809   0.793  10.612  0.4380 -0.5877  0.4098
  943MPD2    C413841   0.941   0.791  10.572  0.7363  0.7397  0.1308
  943MPD2    C513842   1.032   0.694  10.609  0.5127 -0.3505 -0.5918
  943MPD2     H13843   0.674   0.672  10.729  0.8711 -1.7326  2.0690
  943MPD2    H113844   0.971   0.875  10.510  1.8972 -0.3875 -0.8101
  943MPD2    H213845   1.073   0.534  10.734 -0.2090  0.7695  1.8439
  943MPD2    H313846   1.134   0.695  10.572  1.6094  0.0400  2.4247
  943MPD2     N13847   0.715   0.885  10.564  0.2771  0.4395  0.3455
  943MPD2    H513848   0.744   0.946  10.488  0.6934  0.1231  0.2489
  943MPD2    N113849   0.827   0.470  10.804 -0.0972 -0.3725 -0.6415
  943MPD2    H713850   0.898   0.413  10.850  0.0282  0.3783  0.0890
  944MPD2     C13851   3.924   0.349  11.882 -0.3275 -1.2740 -0.3996
  944MPD2    C113852   4.036   0.426  11.877 -0.2304  0.3943 -0.6546
  944MPD2    C213853   4.100   0.452  11.754 -0.5187  0.3266 -0.4102
  944MPD2    C313854   4.047   0.412  11.637  0.5898 -0.1084 -0.0467
  944MPD2    C413855   3.926   0.346  11.641  0.3245  0.1825  0.3610
  944MPD2    C513856   3.872   0.308  11.768 -0.4483  0.4994  0.0299
  944MPD2     H13857   4.194   0.506  11.753  0.0029 -0.5617  0.6620
  944MPD2    H113858   3.866   0.307  11.560 -0.3290  0.0171  0.9258
  944MPD2    H213859   3.886   0.306  11.973 -2.6664 -0.9616 -1.2166
  944MPD2    H313860   3.784   0.244  11.772  0.4766 -0.6210  2.3540
  944MPD2     N13861   4.114   0.438  11.514  0.1286  0.2373 -0.1248
  944MPD2    H513862   4.202   0.486  11.530 -0.3475  1.2895 -0.6596
  944MPD2    N113863   4.101   0.463  11.992 -0.1654  0.0392  0.0753
  944MPD2    H713864   4.187   0.517  11.987 -0.3058  0.2507 -0.0553
    1TMC1    C113865   2.178   1.659  14.941  0.1026 -0.0648 -0.2665
    1TMC1    C213866   2.099   1.547  14.935  0.1839 -0.0491  0.0848
    1TMC1    C313867   1.966   1.560  14.970  0.6758 -0.1806 -0.5136
    1TMC1    C413868   2.123   1.783  14.966  0.2732  0.1679 -0.2500
    1TMC1    C513869   1.994   1.789  14.994  0.3959  0.6561 -0.0794
    1TMC1    C613870   1.910   1.681  14.996 -0.2268  0.7928 -0.2150
    1TMC1     C13871   2.315   1.645  14.917 -0.7245 -0.8475  0.3543
    1TMC1     O13872   2.363   1.536  14.926 -0.1384 -0.0217 -0.3282
    1TMC1     H13873   2.150   1.454  14.913 -0.1341 -0.2862  0.3466
    1TMC1    H113874   2.175   1.877  14.960 -0.8534  0.9443  2.0389
    1TMC1    H213875   1.810   1.692  15.036  0.5381  2.0088  1.3531
    1TMC1    C713876   1.952   1.918  15.046  0.1215 -0.0403  1.1041
    1TMC1    C813877   1.879   1.457  14.945  0.0597  0.0388  0.0423
    1TMC1    O113878   2.025   2.008  15.088 -0.0212  0.2104 -0.2425
    1TMC1    O213879   1.767   1.477  14.899 -0.0220  0.0351  0.2000
    1TMC1    O313880   1.833   1.940  14.986 -0.0512 -0.0885  0.2716
    1TMC1    H313881   1.817   1.877  14.912 -2.1196  0.3554  0.3256
    1TMC1    O513882   1.938   1.339  14.987 -0.0912  0.1001 -0.1793
    1TMC1    H513883   2.013   1.356  15.048 -1.6622 -0.6512  1.9438
    2MPD2     C13884   2.761   1.878  14.888 -0.5294  0.6482  0.3692
    2MPD2    C113885   2.667   1.974  14.886 -0.3607 -0.7967  0.7958
    2MPD2    C213886   2.536   1.940  14.871 -0.6935  0.1606  0.1389
    2MPD2    C313887   2.505   1.804  14.879 -0.1194  1.0391 -0.4587
    2MPD2    C413888   2.602   1.702  14.895 -0.0328  0.1286  0.2884
    2MPD2    C513889   2.735   1.743  14.901 -0.2620 -0.3855 -0.5697
    2MPD2     H13890   2.463   2.019  14.858  0.8396  1.3514 -1.2442
    2MPD2    H113891   2.583   1.595  14.897  1.3653 -0.1428 -0.7361
    2MPD2    H213892   2.863   1.911  14.904 -0.0441 -0.0007 -1.4125
    2MPD2    H313893   2.810   1.666  14.915 -0.7963 -0.2649  2.9089
    2MPD2     N13894   2.375   1.762  14.878  0.1094  0.1054  0.6068
    2MPD2    H513895   2.319   1.843  14.854 -2.1664 -1.6831 -0.1929
    2MPD2    N113896   2.712   2.113  14.875  0.6028  0.2574  0.3639
    2MPD2    H713897   2.811   2.126  14.858  0.2046 -0.1642 -2.2023
    3TMC2    C113898   2.698   2.347  14.901  0.2219 -0.1449  0.1919
    3TMC2    C213899   2.634   2.453  14.963 -0.1263  0.0207 -0.0083
    3TMC2    C313900   2.681   2.579  14.932  0.3148 -0.4778 -0.5247
    3TMC2    C413901   2.799   2.368  14.813  0.3032 -0.7309  0.2898
    3TMC2    C513902   2.840   2.490  14.789  0.1572 -0.4620 -0.1183
    3TMC2    C613903   2.785   2.606  14.845 -0.3394 -0.0906  0.2224
    3TMC2     C13904   2.631   2.219  14.899 -0.5865 -0.3436 -0.1540
    3TMC2     O13905   2.521   2.210  14.945 -0.3031 -0.2145 -0.2456
    3TMC2     H13906   2.544   2.434  15.020  0.7369 -2.0606  0.6278
    3TMC2    H113907   2.839   2.279  14.766  0.6304 -0.8484  0.7908
    3TMC2    H213908   2.829   2.702  14.817 -1.0409 -0.5714 -2.5197
    3TMC2    C713909   2.923   2.514  14.669  0.3910  0.8794  0.3856
    3TMC2    C813910   2.625   2.695  14.996 -0.1358 -0.3662 -0.1755
    3TMC2    O113911   3.030   2.449  14.659 -0.1248  0.1879 -0.6402
    3TMC2    O213912   2.635   2.804  14.952  0.2061 -0.5395 -0.5058
    3TMC2    O513913   2.531   2.651  15.079  0.3184 -0.0696 -0.4024
    3TMC2    H513914   2.560   2.570  15.126 -1.1082  0.7587  1.8783
    4TMC2    C113915   2.405   2.832  13.878 -0.0890  0.2476  0.7224
    4TMC2    C213916   2.462   2.799  13.758 -0.3979 -0.6244  0.1257
    4TMC2    C313917   2.594   2.770  13.765 -0.1242  0.1908 -0.4603
    4TMC2    C413918   2.467   2.836  13.998 -0.2844  0.1021 -0.7726
    4TMC2    C513919   2.595   2.782  13.994 -0.7968 -0.2885  0.4152
    4TMC2    C613920   2.662   2.759  13.881 -0.3204 -0.2545 -0.8268
    4TMC2     C13921   2.261   2.863  13.886 -0.0681  0.1671 -0.3550
    4TMC2     O13922   2.203   2.852  13.993 -0.0765  0.4101  0.2868
    4TMC2     H13923   2.409   2.798  13.664  0.2558 -1.2257 -0.2292
    4TMC2    H113924   2.413   2.855  14.090  0.0858  1.5604 -0.8653
    4TMC2    H213925   2.757   2.707  13.884 -0.7495 -1.0736 -1.2450
    4TMC2    C713926   2.665   2.745  14.119  0.7434 -0.2084 -0.0639
    4TMC2    C813927   2.665   2.737  13.644 -0.3974  0.2675  0.3347
    4TMC2    O113928   2.587   2.731  14.210  0.4166  0.4134 -0.6228
    4TMC2    O213929   2.605   2.719  13.540 -0.1138  0.1501  0.2300
    4TMC2    O513930   2.786   2.786  13.663 -0.3584  0.3435  0.9994
    4TMC2    H513931   2.821   2.796  13.754 -0.6624  1.0464  1.0355
    5MPD2     C13932   1.820   3.020  13.667  0.1380 -0.8133 -0.0568
    5MPD2    C113933   1.921   3.039  13.575  0.6413 -0.4591 -0.4455
    5MPD2    C213934   2.060   3.001  13.613 -0.3984  0.0107 -0.4898
    5MPD2    C313935   2.085   2.954  13.736  0.1433  0.2154  0.0370
    5MPD2    C413936   1.979   2.944  13.829 -0.4863  0.4899 -0.1692
    5MPD2    C513937   1.849   2.972  13.795  0.4706 -0.3566  0.1919
    5MPD2     H13938   2.140   2.998  13.541 -1.7000  0.0928 -1.9540
    5MPD2    H113939   1.992   2.913  13.932  1.1179  2.3323  0.1868
    5MPD2    H213940   1.720   3.056  13.642 -0.2152 -1.0843  0.9720
    5MPD2    H313941   1.767   2.956  13.864  0.5541  2.3693  0.9050
    5MPD2     N13942   2.217   2.914  13.761  0.1841  0.2809  0.3331
    5MPD2    H513943   2.273   2.912  13.676 -0.5580 -0.9955 -0.1274
    5MPD2    N113944   1.879   3.087  13.453  0.1760 -0.4012 -0.0808
    5MPD2    H713945   1.781   3.075  13.428  0.9469 -3.4036 -1.6635
    6MPD1     C13946   0.986   4.429  13.795  0.3773  0.6452  0.3103
    6MPD1    C113947   1.021   4.482  13.675  0.3097  0.1048 -0.1824
    6MPD1    C213948   1.045   4.398  13.570 -0.2699  0.7633 -0.6387
    6MPD1    C313949   1.048   4.259  13.578 -0.3186 -0.2050  0.3403
    6MPD1    C413950   1.028   4.212  13.704 -0.1437 -0.1648  0.2106
    6MPD1    C513951   1.006   4.296  13.811 -0.1374  0.0157  0.7319
    6MPD1     H13952   1.041   4.442  13.471 -1.5240 -2.5133 -2.0469
    6MPD1    H113953   1.041   4.110  13.738 -0.4937  0.4884  2.3324
    6MPD1    H213954   0.963   4.488  13.883 -0.5979 -1.3617  1.4072
    6MPD1    H313955   0.975   4.253  13.905 -0.5765  0.3496  0.7422
    6MPD1     N13956   1.059   4.168  13.465  0.4834  0.3610  0.1101
    6MPD1    H513957   1.067   4.071  13.494 -0.3079  0.2570 -0.0121
    6MPD1    N113958   1.006   4.617  13.657 -0.3254  0.2445 -0.2076
    6MPD1    H613959   0.984   4.683  13.731  1.0671  2.2817 -1.6209
    6MPD1    H713960   1.050   4.652  13.572 -0.9641 -0.9152 -1.0228
    7MPD2     C13961   1.133   3.397  13.310  0.1267  0.0064 -0.1464
    7MPD2    C113962   1.234   3.488  13.287  0.3565 -0.0670  0.8289
    7MPD2    C213963   1.359   3.434  13.257  0.0884 -0.0011 -0.8804
    7MPD2    C313964   1.380   3.300  13.222  0.1447  0.6078  0.0860
    7MPD2    C413965   1.272   3.219  13.222 -0.3862 -0.1569  0.2251
    7MPD2    C513966   1.157   3.268  13.275  0.4620  0.6186 -0.3887
    7MPD2     H13967   1.440   3.506  13.254 -0.7585  0.9305 -1.5535
    7MPD2    H113968   1.284   3.114  13.198 -0.0160  0.0114 -0.3402
    7MPD2    H213969   1.036   3.437  13.338  0.5683  0.4456  0.7521
    7MPD2    H313970   1.075   3.200  13.296 -1.2114  2.2663 -1.5013
    7MPD2     N13971   1.501   3.263  13.171 -0.0546  0.0430  0.0714
    7MPD2    H513972   1.560   3.344  13.155 -1.4905  1.1045  0.1160
    7MPD2    N113973   1.226   3.629  13.297  0.7696  0.0620 -0.1903
    7MPD2    H713974   1.312   3.676  13.272  0.6622  0.7778  0.7955
    8TMC3    C113975   1.693   3.149  13.122  0.6171  0.5756 -0.0295
    8TMC3    C213976   1.769   3.103  13.225  0.4798  0.5126 -0.6150
    8TMC3    C313977   1.886   3.174  13.236  0.9534 -0.3583  0.1745
    8TMC3    C413978   1.721   3.259  13.046 -0.3094 -0.1534 -0.0199
    8TMC3    C513979   1.834   3.338  13.072 -1.1081 -0.1489  0.2506
    8TMC3    C613980   1.912   3.292  13.177  0.2680  0.1646 -0.1504
    8TMC3     C13981   1.553   3.133  13.167  0.3325  0.4856 -0.8482
    8TMC3     O13982   1.522   3.028  13.223 -0.5394  0.2010 -0.3956
    8TMC3     H13983   1.739   3.017  13.284 -0.6740  1.1151 -0.3321
    8TMC3    H113984   1.639   3.303  12.990 -2.0773 -0.2935  2.4555
    8TMC3    H213985   1.975   3.355  13.239  0.1769  1.5946 -1.5108
    8TMC3    C713986   1.777   3.468  13.086  0.2033 -0.3548  0.6062
    8TMC3    C813987   1.962   3.133  13.357 -0.9723 -0.1432  0.0385
    8TMC3    O113988   1.677   3.472  13.155  0.0146  0.0385 -0.0601
    8TMC3    O213989   2.079   3.164  13.360  0.2055  0.4983  0.0617
    9TMC3    C113990   1.106   4.074  13.255 -0.5998 -0.0514 -0.5191
    9TMC3    C213991   1.218   4.099  13.177 -0.6491 -0.1574  0.2642
    9TMC3    C313992   1.299   3.993  13.146  0.7178 -0.1543  0.2668
    9TMC3    C413993   1.079   3.951  13.313  0.9854 -0.8806 -0.0852
    9TMC3    C513994   1.162   3.847  13.279  0.1034 -0.0522 -0.4823
    9TMC3    C613995   1.270   3.868  13.190 -0.1036  0.1403 -0.0542
    9TMC3     C13996   1.066   4.196  13.330  0.5261  0.2308  0.0233
    9TMC3     O13997   1.086   4.300  13.265  0.0187 -0.7233  0.1156
    9TMC3     H13998   1.244   4.195  13.133  1.4764 -1.1454 -0.6388
    9TMC3    H113999   0.989   3.932  13.370  0.3347 -0.3849 -0.9417
    9TMC3    H214000   1.317   3.786  13.137 -0.6301  0.3387 -0.8324
    9TMC3    C714001   1.115   3.710  13.304  0.7817 -0.9254  0.1807
    9TMC3    C814002   1.424   4.015  13.074 -0.1987  0.4169 -0.3366
    9TMC3    O114003   0.998   3.674  13.329 -0.2521  0.5090  0.1486
    9TMC3    O214004   1.433   4.111  12.995  0.3400  0.2393  0.1257
   10MPD2     C14005   1.839   3.777  12.887 -0.5200 -0.0219 -0.3149
   10MPD2    C114006   1.792   3.699  12.993 -0.5657  0.0842  0.1313
   10MPD2    C214007   1.687   3.752  13.061 -0.5284 -0.9251 -0.0071
   10MPD2    C314008   1.627   3.872  13.030 -0.4789  0.8988 -0.8549
   10MPD2    C414009   1.668   3.946  12.919  0.0314  0.0373 -0.1042
   10MPD2    C514010   1.777   3.896  12.854 -0.4438  0.2679  0.5382
   10MPD2     H14011   1.636   3.702  13.143  2.8499 -0.7058  2.2232
   10MPD2    H114012   1.621   4.039  12.887  0.2216 -0.2152 -1.1169
   10MPD2    H214013   1.928   3.753  12.829 -0.4361 -2.6958  0.9125
   10MPD2    H314014   1.820   3.955  12.774 -1.8390 -1.7556 -1.6988
   10MPD2     N14015   1.515   3.912  13.099 -0.2672  0.4633  0.4583
   10MPD2    H514016   1.510   3.859  13.185  2.3304  1.5270  1.2660
   10MPD2    N114017   1.825   3.563  12.998 -0.0452  0.0169  0.0055
   10MPD2    H714018   1.902   3.528  12.942  1.0900  1.8547  0.4114
   11MPD2     C14019   3.057   2.606  14.424  0.1870 -0.8550 -0.3579
   11MPD2    C114020   2.916   2.612  14.442 -0.1735 -0.2768 -0.3420
   11MPD2    C214021   2.830   2.670  14.343 -0.1311  0.0139 -0.3434
   11MPD2    C314022   2.882   2.701  14.227  0.1399  0.7385  0.3952
   11MPD2    C414023   3.019   2.687  14.199  0.3020  0.1676  0.4932
   11MPD2    C514024   3.099   2.644  14.296  0.5669  0.0975  0.0915
   11MPD2     H14025   2.725   2.654  14.364 -0.3051 -1.1543 -2.1751
   11MPD2    H114026   3.055   2.706  14.099  0.0304 -1.2353  0.1329
   11MPD2    H214027   3.134   2.570  14.492 -0.4590 -0.1866  0.7395
   11MPD2    H314028   3.203   2.624  14.271  0.7317  0.9093  0.1302
   11MPD2     N14029   2.800   2.735  14.115 -0.0219 -0.0204 -0.2649
   11MPD2    H514030   2.836   2.762  14.025  1.0939  2.7061  0.9885
   11MPD2    N114031   2.861   2.574  14.564  0.1215  0.3032  0.2916
   11MPD2    H714032   2.761   2.592  14.571  0.4070  1.7771  0.5589
    1MPD1     C14033   0.874   4.514  17.356  0.1729 -0.6016  0.1272
    1MPD1    C114034   0.942   4.520  17.473 -0.4030  0.9797  0.2675
    1MPD1    C214035   1.031   4.417  17.488  0.5432  0.0062 -0.3317
    1MPD1    C314036   1.073   4.339  17.375  0.0368  0.4399  0.9372
    1MPD1    C414037   1.010   4.356  17.254  0.0641 -0.3009  0.0998
    1MPD1    C514038   0.904   4.435  17.250 -0.4975 -0.5105 -0.7425
    1MPD1     H14039   1.071   4.396  17.586  0.1423 -3.2621 -0.8606
    1MPD1    H114040   1.026   4.288  17.171 -0.4970 -0.6076  0.2442
    1MPD1    H214041   0.784   4.573  17.337  0.9782 -0.3064 -2.7689
    1MPD1    H314042   0.845   4.427  17.160 -0.7716 -0.6219 -0.5540
    1MPD1     N14043   1.166   4.231  17.380 -0.2210 -0.5397 -0.0762
    1MPD1    H514044   1.188   4.196  17.287 -1.6066 -0.7204 -0.3421
    1MPD1    N114045   0.880   4.584  17.586  0.3446  0.1657 -0.0629
    1MPD1    H614046   0.947   4.600  17.661 -1.2021  0.7062  1.1888
    1MPD1    H714047   0.827   4.666  17.560 -1.5402 -1.6278 -1.8964
    2MPD1     C14048   2.120   3.825   0.050  0.1220 -0.4294  0.0953
    2MPD1    C114049   2.131   3.850  17.653  0.8548 -0.5362  0.9372
    2MPD1    C214050   2.016   3.893  17.584  0.1673  0.4714  0.6044
    2MPD1    C314051   1.904   3.927  17.650  0.6697 -0.0670 -0.7862
    2MPD1    C414052   1.895   3.919   0.052 -0.4670 -0.3035 -0.5366
    2MPD1    C514053   2.003   3.864   0.121 -0.2126 -0.0019 -0.2538
    2MPD1     H14054   2.015   3.897  17.476 -1.5986 -3.0024  0.4797
    2MPD1    H114055   1.804   3.926   0.110  1.0819  2.2059  1.5926
    2MPD1    H214056   2.197   3.761   0.092 -0.6838 -0.2783  1.8043
    2MPD1    H314057   2.002   3.861   0.229  0.7173  0.1682 -0.2436
    2MPD1     N14058   1.789   3.954  17.577  0.4430  0.1178 -0.4303
    2MPD1    H514059   1.820   3.937  17.482  2.3197  2.2667 -0.2030
    2MPD1    N114060   2.239   3.803  17.579  0.1648  0.4533  0.8602
    2MPD1    H614061   2.249   3.853  17.491 -0.6740 -0.0061  0.4928
    2MPD1    H714062   2.326   3.815  17.630 -0.7018 -2.2888  2.9808
    3TMC3    C114063   1.562   4.003  17.527 -0.3790  0.4974  0.0612
    3TMC3    C214064   1.589   3.939  17.411 -0.0737 -0.1757  0.7748
    3TMC3    C314065   1.491   3.967  17.315 -0.1205  0.1146 -0.0556
    3TMC3    C414066   1.457   4.085  17.553 -0.1761 -0.0761 -0.0845
    3TMC3    C514067   1.362   4.107  17.457 -0.0897  0.2643  0.3744
    3TMC3    C614068   1.381   4.046  17.335  0.0349  0.2146  0.2058
    3TMC3     C14069   1.664   3.996  17.630  0.6375 -0.1264 -0.0458
    3TMC3     O14070   1.619   4.020   0.000 -0.1673 -0.5511  0.7978
    3TMC3     H14071   1.660   3.858  17.400  2.5128  2.0722  0.9637
    3TMC3    H114072   1.433   4.129  17.649 -0.3326  0.0769 -0.1932
    3TMC3    H214073   1.300   4.048  17.263  0.1400 -1.1780  0.0446
    3TMC3    C714074   1.250   4.196  17.482  0.1186 -0.6235 -0.4083
    3TMC3    C814075   1.472   3.856  17.214  0.1802  0.0633  0.3137
    3TMC3    O114076   1.229   4.220  17.598  0.7520  0.2872  0.2575
    3TMC3    O214077   1.359   3.814  17.199 -0.3874  0.1828 -0.2086
    4MPD1     C14078   1.646   3.498  16.886  0.3462  0.7341 -0.7312
    4MPD1    C114079   1.755   3.577  16.925 -0.2039 -0.1008  0.0355
    4MPD1    C214080   1.731   3.686  17.010 -0.2193  0.6588  0.0643
    4MPD1    C314081   1.606   3.703  17.072 -0.4436 -0.2500  0.2027
    4MPD1    C414082   1.498   3.623  17.034 -0.4590  0.1768 -0.6053
    4MPD1    C514083   1.520   3.527  16.937  0.4736 -0.4655  0.5373
    4MPD1     H14084   1.805   3.762  17.032  0.0843  0.7445 -1.2464
    4MPD1    H114085   1.400   3.639  17.078 -0.2229  1.9484 -0.7415
    4MPD1    H214086   1.660   3.415  16.818 -1.0179  0.2537 -0.4249
    4MPD1    H314087   1.435   3.466  16.908 -1.5876  2.1968  0.9522
    4MPD1     N14088   1.592   3.805  17.166  0.2673 -0.0193 -0.4736
    4MPD1    H514089   1.671   3.859  17.199  0.6495 -0.6211 -0.4083
    4MPD1    N114090   1.865   3.569  16.851 -0.6312 -0.3131  0.2673
    4MPD1    H614091   1.953   3.593  16.896  0.1614  0.6499 -1.7875
    4MPD1    H714092   1.883   3.475  16.817  0.2006 -0.6298  1.5940
    1TCq1    O114093   1.394   2.820  12.674  0.0618 -0.1509  0.1531
    1TCq1    C114094   1.336   2.709  12.622  0.1203 -0.6003  0.0224
    1TCq1    O214095   1.227   2.708  12.567 -0.0483 -0.3558 -0.4043
    1TCq1    C214096   1.446   2.627  12.570  0.6879  0.0868  0.5440
    1TCq1    C314097   1.452   2.616  12.436 -0.1657 -0.2114 -0.3554
    1TCq1    C414098   1.551   2.532  12.390 -0.4596  0.2672  0.6422
    1TCq1    C514099   1.654   2.510  12.464 -0.1477 -0.1756 -0.2816
    1TCq1    C614100   1.657   2.545  12.598 -0.0755  0.2633  0.2287
    1TCq1    C714101   1.545   2.594  12.658  0.9738 -0.1047  0.0997
    1TCq1    C814102   1.774   2.509  12.681 -0.0576  0.5991  0.3311
    1TCq1    O414103   1.764   2.497  12.803  0.5080 -0.1212 -0.1533
    1TCq1    C914104   1.570   2.534  12.249 -0.0567 -0.2355 -0.1977
    1TCq1    O514105   1.644   2.442  12.206 -0.4450 -0.7272  0.5235
    1TCq1    O614106   1.492   2.603  12.182  0.0033 -0.0486  0.0990
    1TCq1    H114107   1.488   2.809  12.697 -0.2828 -0.8761  1.2551
    1TCq1    H214108   1.363   2.639  12.378 -0.3450  1.9117  0.7474
    1TCq1    H314109   1.741   2.470  12.412 -0.2065  0.1585 -0.6396
    1TCq1    H414110   1.543   2.609  12.765  2.4867 -0.7249  0.2260
    2MPD1     C14111   2.290   2.491  12.750 -0.6685  0.1981  0.3838
    2MPD1    C114112   2.262   2.496  12.615 -0.5995  0.3331 -0.0006
    2MPD1    C214113   2.129   2.493  12.575  0.3825 -0.9627 -0.1787
    2MPD1    C314114   2.022   2.469  12.662  0.8299  0.6247 -0.1501
    2MPD1    C414115   2.058   2.458  12.794 -0.1589 -0.1617 -0.6990
    2MPD1    C514116   2.193   2.464  12.839  0.2718  0.2472  0.4402
    2MPD1     H14117   2.116   2.515  12.470 -1.0000 -2.7583 -0.3782
    2MPD1    H114118   1.988   2.435  12.874  1.0703 -0.5337  0.2702
    2MPD1    H214119   2.390   2.514  12.785 -0.9476  2.3692 -0.2230
    2MPD1    H314120   2.224   2.446  12.941  0.2545  0.1784  0.4331
    2MPD1     N14121   1.889   2.499  12.610 -0.5447 -0.0303  0.4728
    2MPD1    H514122   1.880   2.528  12.513  2.0004 -0.7691  0.0040
    2MPD1    N114123   2.365   2.523  12.523 -0.2569  0.2518 -0.1553
    2MPD1    H614124   2.452   2.475  12.545 -1.4230 -1.6329  0.3298
    2MPD1    H714125   2.350   2.478  12.433  0.1051  0.9092 -0.5438
    1TMC1    C114126   4.523   0.305   0.025  0.3161  0.4392  0.8727
    1TMC1    C214127   4.571   0.251  17.645 -0.1316  0.2148  0.3814
    1TMC1    C314128   4.557   0.323  17.529 -0.5590  0.2489 -0.5040
    1TMC1    C414129   4.460   0.428   0.025  0.1898 -0.3772  0.1916
    1TMC1    C514130   4.426   0.483  17.644 -0.5029  0.8473 -0.2400
    1TMC1    C614131   4.487   0.440  17.532 -0.4152  0.1316  0.2985
    1TMC1     C14132   4.557   0.242   0.150  0.4144 -0.2039 -0.1258
    1TMC1     O14133   4.480   0.285   0.236  0.3852  0.4887  0.3984
    1TMC1     H14134   4.598   0.146  17.646  1.8517  0.7122 -1.0828
    1TMC1    H114135   4.410   0.463   0.115 -0.8290  0.7402 -0.8201
    1TMC1    H214136   4.458   0.498  17.445  1.0564 -2.2436 -1.7553
    1TMC1    C714137   4.326   0.584  17.631  0.0227  0.2068  0.0537
    1TMC1    C814138   4.585   0.256  17.407 -0.3775 -0.0196  0.9528
    1TMC1    O114139   4.250   0.601  17.538  0.1558 -0.2902  0.0185
    1TMC1    O214140   4.544   0.294  17.303 -0.0647 -0.0807 -0.3055
    1TMC1    O314141   4.365   0.687  17.715 -0.3688  0.0122  0.1477
    1TMC1    H314142   4.450   0.669   0.021 -0.3179 -0.2551 -0.0559
    1TMC1    O514143   4.690   0.178  17.426 -0.5663  0.5629  0.2088
    1TMC1    H514144   4.720   0.170  17.519 -1.1772  0.5028  0.4037
    2MPD1     C14145   0.105   4.691   0.477  0.2385 -0.5347 -0.9149
    2MPD1    C114146   0.148   4.679   0.349 -0.3117  0.7829  0.2181
    2MPD1    C214147   0.091   0.014   0.249 -0.4479 -0.4287  0.1457
    2MPD1    C314148   4.713   0.095   0.266 -0.0433 -0.1355  0.0444
    2MPD1    C414149   4.662   0.102   0.394  1.3619 -0.2305 -0.4260
    2MPD1    C514150   4.731   0.037   0.495 -0.4216 -0.7121  0.5445
    2MPD1     H14151   0.132   0.004   0.150  0.0781 -1.5226  0.4701
    2MPD1    H114152   4.572   0.159   0.419  2.8375  0.7452  2.6850
    2MPD1    H214153   0.146   4.643   0.565  0.0760 -3.1914 -2.2970
    2MPD1    H314154   4.687   0.054   0.592  1.1827 -0.2519  1.1950
    2MPD1     N14155   4.663   0.157   0.152 -0.4739 -0.2142  0.1388
    2MPD1    H514156   4.715   0.139   0.066 -0.9819 -0.1614 -0.1756
    2MPD1    N114157   0.235   4.578   0.313  0.5955  0.1991 -0.7823
    2MPD1    H614158   0.270   4.580   0.218  2.1968  0.7941 -0.1806
    2MPD1    H714159   0.313   4.577   0.378 -0.9209  1.7045  1.0375
    1MPD1     C14160   3.068   3.898  11.301 -0.0095  0.6406 -0.3017
    1MPD1    C114161   3.165   3.946  11.386 -0.5140  0.0048  1.2961
    1MPD1    C214162   3.212   3.868  11.484  0.2963  0.1982 -0.1680
    1MPD1    C314163   3.148   3.750  11.518  0.2991  0.1905 -0.3718
    1MPD1    C414164   3.044   3.705  11.440  0.3596 -0.7852 -0.2383
    1MPD1    C514165   3.008   3.782  11.328 -0.4513  0.8189 -0.1621
    1MPD1     H14166   3.300   3.893  11.542  1.0073 -0.6645 -0.8712
    1MPD1    H114167   2.992   3.610  11.448 -2.8951  1.0202 -0.1265
    1MPD1    H214168   3.026   3.955  11.219 -2.7063  1.3886  1.5810
    1MPD1    H314169   2.928   3.749  11.263  0.3164 -1.9616  0.2861
    1MPD1     N14170   3.205   3.677  11.624  0.6939 -0.8287 -0.1535
    1MPD1    H514171   3.292   3.710  11.666  1.0946 -0.8420 -0.9682
    1MPD1    N114172   3.210   4.078  11.382 -0.6049 -0.2569  0.3375
    1MPD1    H614173   3.271   4.098  11.461  0.4992  0.7579 -0.7807
    1MPD1    H714174   3.138   4.149  11.377 -2.5310 -2.2178 -0.0014
    2MPD1     C14175   2.843   3.310  10.904  0.1473 -0.0109 -0.2775
    2MPD1    C114176   2.834   3.304  10.766 -0.0249 -0.0132  0.0594
    2MPD1    C214177   2.936   3.358  10.690 -0.4057  0.1767  0.0149
    2MPD1    C314178   3.053   3.406  10.752 -0.7346 -0.0292 -0.4361
    2MPD1    C414179   3.059   3.425  10.889 -0.3392  0.1681  0.1090
    2MPD1    C514180   2.947   3.378  10.957  0.5379 -0.7393 -0.1848
    2MPD1     H14181   2.935   3.366  10.582  1.9052  2.2277  0.1625
    2MPD1    H114182   3.143   3.479  10.932 -0.0588  0.1952 -0.4718
    2MPD1    H214183   2.763   3.271  10.965 -0.0251  3.0484  1.4902
    2MPD1    H314184   2.950   3.389  11.065 -2.1906  1.3806 -0.3333
    2MPD1     N14185   3.163   3.463  10.683  0.7028 -0.1432  0.1895
    2MPD1    H514186   3.251   3.480  10.731  1.4416 -0.4000 -1.0641
    2MPD1    N114187   2.733   3.232  10.706  0.6069 -0.2496 -0.1708
    2MPD1    H614188   2.656   3.267  10.761  0.2693 -0.8103 -0.2842
    2MPD1    H714189   2.719   3.255  10.608  0.5086  0.1581 -0.0605
    3MPD1     C14190   3.199   4.063   9.852 -0.1956  0.0389  0.1769
    3MPD1    C114191   3.124   3.946   9.872  0.1059 -0.7377  0.0811
    3MPD1    C214192   3.142   3.873   9.990 -0.5789 -0.2230  0.8742
    3MPD1    C314193   3.243   3.908  10.081  0.0965  0.2283  0.5822
    3MPD1    C414194   3.310   4.028  10.065 -0.6032  0.1855 -0.7817
    3MPD1    C514195   3.292   4.100   9.949 -0.0899  0.4728 -0.0758
    3MPD1     H14196   3.091   3.780  10.014  1.8805 -1.6092  0.8547
    3MPD1    H114197   3.383   4.073  10.131  0.6960  0.6952 -2.5479
    3MPD1    H214198   3.196   4.121   9.761 -0.4255 -2.1556 -1.2267
    3MPD1    H314199   3.340   4.195   9.931 -0.0947  0.3714 -0.6303
    3MPD1     N14200   3.272   3.821  10.199 -0.3932  1.0075  0.2498
    3MPD1    H514201   3.214   3.740  10.219 -0.7822  0.9179 -1.2423
    3MPD1    N114202   3.047   3.882   9.777  0.3308 -0.2018 -0.3431
    3MPD1    H614203   2.979   3.817   9.815 -0.8026 -0.6728 -3.1456
    3MPD1    H714204   3.017   3.952   9.709 -2.3636  0.7490  1.7932
    4MPD2     C14205   3.800   3.753  11.807 -0.0299  0.6395  0.0840
    4MPD2    C114206   3.740   3.631  11.783  0.3342  0.2324  0.0353
    4MPD2    C214207   3.802   3.538  11.696  0.1791  0.3273  0.2532
    4MPD2    C314208   3.910   3.575  11.624 -0.7895  0.5195  0.0874
    4MPD2    C414209   3.965   3.702  11.641  0.2752  1.0247  0.2311
    4MPD2    C514210   3.910   3.788  11.729 -0.3198  0.2456 -0.3006
    4MPD2     H14211   3.742   3.451  11.671 -0.4873  0.0049  2.9654
    4MPD2    H114212   4.053   3.733  11.585 -0.3810  1.9384 -0.2972
    4MPD2    H214213   3.763   3.829  11.875 -0.9465 -0.3251  0.6798
    4MPD2    H314214   3.966   3.880  11.742 -1.0864  0.7645 -0.6934
    4MPD2     N14215   3.957   3.504  11.511  0.2745  0.1534  0.4625
    4MPD2    H514216   4.005   3.556  11.438  0.7828  0.0473  0.7253
    4MPD2    N114217   3.625   3.582  11.849 -0.3775 -0.1560 -0.3479
    4MPD2    H714218   3.594   3.490  11.820  0.2776 -0.6375  0.4723
    5TMC3    C114219   3.407   3.581  11.942  0.2505  0.3411  0.5990
    5TMC3    C214220   3.302   3.624  11.869  0.5537 -0.7139  0.1543
    5TMC3    C314221   3.223   3.529  11.812  0.2114 -0.4505  0.2096
    5TMC3    C414222   3.435   3.446  11.954  0.0545 -0.1397 -0.1270
    5TMC3    C514223   3.364   3.350  11.892  0.3603  0.7759 -0.7534
    5TMC3    C614224   3.251   3.393  11.829 -0.2687 -0.2617 -0.2717
    5TMC3     C14225   3.527   3.661  11.906 -0.0239  0.0427 -0.1888
    5TMC3     O14226   3.511   3.782  11.911 -0.5880  0.1620  0.2117
    5TMC3     H14227   3.290   3.732  11.867 -1.0799 -0.8799  0.8331
    5TMC3    H114228   3.523   3.422  12.013  1.0665  0.5298 -1.3649
    5TMC3    H214229   3.195   3.318  11.776  0.9586 -2.9443  2.2548
    5TMC3    C714230   3.453   3.279  11.797 -0.0190 -0.5576  0.1097
    5TMC3    C814231   3.155   3.561  11.691 -0.0854 -0.2515  0.0011
    5TMC3    O114232   3.569   3.308  11.803 -0.1675 -0.3477 -0.2622
    5TMC3    O214233   3.047   3.508  11.674  0.7533  0.3052 -0.5976
    6TMC3    C114234   3.279   3.572  10.515 -0.2686 -0.1397  0.1178
    6TMC3    C214235   3.276   3.671  10.423 -0.3426 -0.7824  0.0849
    6TMC3    C314236   3.386   3.740  10.391  0.0310 -0.5508 -0.2154
    6TMC3    C414237   3.398   3.541  10.571 -0.0008 -0.3280 -0.1459
    6TMC3    C514238   3.510   3.605  10.524 -0.0352  0.7074 -0.6722
    6TMC3    C614239   3.512   3.712  10.443 -0.0767 -0.3985 -0.0814
    6TMC3     C14240   3.161   3.509  10.557  0.2603  0.0176  0.2516
    6TMC3     O14241   3.062   3.520  10.483 -0.1272  0.6299 -0.7165
    6TMC3     H14242   3.176   3.707  10.403 -0.2431 -1.0282 -0.8572
    6TMC3    H114243   3.403   3.468  10.651  1.7189  1.1245  1.0527
    6TMC3    H214244   3.599   3.772  10.417 -1.5811  1.6113 -0.5553
    6TMC3    C714245   3.629   3.584  10.601  0.4668  0.1036  0.5278
    6TMC3    C814246   3.388   3.830  10.272 -0.0781 -0.1115 -0.1833
    6TMC3    O114247   3.663   3.469  10.622  0.0830  0.2466 -0.4253
    6TMC3    O214248   3.484   3.908  10.264  0.0832  0.1955  0.2752
    7MPD2     C14249   3.519   3.023  11.353 -0.3432 -0.4925 -0.1569
    7MPD2    C114250   3.609   3.099  11.419  0.6600 -0.2573  0.7677
    7MPD2    C214251   3.572   3.158  11.541  0.6247  0.2498 -0.2144
    7MPD2    C314252   3.441   3.148  11.583  0.5785  0.0731 -0.4013
    7MPD2    C414253   3.350   3.072  11.512 -0.3424  0.3424  0.2554
    7MPD2    C514254   3.392   3.021  11.394 -0.0594 -0.5037 -0.9772
    7MPD2     H14255   3.648   3.217  11.592 -1.4131  2.9076 -0.2075
    7MPD2    H114256   3.244   3.077  11.534 -0.6645  2.5737 -1.8263
    7MPD2    H214257   3.552   2.972  11.263 -0.2775  0.7360 -0.8287
    7MPD2    H314258   3.313   2.981  11.331 -0.5830  1.7412 -1.7561
    7MPD2     N14259   3.387   3.215  11.696  0.1146 -0.4857 -0.4252
    7MPD2    H514260   3.287   3.234  11.695  0.3712  0.6322 -4.5153
    7MPD2    N114261   3.744   3.110  11.381 -0.4166  0.1141 -0.3868
    7MPD2    H714262   3.807   3.146  11.451  0.3714 -0.8033 -0.6239
    8TMC3    C114263   3.931   3.133  11.246 -0.5967 -0.3238 -0.3129
    8TMC3    C214264   3.931   3.206  11.132  0.1614 -0.7869  0.0755
    8TMC3    C314265   3.956   3.346  11.148 -0.2482 -0.8677  0.3125
    8TMC3    C414266   3.976   3.182  11.363  0.1628 -0.5348 -0.1661
    8TMC3    C514267   3.999   3.317  11.372 -0.5588  0.2965 -0.2833
    8TMC3    C614268   3.995   3.403  11.264 -0.1197 -0.4039 -0.4865
    8TMC3     C14269   3.797   3.080  11.257  0.3418  0.3953  0.3625
    8TMC3     O14270   3.739   3.047  11.156 -0.0478 -0.3007  0.3430
    8TMC3     H14271   3.882   3.165  11.045 -1.4871  0.0427  0.6109
    8TMC3    H114272   3.984   3.119  11.452 -1.5433 -0.4047  0.0706
    8TMC3    H214273   4.030   3.505  11.267  0.8294 -0.7233 -0.9623
    8TMC3    C714274   3.942   3.371  11.490  0.1917 -0.8031  0.1723
    8TMC3    C814275   3.908   3.426  11.039 -0.5454  0.4591 -0.3594
    8TMC3    O114276   3.898   3.290  11.573 -0.0502  0.0424  0.1132
    8TMC3    O214277   3.837   3.367  10.958 -0.4351 -0.1662 -0.4671
    9MPD2     C14278   3.892   3.783  10.989 -0.1993  0.7910  0.4431
    9MPD2    C114279   3.879   3.656  10.949  0.1902  0.2602  0.4477
    9MPD2    C214280   3.814   3.631  10.833 -0.3675  0.4534 -0.0933
    9MPD2    C314281   3.743   3.725  10.767  0.0676 -0.9736  0.3421
    9MPD2    C414282   3.745   3.849  10.823 -0.7269  0.5270 -1.2572
    9MPD2    C514283   3.840   3.883  10.912 -0.3885  0.0084 -0.2714
    9MPD2     H14284   3.820   3.533  10.786  0.8266  0.9808 -1.0486
    9MPD2    H114285   3.703   3.934  10.770  1.3407  2.0322 -0.4937
    9MPD2    H214286   3.958   3.801  11.073 -1.0131  2.5152  0.7176
    9MPD2    H314287   3.843   3.982  10.954  0.7008 -0.0251 -0.2643
    9MPD2     N14288   3.652   3.706  10.658  0.1601  0.1035  0.8466
    9MPD2    H514289   3.584   3.776  10.632  0.1671 -0.7909 -1.5174
    9MPD2    N114290   3.933   3.560  11.041  0.2263  0.6294  0.5513
    9MPD2    H714291   3.976   3.596  11.125 -2.1858 -0.3926  2.2159
    1MPD1     C14292   2.999   3.045  15.726 -0.5683 -0.0946 -0.0903
    1MPD1    C114293   3.049   2.917  15.710 -0.2573  0.0165  0.4821
    1MPD1    C214294   3.098   2.880  15.587  0.6504 -0.0613 -0.2941
    1MPD1    C314295   3.098   2.967  15.482  0.2598  0.6778  0.0967
    1MPD1    C414296   3.041   3.092  15.494  0.6670 -0.3403 -0.0172
    1MPD1    C514297   2.996   3.126  15.618 -0.1256  0.5215 -0.4387
    1MPD1     H14298   3.134   2.778  15.581  0.1971 -0.0527 -3.5368
    1MPD1    H114299   3.031   3.159  15.410  1.1002 -0.3628 -0.0853
    1MPD1    H214300   2.955   3.078  15.820 -0.7507 -2.5508  0.6856
    1MPD1    H314301   2.961   3.228  15.635 -1.8146  0.1406 -1.6002
    1MPD1     N14302   3.159   2.933  15.359  0.3963 -0.2498  0.3263
    1MPD1    H514303   3.149   2.998  15.282 -2.7309  0.0034  0.9654
    1MPD1    N114304   3.078   2.846  15.823  0.4756  0.1550 -0.4049
    1MPD1    H614305   3.102   2.747  15.818  0.5873  0.1485  0.1758
    1MPD1    H714306   3.018   2.874  15.900  0.1278 -1.3560 -0.1248
    2TMC2    C114307   3.479   2.754  15.047  0.0114 -0.0516  0.0859
    2TMC2    C214308   3.461   2.863  14.966 -0.2827 -0.4602  0.4424
    2TMC2    C314309   3.382   2.968  15.008 -0.3437  0.0452 -0.7788
    2TMC2    C414310   3.411   2.750  15.172  0.3358 -0.4078 -0.4344
    2TMC2    C514311   3.328   2.859  15.212  0.1674 -0.3594  0.1020
    2TMC2    C614312   3.314   2.971  15.130  0.2343 -0.3882  0.1040
    2TMC2     C14313   3.532   2.623  15.011  0.4759 -0.2146  0.5692
    2TMC2     O14314   3.589   2.555  15.095  0.1273  0.4778  0.3600
    2TMC2     H14315   3.496   2.863  14.863 -1.1541  2.2527  0.1542
    2TMC2    H114316   3.415   2.656  15.225 -1.4318  0.1737  0.7319
    2TMC2    H214317   3.260   3.059  15.163  0.0319 -0.3975 -0.1947
    2TMC2    C714318   3.263   2.844  15.338  0.8652  0.2279  1.0234
    2TMC2    C814319   3.387   3.084  14.925 -0.0957  0.6020 -0.5367
    2TMC2    O114320   3.295   2.746  15.403  0.1410 -0.0684  0.8614
    2TMC2    O214321   3.294   3.167  14.908 -0.5492 -0.1382 -0.6001
    2TMC2    O514322   3.510   3.127  14.954 -0.2212  0.2706  0.3732
    2TMC2    H514323   3.557   3.074  15.022  0.2795  0.6221  0.3020
    3MPD1     C14324   3.515   2.225  14.681  0.4847 -0.3695  0.2964
    3MPD1    C114325   3.495   2.343  14.611 -0.7089 -0.2295 -0.2306
    3MPD1    C214326   3.491   2.467  14.678  0.2459 -0.0584  0.1714
    3MPD1    C314327   3.509   2.469  14.815 -0.2887 -0.1423 -0.9310
    3MPD1    C414328   3.537   2.352  14.886 -0.1837  0.3485 -0.3896
    3MPD1    C514329   3.541   2.233  14.815 -0.6378 -0.1021 -0.2290
    3MPD1     H14330   3.466   2.552  14.616 -0.5296  0.6876  1.5032
    3MPD1    H114331   3.543   2.353  14.994 -0.9692 -2.3740 -0.3058
    3MPD1    H214332   3.518   2.126  14.636  1.4570 -0.5285  0.7305
    3MPD1    H314333   3.556   2.139  14.866 -2.1692  0.4337  1.1981
    3MPD1     N14334   3.497   2.601  14.879 -0.4555  0.5728  0.4980
    3MPD1    H514335   3.456   2.674  14.822 -3.3927 -1.1485  0.4294
    3MPD1    N114336   3.461   2.337  14.469 -0.1554 -0.3546  0.2786
    3MPD1    H614337   3.497   2.253  14.424 -1.0660 -2.2287  3.0151
    3MPD1    H714338   3.467   2.416  14.406 -0.8522 -0.6879 -0.2092
    1TMC1    C114339   1.627   1.571  13.397  0.2903 -0.2950 -0.0943
    1TMC1    C214340   1.546   1.498  13.321 -0.7475  0.3872 -0.5808
    1TMC1    C314341   1.477   1.553  13.217 -0.0714  0.1088  0.2387
    1TMC1    C414342   1.636   1.701  13.363  0.3885 -0.2361  0.8288
    1TMC1    C514343   1.568   1.760  13.257  0.1269  0.7161 -0.1146
    1TMC1    C614344   1.488   1.678  13.176  0.8492 -0.1300 -0.9462
    1TMC1     C14345   1.745   1.510  13.448  0.5187 -0.0013 -0.4814
    1TMC1     O14346   1.764   1.392  13.415 -0.4693 -0.5415 -0.0742
    1TMC1     H14347   1.526   1.398  13.356  1.4895 -0.2629 -1.1321
    1TMC1    H114348   1.726   1.754  13.392 -0.5392  1.1589  1.1856
    1TMC1    H214349   1.418   1.730  13.113 -1.4018 -1.7597  0.2161
    1TMC1    C714350   1.566   1.905  13.247 -0.0281 -0.2471  0.4930
    1TMC1    C814351   1.341   1.501  13.211 -0.1527 -0.0134 -0.1979
    1TMC1    O114352   1.534   1.967  13.349 -0.1109 -0.1986  0.1820
    1TMC1    O214353   1.259   1.535  13.295  0.6604  0.2145 -0.0479
    1TMC1    O314354   1.536   1.925  13.119 -1.1338  0.5778  0.1764
    1TMC1    H314355   1.569   1.851  13.065  0.4370  2.3652 -1.3286
    1TMC1    O514356   1.318   1.503  13.079  0.0688  0.0122  0.3134
    1TMC1    H514357   1.404   1.492  13.034 -0.2437 -0.0973 -0.2645
    2MPD2     C14358   2.048   1.469  13.483 -0.1655 -0.3705 -0.1074
    2MPD2    C114359   1.974   1.567  13.543  0.7470  0.1862 -0.1278
    2MPD2    C214360   2.034   1.662  13.623  0.3311 -0.6346  0.4503
    2MPD2    C314361   2.168   1.655  13.652  0.1943 -0.7776  0.1942
    2MPD2    C414362   2.244   1.553  13.600 -0.0319 -0.9683 -0.7381
    2MPD2    C514363   2.182   1.465  13.516 -0.4789  0.1958 -0.6286
    2MPD2     H14364   1.976   1.740  13.670  1.6638  0.8526 -0.3669
    2MPD2    H114365   2.351   1.544  13.612  0.0456  0.9601 -0.0483
    2MPD2    H214366   2.013   1.404  13.404  1.4981  0.3120 -1.4169
    2MPD2    H314367   2.245   1.391  13.468  0.8268  0.3014  0.9281
    2MPD2     N14368   2.226   1.749  13.739  0.2243 -0.0317  0.0849
    2MPD2    H514369   2.157   1.810  13.782 -1.3764 -2.4383  0.9065
    2MPD2    N114370   1.837   1.598  13.510  0.9655 -0.0635  0.1516
    2MPD2    H714371   1.790   1.682  13.543  0.6074  0.0607 -0.6912
    3TCq1    O114372   2.289   1.914  14.189  0.2058  0.2265  0.8229
    3TCq1    C114373   2.265   2.039  14.148  0.4152  0.3745 -0.6137
    3TCq1    O214374   2.259   2.146  14.211 -0.7167 -0.0195 -0.3481
    3TCq1    C214375   2.333   2.027  14.025  0.0987 -0.1061 -0.5438
    3TCq1    C314376   2.450   2.098  14.015  0.2718 -1.1251  0.6381
    3TCq1    C414377   2.539   2.059  13.917 -0.1566  0.0046 -0.1145
    3TCq1    C514378   2.512   1.952  13.829  0.1846  0.1770 -0.1318
    3TCq1    C614379   2.389   1.889  13.850 -0.3095 -0.1175  0.6553
    3TCq1    C714380   2.294   1.929  13.944 -0.5546 -0.6356  0.0522
    3TCq1    C814381   2.359   1.773  13.758 -0.5828  0.7035 -0.8562
    3TCq1    O414382   2.451   1.745  13.680 -0.5365 -0.5761  0.2542
    3TCq1    C914383   2.661   2.133  13.897 -0.4138 -1.1405  0.2528
    3TCq1    O514384   2.724   2.122  13.789  0.1029 -0.4074 -0.0927
    3TCq1    O614385   2.695   2.201  13.993 -0.2297  0.5288 -0.0166
    3TCq1    H114386   2.310   1.845  14.123  1.4428  1.2033  0.1944
    3TCq1    H214387   2.475   2.175  14.087 -0.2163 -0.0893 -0.3059
    3TCq1    H314388   2.591   1.913  13.766 -0.7853  0.3992 -1.5041
    3TCq1    H414389   2.201   1.876  13.962 -1.6733  1.7686  1.2525
    1MPD2     C14390   0.797   3.032  15.048  0.3496 -0.1214 -0.0901
    1MPD2    C114391   0.777   2.902  15.017  0.6811 -0.0280 -0.2657
    1MPD2    C214392   0.872   2.807  15.047  0.5754 -0.0043 -0.1424
    1MPD2    C314393   0.993   2.840  15.108 -0.2344 -0.5363 -0.4519
    1MPD2    C414394   1.007   2.965  15.146  0.3935 -0.6780 -0.3748
    1MPD2    C514395   0.913   3.062  15.114 -0.2306  0.5807 -0.9038
    1MPD2     H14396   0.856   2.704  15.017 -0.1903 -0.0218  0.3533
    1MPD2    H114397   1.103   2.994  15.187 -0.2003  1.2389 -0.3141
    1MPD2    H214398   0.730   3.112  15.018 -0.3730 -0.5836  0.2942
    1MPD2    H314399   0.922   3.169  15.131  1.0021  0.3097  0.1867
    1MPD2     N14400   1.090   2.739  15.122 -0.4721  0.1327 -0.6070
    1MPD2    H514401   1.070   2.652  15.075 -0.6145  0.4654 -1.1522
    1MPD2    N114402   0.653   2.875  14.965 -0.8589 -0.1063 -0.4049
    1MPD2    H714403   0.594   2.955  14.945  0.6834  1.1740  0.1102
    2TMC3    C114404   0.486   2.747  14.861  0.0647 -0.1381 -0.1804
    2TMC3    C214405   0.426   2.623  14.863 -0.6093 -0.1041 -0.0622
    2TMC3    C314406   0.412   2.556  14.749  0.2473 -0.0139 -0.2569
    2TMC3    C414407   0.509   2.807  14.741 -0.2421 -0.0627  0.8268
    2TMC3    C514408   0.492   2.734  14.627  0.4372 -0.3492 -0.0379
    2TMC3    C614409   0.428   2.611  14.627  0.3938 -0.2957 -0.0655
    2TMC3     C14410   0.586   2.758  14.964 -0.5978 -0.5223 -0.9058
    2TMC3     O14411   0.621   2.646  15.003  0.0999  0.8069 -0.1537
    2TMC3     H14412   0.409   2.569  14.956  1.8429  0.2798  0.6105
    2TMC3    H114413   0.574   2.894  14.741  0.0506 -0.2852  0.7088
    2TMC3    H214414   0.417   2.546  14.541  0.6253  0.7485 -0.8870
    2TMC3    C714415   0.476   2.809  14.503 -0.7450 -0.3800 -0.1378
    2TMC3    C814416   0.453   2.416  14.754  0.2605 -0.3533  0.6547
    2TMC3    O114417   0.430   2.749  14.405  1.1395 -1.0308 -0.6407
    2TMC3    O214418   0.399   2.335  14.683 -0.8496  0.3297 -0.3399
    3TCq1    O114419   0.841   3.888  14.172  0.2096 -0.3908  0.4267
    3TCq1    C114420   0.928   3.852  14.272  0.5705  0.0230  0.4446
    3TCq1    O214421   1.021   3.925  14.306  0.2277  0.3692  0.1711
    3TCq1    C214422   0.863   3.751  14.352  0.7913  0.1908 -0.0381
    3TCq1    C314423   0.906   3.742  14.482  0.1780 -0.2665 -1.0882
    3TCq1    C414424   0.841   3.668  14.574 -0.3665 -0.5925  0.4487
    3TCq1    C514425   0.731   3.610  14.531 -0.4037 -0.1287  0.0099
    3TCq1    C614426   0.694   3.614  14.397 -0.2018 -0.1972 -0.5831
    3TCq1    C714427   0.757   3.684  14.305  0.9528  0.1521  0.0683
    3TCq1    C814428   0.595   3.524  14.341 -0.7978  0.5713 -0.3059
    3TCq1    O414429   0.551   3.532  14.227  0.3848 -0.5575  0.2889
    3TCq1    C914430   0.887   3.652  14.709  0.0857 -0.0363 -0.4453
    3TCq1    O514431   0.991   3.711  14.746 -0.9679  0.0229 -0.0095
    3TCq1    O614432   0.832   3.567  14.787  0.2784 -0.5943  0.7427
    3TCq1    H114433   0.763   3.835  14.146  1.0787 -0.6238 -1.7793
    3TCq1    H214434   0.991   3.801  14.515  0.0394 -0.9879  0.5481
    3TCq1    H314435   0.671   3.553  14.600  0.6942  0.1299  1.1982
    3TCq1    H414436   0.733   3.687  14.200  0.2085 -0.7482  0.2204
    4MPD2     C14437   0.445   3.266  14.266  0.1062  0.3686  0.2963
    4MPD2    C114438   0.527   3.281  14.380  0.0177 -0.6545 -0.0892
    4MPD2    C214439   0.555   3.166  14.458  0.0827  0.3605  0.3639
    4MPD2    C314440   0.505   3.043  14.421 -0.8218  0.5370 -0.5332
    4MPD2    C414441   0.422   3.035  14.311 -0.0927 -0.1502 -0.1620
    4MPD2    C514442   0.400   3.143  14.224  0.1470 -0.1069  0.3022
    4MPD2     H14443   0.624   3.172  14.541 -0.9850 -2.8614  1.4676
    4MPD2    H114444   0.388   2.933  14.300  0.6923 -0.2716 -1.4572
    4MPD2    H214445   0.412   3.353  14.209 -1.6138  0.2373  1.0773
    4MPD2    H314446   0.331   3.144  14.140  0.0787 -1.5425  0.3562
    4MPD2     N14447   0.526   2.938  14.508 -0.4351  0.6679  0.5077
    4MPD2    H514448   0.570   2.957  14.598 -1.3529  1.1195  0.8638
    4MPD2    N114449   0.577   3.412  14.420 -0.6071  0.3929  0.0643
    4MPD2    H714450   0.623   3.419  14.510  1.1035 -0.9166 -0.6832
    5TMC2    C114451   1.125   2.408  15.144 -0.6727 -0.0231  0.5815
    5TMC2    C214452   1.091   2.368  15.270 -0.1332  0.3527 -0.4454
    5TMC2    C314453   1.134   2.446  15.374 -0.4180 -0.3817  0.6441
    5TMC2    C414454   1.201   2.522  15.130 -0.6058  0.8962 -0.5352
    5TMC2    C514455   1.234   2.600  15.232  0.4218 -0.0633 -0.3031
    5TMC2    C614456   1.208   2.562  15.357 -0.2622 -0.1470 -0.0512
    5TMC2     C14457   1.025   2.385  15.045  0.4211 -0.7717  0.1517
    5TMC2     O14458   1.012   2.477  14.968  0.5496 -0.4811 -0.6551
    5TMC2     H14459   1.028   2.281  15.284 -1.4582  1.4250  0.3007
    5TMC2    H114460   1.237   2.535  15.029 -1.0049  3.0330 -0.3901
    5TMC2    H214461   1.240   2.617  15.445  0.0363  1.4077 -1.1409
    5TMC2    C714462   1.199   2.737  15.204  0.4139 -0.4860 -0.0340
    5TMC2    C814463   1.154   2.386  15.505 -0.2588  0.6802  1.2523
    5TMC2    O114464   1.244   2.821  15.278 -0.3255 -0.1009 -0.9713
    5TMC2    O214465   1.065   2.312  15.551  0.1951 -0.0188  0.4279
    5TMC2    O514466   1.286   2.368  15.510  0.1570 -0.5293  0.0439
    5TMC2    H514467   1.345   2.429  15.460  1.7696 -1.5419  0.7170
    6MPD2     C14468   0.637   2.187  14.807 -0.8880 -0.2963 -0.1187
    6MPD2    C114469   0.648   2.309  14.859 -0.9078  1.0610  0.5139
    6MPD2    C214470   0.756   2.340  14.942 -0.1147  0.3605 -0.3824
    6MPD2    C314471   0.843   2.236  14.974  0.6304 -0.3964  0.0648
    6MPD2    C414472   0.811   2.104  14.936  0.5124 -0.4597  0.4593
    6MPD2    C514473   0.716   2.083  14.843  0.8264  0.1294  0.0968
    6MPD2     H14474   0.771   2.439  14.984 -1.2017 -0.3509  1.7203
    6MPD2    H114475   0.864   2.016  14.971  2.6829 -0.0669 -1.9086
    6MPD2    H214476   0.553   2.168  14.742 -1.4985  1.9510 -0.0077
    6MPD2    H314477   0.694   1.989  14.793  2.4666 -0.2197  0.0442
    6MPD2     N14478   0.960   2.264  15.047  0.2479  0.5361  0.1118
    6MPD2    H514479   0.993   2.184  15.099  1.6686  0.5438 -0.7585
    6MPD2    N114480   0.560   2.413  14.836  0.3593 -0.7254  0.4060
    6MPD2    H714481   0.590   2.499  14.881  0.8811 -0.5087 -0.3608
  945NH4     N114482   3.440   3.207   3.312 -0.0880 -1.4276 -0.3320
  945NH4     H214483   3.451   3.294   3.256  2.6089 -0.9253  1.0099
  945NH4     H314484   3.370   3.152   3.258 -0.1085 -0.7518 -0.9948
  945NH4     H414485   3.390   3.239   3.398 -1.8398  0.1284 -1.9171
  945NH4     H514486   3.526   3.159   3.343  0.4986 -1.1647 -1.5818
  946SOD     NA14487   2.405   2.112   9.118  0.1382  0.2534 -0.4814
  947SOD     NA14488   2.667   2.765  16.049 -0.1921 -0.3268  0.4835
  948SOD     NA14489   0.097   4.337  13.030  0.7892 -0.1320  0.0308
  949SOD     NA14490   2.883   4.176  15.996  0.1708 -0.1771 -0.5371
  950SOD     NA14491   1.380   2.573  12.010 -0.3637  0.1280 -0.1078
  951SOD     NA14492   1.201   4.030  12.659 -0.4038 -0.2219 -0.5346
  952SOD     NA14493   2.069   1.368  10.657 -0.1150  0.2785  0.9065
  953SOL     OW14494   3.466   0.922  11.193  0.5313  0.4815  0.1577
  953SOL    HW114495   3.385   0.920  11.142  0.0834 -0.8998  0.9190
  953SOL    HW214496   3.452   0.841  11.241  0.0665  0.3658 -0.1717
  954SOL     OW14497   1.730   4.475   3.064 -0.1792  0.0689  0.7254
  954SOL    HW114498   1.752   4.512   3.150  0.8242 -0.2719  0.6163
  954SOL    HW214499   1.667   4.539   3.032 -0.6170 -1.5169 -1.6215
  955SOL     OW14500   1.985   2.857   3.452 -0.5110 -0.2344 -0.4387
  955SOL    HW114501   1.963   2.942   3.414  3.1876  1.4237  1.1217
  955SOL    HW214502   2.027   2.874   3.537  0.8915  0.5440 -1.2800
  956SOL     OW14503   0.714   0.617   1.946  0.1418  0.5542  0.8014
  956SOL    HW114504   0.774   0.569   1.890 -0.9025 -2.5279  2.3095
  956SOL    HW214505   0.644   0.555   1.971 -0.1131 -0.1784 -1.7469
  957SOL     OW14506   0.454   2.352   8.566  0.2002 -0.0265 -0.0310
  957SOL    HW114507   0.398   2.288   8.610 -0.9801  0.5908 -0.6215
  957SOL    HW214508   0.405   2.383   8.490 -0.3422 -3.1733 -0.9518
  958SOL     OW14509   3.222   2.083  15.904 -0.3038  0.3792 -0.2702
  958SOL    HW114510   3.271   2.003  15.883  1.2612  1.1074  0.5817
  958SOL    HW214511   3.296   2.127  15.945  1.0109 -3.2855  1.2991
  959SOL     OW14512   3.077   3.063   5.290  0.2831 -0.3288  0.2473
  959SOL    HW114513   3.141   3.069   5.360 -0.5609  1.1704  0.8892
  959SOL    HW214514   3.040   3.151   5.283 -0.6921 -0.8218 -0.8115
  960SOL     OW14515   0.752   1.859  11.105  0.3150  0.2384 -0.5255
  960SOL    HW114516   0.740   1.865  11.200  0.4654 -1.3974 -0.4106
  960SOL    HW214517   0.691   1.932  11.093 -0.6924 -0.2063  1.9498
  961SOL     OW14518   0.089   1.472   4.428 -0.4026 -0.0160 -0.0211
  961SOL    HW114519   0.051   1.417   4.496 -0.6744 -0.1909 -0.3157
  961SOL    HW214520   0.158   1.512   4.481 -1.4299 -0.3284  1.5848
  962SOL     OW14521   4.542   4.083  16.777  0.4902  0.5698  0.2854
  962SOL    HW114522   4.518   4.168  16.743 -0.6439 -0.5688 -1.7577
  962SOL    HW214523   4.531   4.039  16.693  0.0245  1.0349  0.1091
  963SOL     OW14524   1.948   4.023  11.399 -0.0259  0.1519 -0.5721
  963SOL    HW114525   2.001   4.099  11.374  0.9116  0.4806  2.3662
  963SOL    HW214526   1.965   4.011  11.492 -0.0096  1.4574 -0.4083
  964SOL     OW14527   2.570   2.486  17.710  0.5077  0.1531  0.0248
  964SOL    HW114528   2.655   2.453  17.680  0.0374 -0.7171 -0.3416
  964SOL    HW214529   2.541   2.410   0.021  0.6935 -0.0686 -0.2016
  965SOL     OW14530   1.640   2.879   5.218  0.0285 -0.6303 -0.3002
  965SOL    HW114531   1.710   2.821   5.248  2.2397  2.4665  0.5020
  965SOL    HW214532   1.561   2.826   5.210  1.2966 -2.2993 -1.7606
  966SOL     OW14533   3.188   0.453   7.723 -0.1821 -0.6481  0.8523
  966SOL    HW114534   3.253   0.503   7.772 -0.3734  0.9925 -0.5746
  966SOL    HW214535   3.117   0.512   7.750  1.0753  1.8306 -1.2958
  967SOL     OW14536   1.032   2.367   0.312  0.5590 -0.0139 -0.1673
  967SOL    HW114537   0.962   2.309   0.283 -1.9755  1.5533  2.7828
  967SOL    HW214538   0.984   2.426   0.370 -0.7180 -0.1462 -1.0966
  968SOL     OW14539   2.083   2.281  12.187 -0.2587  0.2544  0.1089
  968SOL    HW114540   2.060   2.373  12.191 -0.8035  0.0117  2.4125
  968SOL    HW214541   2.003   2.232  12.172  1.4900 -2.7925  0.6056
  969SOL     OW14542   4.537   3.638  14.647  0.5461 -0.0654 -0.4764
  969SOL    HW114543   4.619   3.614  14.604  1.1173  1.5330 -0.2957
  969SOL    HW214544   4.523   3.550  14.680 -0.5506  0.4781  0.5240
  970SOL     OW14545   2.828   2.044   1.120  0.2056  0.7503 -0.2797
  970SOL    HW114546   2.842   2.071   1.029  0.5168 -2.1653 -1.1214
  970SOL    HW214547   2.792   1.955   1.112 -0.5330  1.0034  0.2288
  971SOL     OW14548   3.390   3.321  12.724 -0.1973 -0.5298  0.0923
  971SOL    HW114549   3.485   3.316  12.719 -0.2315  0.6047 -2.0257
  971SOL    HW214550   3.375   3.343  12.816 -0.0842 -0.3347  0.0641
  972SOL     OW14551   3.982   2.506  17.227 -0.3027 -0.3445  0.4799
  972SOL    HW114552   3.913   2.441  17.216 -0.8153  0.4035 -0.6874
  972SOL    HW214553   3.945   2.581  17.180 -0.4929 -1.8352 -1.7087
  973SOL     OW14554   3.171   1.930   4.211  0.5774  0.1627 -0.2396
  973SOL    HW114555   3.133   1.843   4.199  0.2325  0.4653 -1.3462
  973SOL    HW214556   3.230   1.940   4.137 -0.0700 -0.6101 -0.8596
  974SOL     OW14557   1.743   1.251   5.686  0.2854  0.4676 -0.0894
  974SOL    HW114558   1.711   1.164   5.712 -0.4625  0.9611  0.6452
  974SOL    HW214559   1.662   1.302   5.682 -0.5740 -0.7398  1.6871
  975SOL     OW14560   2.364   1.910   3.730 -0.0249 -0.5155 -0.2461
  975SOL    HW114561   2.364   1.910   3.635 -0.2474 -0.7508 -0.2467
  975SOL    HW214562   2.442   1.857   3.750  0.0903  0.1264  1.0237
  976SOL     OW14563   3.983   3.953  10.122 -0.2299 -0.5015 -0.1158
  976SOL    HW114564   3.943   3.866  10.122 -0.9102 -0.1771  1.5241
  976SOL    HW214565   3.906   4.009  10.130 -0.0625 -0.4224  0.8861
  977SOL     OW14566   2.826   2.991  10.863 -0.2687  0.9247 -0.1272
  977SOL    HW114567   2.781   3.072  10.838  1.7568  2.2010  0.3793
  977SOL    HW214568   2.806   2.941  10.784 -1.9879  2.1576 -0.4743
  978SOL     OW14569   3.082   0.937   9.278 -0.1787 -0.3883 -0.1046
  978SOL    HW114570   3.128   1.015   9.309  1.9637 -1.1199 -1.4847
  978SOL    HW214571   3.143   0.867   9.300 -2.4019 -1.2612  3.3857
  979SOL     OW14572   3.177   0.694  14.920  0.0912 -0.2060  0.5327
  979SOL    HW114573   3.083   0.706  14.933 -0.0247  0.0327 -0.5563
  979SOL    HW214574   3.190   0.776  14.873 -1.2398 -1.4490 -1.9683
  980SOL     OW14575   3.501   2.085   0.845 -0.2307  0.2124 -0.1768
  980SOL    HW114576   3.560   2.015   0.875  1.5802  1.3879 -1.0305
  980SOL    HW214577   3.418   2.073   0.890  0.0109  2.3680  0.8290
  981SOL     OW14578   4.658   4.055   5.606  0.1785 -0.4945 -0.7682
  981SOL    HW114579   4.585   4.114   5.590 -0.6083 -0.9502  1.1509
  981SOL    HW214580   4.721   4.114   5.649  0.1193  0.2844 -1.7522
  982SOL     OW14581   0.334   3.769   1.735  0.0450  0.1795  0.2136
  982SOL    HW114582   0.429   3.767   1.723 -0.0270  1.2014 -0.5421
  982SOL    HW214583   0.320   3.848   1.788  1.8317  1.4572 -1.2288
  983SOL     OW14584   2.639   0.329   4.069  0.3118 -0.3479  0.6624
  983SOL    HW114585   2.645   0.281   4.151  1.1032 -1.4930 -0.0555
  983SOL    HW214586   2.675   0.259   4.014 -1.0968  0.2989 -1.0693
  984SOL     OW14587   2.686   2.213  11.715  0.2279  0.2183 -0.4672
  984SOL    HW114588   2.704   2.191  11.806  1.8274 -0.4925 -0.9575
  984SOL    HW214589   2.775   2.227  11.682  0.0494  1.3937 -0.4311
  985SOL     OW14590   0.427   3.746   8.204 -0.4235 -0.0606  0.3038
  985SOL    HW114591   0.466   3.709   8.125  0.8155  0.4258  0.6854
  985SOL    HW214592   0.398   3.664   8.244  2.1114 -0.0913  2.0696
  986SOL     OW14593   1.129   1.097   7.173 -0.1911 -0.4457  0.2338
  986SOL    HW114594   1.093   1.069   7.257 -0.5854 -3.0511 -0.8057
  986SOL    HW214595   1.211   1.140   7.198 -0.0943 -0.6584  0.2785
  987SOL     OW14596   4.567   1.995   3.079 -0.3770 -0.1935 -0.3626
  987SOL    HW114597   4.615   1.996   3.162  0.8835  0.1008 -1.0814
  987SOL    HW214598   4.527   1.910   3.094  0.9817 -0.8571 -0.4433
  988SOL     OW14599   4.470   0.179  13.218 -0.3505 -0.0336  0.2963
  988SOL    HW114600   4.399   0.114  13.222 -0.9010  0.6502  1.3443
  988SOL    HW214601   4.419   0.253  13.250  2.5243  1.6641  0.8697
  989SOL     OW14602   2.783   4.308   7.820 -0.4603 -0.2100 -0.2391
  989SOL    HW114603   2.834   4.270   7.892  0.9263 -0.5980 -1.4231
  989SOL    HW214604   2.855   4.335   7.763 -0.0380 -0.3625  0.2136
  990SOL     OW14605   3.045   2.563   0.109  0.2535 -0.1275  0.5684
  990SOL    HW114606   3.029   2.592   0.019  0.3425  1.2242  0.9788
  990SOL    HW214607   3.023   2.471   0.101  1.3329 -0.1615 -1.9945
  991SOL     OW14608   0.134   3.833   4.167  0.1642 -0.3987  0.0714
  991SOL    HW114609   0.099   3.906   4.116  1.9296  1.0100  0.9008
  991SOL    HW214610   0.223   3.851   4.135  0.2134  2.2795  1.6910
  992SOL     OW14611   4.367   2.625  11.003 -0.6991  0.1666 -0.3969
  992SOL    HW114612   4.354   2.597  11.094 -3.1022  1.8717 -0.2175
  992SOL    HW214613   4.327   2.709  10.982 -1.4424 -0.0388  0.2182
  993SOL     OW14614   3.200   2.282  14.760  0.0383 -0.2275  0.1330
  993SOL    HW114615   3.152   2.330  14.692 -1.6474 -0.7348  0.9708
  993SOL    HW214616   3.279   2.259  14.711 -1.2484  0.8859 -2.4655
  994SOL     OW14617   2.415   4.358   6.295  0.0174 -0.3021 -0.2902
  994SOL    HW114618   2.360   4.294   6.250  0.3443 -0.2233 -0.8147
  994SOL    HW214619   2.495   4.348   6.243 -0.3396 -0.7849 -0.7397
  995SOL     OW14620   2.229   3.271   6.669 -0.7471  0.9329 -0.2083
  995SOL    HW114621   2.283   3.274   6.591 -2.3018  0.6147 -1.3013
  995SOL    HW214622   2.152   3.326   6.654 -0.9606  0.7591  0.2246
  996SOL     OW14623   0.815   3.925   0.543 -0.0962  0.4614  0.6339
  996SOL    HW114624   0.889   3.921   0.604 -1.6785 -1.0431  2.4295
  996SOL    HW214625   0.838   3.980   0.467 -1.9523  2.3460  1.4313
  997SOL     OW14626   1.039   3.801  15.270  0.1294  0.0952 -0.1043
  997SOL    HW114627   1.041   3.787  15.175 -2.3660 -1.6192  0.0805
  997SOL    HW214628   0.945   3.781  15.276  0.3810 -0.7006  0.9944
  998SOL     OW14629   3.668   3.473   2.978  0.0986 -0.3567  0.7858
  998SOL    HW114630   3.688   3.546   2.919  0.9372 -0.5294  0.8686
  998SOL    HW214631   3.658   3.415   2.902 -0.1739 -0.2665  0.7525
  999SOL     OW14632   3.767   4.690  11.675 -0.3111 -0.0226 -0.3295
  999SOL    HW114633   3.717   4.617  11.640 -0.4128  0.5020 -1.2835
  999SOL    HW214634   3.761   0.020  11.605 -0.6776 -1.5266 -1.7059
 1000SOL     OW14635   2.603   1.819   7.084 -0.6757 -0.3136  0.1918
 1000SOL    HW114636   2.625   1.728   7.061 -0.3476  0.0805 -1.0789
 1000SOL    HW214637   2.629   1.872   7.008  0.9865 -0.4681  0.6600
 1001SOL     OW14638   1.153   3.237  13.900 -0.2504  0.1542 -0.6758
 1001SOL    HW114639   1.084   3.191  13.948 -0.5062 -0.4919 -1.6651
 1001SOL    HW214640   1.120   3.239  13.810  0.1645  0.6619 -0.8125
 1002SOL     OW14641   0.555   4.561   1.766 -0.3850  0.6143 -0.2474
 1002SOL    HW114642   0.487   4.528   1.708  0.1301 -0.6747 -0.1217
 1002SOL    HW214643   0.578   4.483   1.817 -3.6695 -2.2614 -3.1758
 1003SOL     OW14644   1.697   4.301   7.036  0.3740  0.1527 -0.1890
 1003SOL    HW114645   1.734   4.277   7.121 -0.3756  0.8575  0.3300
 1003SOL    HW214646   1.717   4.394   7.043 -0.4013  0.2787  0.3721
 1004SOL     OW14647   0.627   3.901   9.907  0.3413  0.4377 -0.2476
 1004SOL    HW114648   0.542   3.857   9.915 -0.0314  0.8393 -2.1342
 1004SOL    HW214649   0.639   3.896   9.812  2.7166 -0.8948  0.1241
 1005SOL     OW14650   2.242   3.772   3.293 -0.6599  0.2069 -0.0559
 1005SOL    HW114651   2.268   3.799   3.205  0.8480  0.5987  0.5147
 1005SOL    HW214652   2.327   3.772   3.337 -1.1757 -0.1434  0.9433
 1006SOL     OW14653   3.632   2.259   9.215 -0.1520  0.2008 -0.3129
 1006SOL    HW114654   3.655   2.194   9.281 -1.2866  0.5560  0.4475
 1006SOL    HW214655   3.717   2.281   9.177  0.2370 -1.7306 -0.5977
 1007SOL     OW14656   2.241   4.415   6.771 -0.1145  0.2619  0.0416
 1007SOL    HW114657   2.178   4.486   6.783  0.9688  1.5788 -1.9727
 1007SOL    HW214658   2.312   4.474   6.743  0.1198 -0.1850 -0.3175
 1008SOL     OW14659   0.645   1.860  12.032 -0.5454 -0.4626  0.5653
 1008SOL    HW114660   0.649   1.933  12.093  1.5625 -1.7156  1.9312
 1008SOL    HW214661   0.689   1.792  12.083  0.1036 -1.0184 -0.7267
 1009SOL     OW14662   0.473   1.364   3.940  0.1350 -0.7626 -0.0000
 1009SOL    HW114663   0.475   1.459   3.930  1.7919 -1.0265 -2.1688
 1009SOL    HW214664   0.414   1.339   3.869  2.2637 -0.8353 -1.7454
 1010SOL     OW14665   4.438   1.441  16.175 -0.5429  0.5624 -0.4949
 1010SOL    HW114666   4.343   1.447  16.165 -0.6733  1.2477  1.1961
 1010SOL    HW214667   4.457   1.454  16.268 -1.5845  1.2677 -0.3860
 1011SOL     OW14668   4.091   2.821  16.994  0.3294  0.5699  0.0405
 1011SOL    HW114669   4.171   2.874  16.986 -0.6304  2.0861  0.4879
 1011SOL    HW214670   4.042   2.856  16.920  0.7876  3.8027  1.2490
 1012SOL     OW14671   0.243   4.680   8.123  0.0744 -0.0210  0.3835
 1012SOL    HW114672   0.296   0.024   8.112  3.5695 -2.4335 -0.0315
 1012SOL    HW214673   0.171   4.722   8.171 -1.4622 -1.4848 -0.6123
 1013SOL     OW14674   2.939   1.540   9.451  0.3738 -0.1637 -0.1992
 1013SOL    HW114675   2.920   1.603   9.382 -0.4558 -0.6322 -0.3927
 1013SOL    HW214676   2.984   1.470   9.403 -1.5685 -0.8542 -1.0083
 1014SOL     OW14677   2.091   0.976   1.690 -0.4054 -0.6154 -0.2093
 1014SOL    HW114678   2.113   0.933   1.608 -2.2878 -0.7675 -0.6311
 1014SOL    HW214679   2.117   1.067   1.674  2.0043 -1.1896  0.4836
 1015SOL     OW14680   2.279   0.941   5.333  0.2526 -1.0195 -0.1183
 1015SOL    HW114681   2.232   0.879   5.390  0.3248 -1.1178 -0.1659
 1015SOL    HW214682   2.207   0.958   5.272  0.5739  0.4938 -0.0640
 1016SOL     OW14683   2.174   3.529   5.258  0.0823 -0.1999  0.1010
 1016SOL    HW114684   2.150   3.503   5.347  1.2161  1.6732  0.9323
 1016SOL    HW214685   2.176   3.622   5.277 -0.0275  0.1005 -1.3567
 1017SOL     OW14686   2.236   1.716   2.376 -0.2877  0.0690 -0.2913
 1017SOL    HW114687   2.149   1.713   2.337 -1.5560  2.6886  2.3704
 1017SOL    HW214688   2.276   1.780   2.316  0.2559 -0.1267 -0.1422
 1018SOL     OW14689   4.373   2.780   2.833  0.1645 -0.5650  0.2300
 1018SOL    HW114690   4.364   2.837   2.756  1.8906  0.1967  0.6042
 1018SOL    HW214691   4.453   2.732   2.809  0.9075  0.4482  0.7124
 1019SOL     OW14692   2.794   4.253   5.671 -0.0452 -0.5175 -0.5313
 1019SOL    HW114693   2.778   4.324   5.733 -0.3487 -2.4488  1.6092
 1019SOL    HW214694   2.883   4.216   5.676  0.5938  1.1585  0.7657
 1020SOL     OW14695   2.495   4.599  12.048 -0.2209 -0.2068  0.2269
 1020SOL    HW114696   2.515   4.554  12.130  3.6570 -1.7909 -1.5714
 1020SOL    HW214697   2.403   4.574  12.049 -0.4618  0.6264 -0.4820
 1021SOL     OW14698   3.158   4.215  13.689  0.1384  0.2281  0.0656
 1021SOL    HW114699   3.150   4.138  13.745  0.3933 -0.7024 -1.1664
 1021SOL    HW214700   3.100   4.277  13.733 -3.9260 -2.7131 -1.1334
 1022SOL     OW14701   2.909   1.720   7.937 -0.1408 -0.0259  0.3663
 1022SOL    HW114702   2.924   1.778   7.862  1.7916 -2.7433 -1.3652
 1022SOL    HW214703   2.833   1.677   7.899  0.9107 -0.4813 -1.2343
 1023SOL     OW14704   1.038   2.743   3.536  0.3351  0.6248  0.4559
 1023SOL    HW114705   0.973   2.748   3.607 -0.2166  0.5990 -0.0440
 1023SOL    HW214706   1.025   2.824   3.486  0.1403  0.4487  0.2220
 1024SOL     OW14707   3.637   1.275  13.280  0.2253  0.0427  0.1175
 1024SOL    HW114708   3.698   1.275  13.206 -0.1057  1.7294 -0.1488
 1024SOL    HW214709   3.635   1.182  13.304 -0.2922  0.0402  0.0532
 1025SOL     OW14710   1.398   1.358  14.627  0.2420  0.1842 -0.1818
 1025SOL    HW114711   1.493   1.370  14.626  0.2830 -0.1574  0.2049
 1025SOL    HW214712   1.376   1.427  14.564 -0.6030  0.2633  0.1950
 1026SOL     OW14713   4.186   4.644   7.660  0.0689 -0.1976  0.9138
 1026SOL    HW114714   4.141   4.724   7.636 -0.9685 -1.8295 -2.4824
 1026SOL    HW214715   4.134   4.577   7.615  0.9642 -1.4084  1.6671
 1027SOL     OW14716   0.376   0.882  16.595  0.0429  0.3257  0.4776
 1027SOL    HW114717   0.327   0.936  16.657 -0.1042  1.9571 -1.0650
 1027SOL    HW214718   0.442   0.830  16.642  0.5658  1.8664  1.4630
 1028SOL     OW14719   2.269   3.191   8.297  0.4544 -0.6964 -0.3695
 1028SOL    HW114720   2.283   3.251   8.224  2.0349  0.1307  0.6348
 1028SOL    HW214721   2.349   3.199   8.348  0.2612  0.0145 -0.1766
 1029SOL     OW14722   1.429   1.955   3.629  0.2440  0.0263 -0.7008
 1029SOL    HW114723   1.470   2.029   3.673 -1.7264  1.7386 -1.7322
 1029SOL    HW214724   1.470   1.879   3.669 -0.0589 -0.6050 -1.5895
 1030SOL     OW14725   3.717   0.464   4.577 -0.2190  0.2309 -0.0169
 1030SOL    HW114726   3.767   0.409   4.517 -0.2869 -0.8607  0.9169
 1030SOL    HW214727   3.775   0.539   4.566  1.4209 -0.9483  0.5858
 1031SOL     OW14728   1.896   2.312  17.080 -0.2612 -0.7584 -0.2605
 1031SOL    HW114729   1.807   2.332  17.050 -0.7208  1.0619  2.3087
 1031SOL    HW214730   1.904   2.229  17.033  0.8346 -1.3312  0.9248
 1032SOL     OW14731   1.368   3.988   6.879  0.0232 -0.1895  0.4871
 1032SOL    HW114732   1.381   3.991   6.785  0.2436  0.1634  0.5310
 1032SOL    HW214733   1.460   3.994   6.904  0.1273 -0.8699  0.2671
 1033SOL     OW14734   0.820   0.278   7.961  0.4573  0.2032 -0.5436
 1033SOL    HW114735   0.776   0.320   8.035 -0.2670 -3.4303  1.0476
 1033SOL    HW214736   0.827   0.364   7.918 -2.4641  0.2248 -0.9789
 1034SOL     OW14737   1.222   4.139   5.650  0.0684 -0.4870 -0.4833
 1034SOL    HW114738   1.152   4.161   5.710  0.1040  1.0445 -1.0152
 1034SOL    HW214739   1.299   4.153   5.705 -0.1805  0.2167 -0.3159
 1035SOL     OW14740   3.392   2.467  10.079  0.3010  0.0657 -0.8280
 1035SOL    HW114741   3.455   2.413  10.031 -0.2770 -2.2927  1.0771
 1035SOL    HW214742   3.316   2.409  10.087  0.1983  0.3220  0.0435
 1036SOL     OW14743   0.157   1.072  14.858  0.0974  0.3900  0.3068
 1036SOL    HW114744   0.083   1.105  14.909 -2.3291 -1.7530 -1.8116
 1036SOL    HW214745   0.231   1.065  14.918  1.7042 -1.7955 -1.9699
 1037SOL     OW14746   4.000   3.673   4.904 -0.1422 -0.3152 -0.0599
 1037SOL    HW114747   3.995   3.619   4.825  0.9725 -0.4734 -0.0205
 1037SOL    HW214748   4.064   3.737   4.873 -1.5767 -0.0825 -2.5275
 1038SOL     OW14749   4.005   3.417   5.363  0.3469 -0.1359 -0.5768
 1038SOL    HW114750   4.006   3.415   5.267 -2.3141 -1.1284 -0.5745
 1038SOL    HW214751   3.910   3.427   5.369  0.6153  1.1355  1.4128
 1039SOL     OW14752   3.886   2.005   4.542 -0.0535 -0.0838 -0.1638
 1039SOL    HW114753   3.818   2.004   4.609  1.2978 -0.8848  1.1964
 1039SOL    HW214754   3.922   2.091   4.559  0.2727  0.4706 -3.6141
 1040SOL     OW14755   2.644   4.666  13.275 -0.1208  0.1854 -0.1673
 1040SOL    HW114756   2.679   4.641  13.190 -0.0185  1.0919 -0.3911
 1040SOL    HW214757   2.648   0.026  13.264  0.0077  0.2232  0.2186
 1041SOL     OW14758   0.148   2.875  16.245  0.2047  0.3733 -0.1112
 1041SOL    HW114759   0.203   2.805  16.210 -1.1081 -2.0978  2.7809
 1041SOL    HW214760   0.148   2.861  16.339  0.0366 -2.6073 -0.5475
 1042SOL     OW14761   0.665   3.927   9.428  0.0440  0.2754 -0.5253
 1042SOL    HW114762   0.727   3.969   9.488  0.5361  0.0570 -0.8753
 1042SOL    HW214763   0.592   3.941   9.487  0.5332 -0.0340  0.1580
 1043SOL     OW14764   1.354   1.374   7.080 -0.0950 -0.6373 -0.3145
 1043SOL    HW114765   1.399   1.324   7.012  1.1566  0.2806 -0.1487
 1043SOL    HW214766   1.271   1.392   7.036 -0.3154 -0.4601  0.1733
 1044SOL     OW14767   3.129   2.728   8.223  0.3367  0.3194 -0.1701
 1044SOL    HW114768   3.193   2.797   8.203  1.6988  0.1385  3.6128
 1044SOL    HW214769   3.103   2.767   8.306  2.2974 -1.6205  1.3388
 1045SOL     OW14770   3.552   3.466  13.104  0.2925  0.1093  0.4890
 1045SOL    HW114771   3.582   3.376  13.096 -2.0942 -0.8100  1.7296
 1045SOL    HW214772   3.563   3.478  13.198 -1.9676  0.8628  0.6619
 1046SOL     OW14773   3.349   4.428   0.523 -0.2259 -0.6666  0.2092
 1046SOL    HW114774   3.368   4.498   0.585  0.0761 -0.2654 -0.3410
 1046SOL    HW214775   3.436   4.387   0.527  0.0954  0.1071  0.9670
 1047SOL     OW14776   4.564   2.256   1.803 -0.2602  0.1201  0.7286
 1047SOL    HW114777   4.616   2.186   1.842 -0.1223 -0.4729 -0.5355
 1047SOL    HW214778   4.473   2.226   1.807 -0.2848  0.4082  2.3494
 1048SOL     OW14779   0.072   0.752   6.873 -0.8609 -0.0835  0.0234
 1048SOL    HW114780   4.728   0.727   6.921 -0.6587 -1.0272 -0.1355
 1048SOL    HW214781   0.138   0.718   6.933  0.0356  1.5055 -0.0537
 1049SOL     OW14782   3.686   0.653   7.696 -0.2860 -0.0480  0.0117
 1049SOL    HW114783   3.702   0.559   7.689 -0.9180 -0.0486 -1.4951
 1049SOL    HW214784   3.635   0.664   7.616 -0.3480  0.1756  0.0817
 1050SOL     OW14785   2.826   1.323   7.576  0.2496 -0.4344  0.0392
 1050SOL    HW114786   2.850   1.251   7.519  1.8523 -1.1449  1.5760
 1050SOL    HW214787   2.732   1.323   7.559  0.1339 -1.3624  0.6791
 1051SOL     OW14788   0.784   3.130   2.687 -0.0198  0.4479 -0.7363
 1051SOL    HW114789   0.713   3.088   2.736 -0.7913  0.0931 -2.1669
 1051SOL    HW214790   0.831   3.170   2.760 -0.7413 -1.0818  0.5858
 1052SOL     OW14791   3.810   0.703   7.388  0.4682 -0.3957  0.8521
 1052SOL    HW114792   3.878   0.749   7.339 -1.2557 -0.7703 -1.8697
 1052SOL    HW214793   3.810   0.764   7.462  2.7170  0.8274 -0.1476
 1053SOL     OW14794   4.142   3.480   2.238 -0.8225 -0.0864 -0.1561
 1053SOL    HW114795   4.167   3.568   2.266 -1.1125 -0.5208  1.4334
 1053SOL    HW214796   4.083   3.491   2.163 -0.1697  1.7244 -0.4084
 1054SOL     OW14797   2.127   1.452   7.160  0.6270  0.3126  0.5515
 1054SOL    HW114798   2.132   1.362   7.193  2.2881 -0.4498 -1.7163
 1054SOL    HW214799   2.049   1.438   7.105  0.5581 -2.0501  1.2337
 1055SOL     OW14800   0.522   3.912  15.271  0.2843  0.3263  0.0466
 1055SOL    HW114801   0.520   3.908  15.366 -1.0397  3.0205  0.1138
 1055SOL    HW214802   0.433   3.898  15.237 -0.0903  1.1161  0.7122
 1056SOL     OW14803   2.599   3.731   2.208 -0.4775 -0.1938  0.0401
 1056SOL    HW114804   2.608   3.822   2.180 -2.1432  0.1421  0.6090
 1056SOL    HW214805   2.629   3.735   2.299  1.4836 -0.7008 -0.5654
 1057SOL     OW14806   3.125   3.521  13.957 -0.5844 -0.2394 -0.4711
 1057SOL    HW114807   3.095   3.612  13.967  0.2860  0.0204 -0.2454
 1057SOL    HW214808   3.165   3.531  13.871 -0.0119  2.6490  0.1322
 1058SOL     OW14809   4.171   3.148   1.554 -0.6496 -0.1600  0.1742
 1058SOL    HW114810   4.152   3.155   1.460  1.2918 -1.6675 -0.3344
 1058SOL    HW214811   4.099   3.095   1.589 -0.4548  0.2502  1.1882
 1059SOL     OW14812   3.810   4.495  16.143 -0.3162 -0.4889  0.0277
 1059SOL    HW114813   3.804   4.535  16.229  0.3226  0.5554 -0.4105
 1059SOL    HW214814   3.886   4.540  16.106 -0.7358  0.8162  0.7777
 1060SOL     OW14815   0.601   1.580  16.677 -0.4459 -0.3463  0.8016
 1060SOL    HW114816   0.696   1.571  16.677 -0.4331 -0.2081  1.5871
 1060SOL    HW214817   0.602   1.670  16.708 -1.9855  1.0493 -3.1310
 1061SOL     OW14818   0.290   3.339   5.247  0.0681 -0.4241  0.5567
 1061SOL    HW114819   0.305   3.252   5.210  0.2112  0.5555 -1.6523
 1061SOL    HW214820   0.376   3.346   5.291 -0.2805  0.6685  1.0722
 1062SOL     OW14821   4.468   2.969   5.754  0.2394 -0.1427 -0.6557
 1062SOL    HW114822   4.384   2.955   5.798 -0.2854 -0.5534 -1.7893
 1062SOL    HW214823   4.518   2.984   5.834 -0.7874 -0.2021 -0.0150
 1063SOL     OW14824   3.242   3.809   1.189  0.3524 -0.0836 -0.2250
 1063SOL    HW114825   3.226   3.897   1.154 -0.9213 -0.6310 -0.9898
 1063SOL    HW214826   3.333   3.837   1.201  0.5549 -0.8055 -0.1093
 1064SOL     OW14827   1.303   2.247   5.468  0.7591  0.5517  0.0876
 1064SOL    HW114828   1.242   2.249   5.542  1.9070 -1.2404  1.0873
 1064SOL    HW214829   1.376   2.294   5.508  0.0687  0.3360  1.5963
 1065SOL     OW14830   1.461   1.799  15.815 -0.1379  0.1851  0.0224
 1065SOL    HW114831   1.425   1.804  15.727 -0.0793 -0.2528 -0.0252
 1065SOL    HW214832   1.534   1.861  15.810  0.9766 -1.1328  0.0459
 1066SOL     OW14833   4.707   1.768   8.598  0.3911 -0.5617 -0.1331
 1066SOL    HW114834   4.734   1.839   8.541  0.3719  0.5873  1.2911
 1066SOL    HW214835   4.619   1.794   8.627  0.1658 -0.5180 -0.8629
 1067SOL     OW14836   0.550   0.915   8.567 -0.4187  0.0131  0.4598
 1067SOL    HW114837   0.544   0.920   8.662 -2.3686 -0.9998  0.3871
 1067SOL    HW214838   0.589   0.999   8.544 -1.2097  0.4834  0.8699
 1068SOL     OW14839   2.030   2.810  17.255  0.1075  0.3144 -0.0010
 1068SOL    HW114840   2.037   2.902  17.232 -2.9323  1.0185  1.7941
 1068SOL    HW214841   2.030   2.762  17.172  0.3129  1.7625 -0.8385
 1069SOL     OW14842   2.940   3.818   9.189 -0.0258  0.4990  0.9073
 1069SOL    HW114843   3.004   3.833   9.119  0.7082 -1.8731  1.0663
 1069SOL    HW214844   2.860   3.842   9.143  0.9776  1.5547 -0.3118
 1070SOL     OW14845   2.520   1.359  10.319 -0.3237 -0.1442 -0.0652
 1070SOL    HW114846   2.455   1.288  10.314  0.1605 -0.5726 -0.2929
 1070SOL    HW214847   2.601   1.313  10.343 -0.8941 -1.5272 -0.7569
 1071SOL     OW14848   0.396   0.758   7.631 -0.3640  0.4195 -0.0013
 1071SOL    HW114849   0.370   0.838   7.586  0.2047  1.0500  0.7956
 1071SOL    HW214850   0.314   0.710   7.643  0.2104 -0.8672 -1.2563
 1072SOL     OW14851   1.474   0.971   4.621  0.4371  0.2239  0.0797
 1072SOL    HW114852   1.507   1.030   4.688 -1.0884 -0.1277  1.1374
 1072SOL    HW214853   1.446   1.035   4.556 -1.0783  0.8284  1.3328
 1073SOL     OW14854   0.472   2.618   4.450 -0.6840 -0.1108  0.1612
 1073SOL    HW114855   0.544   2.678   4.432 -1.2262  0.1762 -1.0670
 1073SOL    HW214856   0.400   2.679   4.439 -0.4053  0.4345  1.3915
 1074SOL     OW14857   3.994   1.612   4.061 -0.0925 -0.2080 -0.0460
 1074SOL    HW114858   4.026   1.523   4.080 -1.5305 -0.5918  0.5757
 1074SOL    HW214859   3.911   1.582   4.024  0.3933  1.1272 -2.1716
 1075SOL     OW14860   0.745   1.165   6.146  0.1136  0.5686 -0.2997
 1075SOL    HW114861   0.794   1.108   6.086 -0.0171 -0.8819  0.9522
 1075SOL    HW214862   0.678   1.102   6.174  0.4008 -0.6704 -2.3641
 1076SOL     OW14863   2.141   0.748   4.088 -0.2015 -0.4291 -0.4298
 1076SOL    HW114864   2.196   0.826   4.080 -2.2937  1.2094  1.1487
 1076SOL    HW214865   2.149   0.742   4.183 -4.0365 -1.1711 -0.1410
 1077SOL     OW14866   0.951   0.594   3.258 -0.0538 -0.9753  0.0302
 1077SOL    HW114867   0.883   0.655   3.232 -1.3367 -2.2491  0.3873
 1077SOL    HW214868   1.020   0.636   3.206 -1.8330  0.7896 -0.8723
 1078SOL     OW14869   2.150   0.788  11.817  0.4599 -0.1251 -0.4364
 1078SOL    HW114870   2.130   0.714  11.875 -0.9329  1.5193  1.1854
 1078SOL    HW214871   2.185   0.741  11.741 -1.2103 -0.2013 -1.1705
 1079SOL     OW14872   0.307   1.403   8.779 -0.4910 -0.2435 -0.1716
 1079SOL    HW114873   0.250   1.331   8.750 -1.0120  0.3718 -0.6853
 1079SOL    HW214874   0.254   1.482   8.767 -0.3242 -0.3769 -1.8781
 1080SOL     OW14875   2.701   3.225   3.877  0.4803  0.3687  0.3829
 1080SOL    HW114876   2.787   3.226   3.919 -0.1444  1.9659  1.6356
 1080SOL    HW214877   2.714   3.145   3.826  2.4638  1.4344 -0.7726
 1081SOL     OW14878   1.508   1.532   3.269 -0.2475 -0.1518  0.1464
 1081SOL    HW114879   1.528   1.560   3.180  1.8955 -0.5892  0.4721
 1081SOL    HW214880   1.534   1.613   3.315 -1.4365 -0.1931  0.8797
 1082SOL     OW14881   3.573   0.536   4.018  0.1432  0.4413 -0.3628
 1082SOL    HW114882   3.511   0.586   4.071  0.3197 -0.8745  1.0942
 1082SOL    HW214883   3.568   0.580   3.934  1.6109  0.9942 -0.1603
 1083SOL     OW14884   0.120   1.619   8.758 -0.1124 -0.9167 -0.1059
 1083SOL    HW114885   0.076   1.669   8.690  1.1899 -1.5850 -1.4194
 1083SOL    HW214886   0.166   1.690   8.804 -1.6443  0.2356 -0.3460
 1084SOL     OW14887   2.361   3.606   5.781 -0.4745  0.2628 -0.0656
 1084SOL    HW114888   2.446   3.603   5.738 -0.5511  1.6459 -0.3160
 1084SOL    HW214889   2.336   3.693   5.750 -1.6898  0.1352  0.5471
 1085SOL     OW14890   2.403   1.712   6.748 -0.1164 -0.8585  0.0509
 1085SOL    HW114891   2.349   1.785   6.777  2.0952  1.6379 -2.1356
 1085SOL    HW214892   2.366   1.641   6.800 -0.2136 -2.1795 -1.8002
 1086SOL     OW14893   2.589   2.107   1.698 -0.2640 -0.4844 -0.2587
 1086SOL    HW114894   2.589   2.201   1.713  0.4457 -0.7143  1.1822
 1086SOL    HW214895   2.533   2.080   1.772 -0.2313  1.0682  0.3462
 1087SOL     OW14896   2.647   1.557   7.025 -0.0287 -0.1727  0.2661
 1087SOL    HW114897   2.706   1.566   6.951 -2.6031  2.8742 -1.4200
 1087SOL    HW214898   2.708   1.505   7.077  0.6382 -0.2581 -0.6131
 1088SOL     OW14899   0.169   2.065   2.321 -0.0434 -0.0817 -0.0072
 1088SOL    HW114900   0.239   2.072   2.386  0.6815  0.1214 -0.8107
 1088SOL    HW214901   0.113   2.126   2.369  0.3796  0.6758 -0.4720
 1089SOL     OW14902   3.180   3.322   3.367 -0.4773 -0.1014 -0.4527
 1089SOL    HW114903   3.156   3.413   3.385  1.1428  0.6859 -2.2975
 1089SOL    HW214904   3.216   3.300   3.453  0.6611  2.6602 -0.2208
 1090SOL     OW14905   3.198   1.571   8.649  0.1642  0.1693 -0.5191
 1090SOL    HW114906   3.256   1.644   8.631  1.8164 -1.1149 -0.3835
 1090SOL    HW214907   3.191   1.524   8.566 -0.1632 -0.8218  0.0713
 1091SOL     OW14908   3.044   0.931   6.886 -0.3318 -0.2275 -0.0813
 1091SOL    HW114909   3.111   0.928   6.954  0.6125 -0.0928 -1.0079
 1091SOL    HW214910   3.061   0.846   6.847 -1.1154 -0.8033  0.8411
 1092SOL     OW14911   1.533   2.488  16.577 -0.4921 -0.1310 -0.2378
 1092SOL    HW114912   1.587   2.423  16.622 -0.7989 -1.1964 -1.3938
 1092SOL    HW214913   1.463   2.439  16.534 -1.6282  0.8067  0.5654
 1093SOL     OW14914   2.651   1.939   3.448  0.2370  0.4416 -0.5109
 1093SOL    HW114915   2.668   2.023   3.492  0.7920 -0.1014  0.3117
 1093SOL    HW214916   2.732   1.924   3.399  0.6043 -2.7040  1.1045
 1094SOL     OW14917   4.695   1.865  13.640  0.3684  0.9580  0.0180
 1094SOL    HW114918   0.043   1.887  13.599  0.9534  0.0629  0.7126
 1094SOL    HW214919   4.649   1.824  13.567  2.0280  3.0076 -2.1414
 1095SOL     OW14920   1.836   1.044   3.431 -0.3605  0.5623 -0.6669
 1095SOL    HW114921   1.918   1.079   3.395 -0.0631 -0.6049 -1.1038
 1095SOL    HW214922   1.858   0.955   3.458 -0.9090  1.0517  1.4254
 1096SOL     OW14923   2.999   0.239   8.493  0.0939  0.6690  0.1774
 1096SOL    HW114924   3.078   0.246   8.440  0.2285 -1.6342  0.0968
 1096SOL    HW214925   2.949   0.207   8.418  2.7056  0.4878 -1.5051
 1097SOL     OW14926   3.737   3.111   5.423  0.4508 -0.3280  0.2191
 1097SOL    HW114927   3.701   3.178   5.365  2.6798  1.2459  0.6587
 1097SOL    HW214928   3.830   3.123   5.401  0.2858 -1.8345 -1.3110
 1098SOL     OW14929   1.049   3.957   1.057  0.4100  0.2935 -0.0892
 1098SOL    HW114930   1.010   3.963   1.145 -0.5717  2.4417 -0.6683
 1098SOL    HW214931   0.989   4.002   0.998 -0.9401  0.4675  1.3988
 1099SOL     OW14932   3.748   1.058   6.118  0.4016 -0.5423 -0.0285
 1099SOL    HW114933   3.779   1.022   6.035  0.4610  1.2886 -0.8140
 1099SOL    HW214934   3.771   1.151   6.111 -0.6018 -0.3253 -0.4090
 1100SOL     OW14935   2.329   3.758   3.740  0.0404  0.0815 -0.5209
 1100SOL    HW114936   2.268   3.825   3.711 -1.6913 -0.6217  1.5559
 1100SOL    HW214937   2.407   3.798   3.701 -0.3048  3.6776  2.4895
 1101SOL     OW14938   4.294   1.995   8.463 -0.2305  0.0733  0.2357
 1101SOL    HW114939   4.273   2.075   8.414  1.2476 -0.2565 -0.9461
 1101SOL    HW214940   4.206   1.965   8.487 -1.7130  3.2991 -1.1223
 1102SOL     OW14941   3.298   0.286  13.168  0.2829 -0.1965 -0.4303
 1102SOL    HW114942   3.215   0.239  13.177  1.0146 -2.0684 -3.3207
 1102SOL    HW214943   3.339   0.243  13.243 -0.6912  1.8380  1.2557
 1103SOL     OW14944   4.045   1.293   3.818 -0.5666  0.4342 -0.8584
 1103SOL    HW114945   4.116   1.354   3.799 -1.4393  1.7603  0.2198
 1103SOL    HW214946   4.068   1.215   3.767 -1.4173  0.1413 -0.7917
 1104SOL     OW14947   3.673   4.160   2.581 -0.2039 -0.5460  0.4524
 1104SOL    HW114948   3.626   4.157   2.498 -2.0061 -3.8304  1.5884
 1104SOL    HW214949   3.623   4.092   2.627 -0.5468 -0.4119  0.2806
 1105SOL     OW14950   2.449   3.456  10.748 -0.2543  0.1096  0.2568
 1105SOL    HW114951   2.379   3.454  10.683  0.7883 -2.1455 -0.7997
 1105SOL    HW214952   2.437   3.378  10.804  4.6230 -0.9892 -0.2112
 1106SOL     OW14953   0.318   1.530  13.594  0.8060 -0.2081  0.1762
 1106SOL    HW114954   0.292   1.563  13.680 -0.2062 -0.0482 -0.1883
 1106SOL    HW214955   0.378   1.599  13.568 -0.4727  0.6236 -0.5549
 1107SOL     OW14956   0.293   0.708  10.756 -0.1295  0.8108  0.1038
 1107SOL    HW114957   0.362   0.748  10.703  1.3983 -1.3839  0.4416
 1107SOL    HW214958   0.304   0.761  10.836  0.0586 -1.9871  1.9153
 1108SOL     OW14959   1.894   2.638   3.319  0.1282 -0.6304 -0.8154
 1108SOL    HW114960   1.806   2.635   3.357  0.0819  2.7010 -0.6230
 1108SOL    HW214961   1.933   2.719   3.353  0.4047 -0.9512 -0.3683
 1109SOL     OW14962   2.202   1.894   4.118  0.1313 -0.3416 -0.0218
 1109SOL    HW114963   2.153   1.932   4.046  3.2841 -0.7998 -2.4202
 1109SOL    HW214964   2.130   1.865   4.175 -0.6216 -0.2861 -0.9512
 1110SOL     OW14965   0.552   0.974   7.151  0.0288 -0.5291  0.4669
 1110SOL    HW114966   0.567   1.025   7.231  0.7233 -3.1289  1.9713
 1110SOL    HW214967   0.640   0.944   7.128  0.1612  0.8004 -0.7784
 1111SOL     OW14968   4.257   2.020   7.220 -0.3749  0.1538 -0.1716
 1111SOL    HW114969   4.344   2.044   7.253  0.0726 -1.9505  0.1815
 1111SOL    HW214970   4.198   2.083   7.262 -1.9751 -1.6801  0.3661
 1112SOL     OW14971   0.712   1.926  12.475 -0.4899 -0.3592 -0.6198
 1112SOL    HW114972   0.644   1.885  12.422 -1.1692 -1.0945  0.8174
 1112SOL    HW214973   0.673   1.916  12.562  0.6374  0.0845 -0.0651
 1113SOL     OW14974   3.581   4.536   6.257 -1.2303 -0.3178 -0.2931
 1113SOL    HW114975   3.529   4.523   6.336  0.0740  2.1095  0.9802
 1113SOL    HW214976   3.511   4.540   6.192 -0.9616  0.3924 -0.5312
 1114SOL     OW14977   1.902   4.660  15.786 -0.4227  0.4757 -0.0509
 1114SOL    HW114978   1.978   4.656  15.728  0.6991 -2.0378  1.5939
 1114SOL    HW214979   1.927   4.599  15.855  1.4776  1.4630  0.1441
 1115SOL     OW14980   2.633   2.973   2.216  0.2005 -0.2708 -0.2480
 1115SOL    HW114981   2.629   2.878   2.213  0.1052 -0.2959  0.7336
 1115SOL    HW214982   2.727   2.985   2.229  0.2727 -3.0336  1.7195
 1116SOL     OW14983   2.525   2.033  15.167  0.0408  0.2900  0.7547
 1116SOL    HW114984   2.537   2.101  15.101 -0.1935 -1.1753 -0.8065
 1116SOL    HW214985   2.547   1.951  15.122  1.8054  1.8836 -1.3400
 1117SOL     OW14986   4.020   3.844   8.933  0.1898 -0.3278  0.5179
 1117SOL    HW114987   3.995   3.886   8.850 -1.7394  1.7995  2.1988
 1117SOL    HW214988   4.054   3.919   8.981 -1.2457 -0.1508  1.2530
 1118SOL     OW14989   3.230   3.608  12.729 -0.2398  0.2044 -0.5559
 1118SOL    HW114990   3.259   3.681  12.675  1.6744 -1.1152 -1.3027
 1118SOL    HW214991   3.251   3.531  12.675  3.0092 -1.0341  2.4786
 1119SOL     OW14992   1.617   3.164   8.440 -0.4408 -0.4196  0.3455
 1119SOL    HW114993   1.638   3.148   8.348  2.4182  1.0210  0.7407
 1119SOL    HW214994   1.625   3.259   8.432 -3.0949 -0.2707 -0.5604
 1120SOL     OW14995   3.900   3.066   1.422 -0.3888 -0.7591  0.4091
 1120SOL    HW114996   3.834   3.132   1.401  2.1086  1.5936 -0.0744
 1120SOL    HW214997   3.965   3.080   1.353 -1.0602 -2.6905 -0.6155
 1121SOL     OW14998   2.633   4.112   7.665 -0.3980  0.2807 -0.3944
 1121SOL    HW114999   2.654   4.188   7.718 -0.4528 -2.1645  3.1317
 1121SOL    HW215000   2.700   4.113   7.596 -1.0167 -0.1973 -1.0057
 1122SOL     OW15001   0.864   3.997   4.444  0.2592  0.3194  0.1473
 1122SOL    HW115002   0.801   3.925   4.435  1.6962 -1.1606  1.8497
 1122SOL    HW215003   0.848   4.053   4.369  0.4745 -0.1153 -0.2275
 1123SOL     OW15004   0.426   0.175   3.709 -0.1211  0.4312 -0.3753
 1123SOL    HW115005   0.361   0.111   3.680  0.2480 -0.6768  1.2505
 1123SOL    HW215006   0.514   0.140   3.725 -0.6662  0.0933  2.0066
 1124SOL     OW15007   4.588   3.855   7.329  0.0072  0.3189  0.1343
 1124SOL    HW115008   4.643   3.780   7.353 -1.8886 -1.0424  0.2222
 1124SOL    HW215009   4.649   3.924   7.305 -3.1797  2.8202 -0.6367
 1125SOL     OW15010   2.150   2.327   2.646 -0.3421  0.6045 -0.0057
 1125SOL    HW115011   2.111   2.394   2.590  0.9389  1.2083 -0.1937
 1125SOL    HW215012   2.099   2.250   2.622  1.4511 -0.0998 -1.5502
 1126SOL     OW15013   3.286   3.750   6.782  0.3890  0.1590 -0.4897
 1126SOL    HW115014   3.299   3.665   6.741  2.6611  1.0852 -1.7322
 1126SOL    HW215015   3.195   3.740   6.808  1.0282  3.0653  2.8185
 1127SOL     OW15016   2.270   4.425   5.395 -0.3800  0.3694 -0.2904
 1127SOL    HW115017   2.221   4.425   5.477  1.2066  2.0835  0.6721
 1127SOL    HW215018   2.219   4.355   5.355 -0.4950  1.9832 -3.0576
 1128SOL     OW15019   2.738   0.008   1.993 -0.1303  0.7339 -0.2155
 1128SOL    HW115020   2.747   4.665   2.048  1.4623 -0.9921 -2.8741
 1128SOL    HW215021   2.651   0.034   2.023 -0.8781 -1.5031 -0.4069
 1129SOL     OW15022   4.183   1.287   5.328 -0.6351  0.1415 -0.2185
 1129SOL    HW115023   4.213   1.353   5.265 -1.7987 -0.1544 -1.0780
 1129SOL    HW215024   4.114   1.339   5.369 -0.1779  1.2150 -0.8105
 1130SOL     OW15025   2.503   3.543  13.967  0.5653 -0.6376  0.4219
 1130SOL    HW115026   2.412   3.543  13.938  0.4464  1.9123  0.8144
 1130SOL    HW215027   2.500   3.635  13.995 -0.7348 -0.8890  1.1039
 1131SOL     OW15028   3.273   1.154   9.344  0.1938 -0.4275 -0.2044
 1131SOL    HW115029   3.344   1.152   9.409  1.1656  2.1200 -1.1982
 1131SOL    HW215030   3.244   1.244   9.355 -3.0706 -1.7518  1.7876
 1132SOL     OW15031   0.868   4.703   8.264 -0.2043 -0.5364  0.0701
 1132SOL    HW115032   0.877   4.696   8.360  0.4000  0.1986  0.0682
 1132SOL    HW215033   0.830   0.055   8.254 -3.8413 -1.7146  3.8750
 1133SOL     OW15034   4.044   3.300  10.109  0.2558 -0.3663 -0.1027
 1133SOL    HW115035   4.022   3.303  10.016 -1.3787 -2.5504  0.2125
 1133SOL    HW215036   3.978   3.232  10.123 -0.1047 -0.2296 -1.1399
 1134SOL     OW15037   3.566   3.929  11.508  0.1487  0.3759 -0.0030
 1134SOL    HW115038   3.574   4.019  11.475 -1.8425  0.6238  0.1844
 1134SOL    HW215039   3.586   3.942  11.601 -0.2686 -0.9019  0.2637
 1135SOL     OW15040   4.161   1.789   3.806 -0.4438 -0.6192  0.4478
 1135SOL    HW115041   4.091   1.730   3.779  0.1576 -1.7045  1.2677
 1135SOL    HW215042   4.106   1.859   3.841  0.9349  1.1904 -1.0664
 1136SOL     OW15043   4.566   4.664   0.818 -0.1381 -0.5654  0.2001
 1136SOL    HW115044   4.658   4.685   0.804 -0.0692 -1.1331 -0.1762
 1136SOL    HW215045   4.540   0.022   0.818 -1.1767 -0.8531 -0.2899
 1137SOL     OW15046   2.192   1.982   6.278  0.0347  0.1593 -0.0705
 1137SOL    HW115047   2.115   1.988   6.334 -0.8124  0.8629 -1.3127
 1137SOL    HW215048   2.261   1.950   6.335 -1.5410  1.4180  2.5158
 1138SOL     OW15049   1.979   2.938   5.808  1.2647 -0.0109  0.7406
 1138SOL    HW115050   1.973   2.973   5.897 -3.3327  0.2350  0.3466
 1138SOL    HW215051   1.935   2.855   5.826  0.2105  0.1181 -1.2320
 1139SOL     OW15052   2.422   4.208  12.362  0.1444 -0.3957 -0.5349
 1139SOL    HW115053   2.402   4.152  12.287 -2.4573  2.2827 -1.8577
 1139SOL    HW215054   2.455   4.280  12.308  1.5559  1.2481  2.5386
 1140SOL     OW15055   4.326   0.929   7.210  0.0864  0.1476  0.0992
 1140SOL    HW115056   4.316   0.836   7.228  1.5061 -0.0307 -0.0834
 1140SOL    HW215057   4.382   0.938   7.133  0.1517 -0.3225  0.0919
 1141SOL     OW15058   4.567   0.885   3.826  0.0791  0.0510  0.1329
 1141SOL    HW115059   4.629   0.951   3.795  0.4502  0.4476  1.6893
 1141SOL    HW215060   4.589   0.802   3.785  1.4062  0.0939  0.7869
 1142SOL     OW15061   0.950   4.595  15.139 -0.6763 -0.5409 -0.4588
 1142SOL    HW115062   0.917   4.513  15.175 -2.5621  0.9738  1.2963
 1142SOL    HW215063   0.893   4.608  15.063 -0.0269 -0.2826 -0.9108
 1143SOL     OW15064   2.803   4.707   9.393 -0.7808 -0.0991 -0.6009
 1143SOL    HW115065   2.787   0.062   9.419 -0.3440  0.1236 -1.0957
 1143SOL    HW215066   2.840   4.728   9.307 -1.0493  1.2958 -0.3630
 1144SOL     OW15067   3.060   2.164   3.925  0.0749 -0.4057  0.4106
 1144SOL    HW115068   2.976   2.182   3.882  0.4985 -0.6414 -0.5271
 1144SOL    HW215069   3.030   2.143   4.013  0.2497 -2.3347 -0.0003
 1145SOL     OW15070   0.743   3.539   7.414 -0.1479 -0.0582 -0.2945
 1145SOL    HW115071   0.833   3.513   7.392 -0.8884 -0.4815 -2.8738
 1145SOL    HW215072   0.762   3.632   7.400  0.5723 -0.2270 -0.4605
 1146SOL     OW15073   0.168   0.786   8.984  0.3427 -0.1888 -0.0660
 1146SOL    HW115074   0.183   0.746   8.899 -0.7488 -0.7175 -0.0092
 1146SOL    HW215075   0.258   0.794   9.016 -0.2647  0.9075  1.3698
 1147SOL     OW15076   2.743   4.707   7.988  0.3389 -0.5837 -0.0972
 1147SOL    HW115077   2.815   4.653   8.022 -0.0521 -1.7178 -1.0499
 1147SOL    HW215078   2.697   4.643   7.934 -0.2245 -0.2987  0.0526
 1148SOL     OW15079   0.461   4.241  15.196  0.1188 -0.0191 -0.2866
 1148SOL    HW115080   0.554   4.227  15.214 -0.0315 -0.3425  0.2172
 1148SOL    HW215081   0.442   4.152  15.166 -0.2522 -0.3918  1.0699
 1149SOL     OW15082   1.953   1.291  10.864 -0.0678 -0.1915 -0.6091
 1149SOL    HW115083   1.912   1.205  10.866 -2.1878  0.8280 -0.5387
 1149SOL    HW215084   2.038   1.279  10.905 -0.3303 -0.8678 -0.2770
 1150SOL     OW15085   2.482   0.962   4.476  0.2512  0.2178 -0.6054
 1150SOL    HW115086   2.576   0.948   4.485  0.0639 -0.2196  0.6161
 1150SOL    HW215087   2.475   0.939   4.383 -0.0241 -0.9927 -0.2888
 1151SOL     OW15088   4.612   3.360   6.696  0.1816  0.0643  0.6680
 1151SOL    HW115089   4.644   3.445   6.666 -0.3385  0.2058  0.5137
 1151SOL    HW215090   4.695   3.317   6.717 -0.1782 -0.5637  0.8253
 1152SOL     OW15091   2.053   2.072   7.136  0.4255  0.4714 -0.4215
 1152SOL    HW115092   2.105   2.076   7.216  0.9186 -0.7376 -0.6704
 1152SOL    HW215093   2.007   1.989   7.151 -0.0544  0.6236 -1.0695
 1153SOL     OW15094   2.250   3.163   5.180 -0.2179 -0.1483  0.2177
 1153SOL    HW115095   2.246   3.144   5.273  0.6261 -2.2282 -0.1695
 1153SOL    HW215096   2.345   3.170   5.176 -0.0818 -0.8828  2.4163
 1154SOL     OW15097   3.754   3.964   5.603  0.5146  0.3091  0.1386
 1154SOL    HW115098   3.785   3.976   5.693  2.7073 -0.7319 -0.4893
 1154SOL    HW215099   3.687   3.897   5.617 -0.0374  0.8083 -0.0971
 1155SOL     OW15100   3.888   3.650   3.204 -0.5087  0.2077 -0.1796
 1155SOL    HW115101   3.860   3.736   3.173  0.2909  0.6927  0.4376
 1155SOL    HW215102   3.847   3.646   3.290  0.6072 -1.0323  0.2926
 1156SOL     OW15103   1.674   0.251   4.671 -0.2589 -0.6362  1.3065
 1156SOL    HW115104   1.745   0.188   4.658 -0.4012 -1.0484  2.5022
 1156SOL    HW215105   1.620   0.216   4.743 -0.2577 -0.0944  1.5706
 1157SOL     OW15106   2.574   1.248   4.032 -0.5434 -0.2375 -0.3724
 1157SOL    HW115107   2.481   1.269   4.048 -0.2693  0.5844  0.1634
 1157SOL    HW215108   2.616   1.313   4.089  0.2180  0.2707 -1.5237
 1158SOL     OW15109   0.630   1.202   7.873  0.6470  0.0535  0.3198
 1158SOL    HW115110   0.642   1.154   7.955 -1.4100 -1.4202 -0.2512
 1158SOL    HW215111   0.662   1.290   7.893  1.6099 -0.3418  0.5171
 1159SOL     OW15112   1.342   2.965  10.439  0.0843 -0.1089 -0.2055
 1159SOL    HW115113   1.312   2.877  10.416 -0.3068  0.2720 -1.1451
 1159SOL    HW215114   1.261   3.013  10.458  0.3260 -0.0168  0.5810
 1160SOL     OW15115   0.370   3.855   5.081  0.6829  1.1865  0.3289
 1160SOL    HW115116   0.344   3.834   5.171 -0.0686 -0.4513 -0.2650
 1160SOL    HW215117   0.464   3.838   5.079  1.0908  3.9028 -3.6065
 1161SOL     OW15118   2.036   3.238   7.096 -0.2836 -0.1459 -0.1639
 1161SOL    HW115119   2.092   3.316   7.097  0.8367 -0.9838  1.7263
 1161SOL    HW215120   2.062   3.190   7.174 -2.0009 -0.3256  0.3029
 1162SOL     OW15121   2.671   0.257  17.557 -0.7166 -0.0368  0.1422
 1162SOL    HW115122   2.660   0.167  17.526 -0.1839  0.0321 -0.2587
 1162SOL    HW215123   2.677   0.256  17.652  0.7341  1.2257  0.0686
 1163SOL     OW15124   2.844   3.112  13.342  0.1950 -0.4941 -0.0132
 1163SOL    HW115125   2.833   3.194  13.294 -1.0704 -0.3020  0.5907
 1163SOL    HW215126   2.830   3.055  13.266 -1.1864 -0.6978  0.3829
 1164SOL     OW15127   1.226   3.892  15.683 -0.6525 -0.4251 -0.2529
 1164SOL    HW115128   1.164   3.960  15.711  0.1293  0.9215 -1.8155
 1164SOL    HW215129   1.223   3.908  15.588 -0.0930 -1.9880 -0.5248
 1165SOL     OW15130   2.610   1.113  15.633 -0.2028  0.0311  0.4391
 1165SOL    HW115131   2.619   1.040  15.694  0.6168  0.4393  0.8053
 1165SOL    HW215132   2.669   1.081  15.565 -1.3597  0.0826 -0.5890
 1166SOL     OW15133   0.357   2.751   5.755 -0.5003  0.4548  0.3514
 1166SOL    HW115134   0.268   2.755   5.789 -0.6564 -1.4320  0.1768
 1166SOL    HW215135   0.398   2.823   5.802  2.9261 -1.3840  0.1925
 1167SOL     OW15136   4.674   2.519   7.012 -0.1492  0.0158  0.2090
 1167SOL    HW115137   4.712   2.545   6.928 -0.3314 -0.5922 -0.0604
 1167SOL    HW215138   4.733   2.447   7.033 -1.0103 -0.8435 -0.3363
 1168SOL     OW15139   1.649   3.765   5.934  0.3362  0.3164  0.1802
 1168SOL    HW115140   1.678   3.765   6.025 -0.8515  1.5426  0.5535
 1168SOL    HW215141   1.725   3.718   5.898 -0.7361 -0.0906 -1.5704
 1169SOL     OW15142   3.295   1.654   8.986 -0.0452 -0.0791  0.0722
 1169SOL    HW115143   3.376   1.688   9.025 -1.0059  0.2280  1.8250
 1169SOL    HW215144   3.257   1.734   8.948  0.0556 -1.2521 -2.4454
 1170SOL     OW15145   2.031   1.527   4.125 -0.2638 -0.3334 -0.2525
 1170SOL    HW115146   2.002   1.616   4.106 -1.1390 -0.4823  0.4307
 1170SOL    HW215147   2.091   1.546   4.197 -0.7618  3.4946 -0.8380
 1171SOL     OW15148   2.401   4.579   6.116 -0.9958  0.4807  0.2574
 1171SOL    HW115149   2.308   4.591   6.096 -1.3131 -1.1469  0.7374
 1171SOL    HW215150   2.388   4.492   6.154  3.6039 -0.0202  0.7183
 1172SOL     OW15151   2.018   4.701   2.730 -0.2829 -0.3192  0.0221
 1172SOL    HW115152   1.950   4.643   2.766  1.2337 -1.9478  0.2848
 1172SOL    HW215153   2.102   4.659   2.745 -0.5087 -1.7201 -2.5198
 1173SOL     OW15154   4.170   2.687   7.346  0.0420 -0.0232 -0.2133
 1173SOL    HW115155   4.264   2.671   7.355 -0.4765 -1.5620  2.3729
 1173SOL    HW215156   4.137   2.598   7.333  0.4831 -0.3188  0.6660
 1174SOL     OW15157   4.646   2.334   5.260  0.1176 -0.7778 -0.7502
 1174SOL    HW115158   4.681   2.294   5.340  0.6984  0.8478 -0.1906
 1174SOL    HW215159   4.730   2.334   5.214  0.8133 -0.9576  0.5211
 1175SOL     OW15160   3.881   2.924   8.567 -0.1987 -0.0636 -0.3360
 1175SOL    HW115161   3.840   2.841   8.544  0.7944 -1.0602  1.5770
 1175SOL    HW215162   3.857   2.971   8.487  0.9144  0.2688 -0.4750
 1176SOL     OW15163   3.701   1.242   7.709  0.0152  0.0199 -0.2676
 1176SOL    HW115164   3.665   1.157   7.685  1.6881 -0.9692  0.7765
 1176SOL    HW215165   3.796   1.231   7.711  0.2160  1.2759 -2.0920
 1177SOL     OW15166   3.549   3.451   2.132  0.3604 -0.3088  0.1402
 1177SOL    HW115167   3.551   3.532   2.082 -1.0916 -0.1509  0.3447
 1177SOL    HW215168   3.480   3.401   2.090 -0.6855  1.5277 -0.3078
 1178SOL     OW15169   1.685   4.360   5.931 -0.2439  0.0683 -0.3702
 1178SOL    HW115170   1.659   4.450   5.909  1.1547  0.6873  0.5127
 1178SOL    HW215171   1.720   4.371   6.020  0.7124 -0.4743 -0.6852
 1179SOL     OW15172   1.843   3.858  15.362 -0.3075  0.5874  0.7929
 1179SOL    HW115173   1.892   3.917  15.305  0.3223 -0.2698  0.4501
 1179SOL    HW215174   1.862   3.893  15.449 -0.8383 -0.7203  1.4217
 1180SOL     OW15175   4.461   1.086  10.227  0.4525 -0.5147  0.1577
 1180SOL    HW115176   4.408   1.032  10.170  0.2381 -0.7671  0.6005
 1180SOL    HW215177   4.515   1.013  10.256 -1.1130 -0.8205  2.3267
 1181SOL     OW15178   0.756   4.367   2.469 -0.2470  0.4397  0.2300
 1181SOL    HW115179   0.751   4.450   2.515  0.7274 -0.5462  2.1229
 1181SOL    HW215180   0.805   4.394   2.392  2.7577 -0.9243  1.6367
 1182SOL     OW15181   2.226   3.864  11.074 -0.5668 -0.6247 -0.2803
 1182SOL    HW115182   2.303   3.916  11.052 -1.3569  1.3957  1.8523
 1182SOL    HW215183   2.248   3.782  11.028 -0.1144 -0.2807 -0.6824
 1183SOL     OW15184   1.794   4.702   5.164  0.1395  0.0029 -0.8261
 1183SOL    HW115185   1.709   4.678   5.201  1.1419 -2.3302  0.0253
 1183SOL    HW215186   1.838   4.680   5.247  1.9213 -2.7551 -2.5195
 1184SOL     OW15187   2.395   2.814  12.571  0.5284  0.1485 -0.0467
 1184SOL    HW115188   2.447   2.838  12.647 -0.7944 -0.4962  1.0594
 1184SOL    HW215189   2.395   2.718  12.571  0.4289  0.1476  0.8486
 1185SOL     OW15190   2.966   1.411  10.476  0.0623  0.1024 -0.2038
 1185SOL    HW115191   2.950   1.471  10.549  0.9181  1.3748 -1.0552
 1185SOL    HW215192   3.058   1.404  10.502  0.4430  3.2649 -0.6581
 1186SOL     OW15193   0.654   1.790   4.660 -0.4837  0.7064  0.3567
 1186SOL    HW115194   0.711   1.748   4.724 -2.2804 -0.6458  1.0605
 1186SOL    HW215195   0.651   1.723   4.593  0.3367 -0.4371  1.4621
 1187SOL     OW15196   1.688   1.236   7.232  0.3592 -0.2039  0.4725
 1187SOL    HW115197   1.695   1.318   7.282  1.2819  0.0272 -0.0496
 1187SOL    HW215198   1.704   1.270   7.145  0.4373 -0.5078  0.3682
 1188SOL     OW15199   2.544   4.294   0.974  0.0442  0.2859 -0.1260
 1188SOL    HW115200   2.526   4.206   0.939 -0.4620  0.8078 -1.1964
 1188SOL    HW215201   2.556   4.341   0.891 -2.3275 -1.2085 -1.3198
 1189SOL     OW15202   0.796   4.086   8.925 -0.2468  0.3454  0.4038
 1189SOL    HW115203   0.799   4.024   8.997  0.9254 -0.3891 -0.2888
 1189SOL    HW215204   0.820   4.171   8.963 -1.5190  0.5803  0.6932
 1190SOL     OW15205   4.484   3.750   6.577  0.9189 -0.5076 -0.3537
 1190SOL    HW115206   4.498   3.835   6.535  1.5651 -0.6780 -0.4807
 1190SOL    HW215207   4.428   3.705   6.514  1.9967 -0.2823 -1.4723
 1191SOL     OW15208   3.106   1.275   1.426  0.5800  0.0903 -0.3519
 1191SOL    HW115209   3.034   1.252   1.368  0.4222  1.5533 -0.7350
 1191SOL    HW215210   3.184   1.289   1.372 -0.5075  2.6392 -1.2455
 1192SOL     OW15211   1.705   0.026   7.530  0.0041 -0.1579  0.0894
 1192SOL    HW115212   1.786   0.072   7.508  1.2714 -2.8168 -0.8318
 1192SOL    HW215213   1.639   0.062   7.471  0.8645 -1.1278 -1.4651
 1193SOL     OW15214   3.310   2.535  16.084  0.3020 -0.0754  0.8262
 1193SOL    HW115215   3.265   2.587  16.150  1.4783 -3.1858  4.0465
 1193SOL    HW215216   3.389   2.589  16.073 -0.0816  0.0335 -1.4782
 1194SOL     OW15217   3.401   2.015  14.470  0.2559 -0.4571 -0.2160
 1194SOL    HW115218   3.396   1.929  14.429  2.2770 -1.4575  1.6718
 1194SOL    HW215219   3.349   1.998  14.548 -1.3116  1.4292 -0.8506
 1195SOL     OW15220   3.307   1.591  16.408 -0.2410 -0.1387 -0.6819
 1195SOL    HW115221   3.232   1.546  16.369 -0.5105 -0.2910 -0.0042
 1195SOL    HW215222   3.336   1.525  16.471 -1.2697  1.4471  1.4898
 1196SOL     OW15223   0.071   1.908   3.992  0.2465 -0.9423  0.3031
 1196SOL    HW115224   0.079   2.003   4.005 -2.5941 -0.9359  2.0535
 1196SOL    HW215225   0.138   1.892   3.926  0.0789  0.6954 -0.2810
 1197SOL     OW15226   4.485   3.857   2.897 -0.4388  0.3069 -0.2130
 1197SOL    HW115227   4.510   3.881   2.808 -0.1828  0.8796  0.0125
 1197SOL    HW215228   4.419   3.923   2.919  1.4538  2.3425 -0.5892
 1198SOL     OW15229   1.234   2.007   0.342 -0.1353  0.2042 -0.3300
 1198SOL    HW115230   1.279   2.016   0.258  0.4719  0.2224  0.0048
 1198SOL    HW215231   1.249   2.098   0.367 -0.0046  0.1332 -0.1553
 1199SOL     OW15232   0.477   1.513   6.166  0.2297 -0.4512  0.1648
 1199SOL    HW115233   0.415   1.470   6.225  0.5590 -0.4568  0.5074
 1199SOL    HW215234   0.500   1.439   6.110  1.3716 -0.4011  0.5720
 1200SOL     OW15235   3.332   1.299   4.701 -0.5711 -0.0916 -0.0861
 1200SOL    HW115236   3.369   1.387   4.709  0.4833 -0.5225 -0.1750
 1200SOL    HW215237   3.247   1.321   4.665  0.2890 -1.6159 -3.0805
 1201SOL     OW15238   0.737   2.753   4.003  0.5736  0.6041 -0.0913
 1201SOL    HW115239   0.818   2.755   4.054  0.1681  0.0314  0.5837
 1201SOL    HW215240   0.702   2.672   4.042 -1.2351  0.9171 -1.0681
 1202SOL     OW15241   4.363   3.404  10.087  0.3102 -0.1462  0.1023
 1202SOL    HW115242   4.299   3.439  10.150  2.0441 -0.6327  2.1409
 1202SOL    HW215243   4.321   3.331  10.042 -1.4333  0.9743 -0.0845
 1203SOL     OW15244   3.404   3.965   9.358  0.0478  0.4831 -0.1905
 1203SOL    HW115245   3.345   4.036   9.382  0.3310  0.6971 -0.1235
 1203SOL    HW215246   3.359   3.901   9.304 -1.5741  1.0580  0.4944
 1204SOL     OW15247   1.479   1.405   9.607 -0.3976 -0.1022  0.5254
 1204SOL    HW115248   1.493   1.490   9.566  1.7204  0.1810  1.8354
 1204SOL    HW215249   1.449   1.354   9.532  0.4229  0.7721 -0.4083
 1205SOL     OW15250   3.381   0.530   3.569 -0.0326 -0.1305  0.0517
 1205SOL    HW115251   3.337   0.612   3.545 -0.8648 -0.0434  1.8783
 1205SOL    HW215252   3.363   0.465   3.501 -0.3786  0.3873 -0.3619
 1206SOL     OW15253   3.959   1.457   5.489 -0.1267 -0.5202 -0.3716
 1206SOL    HW115254   3.865   1.473   5.503  0.4009  1.7729  0.5411
 1206SOL    HW215255   3.970   1.533   5.432 -2.5124 -1.7705 -2.4931
 1207SOL     OW15256   1.099   3.464   8.219 -0.1201  0.5552  0.5157
 1207SOL    HW115257   1.176   3.429   8.264  0.8265 -1.9972 -3.1491
 1207SOL    HW215258   1.127   3.553   8.201  2.7393 -0.4526  0.0517
 1208SOL     OW15259   2.113   4.028   1.210 -0.1193  0.1658 -0.0432
 1208SOL    HW115260   2.129   3.953   1.154 -3.3572 -1.6340  1.4522
 1208SOL    HW215261   2.146   4.098   1.154  0.9569 -1.8083 -1.8632
 1209SOL     OW15262   2.854   4.095   3.975  0.2610  0.5054  0.0078
 1209SOL    HW115263   2.830   4.045   4.054 -2.4420 -1.8745 -2.3338
 1209SOL    HW215264   2.849   4.030   3.905  0.2129 -0.5949  1.0402
 1210SOL     OW15265   3.136   2.841   9.081  0.0048  0.3203 -0.0781
 1210SOL    HW115266   3.227   2.868   9.069  0.7494 -2.6601 -1.1126
 1210SOL    HW215267   3.084   2.921   9.069  0.1705  0.3506 -0.5885
 1211SOL     OW15268   2.379   2.705   0.724  0.4972  0.0809  0.5440
 1211SOL    HW115269   2.380   2.784   0.777  0.1565  0.1050  0.5149
 1211SOL    HW215270   2.334   2.731   0.643 -0.1109  0.5236  1.0258
 1212SOL     OW15271   2.712   0.061   9.760 -0.3444 -0.5737  0.1337
 1212SOL    HW115272   2.753   0.072   9.846  1.2064  1.7659 -0.9251
 1212SOL    HW215273   2.673   0.148   9.756  1.0148  0.1595  2.8324
 1213SOL     OW15274   4.352   0.857  12.301 -0.2106 -0.5050 -0.3951
 1213SOL    HW115275   4.381   0.867  12.391 -0.3622  1.5721 -0.5819
 1213SOL    HW215276   4.298   0.935  12.288  0.2197 -0.0130  0.8247
 1214SOL     OW15277   2.856   3.635   3.780  0.0218 -0.3574  0.1039
 1214SOL    HW115278   2.949   3.655   3.784  0.1761 -0.8617 -0.8551
 1214SOL    HW215279   2.812   3.718   3.798  0.5855  0.3205 -1.5969
 1215SOL     OW15280   1.942   3.217  14.412 -0.0867  0.1219 -0.3488
 1215SOL    HW115281   1.951   3.127  14.443 -2.5198 -0.0080 -0.0043
 1215SOL    HW215282   2.014   3.228  14.350  0.9871  0.3228  0.9347
 1216SOL     OW15283   4.641   0.831   1.919 -0.1890  0.0728 -0.7254
 1216SOL    HW115284   4.657   0.798   2.007  1.7628  1.9211 -0.3613
 1216SOL    HW215285   4.590   0.759   1.882  0.3543 -0.0389 -1.2626
 1217SOL     OW15286   2.973   2.437   1.581  0.0415  0.3848 -0.6081
 1217SOL    HW115287   3.005   2.478   1.661 -0.8688 -1.4271  0.6662
 1217SOL    HW215288   2.995   2.504   1.516  1.2364  1.1854  0.6190
 1218SOL     OW15289   4.423   1.204   5.082  0.2332  0.0372 -0.6155
 1218SOL    HW115290   4.497   1.264   5.084  1.7248 -1.8663  1.5733
 1218SOL    HW215291   4.350   1.266   5.089 -0.8637 -1.0052 -2.7047
 1219SOL     OW15292   4.227   4.527  12.497  0.0442  0.0850 -0.0268
 1219SOL    HW115293   4.320   4.535  12.479  0.5426 -2.3244  1.4721
 1219SOL    HW215294   4.204   4.528  12.404  0.3874  0.3108 -0.1089
 1220SOL     OW15295   0.017   0.907  11.033  0.5767 -0.4982  0.9437
 1220SOL    HW115296   4.702   0.903  10.952  3.0397  0.4743 -0.6109
 1220SOL    HW215297   4.699   0.966  11.086 -1.3320  1.5093 -3.2691
 1221SOL     OW15298   3.036   1.487   6.910 -0.2144  0.2307 -0.3822
 1221SOL    HW115299   3.007   1.576   6.893  0.2330  0.8849  2.2837
 1221SOL    HW215300   3.071   1.508   6.997  2.3736 -2.0764 -0.8524
 1222SOL     OW15301   0.593   1.421   2.020  0.0619 -0.3140 -0.1082
 1222SOL    HW115302   0.640   1.339   2.006  1.4581  0.4431  0.1825
 1222SOL    HW215303   0.525   1.420   1.952 -1.9421  0.5072  1.8978
 1223SOL     OW15304   3.230   3.204  13.908  0.0436  0.2831  0.3262
 1223SOL    HW115305   3.270   3.238  13.987 -1.2048  1.0059  0.6505
 1223SOL    HW215306   3.149   3.254  13.897  0.1366  0.5133  0.7147
 1224SOL     OW15307   1.099   0.480   6.591 -0.3180  0.5100  0.4405
 1224SOL    HW115308   1.134   0.492   6.503 -0.6628 -3.0569 -0.1932
 1224SOL    HW215309   1.025   0.541   6.585  0.0556  0.9256  0.0977
 1225SOL     OW15310   1.142   2.627   7.880  0.2924 -0.1428 -0.2865
 1225SOL    HW115311   1.141   2.620   7.976  1.3768  1.4154 -0.1601
 1225SOL    HW215312   1.225   2.578   7.875  1.7287  2.0829  1.8758
 1226SOL     OW15313   0.006   4.705   6.138  0.2620  0.5042 -0.0437
 1226SOL    HW115314   4.666   4.663   6.096  0.5685 -0.7276  0.6234
 1226SOL    HW215315   0.059   4.639   6.183  1.4415  0.3468 -1.6549
 1227SOL     OW15316   0.321   3.006   7.895  0.5149 -0.1444  0.1960
 1227SOL    HW115317   0.404   2.982   7.854  0.2096  1.5696 -1.4349
 1227SOL    HW215318   0.347   3.083   7.947  1.2985 -0.9713  1.0365
 1228SOL     OW15319   3.493   1.605   1.965 -0.3456 -0.1714  1.1672
 1228SOL    HW115320   3.404   1.641   1.969 -0.3556 -0.2957  2.0290
 1228SOL    HW215321   3.539   1.680   1.926 -0.8750 -1.5255 -2.0800
 1229SOL     OW15322   3.658   4.361   8.442  0.1698 -0.0759 -0.2288
 1229SOL    HW115323   3.618   4.305   8.509 -0.5924 -1.4588 -1.8053
 1229SOL    HW215324   3.693   4.294   8.383  1.2427 -0.9079  1.3611
 1230SOL     OW15325   2.662   2.314   8.723 -0.4984  0.4614  0.3222
 1230SOL    HW115326   2.625   2.289   8.807 -1.5197 -0.0390 -0.2641
 1230SOL    HW215327   2.605   2.261   8.668  2.2017 -2.1160  0.0315
 1231SOL     OW15328   3.282   0.168  15.611 -0.2007 -0.1733  0.1640
 1231SOL    HW115329   3.254   0.258  15.593  0.6279  0.1173  0.3393
 1231SOL    HW215330   3.351   0.172  15.545 -0.5926 -2.2213 -0.3552
 1232SOL     OW15331   0.912   1.104  15.402 -0.0646 -0.2378 -0.3928
 1232SOL    HW115332   0.858   1.074  15.329  1.1167  0.8130 -1.6871
 1232SOL    HW215333   0.920   1.027  15.457 -0.5899 -0.2642 -0.3528
 1233SOL     OW15334   3.757   2.714   2.227 -0.2550 -0.3257 -0.1657
 1233SOL    HW115335   3.850   2.733   2.215 -0.6158 -1.1390 -4.2836
 1233SOL    HW215336   3.755   2.713   2.322  1.5301  1.2549 -0.1175
 1234SOL     OW15337   0.416   1.980   0.490 -0.1922  0.1121 -0.0150
 1234SOL    HW115338   0.472   1.951   0.562 -2.0464  0.6046  1.6388
 1234SOL    HW215339   0.388   2.064   0.528 -0.0066 -0.1585  0.7223
 1235SOL     OW15340   0.276   0.090   2.576  0.7164 -0.3855 -0.2434
 1235SOL    HW115341   0.329   0.114   2.653 -0.8788 -0.2467  0.8066
 1235SOL    HW215342   0.256   4.735   2.599  0.8265 -0.6645 -1.2671
 1236SOL     OW15343   3.841   1.319   3.596  0.3876  0.1945 -0.3001
 1236SOL    HW115344   3.830   1.224   3.599 -0.7565  0.3439  0.0280
 1236SOL    HW215345   3.890   1.326   3.679  0.1798  1.8521 -0.3242
 1237SOL     OW15346   3.440   2.263  17.652  0.5251  0.3260  0.3732
 1237SOL    HW115347   3.375   2.322  17.691  1.4632  2.2143 -0.9323
 1237SOL    HW215348   3.517   2.319  17.645 -2.9437  4.6584 -3.0485
 1238SOL     OW15349   3.500   4.564   8.358 -0.0870  0.0382  0.2709
 1238SOL    HW115350   3.489   4.546   8.265 -0.1881  1.7325 -0.0423
 1238SOL    HW215351   3.577   4.514   8.384 -0.3982 -1.8577 -2.4238
 1239SOL     OW15352   0.584   0.655  11.168 -0.3913  0.4984 -0.4265
 1239SOL    HW115353   0.534   0.722  11.215 -1.0054 -0.0444 -0.3023
 1239SOL    HW215354   0.589   0.703  11.085 -1.5355  0.2885 -0.6185
 1240SOL     OW15355   0.614   2.855   9.188 -0.4013  0.0589 -0.1098
 1240SOL    HW115356   0.676   2.832   9.119 -0.8033 -0.3821 -0.3265
 1240SOL    HW215357   0.669   2.841   9.264  0.5182 -1.5976 -1.0845
 1241SOL     OW15358   3.100   3.177   6.286 -0.4335 -0.4823 -0.1027
 1241SOL    HW115359   3.167   3.222   6.235 -0.8446  0.2504  0.0195
 1241SOL    HW215360   3.153   3.105   6.321  0.3121 -0.1902 -0.6252
 1242SOL     OW15361   0.828   0.674   6.575  0.1417 -0.1183  0.2839
 1242SOL    HW115362   0.770   0.611   6.533 -0.4333 -0.1083  1.0623
 1242SOL    HW215363   0.818   0.749   6.516  1.8146 -0.1509 -0.0442
 1243SOL     OW15364   0.172   1.942   6.345  0.1775 -0.4078  0.5507
 1243SOL    HW115365   0.180   1.981   6.258  0.1080  0.8279  1.0950
 1243SOL    HW215366   0.230   1.869   6.325 -0.3978 -0.5722 -0.5114
 1244SOL     OW15367   0.517   0.944   7.988  0.1886 -0.3342 -0.1783
 1244SOL    HW115368   0.473   0.978   7.910  0.2706 -2.2511 -1.0549
 1244SOL    HW215369   0.461   0.877   8.025  2.5265 -1.2075  1.7184
 1245SOL     OW15370   0.165   0.698   3.929 -0.2552  0.6434 -0.1188
 1245SOL    HW115371   0.202   0.785   3.939 -1.9117  1.3677 -0.3975
 1245SOL    HW215372   0.137   0.697   3.838  1.3269  2.2106 -0.6191
 1246SOL     OW15373   3.476   1.467   0.104  0.3584  0.3034 -0.0990
 1246SOL    HW115374   3.465   1.554   0.067 -0.4118  0.5836  0.7846
 1246SOL    HW215375   3.462   1.415   0.025  0.1418 -1.1075  0.8530
 1247SOL     OW15376   1.248   3.001   6.517  0.3947 -0.3427  0.2047
 1247SOL    HW115377   1.179   3.005   6.449  2.4107 -1.8082 -1.9150
 1247SOL    HW215378   1.327   3.026   6.470  0.8352  0.8105  1.5793
 1248SOL     OW15379   2.336   2.280   4.655  0.0558  0.3458 -0.0161
 1248SOL    HW115380   2.302   2.318   4.736 -0.2107  0.9449 -0.4026
 1248SOL    HW215381   2.276   2.207   4.643  1.1118 -0.4653 -0.3900
 1249SOL     OW15382   4.056   3.463   2.564  0.1134  0.2829  0.0314
 1249SOL    HW115383   4.112   3.507   2.628  1.5557 -0.5831 -0.6626
 1249SOL    HW215384   4.051   3.532   2.498 -0.3728 -0.6378 -0.8901
 1250SOL     OW15385   4.128   4.358   7.065 -0.2102  0.1203 -0.3734
 1250SOL    HW115386   4.211   4.324   7.031 -0.4532 -1.4165  0.5800
 1250SOL    HW215387   4.138   4.448   7.035  1.2517  0.1771  0.3281
 1251SOL     OW15388   3.611   0.746   5.258 -0.3307 -0.0131 -0.4341
 1251SOL    HW115389   3.644   0.688   5.327 -0.6463 -0.0329 -0.2977
 1251SOL    HW215390   3.530   0.699   5.237  3.1810 -5.5342 -1.5133
 1252SOL     OW15391   2.182   2.544   8.309  0.0300  0.1230  0.5821
 1252SOL    HW115392   2.103   2.536   8.256 -0.2240  0.3465  0.9244
 1252SOL    HW215393   2.236   2.476   8.268 -0.9157 -1.9872  2.8371
 1253SOL     OW15394   2.452   2.087   7.065  0.0836 -0.4486 -0.8796
 1253SOL    HW115395   2.420   2.097   7.155 -0.6860  0.6465 -1.2741
 1253SOL    HW215396   2.375   2.102   7.010 -0.1538 -1.0824 -0.7189
 1254SOL     OW15397   0.517   3.153   3.285  0.0455 -0.3467  0.7268
 1254SOL    HW115398   0.480   3.238   3.309  1.9984  0.6408  0.2633
 1254SOL    HW215399   0.568   3.138   3.365 -0.0852  5.1323  1.7906
 1255SOL     OW15400   4.136   2.793   3.003 -0.5446  0.5464 -0.4494
 1255SOL    HW115401   4.200   2.757   2.943 -0.6412  2.1370 -1.5149
 1255SOL    HW215402   4.081   2.853   2.953 -0.7399 -0.0588 -0.9562
 1256SOL     OW15403   1.455   3.076   6.361  0.4548  0.0678  0.0518
 1256SOL    HW115404   1.517   3.077   6.288  0.9402 -0.2718  0.4626
 1256SOL    HW215405   1.525   3.097   6.423  0.7274 -0.1632 -0.1794
 1257SOL     OW15406   2.345   1.537   6.951  0.4894 -0.0450 -0.8798
 1257SOL    HW115407   2.267   1.505   6.996 -0.5780  0.8585 -2.1074
 1257SOL    HW215408   2.382   1.600   7.013 -0.7020  0.8093 -1.0368
 1258SOL     OW15409   0.139   2.929   4.868  0.4674 -0.7427 -0.4343
 1258SOL    HW115410   0.206   2.862   4.880  0.7446  0.1050  2.7345
 1258SOL    HW215411   0.189   3.003   4.834  1.7603 -0.4027  2.2296
 1259SOL     OW15412   0.088   3.224   9.138 -0.1621  0.5538 -0.4428
 1259SOL    HW115413   0.168   3.244   9.186 -0.7945 -0.0147  0.8470
 1259SOL    HW215414   0.095   3.288   9.068  1.8909  1.0818  0.2665
 1260SOL     OW15415   0.340   4.016   3.079 -0.3549  0.3952 -0.2749
 1260SOL    HW115416   0.404   3.947   3.096 -1.8891 -0.8363  0.5562
 1260SOL    HW215417   0.332   4.004   2.985 -2.2006 -0.4464 -0.0079
 1261SOL     OW15418   4.450   1.916  10.638  0.8773  0.1084  0.0175
 1261SOL    HW115419   4.367   1.942  10.678 -0.2029  0.9953 -2.8138
 1261SOL    HW215420   4.421   1.851  10.574 -0.4445  0.3944  0.3360
 1262SOL     OW15421   1.990   0.944   0.340 -0.1948  0.1464 -0.2248
 1262SOL    HW115422   2.034   0.944   0.255 -0.7493 -0.8970 -0.5079
 1262SOL    HW215423   2.044   0.882   0.389  0.2537 -0.8291 -1.9687
 1263SOL     OW15424   1.163   0.775   1.448 -0.2332 -0.2043  0.0347
 1263SOL    HW115425   1.074   0.755   1.419 -0.0902 -0.1319 -0.4602
 1263SOL    HW215426   1.200   0.754   1.362  0.7159  2.0287 -0.1094
 1264SOL     OW15427   2.571   2.279   5.802 -0.3940  0.5313  0.0687
 1264SOL    HW115428   2.605   2.297   5.715  0.4477  0.6649  0.4186
 1264SOL    HW215429   2.534   2.193   5.783 -0.9730  0.9890 -0.8758
 1265SOL     OW15430   2.900   4.539   5.016  0.1427 -0.1596  0.1323
 1265SOL    HW115431   2.978   4.488   4.994 -0.4174 -0.8086 -0.3368
 1265SOL    HW215432   2.852   4.537   4.933  0.1715  0.6923  0.0948
 1266SOL     OW15433   2.429   0.240  16.130 -0.1606  0.2332  0.2720
 1266SOL    HW115434   2.515   0.217  16.095 -1.4668  0.2919 -2.9217
 1266SOL    HW215435   2.386   0.172  16.079  0.5182  0.4150 -0.5454
 1267SOL     OW15436   1.489   1.754  14.981 -0.5409 -0.4185 -0.7982
 1267SOL    HW115437   1.410   1.752  14.927 -2.0336  0.3562  1.3676
 1267SOL    HW215438   1.511   1.663  14.997 -0.2403 -0.3553 -0.8533
 1268SOL     OW15439   1.584   4.538   7.926  0.0947  0.4438  0.3704
 1268SOL    HW115440   1.585   4.604   7.856  0.7062  0.3480  0.2821
 1268SOL    HW215441   1.574   4.588   8.007  1.1200  0.2950  0.5922
 1269SOL     OW15442   0.677   3.750   8.984 -0.4555  0.0067  0.2646
 1269SOL    HW115443   0.668   3.822   8.922 -0.2636  0.1738  0.4331
 1269SOL    HW215444   0.676   3.799   9.066  0.2325 -0.5781  0.6242
 1270SOL     OW15445   3.088   0.052   6.460 -0.5387 -0.4077  0.3253
 1270SOL    HW115446   2.996   0.026   6.467 -1.1615  1.7066 -0.1303
 1270SOL    HW215447   3.134   4.732   6.524 -1.0423 -0.6328  0.4912
 1271SOL     OW15448   2.318   1.243   3.016  0.2710 -0.2091  0.1146
 1271SOL    HW115449   2.240   1.291   2.989  0.3153 -0.1493  0.0943
 1271SOL    HW215450   2.347   1.297   3.089  0.4162  0.2626 -0.2978
 1272SOL     OW15451   3.569   1.733   5.944 -0.1455 -0.2353 -0.5667
 1272SOL    HW115452   3.499   1.695   5.997  0.3285  1.2070  1.1053
 1272SOL    HW215453   3.644   1.744   6.002 -1.2958  1.2377  0.6380
 1273SOL     OW15454   0.451   1.508   3.670 -0.3281  0.2867  0.2707
 1273SOL    HW115455   0.525   1.568   3.667  0.1777 -0.2445  1.9962
 1273SOL    HW215456   0.383   1.575   3.677 -0.6986 -0.3063  2.1821
 1274SOL     OW15457   0.628   0.266   4.204 -0.5044 -0.1726 -0.2603
 1274SOL    HW115458   0.686   0.194   4.231 -1.6551 -1.2813 -0.7051
 1274SOL    HW215459   0.615   0.326   4.277  3.1906  0.6432 -0.2991
 1275SOL     OW15460   3.586   2.287   0.203 -0.0992 -0.1061  0.2674
 1275SOL    HW115461   3.603   2.323   0.290  1.9980  1.9253 -0.9687
 1275SOL    HW215462   3.495   2.258   0.208 -0.6918  1.9925  1.7405
 1276SOL     OW15463   4.606   1.119   7.636  0.3512  0.1330  0.1729
 1276SOL    HW115464   4.681   1.061   7.629  1.6140  1.6470  1.0900
 1276SOL    HW215465   4.545   1.067   7.584 -0.1433 -1.0088  1.9099
 1277SOL     OW15466   2.927   1.185   1.237 -0.4050  0.1243  0.4736
 1277SOL    HW115467   2.863   1.257   1.233 -0.4839  0.1073  1.4206
 1277SOL    HW215468   2.965   1.180   1.149 -0.8965 -0.4189  0.2979
 1278SOL     OW15469   2.657   2.743   5.771  0.6873 -0.4202 -0.0393
 1278SOL    HW115470   2.680   2.655   5.801 -0.6873 -0.0706  2.0541
 1278SOL    HW215471   2.584   2.779   5.821  0.9385 -1.3744  1.0336
 1279SOL     OW15472   3.749   1.882   9.510 -0.4566 -0.1093 -0.4599
 1279SOL    HW115473   3.770   1.966   9.470 -2.3047  0.2529 -0.6565
 1279SOL    HW215474   3.840   1.859   9.528 -0.2263  1.4745  0.4214
 1280SOL     OW15475   2.435   3.513  15.036 -0.1261  0.2575 -0.0329
 1280SOL    HW115476   2.424   3.423  15.064  1.8928  0.3432  1.0347
 1280SOL    HW215477   2.529   3.532  15.043  0.3228 -2.3634  0.9111
 1281SOL     OW15478   1.254   0.683  14.538  0.3637 -0.8406  0.4349
 1281SOL    HW115479   1.287   0.768  14.566  1.9548  0.2056 -4.5073
 1281SOL    HW215480   1.217   0.696  14.450  1.8317 -0.3553 -0.1206
 1282SOL     OW15481   2.672   1.193   8.382 -0.4911  0.4878  0.1082
 1282SOL    HW115482   2.577   1.202   8.397 -0.6844 -0.8167 -0.3697
 1282SOL    HW215483   2.690   1.233   8.297  1.4241  0.8975  0.7308
 1283SOL     OW15484   1.047   1.488   5.810  0.6499 -0.0072 -0.2172
 1283SOL    HW115485   1.078   1.578   5.804 -2.8797  1.2268  0.1279
 1283SOL    HW215486   1.123   1.444   5.772  0.4508 -0.2401 -0.3481
 1284SOL     OW15487   1.358   1.160   6.246  0.1684 -0.7889  0.2662
 1284SOL    HW115488   1.408   1.239   6.264 -2.3988  0.9690 -0.3620
 1284SOL    HW215489   1.428   1.096   6.262 -1.1409 -1.8317  1.7985
 1285SOL     OW15490   1.147   0.764   2.597 -0.1517  0.0457  0.4361
 1285SOL    HW115491   1.162   0.719   2.680 -0.3197 -0.7677  0.0249
 1285SOL    HW215492   1.059   0.801   2.600  0.1501  0.7939 -0.0241
 1286SOL     OW15493   4.465   3.033   6.142  0.3602  0.0153  0.1644
 1286SOL    HW115494   4.494   3.062   6.229 -0.1359 -0.3534  0.4551
 1286SOL    HW215495   4.528   3.065   6.077  0.6176 -0.8638 -0.0156
 1287SOL     OW15496   0.869   4.609   1.386  0.1507  0.2866  0.3151
 1287SOL    HW115497   0.792   4.662   1.408  0.3971 -0.0250  1.8868
 1287SOL    HW215498   0.934   4.679   1.391  0.8666 -0.4092  0.7162
 1288SOL     OW15499   1.008   3.383   0.090 -0.3025  0.2290 -0.3050
 1288SOL    HW115500   0.991   3.347   0.003 -1.9536  1.8426 -0.6366
 1288SOL    HW215501   1.071   3.452   0.068 -1.8660  1.0910 -2.0784
 1289SOL     OW15502   0.314   4.597  14.587 -0.2027 -0.2610  0.0642
 1289SOL    HW115503   0.379   4.528  14.576 -1.6699 -1.5907 -0.2980
 1289SOL    HW215504   0.258   4.546  14.645 -0.3259  0.2946  0.4374
 1290SOL     OW15505   4.055   3.585  12.964 -0.0620  0.3799  0.3100
 1290SOL    HW115506   3.982   3.523  12.965  0.2788 -0.0241 -0.4773
 1290SOL    HW215507   4.104   3.545  13.036  0.3301  1.0895  0.4437
 1291SOL     OW15508   3.004   4.361   7.658 -0.4783  1.0020  0.4633
 1291SOL    HW115509   2.994   4.432   7.595  3.1511 -0.2610 -1.4960
 1291SOL    HW215510   3.087   4.387   7.698  0.3845  0.9083 -1.2879
 1292SOL     OW15511   0.043   2.320   5.503  0.6304  0.5558 -0.6578
 1292SOL    HW115512   0.041   2.316   5.599  4.0330 -0.4596 -0.6384
 1292SOL    HW215513   0.101   2.395   5.491  2.3691 -0.9597 -1.8663
 1293SOL     OW15514   4.189   2.135   8.832  0.3823  0.2272  0.1772
 1293SOL    HW115515   4.194   2.207   8.895 -0.7136 -0.9556  1.6096
 1293SOL    HW215516   4.266   2.149   8.777  0.5310  1.0353  0.6008
 1294SOL     OW15517   2.179   0.333  13.869 -0.0870 -0.0610 -0.5009
 1294SOL    HW115518   2.259   0.305  13.823  1.2457  2.3129  0.3859
 1294SOL    HW215519   2.112   0.298  13.811 -0.7045  0.4304 -0.0790
 1295SOL     OW15520   4.412   2.785   8.133 -0.1153  0.6297 -0.0601
 1295SOL    HW115521   4.317   2.788   8.124 -0.4994  0.4744  3.7980
 1295SOL    HW215522   4.422   2.775   8.038  2.9761  0.4407  0.2668
 1296SOL     OW15523   0.123   0.689   7.749  0.6861 -0.4942  0.5180
 1296SOL    HW115524   0.037   0.663   7.715 -0.2688  0.9721  1.8309
 1296SOL    HW215525   0.103   0.759   7.811 -0.2585  0.5593 -0.9789
 1297SOL     OW15526   4.665   1.476   6.987  0.0804  0.0544 -0.0874
 1297SOL    HW115527   4.700   1.500   7.072 -0.1563 -0.5223  0.1701
 1297SOL    HW215528   4.639   1.384   6.984  0.6654 -0.0908 -0.8899
 1298SOL     OW15529   0.625   3.805  14.029 -0.9588  0.2909 -0.1218
 1298SOL    HW115530   0.625   3.748  13.952  0.9337 -1.5495  1.2269
 1298SOL    HW215531   0.592   3.883  13.985  1.4312  1.1730 -0.3745
 1299SOL     OW15532   1.047   1.359   9.040  0.2388  0.1521  0.2556
 1299SOL    HW115533   1.131   1.379   9.082 -0.4065 -0.5774  1.8858
 1299SOL    HW215534   1.054   1.395   8.951  2.0495  0.8879  0.6929
 1300SOL     OW15535   2.923   1.870   8.707  0.4435 -1.0831 -0.3887
 1300SOL    HW115536   2.991   1.926   8.671 -1.1320  0.9896 -0.1623
 1300SOL    HW215537   2.976   1.801   8.747  0.2641 -1.7542 -1.3248
 1301SOL     OW15538   3.286   3.763   9.152  0.1412  0.1094  0.8789
 1301SOL    HW115539   3.364   3.708   9.161 -0.1469 -0.2193  1.3752
 1301SOL    HW215540   3.222   3.698   9.180 -1.4224  1.0745 -0.4514
 1302SOL     OW15541   2.498   2.521  16.739  0.1146  0.4411  0.5903
 1302SOL    HW115542   2.589   2.494  16.727  0.2220  0.4047  1.4963
 1302SOL    HW215543   2.508   2.615  16.723  0.0615  0.1379 -1.1692
 1303SOL     OW15544   3.093   3.824   8.560  0.0171 -0.5183 -0.2475
 1303SOL    HW115545   3.077   3.880   8.484  0.0352  1.4762  1.2188
 1303SOL    HW215546   3.066   3.742   8.519 -2.2876  0.9733 -1.7305
 1304SOL     OW15547   2.926   4.268   8.061 -0.0960  0.6349 -0.0694
 1304SOL    HW115548   2.854   4.224   8.106  0.2447 -0.5026 -0.6574
 1304SOL    HW215549   3.005   4.229   8.098 -1.5331 -0.8248  1.4609
 1305SOL     OW15550   0.982   0.484  14.416 -0.2119 -0.2822 -0.4751
 1305SOL    HW115551   1.016   0.572  14.402  0.8458 -0.3801  1.4993
 1305SOL    HW215552   1.005   0.473  14.508  0.7685  0.4480 -0.6348
 1306SOL     OW15553   3.019   4.728   3.066  0.8320 -0.2055 -0.5765
 1306SOL    HW115554   3.084   4.731   3.136  2.9802  0.9517 -2.6224
 1306SOL    HW215555   2.938   4.698   3.106  2.4833 -1.6515  1.6987
 1307SOL     OW15556   0.516   2.264   5.937 -0.2647  0.6551  0.0575
 1307SOL    HW115557   0.453   2.279   5.867 -2.0922 -0.0270  1.5394
 1307SOL    HW215558   0.575   2.336   5.912  3.0835 -1.3951  2.0325
 1308SOL     OW15559   1.362   1.109   7.863 -0.2245 -0.1156  0.2145
 1308SOL    HW115560   1.452   1.088   7.837  0.0740  3.1801 -1.2831
 1308SOL    HW215561   1.339   1.138   7.775  2.9544 -0.6721 -0.8356
 1309SOL     OW15562   1.414   1.712   0.113  0.4482  0.0286 -0.3225
 1309SOL    HW115563   1.379   1.665   0.037 -0.2345 -2.4112  1.5170
 1309SOL    HW215564   1.359   1.685   0.186  1.2628 -1.6696 -0.3402
 1310SOL     OW15565   2.412   1.567  10.444  0.1270 -0.0594 -0.2363
 1310SOL    HW115566   2.473   1.501  10.412 -1.5967 -1.7353 -0.0810
 1310SOL    HW215567   2.461   1.604  10.517  1.2519 -3.9854  0.9786
 1311SOL     OW15568   2.145   3.535   1.726 -0.3265  0.5399 -0.2804
 1311SOL    HW115569   2.118   3.619   1.764  3.2366  0.3973  2.5352
 1311SOL    HW215570   2.087   3.540   1.650 -1.4959  0.7871  0.6290
 1312SOL     OW15571   2.916   2.781  11.919 -0.1896 -0.0732 -0.0777
 1312SOL    HW115572   2.831   2.816  11.893 -0.2698  0.0960  0.4096
 1312SOL    HW215573   2.968   2.862  11.919 -3.0407  1.7570 -2.0579
 1313SOL     OW15574   4.606   4.095   6.906 -0.3981  0.3767 -0.5803
 1313SOL    HW115575   4.599   4.000   6.901 -4.0329  0.6104  0.2081
 1313SOL    HW215576   4.622   4.116   6.814  0.8304  0.3254 -0.3824
 1314SOL     OW15577   0.207   1.801  12.335  0.8683  0.0155  0.4114
 1314SOL    HW115578   0.184   1.889  12.307  1.5407  0.7065  2.0054
 1314SOL    HW215579   0.258   1.832  12.411  0.0165 -1.6212  1.6558
 1315SOL     OW15580   1.131   3.017   2.709  0.7136  0.3278 -0.4479
 1315SOL    HW115581   1.195   3.087   2.722  3.6155 -2.3397 -0.3627
 1315SOL    HW215582   1.081   3.049   2.634 -1.4806  1.2953  1.4206
 1316SOL     OW15583   4.520   0.535   9.306  0.0966  0.3949 -0.3073
 1316SOL    HW115584   4.531   0.563   9.216  0.5806  0.8935 -0.0970
 1316SOL    HW215585   4.481   0.614   9.345 -0.7797  0.7340 -1.8973
 1317SOL     OW15586   2.417   3.129   2.764  0.0974 -0.5351 -0.5197
 1317SOL    HW115587   2.399   3.080   2.844 -1.7445 -1.2205 -1.3442
 1317SOL    HW215588   2.396   3.062   2.700 -1.3452 -1.2032  0.6450
 1318SOL     OW15589   0.195   3.976   7.375 -0.4271  0.1238 -0.0795
 1318SOL    HW115590   0.238   4.054   7.409 -2.4538  0.7932  0.9509
 1318SOL    HW215591   0.125   4.022   7.328  0.7926  2.1232  0.0469
 1319SOL     OW15592   4.699   1.168   2.809 -0.3331  0.1018 -0.2114
 1319SOL    HW115593   0.018   1.176   2.888  2.4277  1.1678 -2.1724
 1319SOL    HW215594   0.024   1.123   2.749 -1.4575  1.0053 -1.9912
 1320SOL     OW15595   1.127   4.580   8.250  0.0264  0.5050  0.0688
 1320SOL    HW115596   1.193   4.633   8.295  0.4429 -1.2837  1.5643
 1320SOL    HW215597   1.049   4.635   8.246 -1.7654 -2.3004 -2.8925
 1321SOL     OW15598   4.106   2.498  11.154 -0.4276  0.1654  0.5705
 1321SOL    HW115599   4.100   2.576  11.100  2.6888  0.4079  0.5830
 1321SOL    HW215600   4.177   2.524  11.212 -0.0340 -0.2799  0.2969
 1322SOL     OW15601   4.111   2.512   0.014 -0.4498 -0.3205 -0.5854
 1322SOL    HW115602   4.049   2.468  17.695 -2.1549  2.4020 -0.7691
 1322SOL    HW215603   4.193   2.483  17.712  0.4243 -0.5991  1.3682
 1323SOL     OW15604   1.302   4.554   7.854 -0.0549  0.2602  0.2434
 1323SOL    HW115605   1.385   4.603   7.854 -1.9473  3.4840  2.0081
 1323SOL    HW215606   1.310   4.503   7.934  0.1005  0.6467  0.4773
 1324SOL     OW15607   1.771   2.344   0.347  0.1882 -1.0787  0.5568
 1324SOL    HW115608   1.787   2.435   0.320  0.5847 -1.2602  0.1688
 1324SOL    HW215609   1.858   2.319   0.314  1.1414 -1.2600  3.2438
 1325SOL     OW15610   0.785   3.337   2.516  0.2878  0.1632 -1.0787
 1325SOL    HW115611   0.774   3.248   2.550  1.5402  0.6728  0.6210
 1325SOL    HW215612   0.741   3.387   2.584  1.7616 -1.9983  1.4353
 1326SOL     OW15613   2.001   2.391   3.350 -0.0728  0.2566 -0.4994
 1326SOL    HW115614   1.965   2.479   3.337  0.4703  0.4477 -0.7252
 1326SOL    HW215615   2.000   2.343   3.267 -0.9621 -1.4528  0.5165
 1327SOL     OW15616   0.463   2.758  11.213 -0.0401 -0.0968  0.0342
 1327SOL    HW115617   0.555   2.737  11.197  0.1250  0.2441  0.5427
 1327SOL    HW215618   0.431   2.705  11.140 -1.5049 -1.2648  1.5222
 1328SOL     OW15619   1.121   1.286   6.323 -0.0839 -0.3570 -0.3094
 1328SOL    HW115620   1.186   1.221   6.298  1.8855  1.4726  0.1374
 1328SOL    HW215621   1.103   1.250   6.410 -1.9229 -0.4570 -0.7264
 1329SOL     OW15622   3.713   2.760  16.756  0.5466 -0.1436  0.3453
 1329SOL    HW115623   3.712   2.668  16.728 -0.1496 -0.9550  3.0493
 1329SOL    HW215624   3.619   2.775  16.763  0.1499 -1.1714 -2.4114
 1330SOL     OW15625   2.483   1.516  10.728  0.3059 -0.1146 -0.2927
 1330SOL    HW115626   2.483   1.422  10.708 -2.3901  0.0690 -1.1471
 1330SOL    HW215627   2.393   1.525  10.757 -0.3019  2.3307 -3.0759
 1331SOL     OW15628   3.666   2.820   5.974  0.9695  0.0109 -0.0120
 1331SOL    HW115629   3.666   2.743   6.031 -1.3922  0.6544  0.8302
 1331SOL    HW215630   3.735   2.808   5.909  0.3213 -0.1608 -0.6713
 1332SOL     OW15631   2.751   1.812   9.535 -0.4359 -0.5705  0.1918
 1332SOL    HW115632   2.840   1.845   9.541 -0.0445 -1.3432 -1.4170
 1332SOL    HW215633   2.772   1.739   9.477  0.8892 -0.0234 -0.0184
 1333SOL     OW15634   3.983   3.127   3.916  0.0456  0.2391  0.1976
 1333SOL    HW115635   3.916   3.191   3.940  0.0360  0.0883  0.5698
 1333SOL    HW215636   3.931   3.049   3.899  0.1645 -0.2381  2.0668
 1334SOL     OW15637   2.499   4.342  12.842 -0.2755 -0.0233  0.2246
 1334SOL    HW115638   2.494   4.369  12.933 -2.1423 -3.8133  1.2578
 1334SOL    HW215639   2.502   4.246  12.849 -2.4773 -0.0908  0.2218
 1335SOL     OW15640   1.245   2.452   6.893 -0.0686 -0.2477  0.3971
 1335SOL    HW115641   1.213   2.433   6.981 -1.0556 -1.4970 -0.2268
 1335SOL    HW215642   1.266   2.366   6.858 -0.3862  0.1689 -0.8234
 1336SOL     OW15643   0.522   3.042   4.546  0.0657  0.0346  0.4423
 1336SOL    HW115644   0.545   3.076   4.460  2.6670 -2.9026 -0.0198
 1336SOL    HW215645   0.533   2.949   4.529 -0.1158  0.1811 -0.4359
 1337SOL     OW15646   2.234   1.649  10.249  1.1526  0.8658  0.0196
 1337SOL    HW115647   2.287   1.598  10.188 -0.3511 -1.0949  0.3186
 1337SOL    HW215648   2.292   1.641  10.324 -0.3472  1.9604  1.3016
 1338SOL     OW15649   2.999   3.114   9.039  0.2719  0.1978 -0.4703
 1338SOL    HW115650   3.003   3.209   9.029 -2.9341  0.2380 -1.4529
 1338SOL    HW215651   2.962   3.087   8.954  1.4719 -0.0365 -0.9224
 1339SOL     OW15652   3.445   3.648   4.574  0.0473  0.0376  0.0046
 1339SOL    HW115653   3.471   3.740   4.572 -1.3447  0.4725  2.3939
 1339SOL    HW215654   3.352   3.657   4.594  0.2908 -1.3172  1.7908
 1340SOL     OW15655   1.145   3.126  10.547  0.2740 -0.0077 -0.2412
 1340SOL    HW115656   1.139   3.104  10.640 -1.5454  0.6160 -0.2206
 1340SOL    HW215657   1.053   3.137  10.522  1.0114 -0.7459 -3.2980
 1341SOL     OW15658   3.416   4.184   9.648 -1.1218  0.0821 -0.3220
 1341SOL    HW115659   3.471   4.234   9.587  0.1470 -1.0980 -0.1354
 1341SOL    HW215660   3.365   4.134   9.585 -0.6382  0.0251 -0.6765
 1342SOL     OW15661   4.325   4.120   9.224 -0.0376 -0.2687  0.0186
 1342SOL    HW115662   4.402   4.064   9.231 -1.0784 -1.6501  0.4581
 1342SOL    HW215663   4.347   4.187   9.288  0.6112  0.0805 -0.5742
 1343SOL     OW15664   3.963   2.002  13.781  0.2432 -0.2357  0.1699
 1343SOL    HW115665   3.948   2.053  13.860  2.4314 -1.5273  1.4317
 1343SOL    HW215666   3.995   2.074  13.726  0.8318 -1.2430 -0.8072
 1344SOL     OW15667   4.574   2.983  16.501  0.0170 -0.3192 -0.2871
 1344SOL    HW115668   4.501   3.036  16.535 -0.4251 -0.2075 -1.4076
 1344SOL    HW215669   4.570   3.007  16.409 -0.5921 -0.5900 -0.3342
 1345SOL     OW15670   1.820   1.218   2.621  0.0934  0.3483  0.3565
 1345SOL    HW115671   1.817   1.138   2.569  0.1342  1.0236 -0.6769
 1345SOL    HW215672   1.809   1.179   2.708 -1.0797 -0.9774 -0.3896
 1346SOL     OW15673   3.299   0.749   3.437 -0.0007 -0.2615 -0.2589
 1346SOL    HW115674   3.250   0.772   3.358  0.0021  0.1843 -0.1319
 1346SOL    HW215675   3.321   0.838   3.466  1.0205 -0.9763  1.1486
 1347SOL     OW15676   0.224   4.492   0.823 -0.4785 -0.6317  0.6413
 1347SOL    HW115677   0.184   4.441   0.753  0.6163 -1.6026  0.7136
 1347SOL    HW215678   0.315   4.505   0.796 -0.7077 -0.2816  0.0501
 1348SOL     OW15679   3.765   3.689   3.462  0.0223 -0.5667  0.6778
 1348SOL    HW115680   3.753   3.783   3.478 -0.0896 -0.6410  1.0391
 1348SOL    HW215681   3.812   3.674   3.544 -0.0877 -0.3236  0.7856
 1349SOL     OW15682   0.692   3.466   8.136 -0.1081  0.5891  0.2105
 1349SOL    HW115683   0.736   3.516   8.205  0.3092  1.9293 -1.0156
 1349SOL    HW215684   0.640   3.529   8.086 -0.8430 -1.8418 -2.0805
 1350SOL     OW15685   4.605   3.315  15.601 -0.1472  0.1139  0.0065
 1350SOL    HW115686   4.605   3.405  15.635 -1.3719  0.2424 -0.3339
 1350SOL    HW215687   4.516   3.290  15.627  0.2395 -0.4525  0.7540
 1351SOL     OW15688   2.513   0.670   8.566  0.0155 -0.1802 -0.0329
 1351SOL    HW115689   2.475   0.608   8.502  0.3300  1.7989 -2.1457
 1351SOL    HW215690   2.595   0.690   8.521  0.4240 -1.9179 -0.0555
 1352SOL     OW15691   3.298   1.751  15.589  0.0575  0.0569 -0.4637
 1352SOL    HW115692   3.239   1.825  15.572  1.0744  0.6920 -1.1901
 1352SOL    HW215693   3.345   1.779  15.667 -0.8887  1.3194 -0.3404
 1353SOL     OW15694   1.583   1.554   2.996  0.4950  0.1866  0.3481
 1353SOL    HW115695   1.508   1.520   2.946  1.7868  0.5097 -1.8097
 1353SOL    HW215696   1.610   1.634   2.950 -0.7106  0.9767  1.0080
 1354SOL     OW15697   2.752   3.959   7.857  0.0324 -0.6215 -0.1532
 1354SOL    HW115698   2.699   4.031   7.825 -0.8592 -1.7535 -1.2210
 1354SOL    HW215699   2.702   3.930   7.933 -1.7502  1.3892 -0.5653
 1355SOL     OW15700   1.667   1.804   0.199  0.0949  0.0156 -0.4431
 1355SOL    HW115701   1.580   1.775   0.175  0.6217 -0.2759 -2.0110
 1355SOL    HW215702   1.671   1.880   0.140  1.2652 -0.7924 -1.4242
 1356SOL     OW15703   0.777   0.732   8.915 -0.1560  0.1719  0.7222
 1356SOL    HW115704   0.751   0.737   9.007 -0.2931 -1.4447  0.7786
 1356SOL    HW215705   0.736   0.810   8.877  2.7252  2.0766  1.5007
 1357SOL     OW15706   2.928   4.337   6.432  0.3123 -0.5678 -0.5743
 1357SOL    HW115707   2.955   4.308   6.345  0.3272  0.4633 -0.9167
 1357SOL    HW215708   2.873   4.262   6.456 -0.1630 -0.7418 -2.2015
 1358SOL     OW15709   4.405   1.028   8.970  0.0237 -0.1946 -0.0107
 1358SOL    HW115710   4.419   1.117   9.003 -0.6351 -0.8445  1.9979
 1358SOL    HW215711   4.432   0.975   9.045 -0.8038  0.0382  0.4589
 1359SOL     OW15712   1.085   1.832   4.945 -0.5263 -0.2983  0.3447
 1359SOL    HW115713   1.146   1.825   5.019 -0.5323  0.6233  0.4424
 1359SOL    HW215714   1.120   1.767   4.884 -1.8697 -0.6427 -0.0465
 1360SOL     OW15715   0.710   1.041   2.332  0.2054  0.3157  0.0182
 1360SOL    HW115716   0.803   1.021   2.337  0.0507 -0.5701 -0.6726
 1360SOL    HW215717   0.705   1.108   2.400  1.0510  1.6322 -1.2247
 1361SOL     OW15718   0.162   3.600   4.308  0.0306 -0.2837  0.0793
 1361SOL    HW115719   0.148   3.663   4.237  1.4570  1.1365  1.0572
 1361SOL    HW215720   0.147   3.666   4.375  0.6700 -0.3663  0.2996
 1362SOL     OW15721   0.691   1.591   1.726 -0.3480 -0.5964  0.1608
 1362SOL    HW115722   0.633   1.611   1.653  0.6169  0.4027 -0.3326
 1362SOL    HW215723   0.691   1.496   1.725  1.4887 -0.5868 -0.8006
 1363SOL     OW15724   0.474   1.749  12.907  0.3173  0.0532  0.4550
 1363SOL    HW115725   0.499   1.759  12.999 -2.8535 -0.7477  1.3990
 1363SOL    HW215726   0.437   1.660  12.903  2.9928 -1.0080 -0.8134
 1364SOL     OW15727   1.876   2.096   8.333 -0.3146  0.3619  0.0732
 1364SOL    HW115728   1.851   2.158   8.264 -0.3381 -0.5521 -0.7445
 1364SOL    HW215729   1.895   2.016   8.283  1.4412  1.1933 -0.5955
 1365SOL     OW15730   1.376   4.389   6.780 -0.2024 -0.2143 -0.5276
 1365SOL    HW115731   1.325   4.402   6.700 -0.2649 -0.5374 -0.5421
 1365SOL    HW215732   1.378   4.478   6.814  1.0170 -0.3657 -0.2107
 1366SOL     OW15733   0.972   4.663   8.540  0.2775  0.2143  0.3104
 1366SOL    HW115734   0.942   4.647   8.629 -2.2618 -2.1303 -0.9667
 1366SOL    HW215735   1.057   4.619   8.539  0.0107 -0.2328 -2.1797
 1367SOL     OW15736   4.548   2.550   1.777  0.1484 -0.7251  0.3753
 1367SOL    HW115737   4.531   2.560   1.871  1.1667  0.6048  0.4141
 1367SOL    HW215738   4.554   2.455   1.768  1.0050 -0.6294  0.0080
 1368SOL     OW15739   0.774   4.234   9.318 -0.2032 -0.3275  0.0887
 1368SOL    HW115740   0.818   4.275   9.393 -0.1986  0.8572 -0.5604
 1368SOL    HW215741   0.769   4.142   9.345  0.2850 -0.4669 -0.2972
 1369SOL     OW15742   3.180   1.660   4.487 -0.2976 -0.3721  0.5773
 1369SOL    HW115743   3.136   1.575   4.497 -0.2394 -0.7093 -1.8624
 1369SOL    HW215744   3.104   1.716   4.470  2.1163  1.8159 -2.8413
 1370SOL     OW15745   3.146   4.441  11.267 -0.3967 -0.6160  0.0617
 1370SOL    HW115746   3.199   4.414  11.342 -0.9531 -1.4907  0.1405
 1370SOL    HW215747   3.132   4.362  11.214 -0.6272  0.7606 -1.9189
 1371SOL     OW15748   0.503   4.215   0.828  0.2461  0.0686  0.0917
 1371SOL    HW115749   0.586   4.175   0.802  0.4541  1.3397 -1.2459
 1371SOL    HW215750   0.497   4.174   0.914 -0.1008 -0.8190 -0.3547
 1372SOL     OW15751   2.391   3.675   2.064  0.1653 -0.0530  0.3557
 1372SOL    HW115752   2.377   3.581   2.070  0.1057 -0.1654 -1.4659
 1372SOL    HW215753   2.481   3.687   2.095 -0.3227  1.8889  1.0116
 1373SOL     OW15754   4.488   3.173  16.931  0.1257 -0.7698 -0.0378
 1373SOL    HW115755   4.579   3.190  16.907 -0.3108  0.2161 -1.0115
 1373SOL    HW215756   4.486   3.207  17.020 -1.2690  0.7592 -0.6517
 1374SOL     OW15757   0.025   0.667   6.321  0.2288 -0.7609 -0.3519
 1374SOL    HW115758   0.071   0.685   6.403 -0.8347  1.0575 -0.1701
 1374SOL    HW215759   0.050   0.743   6.269  0.1952 -0.6502 -0.2066
 1375SOL     OW15760   1.359   3.589   4.041 -0.2221  0.7371 -0.2066
 1375SOL    HW115761   1.297   3.644   4.089 -0.4354  1.5245 -1.3678
 1375SOL    HW215762   1.316   3.572   3.957  0.6551 -0.5026 -0.3968
 1376SOL     OW15763   2.155   2.358   1.515  0.2268  0.7748  0.0717
 1376SOL    HW115764   2.202   2.425   1.565  1.7943 -0.6957  0.5706
 1376SOL    HW215765   2.075   2.410   1.507  0.0471  0.4977  0.0594
 1377SOL     OW15766   1.661   4.630   1.082 -0.0810  0.0204 -0.7348
 1377SOL    HW115767   1.718   4.562   1.117 -0.9033  0.1933  0.9835
 1377SOL    HW215768   1.583   4.581   1.059 -1.0488  0.5440  1.4081
 1378SOL     OW15769   4.636   0.076   2.799  0.2287  0.3595 -0.1154
 1378SOL    HW115770   4.550   0.109   2.822 -0.0258 -1.4433  1.5181
 1378SOL    HW215771   4.680   0.081   2.884  0.4041 -2.0469 -0.0751
 1379SOL     OW15772   1.692   3.428  13.419  0.5684  0.0351 -0.4590
 1379SOL    HW115773   1.627   3.390  13.479 -0.7839  0.8346 -1.4030
 1379SOL    HW215774   1.659   3.431  13.329  0.8242 -1.0585 -0.5826
 1380SOL     OW15775   2.335   2.324   9.073  0.3764 -0.2395  0.0436
 1380SOL    HW115776   2.303   2.340   8.984  1.2288 -1.4828 -0.4870
 1380SOL    HW215777   2.264   2.365   9.122 -1.3316 -1.7785 -1.1113
 1381SOL     OW15778   3.744   2.026  15.159 -0.0403  0.0071  0.1953
 1381SOL    HW115779   3.655   2.055  15.140  0.6506  1.8245 -0.2192
 1381SOL    HW215780   3.727   1.933  15.148  1.1647 -0.1450 -0.3391
 1382SOL     OW15781   0.471   2.956   8.618 -0.3060  0.3533  0.0175
 1382SOL    HW115782   0.424   3.031   8.655  2.0419  2.9367 -2.1900
 1382SOL    HW215783   0.400   2.895   8.599  1.2934 -1.6927  0.5655
 1383SOL     OW15784   0.962   3.713   2.610  0.4586  0.1454 -0.0775
 1383SOL    HW115785   0.937   3.746   2.524  0.3979 -0.0652 -0.1393
 1383SOL    HW215786   0.907   3.769   2.664 -1.3658 -0.0651 -1.7340
 1384SOL     OW15787   1.269   1.139   6.705 -0.1838  0.2928 -0.3349
 1384SOL    HW115788   1.190   1.165   6.658 -0.6944  0.7669  0.7930
 1384SOL    HW215789   1.272   1.044   6.698 -0.4538  0.2021  0.8587
 1385SOL     OW15790   0.425   0.440  11.243  0.1279 -0.5066 -0.3780
 1385SOL    HW115791   0.369   0.434  11.165 -2.5333 -0.6281  1.5135
 1385SOL    HW215792   0.465   0.525  11.224 -2.4708  0.6501 -0.6843
 1386SOL     OW15793   2.836   1.525   1.302  0.3071  0.0362  0.5631
 1386SOL    HW115794   2.903   1.587   1.272  0.9442  0.5971  3.1536
 1386SOL    HW215795   2.829   1.528   1.397  2.4161  0.7988  0.6932
 1387SOL     OW15796   3.055   4.045  16.104 -0.1991 -0.5674  0.0848
 1387SOL    HW115797   3.103   4.097  16.168  0.8341  2.2480 -3.0050
 1387SOL    HW215798   3.131   4.003  16.065  0.3496 -0.3513  0.9168
 1388SOL     OW15799   0.326   1.057   4.808  0.5301 -0.0359 -0.5790
 1388SOL    HW115800   0.339   0.972   4.767  0.7204  0.0978 -0.7950
 1388SOL    HW215801   0.259   1.100   4.754 -0.6652 -1.5113 -0.2657
 1389SOL     OW15802   0.029   0.809  13.624 -0.0435 -0.3356  0.1650
 1389SOL    HW115803   0.105   0.852  13.663 -0.9792  0.0864  1.5614
 1389SOL    HW215804   4.723   0.768  13.701  1.6602 -1.3128  0.5385
 1390SOL     OW15805   2.896   1.518  11.153  0.0571 -0.4375  0.6562
 1390SOL    HW115806   2.893   1.613  11.158 -0.8271 -0.4189 -0.2537
 1390SOL    HW215807   2.957   1.494  11.084 -1.5217 -2.4227 -0.0785
 1391SOL     OW15808   4.681   0.707  11.227  0.1043  0.2015 -0.4481
 1391SOL    HW115809   4.707   0.628  11.179  0.9974 -0.2598  0.7757
 1391SOL    HW215810   4.716   0.767  11.161  2.3615 -1.2975 -0.6507
 1392SOL     OW15811   2.787   1.379   6.860 -0.2492  0.2234  0.2283
 1392SOL    HW115812   2.863   1.436   6.862 -0.6838  0.7610  1.4065
 1392SOL    HW215813   2.803   1.305   6.920 -1.2282 -0.9071 -0.8976
 1393SOL     OW15814   3.474   0.698   4.932  0.3099 -0.2871  0.0554
 1393SOL    HW115815   3.461   0.646   4.853  0.7891 -0.7338  0.2728
 1393SOL    HW215816   3.569   0.705   4.937  0.3646 -0.8655 -0.1794
 1394SOL     OW15817   3.184   4.381   7.173  0.4543  0.1868  0.0796
 1394SOL    HW115818   3.233   4.442   7.118  0.0368 -0.0100 -0.5105
 1394SOL    HW215819   3.136   4.323   7.114 -0.6053  0.0180  1.1079
 1395SOL     OW15820   3.040   2.642   0.362  0.3201 -0.0336  0.4885
 1395SOL    HW115821   3.041   2.621   0.268 -1.0463 -1.3100  0.7678
 1395SOL    HW215822   2.947   2.649   0.383 -0.1965 -0.8477 -1.4617
 1396SOL     OW15823   4.573   1.754   8.306  0.2512  0.2392  0.2791
 1396SOL    HW115824   4.585   1.775   8.399  6.4295  2.4110 -1.0379
 1396SOL    HW215825   4.622   1.825   8.265  1.3534 -0.9368 -0.4249
 1397SOL     OW15826   1.614   2.184   2.540  0.7309 -0.4400  0.5041
 1397SOL    HW115827   1.522   2.191   2.565  1.3002  2.5316  1.8350
 1397SOL    HW215828   1.631   2.264   2.489  1.9470 -2.3337 -2.0832
 1398SOL     OW15829   3.568   1.693   8.129  0.1036 -0.3298  0.2904
 1398SOL    HW115830   3.545   1.635   8.201  1.7765 -0.5907  0.6150
 1398SOL    HW215831   3.655   1.717   8.161  0.6152 -0.3863 -1.0504
 1399SOL     OW15832   1.628   0.447   3.991 -0.1491 -0.4275 -0.2223
 1399SOL    HW115833   1.571   0.481   4.059 -1.0895 -0.1329 -1.1691
 1399SOL    HW215834   1.636   0.527   3.939  1.0445 -1.0348 -0.9835
 1400SOL     OW15835   2.314   3.463   8.463 -0.2323  0.1291  0.0042
 1400SOL    HW115836   2.343   3.429   8.548  1.2511 -0.1340 -0.6073
 1400SOL    HW215837   2.377   3.418   8.407  1.2349  2.4020 -0.1925
 1401SOL     OW15838   4.032   2.671   1.591 -0.1160  0.0531  0.2635
 1401SOL    HW115839   4.124   2.648   1.574 -0.1962 -0.9001  1.1424
 1401SOL    HW215840   4.037   2.733   1.663 -0.7836  1.1353 -0.6189
 1402SOL     OW15841   3.828   2.550   6.404 -0.0669  0.2345 -0.4259
 1402SOL    HW115842   3.840   2.463   6.442  2.0267  1.3758  1.5474
 1402SOL    HW215843   3.907   2.587   6.443  0.7282 -2.4644  0.5389
 1403SOL     OW15844   1.425   3.150   3.106 -0.4384  0.2014  0.7611
 1403SOL    HW115845   1.443   3.194   3.190  1.7991 -0.0280  0.3993
 1403SOL    HW215846   1.394   3.067   3.141 -0.1708 -0.1705  0.1032
 1404SOL     OW15847   3.344   2.771   4.584 -0.2732  0.0573 -0.1384
 1404SOL    HW115848   3.406   2.837   4.555  0.9753 -1.0943 -0.1091
 1404SOL    HW215849   3.357   2.766   4.679  0.7727  0.6995 -0.2584
 1405SOL     OW15850   0.736   0.189   7.196  0.9766 -0.1343  0.7251
 1405SOL    HW115851   0.644   0.205   7.177  1.3553  0.6038 -0.5057
 1405SOL    HW215852   0.752   0.222   7.284  1.9032  0.7566  0.2274
 1406SOL     OW15853   2.770   1.616   8.950 -0.0069 -0.4621  0.3127
 1406SOL    HW115854   2.838   1.671   8.912 -0.0723  0.0731  0.9609
 1406SOL    HW215855   2.699   1.680   8.958  0.5538  0.2093 -0.1693
 1407SOL     OW15856   0.220   1.610  11.270  0.0777 -0.1456  0.0057
 1407SOL    HW115857   0.209   1.657  11.354  0.8839  0.1825 -0.0758
 1407SOL    HW215858   0.156   1.661  11.220  0.0931  0.5217  0.6634
 1408SOL     OW15859   2.715   4.562   8.580  0.1341 -0.3888  0.0399
 1408SOL    HW115860   2.643   4.553   8.517  1.2104 -1.5079 -1.0315
 1408SOL    HW215861   2.762   4.635   8.541  0.7701 -0.5877  0.4271
 1409SOL     OW15862   2.987   2.837   1.592 -0.0203 -0.0051  0.5048
 1409SOL    HW115863   2.981   2.831   1.687 -2.4903 -0.6320  0.2980
 1409SOL    HW215864   2.974   2.930   1.575  0.2366  0.3325  2.2200
 1410SOL     OW15865   4.164   3.778   6.115  0.1317 -0.5947  0.2482
 1410SOL    HW115866   4.118   3.783   6.199 -1.1280  2.1282 -0.6005
 1410SOL    HW215867   4.092   3.751   6.058 -0.9016 -0.6608  1.5761
 1411SOL     OW15868   4.722   0.080   8.148 -0.0102 -0.2342 -0.0597
 1411SOL    HW115869   0.028   0.134   8.080 -1.7637 -1.2332 -1.9036
 1411SOL    HW215870   4.629   0.096   8.132 -0.2250 -1.4474 -0.0283
 1412SOL     OW15871   3.798   1.627   0.091 -0.3721 -0.3190  0.0853
 1412SOL    HW115872   3.757   1.713   0.091 -0.0506 -0.1701  0.6117
 1412SOL    HW215873   3.758   1.586   0.014  0.4446  0.7637 -0.9080
 1413SOL     OW15874   2.525   1.404   5.407  0.5867 -0.3983 -0.3903
 1413SOL    HW115875   2.468   1.329   5.391  2.8544 -2.6808  2.2192
 1413SOL    HW215876   2.458   1.472   5.413  1.3871  0.3043  0.5587
 1414SOL     OW15877   1.111   1.159   4.407  0.0547  0.7478 -0.1028
 1414SOL    HW115878   1.020   1.152   4.435 -1.1569  2.2381 -3.7354
 1414SOL    HW215879   1.104   1.162   4.312  1.5779  0.1845 -0.2379
 1415SOL     OW15880   1.939   2.525   6.103  0.2021 -0.5752  0.6415
 1415SOL    HW115881   2.029   2.493   6.091  0.1118 -0.7229  0.3711
 1415SOL    HW215882   1.957   2.580   6.179  0.1566 -0.3943  0.5193
 1416SOL     OW15883   1.506   4.448   9.133 -0.3102 -0.0491 -0.2008
 1416SOL    HW115884   1.534   4.460   9.042 -0.2163  2.5052  0.1665
 1416SOL    HW215885   1.440   4.379   9.123 -1.2209  0.7667  0.1837
 1417SOL     OW15886   3.989   1.220   7.659 -0.0960 -0.7633 -0.3105
 1417SOL    HW115887   4.012   1.261   7.742  1.7752 -2.3153 -0.0602
 1417SOL    HW215888   4.032   1.282   7.600 -0.8044 -0.0659 -0.0955
 1418SOL     OW15889   1.432   1.507   6.547 -0.3448 -0.3737 -0.5280
 1418SOL    HW115890   1.419   1.594   6.509  0.7200  0.1398  0.3054
 1418SOL    HW215891   1.339   1.492   6.568  0.9835 -5.2079  1.8583
 1419SOL     OW15892   1.154   2.057  15.563  0.1820 -0.0635  0.0661
 1419SOL    HW115893   1.177   2.040  15.655  0.1127  2.6803  0.5983
 1419SOL    HW215894   1.155   2.152  15.573 -0.4624  0.1710 -2.2281
 1420SOL     OW15895   0.491   2.373   3.684  0.0065 -0.6539 -0.0224
 1420SOL    HW115896   0.467   2.304   3.623  3.2938 -2.1696  0.3990
 1420SOL    HW215897   0.477   2.325   3.766 -1.3605  0.7194  0.5468
 1421SOL     OW15898   4.313   3.302   9.542 -0.0544 -0.2366 -0.2056
 1421SOL    HW115899   4.230   3.257   9.551 -0.6007  0.9471  0.8090
 1421SOL    HW215900   4.346   3.258   9.464  1.1862 -0.2491  0.3152
 1422SOL     OW15901   3.733   2.062  16.551 -0.0944  0.5722  0.4718
 1422SOL    HW115902   3.728   1.990  16.613  0.9744  1.4104  1.5226
 1422SOL    HW215903   3.667   2.035  16.487  1.7952 -1.1757 -0.6958
 1423SOL     OW15904   2.660   2.908   5.549 -0.0105  0.0652  0.4932
 1423SOL    HW115905   2.679   2.816   5.533 -0.3356  0.0168  0.3666
 1423SOL    HW215906   2.596   2.902   5.620 -1.3129  1.3275 -0.5631
 1424SOL     OW15907   2.193   3.779   2.198  0.2984  0.0161 -0.2018
 1424SOL    HW115908   2.273   3.739   2.165  1.8906  1.6804  1.6802
 1424SOL    HW215909   2.172   3.743   2.284 -2.5445  0.6203 -0.6365
 1425SOL     OW15910   1.968   0.882   7.237 -0.4484  0.1334 -0.5831
 1425SOL    HW115911   1.952   0.968   7.275  2.4934  0.9011 -1.0741
 1425SOL    HW215912   1.927   0.881   7.151  0.5806 -1.7991 -1.0682
 1426SOL     OW15913   1.350   1.054   3.726 -0.5311 -0.9229  0.1204
 1426SOL    HW115914   1.416   1.060   3.795 -0.2792 -0.9795 -0.1150
 1426SOL    HW215915   1.389   0.986   3.670  1.0131  2.0931 -2.4729
 1427SOL     OW15916   3.520   1.564  14.271 -0.0077 -0.0991 -0.0644
 1427SOL    HW115917   3.605   1.600  14.295 -0.3634  0.9014 -0.2896
 1427SOL    HW215918   3.539   1.471  14.280 -0.2327 -0.0728  0.6531
 1428SOL     OW15919   2.538   0.478  13.489 -0.3445  0.5211  0.5222
 1428SOL    HW115920   2.571   0.553  13.439 -0.5058 -0.4764 -1.0406
 1428SOL    HW215921   2.620   0.475  13.539 -0.0561 -1.8901 -0.1146
 1429SOL     OW15922   1.412   2.859  11.457 -0.6266  0.0511  0.3798
 1429SOL    HW115923   1.325   2.845  11.418 -0.4414 -1.2682  0.4419
 1429SOL    HW215924   1.406   2.813  11.540 -0.5290 -0.3066  0.1874
 1430SOL     OW15925   0.508   4.443   4.632 -0.5526  0.2796 -0.1873
 1430SOL    HW115926   0.470   4.531   4.640 -0.5565  0.1418  1.4689
 1430SOL    HW215927   0.600   4.470   4.633 -1.3652  3.0978 -1.3221
 1431SOL     OW15928   1.736   1.292   2.019 -0.4541 -0.1863 -0.3531
 1431SOL    HW115929   1.819   1.314   2.061 -0.6632 -1.3272  0.6246
 1431SOL    HW215930   1.757   1.289   1.925  0.5878  0.8688 -0.1556
 1432SOL     OW15931   2.526   2.792   1.750 -0.0596  0.3052  0.6418
 1432SOL    HW115932   2.609   2.806   1.795  1.4558 -0.4070 -1.9324
 1432SOL    HW215933   2.505   2.707   1.788 -1.1319  0.6774  0.8842
 1433SOL     OW15934   3.327   3.731   1.507 -0.3637 -0.8018  0.0481
 1433SOL    HW115935   3.304   3.640   1.526 -1.1266 -0.6398 -0.0794
 1433SOL    HW215936   3.238   3.765   1.501 -0.6514 -1.7346 -0.9823
 1434SOL     OW15937   3.800   0.854   5.907  0.0549  0.0342  0.5396
 1434SOL    HW115938   3.756   0.859   5.822 -0.1653 -0.9048  0.5997
 1434SOL    HW215939   3.889   0.866   5.875 -0.6036 -0.2340 -1.4287
 1435SOL     OW15940   2.930   2.216   6.889  0.2911  0.0118 -0.4575
 1435SOL    HW115941   2.998   2.272   6.924  0.9748 -0.1698 -1.4966
 1435SOL    HW215942   2.924   2.149   6.957  2.0836 -1.2261 -1.5349
 1436SOL     OW15943   1.535   3.510   1.574  0.2234 -0.2349  0.4931
 1436SOL    HW115944   1.597   3.449   1.615  0.9861  0.9288  1.0861
 1436SOL    HW215945   1.463   3.447   1.574  1.0451 -1.1940  2.0191
 1437SOL     OW15946   3.338   0.058   3.138  0.1783  0.4669 -0.1501
 1437SOL    HW115947   3.353   0.034   3.229  1.6451  0.8463 -0.2843
 1437SOL    HW215948   3.430   0.067   3.111  0.1635 -1.5822 -0.8825
 1438SOL     OW15949   1.452   0.133  16.998 -0.2046 -0.1134 -0.1397
 1438SOL    HW115950   1.513   0.168  17.064  1.2091 -1.2467 -0.8482
 1438SOL    HW215951   1.371   0.153  17.045  0.1807  2.1359 -0.4393
 1439SOL     OW15952   0.235   4.173   5.337  0.2164 -0.3171  0.0031
 1439SOL    HW115953   0.141   4.161   5.320  0.0625  0.4082  0.3497
 1439SOL    HW215954   0.258   4.224   5.259 -2.2504  0.6642 -0.0713
 1440SOL     OW15955   0.346   0.408   8.764  0.0456  0.4969 -0.1612
 1440SOL    HW115956   0.286   0.370   8.828  0.4117 -1.8643 -1.1848
 1440SOL    HW215957   0.397   0.330   8.741  1.1975  1.7145 -1.7572
 1441SOL     OW15958   3.068   0.415   6.086  0.0300  0.2928 -0.1394
 1441SOL    HW115959   3.033   0.337   6.042 -0.1451 -1.2899  2.8160
 1441SOL    HW215960   2.984   0.452   6.112  0.1760  1.1466 -0.8745
 1442SOL     OW15961   4.557   0.549   3.935  0.2995  0.0282 -0.2390
 1442SOL    HW115962   4.631   0.534   3.995 -1.8282  0.3355  2.4644
 1442SOL    HW215963   4.551   0.643   3.954  2.2324  0.3350 -1.1488
 1443SOL     OW15964   4.229   0.818   3.604  0.1261 -0.5044 -0.0359
 1443SOL    HW115965   4.158   0.767   3.564 -1.1880  1.1968  0.1114
 1443SOL    HW215966   4.231   0.766   3.684  2.4630  0.4759  0.5532
 1444SOL     OW15967   1.490   2.026   6.904 -0.3379 -0.6674  0.0827
 1444SOL    HW115968   1.570   2.069   6.875 -0.5369 -0.1569  0.2810
 1444SOL    HW215969   1.491   1.948   6.849 -0.7763 -0.7324  0.1637
 1445SOL     OW15970   0.341   2.653   7.721  0.0734 -0.2541 -0.0311
 1445SOL    HW115971   0.405   2.723   7.709  0.3226 -0.5950 -0.6923
 1445SOL    HW215972   0.325   2.660   7.815 -0.0974 -0.2326 -0.0625
 1446SOL     OW15973   2.565   0.753  14.453 -0.1051 -0.3694  0.1532
 1446SOL    HW115974   2.505   0.778  14.382 -0.9273 -1.5350  0.4201
 1446SOL    HW215975   2.576   0.660  14.430 -0.2781 -0.1333 -0.8982
 1447SOL     OW15976   1.259   0.534  15.296 -0.2273 -0.1399 -0.4401
 1447SOL    HW115977   1.193   0.596  15.328 -1.5783 -0.2494 -2.9971
 1447SOL    HW215978   1.329   0.599  15.294  0.2702 -0.6030  1.5568
 1448SOL     OW15979   1.110   1.754   8.632  0.0142 -0.0768 -0.4079
 1448SOL    HW115980   1.018   1.778   8.649 -0.4469 -1.4931 -0.9276
 1448SOL    HW215981   1.085   1.690   8.565 -1.0116 -0.1982  0.0837
 1449SOL     OW15982   4.097   3.736   5.268 -0.2700 -0.0794  0.4153
 1449SOL    HW115983   4.092   3.655   5.319  0.8947 -0.2468  0.2678
 1449SOL    HW215984   4.146   3.707   5.192 -0.5499  2.6215 -0.7603
 1450SOL     OW15985   3.695   3.749   9.285 -0.6340  0.4988 -0.9855
 1450SOL    HW115986   3.677   3.800   9.364  0.7149  0.3796 -0.6050
 1450SOL    HW215987   3.786   3.772   9.266  0.7292 -3.0873  1.3514
 1451SOL     OW15988   3.182   4.662   7.041  1.0239 -0.4517  0.3471
 1451SOL    HW115989   3.277   4.653   7.043  0.9517 -0.8649  1.9348
 1451SOL    HW215990   3.159   4.642   6.950 -0.1965  0.8494  0.3739
 1452SOL     OW15991   3.814   1.221   4.675  0.0323 -0.1084  0.3442
 1452SOL    HW115992   3.747   1.199   4.740 -1.5580  1.3774 -0.8104
 1452SOL    HW215993   3.767   1.181   4.601 -1.7538  1.3858  0.6702
 1453SOL     OW15994   2.225   0.861   7.048 -0.8051  0.7636 -0.0831
 1453SOL    HW115995   2.232   0.784   6.991 -0.1737  1.7109 -1.2974
 1453SOL    HW215996   2.174   0.913   6.986 -0.2380  0.9586 -0.3852
 1454SOL     OW15997   4.163   3.862   9.393  0.5529 -0.1087  0.1962
 1454SOL    HW115998   4.256   3.842   9.394  0.9361  1.6339 -0.8300
 1454SOL    HW215999   4.117   3.827   9.469  1.7288 -1.7466  0.1351
 1455SOL     OW16000   3.501   0.329   2.588 -0.2526 -0.0039 -0.1938
 1455SOL    HW116001   3.441   0.302   2.657 -1.2924  0.7588 -0.7889
 1455SOL    HW216002   3.445   0.381   2.530 -1.9156  0.6205  2.0096
 1456SOL     OW16003   2.413   4.640   3.478  0.3775 -0.4030 -0.3928
 1456SOL    HW116004   2.414   4.683   3.563 -1.8963  1.6541 -1.4044
 1456SOL    HW216005   2.319   4.636   3.465  0.3600  1.0923 -0.7766
 1457SOL     OW16006   1.637   0.187  16.431 -0.1045 -0.3395  0.2201
 1457SOL    HW116007   1.628   0.199  16.337 -0.1910 -0.3643  0.2251
 1457SOL    HW216008   1.546   0.169  16.453  0.0859 -1.3048  0.2401
 1458SOL     OW16009   2.070   4.524   2.341  0.1659  0.2409 -0.2316
 1458SOL    HW116010   2.122   4.604   2.343  1.6008 -0.7139  1.0070
 1458SOL    HW216011   2.143   4.476   2.300  0.1793 -0.6622  0.8664
 1459SOL     OW16012   3.732   4.250   7.011 -0.2485 -0.6316  0.0625
 1459SOL    HW116013   3.770   4.330   6.975 -0.4987 -0.3379  0.4564
 1459SOL    HW216014   3.806   4.230   7.069  1.2542 -0.6791 -1.8808
 1460SOL     OW16015   1.353   3.312   6.019  0.1777  0.7765  0.6243
 1460SOL    HW116016   1.418   3.346   5.957  0.4592  1.3694  1.2409
 1460SOL    HW216017   1.279   3.367   5.993 -0.1575  1.0856  2.2221
 1461SOL     OW16018   2.726   1.681   7.552  0.1016  0.0345  0.1249
 1461SOL    HW116019   2.724   1.650   7.642  1.7492  2.3616  0.9683
 1461SOL    HW216020   2.633   1.697   7.535  0.2888 -0.4529 -1.3193
 1462SOL     OW16021   0.792   2.107   1.826 -0.1485  0.4364 -0.4492
 1462SOL    HW116022   0.793   2.017   1.793 -2.2416  0.1197  0.4019
 1462SOL    HW216023   0.710   2.127   1.782 -0.9803 -0.5560  0.6559
 1463SOL     OW16024   0.383   4.698   1.967 -0.0435 -0.0996 -0.4740
 1463SOL    HW116025   0.343   4.616   1.936 -1.8790  0.5948  0.0654
 1463SOL    HW216026   0.437   4.669   2.041  0.4508 -1.0052 -1.1897
 1464SOL     OW16027   1.266   1.376   3.311 -0.2269 -0.7209 -0.1339
 1464SOL    HW116028   1.257   1.401   3.219  1.0322 -2.3949 -0.6984
 1464SOL    HW216029   1.358   1.397   3.326 -0.4112 -0.6401  0.9269
 1465SOL     OW16030   4.188   1.906   5.070 -0.8791 -0.4160  0.7018
 1465SOL    HW116031   4.166   1.999   5.065  0.1712 -0.1013  1.9412
 1465SOL    HW216032   4.237   1.906   5.152 -0.1447 -0.4627  0.2647
 1466SOL     OW16033   3.509   0.689  13.646  0.1244 -0.4046  0.3360
 1466SOL    HW116034   3.457   0.667  13.568 -1.1532 -0.5911  1.2511
 1466SOL    HW216035   3.446   0.733  13.703 -0.9718 -0.1488 -1.0676
 1467SOL     OW16036   1.330   1.168   2.098  0.2690  0.2694  0.4484
 1467SOL    HW116037   1.374   1.122   2.026  0.9235 -1.9419  2.2704
 1467SOL    HW216038   1.324   1.093   2.157 -0.2785 -0.2178 -0.2173
 1468SOL     OW16039   2.476   1.031   2.057  0.4599  0.4013  0.1120
 1468SOL    HW116040   2.475   1.126   2.069  0.4904  0.2829  1.0476
 1468SOL    HW216041   2.428   1.025   1.974  0.8229 -0.6308 -0.0157
 1469SOL     OW16042   3.023   3.435  12.392 -0.1482 -0.0566  0.3842
 1469SOL    HW116043   2.997   3.527  12.397 -0.0881  0.0489 -1.4937
 1469SOL    HW216044   2.938   3.402  12.420 -1.1444  1.7368 -0.5392
 1470SOL     OW16045   3.898   4.029  11.512  0.4727  0.2745 -0.1279
 1470SOL    HW116046   3.850   3.949  11.537  3.2116 -1.8581 -1.6567
 1470SOL    HW216047   3.816   4.079  11.513 -0.5594 -1.3566 -2.4422
 1471SOL     OW16048   2.515   1.323   6.801  0.1586  0.2484 -0.0831
 1471SOL    HW116049   2.606   1.350   6.814  0.3967 -0.7145  0.2528
 1471SOL    HW216050   2.479   1.409   6.820  0.2414  0.9761 -3.2085
 1472SOL     OW16051   2.904   0.579   1.445 -0.2872  0.2411 -0.2320
 1472SOL    HW116052   2.848   0.565   1.368 -1.6255  2.2646  0.3806
 1472SOL    HW216053   2.906   0.491   1.485 -1.0320  1.1186  1.7588
 1473SOL     OW16054   3.051   2.808  13.524 -0.0777 -0.1656 -0.2262
 1473SOL    HW116055   3.050   2.793  13.430 -0.0235 -2.9123  0.2054
 1473SOL    HW216056   2.970   2.777  13.564  0.0479 -2.3241 -1.6851
 1474SOL     OW16057   3.921   4.394   6.354 -0.1926  0.0456 -0.8028
 1474SOL    HW116058   3.884   4.428   6.435  1.7659 -2.6784  1.2099
 1474SOL    HW216059   3.991   4.335   6.381  0.8340  0.5363 -2.3552
 1475SOL     OW16060   3.043   1.566   8.123 -0.0650 -0.5138 -0.2648
 1475SOL    HW116061   3.124   1.591   8.077  0.1995 -0.0449  0.4560
 1475SOL    HW216062   2.990   1.632   8.078  1.8265  1.2122  0.0209
 1476SOL     OW16063   1.314   3.657   5.148  0.1144 -0.1039 -0.6714
 1476SOL    HW116064   1.348   3.655   5.059 -0.8554  1.0706 -1.0710
 1476SOL    HW216065   1.373   3.598   5.194 -0.9344 -1.4218 -0.9988
 1477SOL     OW16066   0.389   1.462  11.792  0.1893 -0.2402 -0.5873
 1477SOL    HW116067   0.476   1.438  11.762  0.2678  0.0845 -0.6283
 1477SOL    HW216068   0.333   1.389  11.766 -0.6820 -0.0062  0.6392
 1478SOL     OW16069   0.714   0.101   8.550 -0.2078 -0.1808 -0.1570
 1478SOL    HW116070   0.642   0.108   8.612 -0.7193  2.1070 -1.0013
 1478SOL    HW216071   0.711   0.012   8.516 -0.0472  0.4419 -1.7803
 1479SOL     OW16072   2.495   0.724  16.003  0.5019  0.5933 -0.6735
 1479SOL    HW116073   2.552   0.654  16.034 -1.4357 -1.1394 -1.0604
 1479SOL    HW216074   2.420   0.675  15.969  0.9401 -1.4360  1.3247
 1480SOL     OW16075   1.466   2.749   6.580 -0.4070 -0.8354  0.1114
 1480SOL    HW116076   1.476   2.769   6.673  2.4669  2.6991 -0.9886
 1480SOL    HW216077   1.396   2.683   6.576 -0.9601 -0.2683  0.3429
 1481SOL     OW16078   2.474   4.394   4.626  0.2237 -0.2370  0.4205
 1481SOL    HW116079   2.473   4.483   4.593  0.1461 -0.3802  0.0445
 1481SOL    HW216080   2.386   4.396   4.664 -0.1645 -1.2364 -0.4232
 1482SOL     OW16081   0.335   1.708   2.885 -0.6077 -0.6518 -0.2860
 1482SOL    HW116082   0.340   1.688   2.792  3.2375  1.4813 -0.5161
 1482SOL    HW216083   0.424   1.689   2.918 -0.0120  0.4648 -1.2845
 1483SOL     OW16084   0.869   1.870   2.752  0.1637  0.1164  0.0050
 1483SOL    HW116085   0.902   1.829   2.832 -0.8808 -1.8305 -0.5830
 1483SOL    HW216086   0.950   1.920   2.738  0.1467 -0.0362 -0.6155
 1484SOL     OW16087   2.002   4.221   8.901  0.1339  0.0044  0.1171
 1484SOL    HW116088   2.008   4.155   8.832 -0.1383 -1.5465  1.5761
 1484SOL    HW216089   2.071   4.189   8.958 -1.0849 -1.6980  0.6195
 1485SOL     OW16090   3.255   4.078   3.407  0.1080  0.0000  0.4643
 1485SOL    HW116091   3.227   4.005   3.351  1.9449 -0.0249 -0.4377
 1485SOL    HW216092   3.254   4.039   3.494  3.3433 -0.1362  0.4297
 1486SOL     OW16093   2.538   3.190   5.887 -0.1628 -0.3505  0.3639
 1486SOL    HW116094   2.551   3.153   5.974 -3.3115 -1.1239  0.5113
 1486SOL    HW216095   2.578   3.275   5.904 -4.7154  1.2705  2.8317
 1487SOL     OW16096   4.151   2.859  12.165  0.0381 -0.2767  0.1372
 1487SOL    HW116097   4.156   2.940  12.114  3.2581 -0.7421 -0.2448
 1487SOL    HW216098   4.117   2.890  12.249  0.4872 -0.3122  0.3284
 1488SOL     OW16099   3.166   2.621  16.314  0.0690 -0.0273 -0.0113
 1488SOL    HW116100   3.129   2.704  16.284  0.3234  0.2096  0.3202
 1488SOL    HW216101   3.102   2.559  16.279  3.2502 -2.7090 -1.0524
 1489SOL     OW16102   3.673   0.913  14.177 -0.2299 -0.8332  0.2218
 1489SOL    HW116103   3.743   0.856  14.144 -0.0311 -1.9286  2.5420
 1489SOL    HW216104   3.662   0.969  14.100  0.6196  0.6078  1.1343
 1490SOL     OW16105   2.569   2.068  14.407 -0.1165 -0.0122 -0.1962
 1490SOL    HW116106   2.592   1.996  14.347 -0.8180  0.2540 -0.7775
 1490SOL    HW216107   2.641   2.124  14.379  0.6978 -0.5400  0.8235
 1491SOL     OW16108   0.599   4.470   5.812  1.0707  0.2076 -0.1283
 1491SOL    HW116109   0.649   4.551   5.817 -0.4424  1.0627  0.8613
 1491SOL    HW216110   0.540   4.480   5.886 -0.5757  0.3849 -1.4728
 1492SOL     OW16111   2.708   4.076   8.834  0.2036  0.3389  0.7200
 1492SOL    HW116112   2.759   4.050   8.757 -1.3452  2.4210 -1.0390
 1492SOL    HW216113   2.621   4.077   8.792  0.5759 -1.7685 -0.0899
 1493SOL     OW16114   1.805   3.688   4.380  0.0106 -0.0615 -0.5894
 1493SOL    HW116115   1.900   3.674   4.390 -0.5723 -3.3369  0.3680
 1493SOL    HW216116   1.803   3.782   4.396  3.5165  0.2050 -1.5932
 1494SOL     OW16117   2.119   1.560   5.279  0.4780 -0.0777  0.4942
 1494SOL    HW116118   2.095   1.650   5.300 -1.0457 -0.1544 -0.9607
 1494SOL    HW216119   2.133   1.569   5.184  1.9153 -0.7373  0.6492
 1495SOL     OW16120   0.525   3.206  10.409  0.5999 -0.0239 -0.6016
 1495SOL    HW116121   0.453   3.267  10.396  0.3429 -0.1414  0.2312
 1495SOL    HW216122   0.480   3.127  10.439  2.0542 -1.0321 -1.0352
 1496SOL     OW16123   3.765   1.612   2.714 -0.5955  0.0430 -0.1589
 1496SOL    HW116124   3.677   1.634   2.685 -0.0061 -1.0430 -2.7622
 1496SOL    HW216125   3.813   1.676   2.662  0.0297  0.9655  1.5387
 1497SOL     OW16126   1.044   1.579   5.090  0.3162  0.6430  0.4619
 1497SOL    HW116127   0.999   1.582   5.006  1.3534  0.9354 -0.0856
 1497SOL    HW216128   0.977   1.545   5.150  0.1549 -0.0412 -0.1134
 1498SOL     OW16129   1.578   2.780   5.953  0.0670  0.3092 -0.6439
 1498SOL    HW116130   1.659   2.757   5.907  1.7554  4.3331  0.2773
 1498SOL    HW216131   1.563   2.699   6.002  0.5796  0.4460 -0.2597
 1499SOL     OW16132   1.674   0.321  14.702 -0.7042  0.0718 -0.4420
 1499SOL    HW116133   1.599   0.368  14.667 -2.3428 -1.1522  1.4701
 1499SOL    HW216134   1.691   0.262  14.628 -3.4148 -1.5264  0.2394
 1500SOL     OW16135   2.395   2.972  17.630  0.2188  0.0202  0.4953
 1500SOL    HW116136   2.344   2.902  17.669 -1.7119  1.9164  1.3390
 1500SOL    HW216137   2.372   2.954  17.539  0.1385  1.6689  0.2022
 1501SOL     OW16138   3.463   4.654   7.193  0.2610 -0.1864 -0.5630
 1501SOL    HW116139   3.471   4.564   7.162  1.1984 -0.0824 -0.6354
 1501SOL    HW216140   3.428   4.642   7.282  2.3673  0.5752  0.3890
 1502SOL     OW16141   2.453   4.176   6.856  0.2132 -0.2398  0.2398
 1502SOL    HW116142   2.358   4.192   6.863  0.3783  0.9979 -0.2837
 1502SOL    HW216143   2.451   4.082   6.875 -2.0257 -0.2048  0.1765
 1503SOL     OW16144   2.019   1.891   2.116 -0.5055  0.1004 -0.6283
 1503SOL    HW116145   2.108   1.925   2.125 -1.1960  1.4203  1.3956
 1503SOL    HW216146   2.009   1.841   2.197  2.8579  0.7275  0.1797
 1504SOL     OW16147   0.340   3.334  13.560 -0.4219 -0.5153  0.2667
 1504SOL    HW116148   0.296   3.250  13.551  1.2121 -1.1988 -1.3000
 1504SOL    HW216149   0.276   3.406  13.561 -0.4674 -0.5450 -0.3764
 1505SOL     OW16150   0.036   0.313   4.537 -0.0831  0.1126  0.4740
 1505SOL    HW116151   0.062   0.338   4.449  1.0776 -0.8545  0.5382
 1505SOL    HW216152   0.037   0.217   4.531 -1.0301  0.0715  0.9839
 1506SOL     OW16153   3.478   2.866   6.958 -0.4265 -0.2927 -0.2934
 1506SOL    HW116154   3.422   2.915   7.018 -0.0041  0.5598 -0.5919
 1506SOL    HW216155   3.538   2.940   6.944  1.1161 -1.9683 -2.5386
 1507SOL     OW16156   4.112   3.087   1.235 -0.3304 -0.2322  0.0484
 1507SOL    HW116157   4.074   3.002   1.212  0.5104  0.0964 -2.6203
 1507SOL    HW216158   4.091   3.135   1.155 -1.0328  0.3707  0.5944
 1508SOL     OW16159   0.450   1.194   9.303 -0.2025 -0.4933  0.3754
 1508SOL    HW116160   0.458   1.232   9.390  4.1852  1.2859 -0.7947
 1508SOL    HW216161   0.358   1.211   9.286  0.5154  3.0478 -0.0205
 1509SOL     OW16162   1.640   3.776   5.245  0.1508  0.5602  1.0052
 1509SOL    HW116163   1.565   3.724   5.218  0.3503  0.5109  0.5468
 1509SOL    HW216164   1.697   3.792   5.169  1.8761 -0.0236  2.1662
 1510SOL     OW16165   4.256   3.261  17.527  0.1452  0.0603 -0.1712
 1510SOL    HW116166   4.258   3.186  17.467  3.3918 -0.7052  0.9106
 1510SOL    HW216167   4.193   3.318  17.482  0.3834 -0.9033 -1.7205
 1511SOL     OW16168   0.667   2.032  11.793  0.3448  0.2516  0.3029
 1511SOL    HW116169   0.748   2.004  11.837 -1.2552 -0.4057  2.8415
 1511SOL    HW216170   0.594   1.987  11.837  0.5463 -0.6773 -0.3182
 1512SOL     OW16171   0.374   3.355   2.334  0.0941 -0.3755  0.3490
 1512SOL    HW116172   0.433   3.284   2.360 -0.4287 -0.1807  2.0570
 1512SOL    HW216173   0.309   3.311   2.278  0.5859 -1.3202  0.5216
 1513SOL     OW16174   3.415   2.564   7.756  0.2871 -0.2681 -0.8105
 1513SOL    HW116175   3.340   2.574   7.815  1.5486 -0.6033  0.8745
 1513SOL    HW216176   3.380   2.608   7.679 -0.4997  0.8244  0.1697
 1514SOL     OW16177   2.730   2.691  17.472  0.0500 -0.0561 -0.3919
 1514SOL    HW116178   2.640   2.688  17.438 -0.1422 -0.7915  0.1953
 1514SOL    HW216179   2.712   2.742  17.551 -0.6015  0.2921 -0.7589
 1515SOL     OW16180   3.811   2.797   3.218  0.3066  0.5079 -0.7912
 1515SOL    HW116181   3.781   2.883   3.186 -1.7824  0.9232  2.2237
 1515SOL    HW216182   3.733   2.748   3.191  0.1437  1.7298 -2.5324
 1516SOL     OW16183   2.561   1.051   4.771 -0.1960  0.0960  0.1719
 1516SOL    HW116184   2.531   0.961   4.758 -1.2121  0.3259  0.9560
 1516SOL    HW216185   2.654   1.030   4.760  0.4757  3.9133 -1.4250
 1517SOL     OW16186   1.551   4.010   3.227 -0.7804 -0.3170  0.0901
 1517SOL    HW116187   1.573   4.009   3.134 -1.8661  0.0053 -0.1739
 1517SOL    HW216188   1.505   4.094   3.235 -1.2362 -0.4473 -1.1326
 1518SOL     OW16189   0.040   1.993  16.587  0.3856 -0.3088 -0.4975
 1518SOL    HW116190   0.085   1.966  16.507  0.8535 -1.0514  0.0161
 1518SOL    HW216191   0.107   2.042  16.634  0.3143  0.4321 -1.1677
 1519SOL     OW16192   3.614   3.670   2.566 -0.4109  0.0990 -0.0226
 1519SOL    HW116193   3.664   3.710   2.495 -0.7016 -0.1400 -0.3629
 1519SOL    HW216194   3.554   3.616   2.515  0.8753 -0.7710 -0.6143
 1520SOL     OW16195   3.033   0.885  16.531  0.5519  0.3009  0.0242
 1520SOL    HW116196   3.126   0.894  16.509  0.2690  0.4981 -1.0839
 1520SOL    HW216197   3.027   0.789  16.536 -2.5225  0.5833  1.8179
 1521SOL     OW16198   4.542   0.215   5.836 -0.6380  0.1623 -0.1574
 1521SOL    HW116199   4.502   0.270   5.768  0.5272  0.4222 -0.6314
 1521SOL    HW216200   4.542   0.276   5.910  0.6522 -0.2034  0.1427
 1522SOL     OW16201   1.295   1.419   5.744 -0.2533 -0.1240  0.0013
 1522SOL    HW116202   1.336   1.364   5.678  0.8968 -1.8460  2.1495
 1522SOL    HW216203   1.370   1.433   5.802  1.1253  0.5681 -1.9905
 1523SOL     OW16204   1.096   0.645   7.971 -0.6226 -0.1541  0.5770
 1523SOL    HW116205   1.127   0.590   7.899 -0.3487 -0.9571  1.2987
 1523SOL    HW216206   1.151   0.617   8.044  0.0570  1.0212  0.5155
 1524SOL     OW16207   3.359   0.417   2.390 -0.0593 -0.3192  0.4278
 1524SOL    HW116208   3.432   0.431   2.330 -1.0768 -0.9851 -0.9484
 1524SOL    HW216209   3.317   0.347   2.340  1.7429 -0.2182 -1.2145
 1525SOL     OW16210   2.445   2.376  15.595 -0.4474 -0.2652 -0.3586
 1525SOL    HW116211   2.479   2.300  15.547  1.4337  0.3902 -0.0720
 1525SOL    HW216212   2.356   2.388  15.563 -1.1912 -0.0454  1.8362
 1526SOL     OW16213   1.639   3.032   6.126 -0.2991 -0.1630 -0.2217
 1526SOL    HW116214   1.635   3.070   6.039 -1.4069  0.9877  0.3337
 1526SOL    HW216215   1.620   2.943   6.099  1.3013 -0.3093 -0.8820
 1527SOL     OW16216   1.042   2.756   4.292 -0.3309 -0.5998 -0.7297
 1527SOL    HW116217   1.123   2.756   4.344 -0.2486 -2.8156 -0.8603
 1527SOL    HW216218   0.985   2.700   4.345 -0.4997 -1.6873 -2.0696
 1528SOL     OW16219   2.108   1.259   4.528  0.4461  0.0740 -0.5802
 1528SOL    HW116220   2.141   1.262   4.438 -1.3181 -0.5683 -1.2500
 1528SOL    HW216221   2.165   1.187   4.556  1.1338  1.0556  0.5268
 1529SOL     OW16222   1.035   0.740  14.330  0.3577  0.3606 -0.2229
 1529SOL    HW116223   1.028   0.734  14.235 -0.1658  1.0940 -0.2306
 1529SOL    HW216224   1.035   0.836  14.337 -2.2212  0.4512 -1.3369
 1530SOL     OW16225   3.559   4.631   4.957  0.1651  0.3730 -0.1256
 1530SOL    HW116226   3.636   4.688   4.960  1.4385 -1.1549 -4.0436
 1530SOL    HW216227   3.600   4.554   4.996  2.2957  2.2432  1.3239
 1531SOL     OW16228   0.326   3.892   3.648  0.2416 -0.0084 -0.1701
 1531SOL    HW116229   0.412   3.931   3.632 -0.0103  1.6034  2.4485
 1531SOL    HW216230   0.320   3.827   3.578 -2.0442 -0.6142  0.6060
 1532SOL     OW16231   4.187   0.711   7.324 -0.5604  1.1393  0.0788
 1532SOL    HW116232   4.126   0.696   7.252 -0.0437 -0.1946 -0.0901
 1532SOL    HW216233   4.133   0.764   7.383  0.4564  0.7093  1.3996
 1533SOL     OW16234   4.549   4.468   5.591  0.6459  0.3368 -0.0869
 1533SOL    HW116235   4.496   4.492   5.515  1.6303  2.3108 -0.1589
 1533SOL    HW216236   4.562   4.552   5.636  1.7894  1.3791 -2.3606
 1534SOL     OW16237   4.554   3.985   6.455  0.2563  0.0372  0.3373
 1534SOL    HW116238   4.513   4.024   6.377  0.1531  0.3795  0.5625
 1534SOL    HW216239   4.642   3.984   6.419  0.3812  3.2942  0.5843
 1535SOL     OW16240   1.137   2.949   2.302 -0.3139  0.0224  0.1192
 1535SOL    HW116241   1.152   2.950   2.207 -1.0077  2.4414  0.0187
 1535SOL    HW216242   1.212   2.997   2.338  0.8492 -1.3807 -0.4507
 1536SOL     OW16243   4.637   4.439  16.605  0.1797  0.5004  0.1427
 1536SOL    HW116244   4.567   4.414  16.665 -0.4223  0.3446 -0.6208
 1536SOL    HW216245   4.673   4.516  16.649  0.2084  0.5954 -0.0463
 1537SOL     OW16246   1.777   1.459   1.537  0.0011 -0.2231 -0.2126
 1537SOL    HW116247   1.689   1.468   1.501  0.2940 -0.1169 -0.8926
 1537SOL    HW216248   1.797   1.544   1.577  0.2464 -1.0206  1.3953
 1538SOL     OW16249   1.918   3.464   3.495  0.5855 -0.3371  1.1403
 1538SOL    HW116250   1.967   3.547   3.493 -0.7321  0.4558  1.4597
 1538SOL    HW216251   1.849   3.476   3.560  0.2866 -0.9569  0.9399
 1539SOL     OW16252   0.533   0.952   9.262 -0.1940  0.6206  0.0625
 1539SOL    HW116253   0.529   1.037   9.305 -0.8575  0.1900  0.8521
 1539SOL    HW216254   0.629   0.950   9.263 -0.2207 -0.9751  0.8166
 1540SOL     OW16255   0.226   4.248   4.703 -0.2924  0.2546  0.1170
 1540SOL    HW116256   0.232   4.338   4.671  0.6433  0.0331 -0.3237
 1540SOL    HW216257   0.135   4.225   4.682 -0.3462 -0.6448  1.3840
 1541SOL     OW16258   1.620   3.765   0.174  0.3557 -0.0134 -0.4523
 1541SOL    HW116259   1.585   3.792   0.090  1.7604  1.6350 -0.5092
 1541SOL    HW216260   1.676   3.693   0.146  1.0426  0.9650 -1.5823
 1542SOL     OW16261   4.497   3.043  15.628 -0.0293  0.2674  0.2520
 1542SOL    HW116262   4.560   3.102  15.588  0.1483  0.9760  1.5574
 1542SOL    HW216263   4.479   3.080  15.715 -1.3794 -1.4724  0.7219
 1543SOL     OW16264   3.730   3.789   4.657  0.3836 -0.2438 -0.3471
 1543SOL    HW116265   3.794   3.852   4.626  1.3293 -1.1278 -0.2010
 1543SOL    HW216266   3.737   3.711   4.601  0.8804  0.6158 -1.4748
 1544SOL     OW16267   0.192   4.359   4.400  0.3641  0.0553 -0.0137
 1544SOL    HW116268   0.224   4.412   4.473 -1.3048  1.6686 -0.4401
 1544SOL    HW216269   0.100   4.381   4.418 -0.5835 -0.6765 -4.0553
 1545SOL     OW16270   3.442   0.910   4.512  0.1449 -0.4414 -0.0286
 1545SOL    HW116271   3.477   0.999   4.507  0.1643 -0.6391 -3.4422
 1545SOL    HW216272   3.357   0.925   4.553  0.8472  0.5468  1.0541
 1546SOL     OW16273   4.628   2.114  11.810 -0.2614  0.1578  0.6091
 1546SOL    HW116274   4.559   2.174  11.782 -0.9622 -0.4220  1.1033
 1546SOL    HW216275   4.645   2.082  11.721  0.9444  0.3499  0.7776
 1547SOL     OW16276   4.577   1.042   4.192 -0.1440  0.1272 -0.4271
 1547SOL    HW116277   4.533   1.094   4.124  1.3569  0.6145 -1.0128
 1547SOL    HW216278   4.615   1.109   4.248  0.6835  0.5440 -1.5051
 1548SOL     OW16279   1.430   0.474   6.818 -0.0137 -0.6853 -0.1959
 1548SOL    HW116280   1.406   0.542   6.881 -1.0931 -1.0972 -0.1631
 1548SOL    HW216281   1.388   0.500   6.737 -3.8558 -1.9372  1.3545
 1549SOL     OW16282   2.159   2.318  10.079 -0.0343 -0.5804 -0.2029
 1549SOL    HW116283   2.075   2.319  10.126 -0.5098 -1.7134 -1.0383
 1549SOL    HW216284   2.152   2.240  10.025 -0.6541 -0.2541 -0.5985
 1550SOL     OW16285   2.984   0.851   1.652  0.0520  0.5506  0.4621
 1550SOL    HW116286   2.997   0.767   1.698 -1.9799 -1.9616 -3.5939
 1550SOL    HW216287   2.889   0.839   1.648  0.2959 -1.2693 -0.0041
 1551SOL     OW16288   0.182   1.319  13.501  0.1515 -0.1923  0.6925
 1551SOL    HW116289   0.256   1.271  13.537 -1.4381 -2.7241  0.6018
 1551SOL    HW216290   0.213   1.406  13.527 -1.6406  0.8753 -0.6995
 1552SOL     OW16291   2.972   1.364   1.760 -0.3123 -0.3047 -0.1569
 1552SOL    HW116292   3.063   1.337   1.776 -0.5060  0.1430  1.7404
 1552SOL    HW216293   2.947   1.403   1.844  1.0232 -0.3388  0.2703
 1553SOL     OW16294   2.260   1.515  17.377  0.1591 -0.1697 -0.2218
 1553SOL    HW116295   2.229   1.603  17.396 -0.5310  0.2790 -3.3407
 1553SOL    HW216296   2.235   1.506  17.285 -1.0892 -1.4977  0.2456
 1554SOL     OW16297   0.609   0.400   0.575 -0.0787  0.3867  0.6529
 1554SOL    HW116298   0.683   0.454   0.603 -1.1995  1.2257  1.9706
 1554SOL    HW216299   0.651   0.339   0.514  2.4700 -0.3965  3.1954
 1555SOL     OW16300   1.085   0.056   1.389  0.3664 -0.5168  0.5339
 1555SOL    HW116301   1.036   0.138   1.390 -2.0541 -1.9023 -1.9076
 1555SOL    HW216302   1.155   0.080   1.328  0.1237  1.5114  1.0720
 1556SOL     OW16303   0.897   4.692   7.412  0.1376 -0.1507  0.1547
 1556SOL    HW116304   0.859   4.712   7.498  1.1627 -2.6910  1.1880
 1556SOL    HW216305   0.819   4.660   7.367 -0.0719  3.2797 -1.9502
 1557SOL     OW16306   4.002   3.144   0.059 -0.6513 -0.6370 -0.1098
 1557SOL    HW116307   4.067   3.136  17.729 -0.8548  0.4729 -0.4357
 1557SOL    HW216308   4.028   3.232   0.087 -2.5956  0.1300 -0.7320
 1558SOL     OW16309   2.852   2.346  10.517  0.1735 -0.2633 -0.0589
 1558SOL    HW116310   2.803   2.294  10.453 -0.4091  3.1789 -2.4098
 1558SOL    HW216311   2.804   2.427  10.501  0.1967 -0.4485 -1.0674
 1559SOL     OW16312   2.287   0.064   5.557 -0.4292 -0.2591  0.5072
 1559SOL    HW116313   2.216   0.071   5.493  1.2919  2.5013 -1.1016
 1559SOL    HW216314   2.245   0.105   5.633  1.5364 -0.7950  1.8770
 1560SOL     OW16315   4.274   1.137   9.835  0.3728 -1.0950 -0.1893
 1560SOL    HW116316   4.367   1.124   9.816  0.6337 -1.0780  1.0183
 1560SOL    HW216317   4.246   1.184   9.757  0.9381 -3.0670 -1.5516
 1561SOL     OW16318   0.304   3.084  12.889 -0.5894 -0.3980 -0.0630
 1561SOL    HW116319   0.285   3.061  12.980 -0.7289  1.0901  0.2850
 1561SOL    HW216320   0.299   3.180  12.893  0.5617 -0.3040 -0.7957
 1562SOL     OW16321   3.021   2.823   3.731  0.3470 -0.2785  0.0598
 1562SOL    HW116322   3.020   2.881   3.656  0.8498 -0.1182  0.1752
 1562SOL    HW216323   3.039   2.880   3.806 -2.1618 -1.8513  1.9019
 1563SOL     OW16324   4.076   0.531   7.056  0.5306  0.7611  0.3137
 1563SOL    HW116325   4.168   0.553   7.071  0.4043  0.1982  1.9337
 1563SOL    HW216326   4.049   0.611   7.012  0.2710  0.0656 -0.7840
 1564SOL     OW16327   3.822   4.131   8.830 -0.2660 -0.6693 -0.5700
 1564SOL    HW116328   3.845   4.144   8.922  2.1527  0.8623 -1.3777
 1564SOL    HW216329   3.858   4.205   8.782 -0.7484 -1.1269 -1.6366
 1565SOL     OW16330   2.224   3.109   0.972 -0.3163  0.7681  0.9694
 1565SOL    HW116331   2.228   3.181   0.909 -5.1543  0.1635 -0.0227
 1565SOL    HW216332   2.164   3.138   1.040 -0.4638 -1.5735  1.8587
 1566SOL     OW16333   2.694   0.234   0.113  0.1109  0.1707 -0.9609
 1566SOL    HW116334   2.602   0.234   0.140  0.8214 -2.1147  1.3517
 1566SOL    HW216335   2.741   0.185   0.179 -0.4564  0.6647 -0.1944
 1567SOL     OW16336   4.564   0.548   4.266  0.0371 -0.6736  0.0660
 1567SOL    HW116337   4.636   0.518   4.210  0.3521  0.8338 -0.3201
 1567SOL    HW216338   4.548   0.636   4.234  1.7394 -0.0799  0.8687
 1568SOL     OW16339   4.205   2.583   3.928  0.3667 -0.1455 -0.6031
 1568SOL    HW116340   4.140   2.641   3.968  0.1088 -3.6900  4.1253
 1568SOL    HW216341   4.238   2.535   4.003  1.4160  1.1927 -0.2020
 1569SOL     OW16342   2.497   1.323   2.152  0.4965  0.3343 -0.0463
 1569SOL    HW116343   2.404   1.309   2.133  0.2992 -0.0628  1.1990
 1569SOL    HW216344   2.505   1.375   2.232 -1.9223  0.9268 -0.1986
 1570SOL     OW16345   0.141   2.547  14.452 -0.4161  0.7959 -0.0610
 1570SOL    HW116346   0.172   2.456  14.452 -1.5258  0.4233 -0.2866
 1570SOL    HW216347   0.057   2.541  14.407  0.1849 -0.5854 -1.0240
 1571SOL     OW16348   3.844   2.847  10.033  0.0429  0.0354 -0.1529
 1571SOL    HW116349   3.846   2.852   9.938 -2.3932 -2.1908 -0.3213
 1571SOL    HW216350   3.896   2.769  10.050 -1.7088 -1.1397 -0.1854
 1572SOL     OW16351   1.835   4.167   5.801  0.0037 -0.8718  0.0628
 1572SOL    HW116352   1.782   4.229   5.852  2.1385  0.8115  0.2456
 1572SOL    HW216353   1.792   4.083   5.817  2.4496 -2.1990 -0.4327
 1573SOL     OW16354   3.241   4.158   8.397  0.4100  0.2750  0.4804
 1573SOL    HW116355   3.197   4.229   8.444 -1.4501  0.2711 -1.2257
 1573SOL    HW216356   3.178   4.086   8.400 -1.6635  1.9671 -2.1191
 1574SOL     OW16357   3.513   4.325   6.062  0.2115 -0.1498  0.3403
 1574SOL    HW116358   3.578   4.312   6.130  0.1241 -0.2949  0.3966
 1574SOL    HW216359   3.434   4.331   6.116  0.1521  0.6498  0.1654
 1575SOL     OW16360   1.953   0.384  10.690 -0.3975  0.3537 -0.4805
 1575SOL    HW116361   1.864   0.353  10.705  0.0062 -1.1787 -1.2313
 1575SOL    HW216362   1.966   0.426  10.775 -1.1571 -1.1690  0.3901
 1576SOL     OW16363   0.368   0.954   5.298 -0.1341 -0.4274 -0.2005
 1576SOL    HW116364   0.334   0.977   5.211  0.7602  0.7629 -0.2392
 1576SOL    HW216365   0.320   1.024   5.342  0.0464  0.4984 -1.4563
 1577SOL     OW16366   2.158   0.656   7.916  0.4749  0.0087 -0.2410
 1577SOL    HW116367   2.063   0.669   7.910  0.4494 -0.1981 -0.2842
 1577SOL    HW216368   2.175   0.562   7.927  1.0077  0.2777  1.2251
 1578SOL     OW16369   2.168   0.268   4.751 -0.5279  0.0309 -0.2796
 1578SOL    HW116370   2.132   0.338   4.806 -1.4652 -1.1981  0.6816
 1578SOL    HW216371   2.148   0.311   4.668 -2.4290  2.0127  1.1952
 1579SOL     OW16372   0.649   1.157   5.139 -0.2672  0.4901 -0.5289
 1579SOL    HW116373   0.690   1.169   5.225  1.4710  0.8067 -1.3967
 1579SOL    HW216374   0.618   1.247   5.128 -1.8897 -0.0934 -0.6765
 1580SOL     OW16375   3.771   2.630   2.487 -0.4160  0.6333 -0.2248
 1580SOL    HW116376   3.850   2.639   2.540 -1.4498 -1.8855  1.7266
 1580SOL    HW216377   3.738   2.542   2.503  2.6479 -0.4686  0.1263
 1581SOL     OW16378   0.706   3.029  11.145  0.5716 -0.2738 -0.4950
 1581SOL    HW116379   0.634   3.060  11.200  0.4451 -1.2958 -0.1031
 1581SOL    HW216380   0.651   2.981  11.083 -0.3683  0.1425  0.0184
 1582SOL     OW16381   3.407   2.451   5.769 -0.5623  0.3836  0.4591
 1582SOL    HW116382   3.482   2.508   5.785  0.5273 -0.4543 -1.5694
 1582SOL    HW216383   3.356   2.484   5.694 -1.3026 -0.6785  0.4833
 1583SOL     OW16384   4.549   0.868   9.168  0.4335 -0.1378 -0.0533
 1583SOL    HW116385   4.553   0.781   9.129  0.9357 -0.3081  0.3809
 1583SOL    HW216386   4.481   0.861   9.236 -1.1174  1.9641 -1.3998
 1584SOL     OW16387   2.015   4.386   1.042  0.0572 -0.1096  0.6602
 1584SOL    HW116388   2.035   4.471   1.004  1.1157 -1.0388 -0.8785
 1584SOL    HW216389   2.078   4.368   1.111  0.0245 -1.9592  0.2062
 1585SOL     OW16390   2.700   2.205   7.275  0.2509  0.3676  0.3275
 1585SOL    HW116391   2.663   2.117   7.284 -0.6848  0.7338  0.0876
 1585SOL    HW216392   2.633   2.261   7.236  1.1970  0.2133 -1.4793
 1586SOL     OW16393   3.695   0.014   6.032  0.2200 -0.1489 -0.1860
 1586SOL    HW116394   3.729   4.682   6.091 -1.6271  0.6207  1.7577
 1586SOL    HW216395   3.781   0.053   6.014 -0.2590 -0.0778 -2.2729
 1587SOL     OW16396   0.884   1.833   3.207  0.4185 -0.7080  0.3652
 1587SOL    HW116397   0.847   1.919   3.186  0.1618 -1.1246 -0.8724
 1587SOL    HW216398   0.977   1.850   3.223  0.3743  3.5858 -4.0300
 1588SOL     OW16399   2.916   4.627   1.468  0.4008  0.2933 -0.1244
 1588SOL    HW116400   2.941   4.664   1.553  1.1759 -1.8316  0.5754
 1588SOL    HW216401   2.928   4.709   1.421  0.3430  0.9314  0.9715
 1589SOL     OW16402   4.073   2.185   7.355 -0.0252  0.1875 -0.2042
 1589SOL    HW116403   3.990   2.138   7.344 -0.4122  1.0943 -1.0972
 1589SOL    HW216404   4.076   2.192   7.451 -1.0689  2.3491 -0.3186
 1590SOL     OW16405   2.033   0.379  16.805  0.3064 -0.0577 -0.1492
 1590SOL    HW116406   1.943   0.409  16.817 -0.2404 -1.8211  0.1500
 1590SOL    HW216407   2.021   0.284  16.795  0.6388 -0.1454  0.2975
 1591SOL     OW16408   3.045   2.306  11.360 -0.2559 -0.0533 -0.1241
 1591SOL    HW116409   3.099   2.228  11.349  0.6251  0.4411  0.7183
 1591SOL    HW216410   3.032   2.317  11.455  1.4687 -3.2980  0.4638
 1592SOL     OW16411   2.313   1.513   4.349  0.1299 -0.7019  0.1876
 1592SOL    HW116412   2.381   1.570   4.385  0.9995 -1.0741 -0.8802
 1592SOL    HW216413   2.306   1.547   4.260  0.6736 -1.1104 -0.0126
 1593SOL     OW16414   4.001   4.303   8.645  0.1740  0.1608 -0.4314
 1593SOL    HW116415   4.012   4.250   8.566 -0.4355 -2.7559  1.4256
 1593SOL    HW216416   3.999   4.392   8.612  0.4252  0.3007 -0.0674
 1594SOL     OW16417   4.179   1.073   4.129 -0.8214 -0.2723  0.4482
 1594SOL    HW116418   4.196   1.098   4.220  0.6148  2.2615 -0.5379
 1594SOL    HW216419   4.193   0.979   4.143 -2.8925 -0.4033  1.7026
 1595SOL     OW16420   1.764   1.871   3.152 -0.2444 -0.0067  0.6501
 1595SOL    HW116421   1.677   1.910   3.163 -0.1081  1.0111 -2.0084
 1595SOL    HW216422   1.765   1.798   3.214 -2.7740 -0.0797  0.6149
 1596SOL     OW16423   3.225   0.790   3.178  0.0305 -0.1559  0.2613
 1596SOL    HW116424   3.271   0.874   3.176  0.6200 -0.5578 -3.0847
 1596SOL    HW216425   3.172   0.793   3.098  0.0397  1.3347  0.3078
 1597SOL     OW16426   0.025   0.880   8.237  0.4890  0.4332 -0.2021
 1597SOL    HW116427   0.013   0.801   8.290 -0.5023  0.6728 -0.0588
 1597SOL    HW216428   4.674   0.923   8.231  1.1030  1.1564 -3.8687
 1598SOL     OW16429   1.416   4.133   7.487  0.2358 -0.0563  0.7712
 1598SOL    HW116430   1.329   4.096   7.503 -0.3461  1.5167  1.2722
 1598SOL    HW216431   1.412   4.222   7.522 -0.3421  0.4275 -0.5287
 1599SOL     OW16432   0.165   1.813   3.248  0.2556  0.1786 -0.6722
 1599SOL    HW116433   0.248   1.831   3.293  0.5178  1.7062 -1.7833
 1599SOL    HW216434   0.104   1.875   3.287 -1.3059 -1.4721 -0.4716
 1600SOL     OW16435   0.918   4.505   7.997  0.4651  0.1466 -0.2214
 1600SOL    HW116436   0.950   4.416   8.003  1.2224  0.4810  0.6469
 1600SOL    HW216437   0.939   4.538   8.084  2.1371 -2.4561  0.3452
 1601SOL     OW16438   2.841   2.488   8.849  0.2602  0.2736 -0.2719
 1601SOL    HW116439   2.759   2.457   8.886  1.2203 -1.1207  0.6759
 1601SOL    HW216440   2.840   2.460   8.757 -1.7389 -1.0683  0.1676
 1602SOL     OW16441   2.375   3.394  11.535 -0.4205 -0.5323 -0.2775
 1602SOL    HW116442   2.399   3.456  11.465  1.3146  0.0818  0.8769
 1602SOL    HW216443   2.372   3.312  11.485  0.3797 -0.3973 -0.5470
 1603SOL     OW16444   0.524   2.928   5.165 -0.0242  0.2461 -0.5229
 1603SOL    HW116445   0.616   2.939   5.190 -0.4361 -0.8671  1.4329
 1603SOL    HW216446   0.538   2.918   5.071 -0.8348 -0.8677 -0.5230
 1604SOL     OW16447   1.896   2.161   2.130  0.4184 -0.4033 -0.6346
 1604SOL    HW116448   1.811   2.160   2.087  1.6358 -1.1094 -3.0388
 1604SOL    HW216449   1.936   2.076   2.113  0.8660 -0.6689  1.7436
 1605SOL     OW16450   3.322   0.502   6.124 -0.0408  0.2864  0.1379
 1605SOL    HW116451   3.355   0.424   6.168  1.0477  1.4723  1.4145
 1605SOL    HW216452   3.231   0.483   6.102  0.7471 -1.0587 -1.9538
 1606SOL     OW16453   2.243   2.741   6.281 -0.0949 -0.4382  0.4280
 1606SOL    HW116454   2.161   2.694   6.297 -0.4708 -0.0332 -0.3085
 1606SOL    HW216455   2.216   2.833   6.290 -1.1782 -0.6992 -0.1869
 1607SOL     OW16456   2.674   0.545   5.271  0.1477 -0.1228 -0.0109
 1607SOL    HW116457   2.596   0.571   5.319  1.1993  0.3645  1.4214
 1607SOL    HW216458   2.640   0.481   5.208  0.5751 -1.0914  0.7522
 1608SOL     OW16459   3.465   3.496   4.351  0.5669 -0.2234  0.2545
 1608SOL    HW116460   3.559   3.485   4.336  0.6217 -1.6760  1.5643
 1608SOL    HW216461   3.457   3.548   4.431 -3.0188 -0.0311 -0.2263
 1609SOL     OW16462   4.457   2.207  16.572 -0.1130 -0.2301 -0.0987
 1609SOL    HW116463   4.518   2.212  16.499 -1.5185  1.5310 -1.1579
 1609SOL    HW216464   4.397   2.280  16.556 -0.5848 -0.9225 -1.4971
 1610SOL     OW16465   2.475   2.075  16.836 -0.3649  0.3550 -0.6425
 1610SOL    HW116466   2.397   2.075  16.781 -1.3067 -1.1162  0.6798
 1610SOL    HW216467   2.480   2.166  16.863 -1.3213  0.0538  0.5742
 1611SOL     OW16468   2.895   3.416   6.246  0.1344 -0.2501 -0.6849
 1611SOL    HW116469   2.956   3.350   6.212  2.6949  1.7439  0.0449
 1611SOL    HW216470   2.952   3.492   6.247  0.5174 -0.5428  0.5245
 1612SOL     OW16471   4.187   3.319   4.270  0.0252 -0.5189  0.5218
 1612SOL    HW116472   4.097   3.317   4.238 -0.3375 -0.7168  1.5392
 1612SOL    HW216473   4.193   3.410   4.299 -0.8571 -0.1777 -0.3774
 1613SOL     OW16474   2.487   2.886   7.266  0.2534  0.1967 -0.1748
 1613SOL    HW116475   2.447   2.969   7.242  0.1142  0.4258  0.8413
 1613SOL    HW216476   2.447   2.840   7.192 -0.0542 -1.8583  1.2547
 1614SOL     OW16477   2.346   3.310  12.834  0.4897 -0.0092 -0.2368
 1614SOL    HW116478   2.394   3.392  12.818 -2.2982  1.9025  1.1344
 1614SOL    HW216479   2.313   3.278  12.750  0.4931 -3.0235  0.9266
 1615SOL     OW16480   4.349   4.185   6.975  0.3576 -0.1326 -0.3441
 1615SOL    HW116481   4.369   4.143   7.059  0.0869 -0.0886 -0.2547
 1615SOL    HW216482   4.432   4.173   6.930  1.2161 -0.8241  1.4322
 1616SOL     OW16483   1.462   1.167  16.306 -0.1556  0.0241 -0.4670
 1616SOL    HW116484   1.449   1.213  16.389 -0.8646  1.4842 -1.3998
 1616SOL    HW216485   1.554   1.142  16.320 -0.5028 -0.3802  1.1335
 1617SOL     OW16486   1.373   0.238   5.955  0.8401 -0.0976  0.2749
 1617SOL    HW116487   1.357   0.266   5.865 -0.1431  2.5827  1.2791
 1617SOL    HW216488   1.348   0.145   5.959  1.2890 -0.1781  1.2453
 1618SOL     OW16489   1.310   3.347   4.782  0.3393 -0.1021  0.5367
 1618SOL    HW116490   1.311   3.264   4.831 -0.0983 -0.0124  0.6976
 1618SOL    HW216491   1.400   3.353   4.750  0.1202  0.3128  0.0069
 1619SOL     OW16492   4.583   3.842   1.919 -0.1315  0.6119 -0.1476
 1619SOL    HW116493   4.531   3.782   1.973  1.3425 -0.8668 -0.3931
 1619SOL    HW216494   4.569   3.930   1.955  0.2343  0.9631 -0.8651
 1620SOL     OW16495   3.880   0.525   6.338 -0.3544 -0.0529  0.6442
 1620SOL    HW116496   3.933   0.514   6.417 -0.4310 -2.2053  0.3843
 1620SOL    HW216497   3.864   0.433   6.315  1.3691 -0.2137  0.1382
 1621SOL     OW16498   3.595   0.964   9.283  0.7026 -0.1936 -0.1672
 1621SOL    HW116499   3.527   1.008   9.335  0.0371 -2.3337  0.7793
 1621SOL    HW216500   3.675   0.991   9.327 -0.2434  1.7435  0.4023
 1622SOL     OW16501   1.570   2.813  12.063  0.5567 -0.0243 -0.2095
 1622SOL    HW116502   1.572   2.756  11.986 -0.5664  1.1516 -1.1049
 1622SOL    HW216503   1.524   2.752  12.120  2.5451 -1.1992  0.1435
 1623SOL     OW16504   2.887   4.458   6.817 -0.5101 -0.1651  0.6086
 1623SOL    HW116505   2.798   4.473   6.784 -0.4997 -0.3901  0.4773
 1623SOL    HW216506   2.912   4.543   6.851  0.9757 -0.8405  1.1966
 1624SOL     OW16507   3.924   1.555  11.903 -0.4187 -0.1658  0.2958
 1624SOL    HW116508   3.895   1.589  11.987 -1.3106 -0.9715  0.3207
 1624SOL    HW216509   3.846   1.561  11.847 -0.6081  2.1747  0.8364
 1625SOL     OW16510   0.289   2.011   5.109 -0.2872  0.2440 -0.3008
 1625SOL    HW116511   0.328   1.969   5.186  3.6555  2.1873 -1.2553
 1625SOL    HW216512   0.274   2.098   5.146 -1.0555  0.7692 -1.8501
 1626SOL     OW16513   0.031   4.620   7.719  0.1964 -0.2453  0.1611
 1626SOL    HW116514   0.059   4.628   7.628  0.6243  1.6889  0.4602
 1626SOL    HW216515   4.672   4.602   7.718  0.0233  0.6707  0.7717
 1627SOL     OW16516   0.473   3.091  15.574 -0.2941 -0.0698  0.1807
 1627SOL    HW116517   0.521   3.021  15.529 -0.7235 -0.3653  0.1816
 1627SOL    HW216518   0.536   3.162  15.564  2.4371 -2.2345  1.7452
 1628SOL     OW16519   4.548   0.668   8.152  0.0148 -0.0450 -0.4627
 1628SOL    HW116520   4.545   0.689   8.245  1.0456  1.2807 -0.7155
 1628SOL    HW216521   4.585   0.580   8.158  0.4264  0.0895 -0.9382
 1629SOL     OW16522   2.751   0.168  10.011 -0.0529 -0.7452  0.3231
 1629SOL    HW116523   2.711   0.254  10.004 -0.9039 -0.9533  2.5168
 1629SOL    HW216524   2.702   0.123  10.080 -0.3736  1.4403  1.5019
 1630SOL     OW16525   3.730   2.860   4.408  0.2201 -0.0576 -0.0137
 1630SOL    HW116526   3.781   2.788   4.445 -0.9089 -1.1270 -0.5176
 1630SOL    HW216527   3.710   2.833   4.318 -0.0158  0.6492 -0.1759
 1631SOL     OW16528   0.601   2.966   2.830 -0.4863 -0.3245  0.4352
 1631SOL    HW116529   0.540   2.922   2.772  0.3947 -0.6253 -0.2735
 1631SOL    HW216530   0.638   2.889   2.873 -0.2903 -0.8991 -0.7532
 1632SOL     OW16531   2.669   4.368  14.182 -0.7131 -0.6549 -0.3863
 1632SOL    HW116532   2.721   4.441  14.149 -0.4115 -0.4174  0.6194
 1632SOL    HW216533   2.731   4.295  14.191 -1.6867 -1.2217  1.7512
 1633SOL     OW16534   3.366   1.512   9.993  0.5336  0.5456  0.0599
 1633SOL    HW116535   3.361   1.590   9.936 -3.6368 -0.6866 -1.2728
 1633SOL    HW216536   3.427   1.453   9.948 -1.0981  0.9563 -2.6853
 1634SOL     OW16537   2.946   0.582  11.273 -0.1667 -0.5802  0.4401
 1634SOL    HW116538   2.873   0.553  11.327 -0.7883 -1.1851 -0.7448
 1634SOL    HW216539   2.997   0.503  11.256 -0.5369 -0.3040 -1.9973
 1635SOL     OW16540   4.208   4.485  11.822 -0.5436 -0.2586 -0.0181
 1635SOL    HW116541   4.188   4.418  11.888  0.1591 -0.3459  0.1074
 1635SOL    HW216542   4.190   4.571  11.862  0.2675  0.3917 -1.0554
 1636SOL     OW16543   4.720   3.867  15.084 -0.1357  0.2078 -0.3930
 1636SOL    HW116544   4.679   3.835  15.003  0.9139 -1.6311 -0.2064
 1636SOL    HW216545   0.001   3.955  15.051 -0.7277 -0.1580 -1.6573
 1637SOL     OW16546   1.026   1.483  17.203 -0.2475  0.1219 -0.3933
 1637SOL    HW116547   0.985   1.480  17.117 -0.1453 -0.4496 -0.4221
 1637SOL    HW216548   0.952   1.469  17.262 -0.5314  1.4722 -0.4332
 1638SOL     OW16549   0.120   2.588   2.344  0.1705 -0.1268 -0.3705
 1638SOL    HW116550   0.210   2.574   2.316  0.7789  2.4682  0.2868
 1638SOL    HW216551   0.147   2.652   2.410 -0.2859 -0.6282  0.3137
 1639SOL     OW16552   3.192   1.041   4.181  0.1203 -0.0918 -0.0279
 1639SOL    HW116553   3.113   0.991   4.200  1.0625 -1.1612  1.0156
 1639SOL    HW216554   3.169   1.129   4.210  1.4372 -0.0377  0.8767
 1640SOL     OW16555   1.047   1.510  12.197  0.4251 -0.1516  0.7025
 1640SOL    HW116556   1.018   1.432  12.244 -0.0760  0.8046  1.9715
 1640SOL    HW216557   1.140   1.510  12.219  0.6604  1.5799 -0.3185
 1641SOL     OW16558   0.345   1.245   8.565  0.2666 -0.4147 -0.1075
 1641SOL    HW116559   0.441   1.240   8.562  0.3743  1.7788 -0.5205
 1641SOL    HW216560   0.302   1.163   8.540 -1.5283  0.4769  0.0252
 1642SOL     OW16561   0.822   4.401   1.591 -0.0537  0.5756  0.2072
 1642SOL    HW116562   0.824   4.411   1.686  0.8877  0.0890  0.2349
 1642SOL    HW216563   0.836   4.488   1.553  0.0658  0.1273 -0.7807
 1643SOL     OW16564   0.899   3.306   8.289 -0.7769  0.0970  0.3950
 1643SOL    HW116565   0.821   3.338   8.243 -0.8958  0.6687  0.9955
 1643SOL    HW216566   0.972   3.355   8.252 -0.2071  1.6253  3.5158
 1644SOL     OW16567   4.331   2.618   1.582 -0.6651  0.6531 -0.1412
 1644SOL    HW116568   4.290   2.562   1.515 -1.4661  0.8763  0.1561
 1644SOL    HW216569   4.396   2.559   1.620  0.6489  1.7867 -0.6445
 1645SOL     OW16570   3.788   4.288  11.658 -0.6247 -0.4277 -0.5087
 1645SOL    HW116571   3.826   4.300  11.745 -0.2513 -0.3726 -0.6795
 1645SOL    HW216572   3.838   4.352  11.606 -0.8065 -0.0444 -0.2141
 1646SOL     OW16573   4.717   0.525   7.481  0.5382  0.0176  0.0595
 1646SOL    HW116574   0.072   0.557   7.474  0.9643 -0.8397  1.6762
 1646SOL    HW216575   4.669   0.593   7.527  0.5284  1.1083 -1.5980
 1647SOL     OW16576   0.317   1.214   6.728  0.2723 -0.4132 -0.0952
 1647SOL    HW116577   0.342   1.217   6.636 -0.3153 -2.4309 -0.3229
 1647SOL    HW216578   0.303   1.308   6.742  0.6822 -0.4254  0.4069
 1648SOL     OW16579   2.892   2.225   1.855  0.5593  0.4210  0.5804
 1648SOL    HW116580   2.871   2.199   1.766 -0.5895  0.8860  0.7015
 1648SOL    HW216581   2.833   2.160   1.895  0.3585 -0.5820 -1.3855
 1649SOL     OW16582   2.387   1.355   3.253 -0.8519  0.6726  0.6775
 1649SOL    HW116583   2.466   1.406   3.269  0.3977 -1.1057  0.2179
 1649SOL    HW216584   2.327   1.377   3.325 -0.6652  2.6906  0.2031
 1650SOL     OW16585   0.349   2.196   7.285  0.1211 -0.0240  0.2908
 1650SOL    HW116586   0.381   2.287   7.279  2.0904 -0.8242 -1.4342
 1650SOL    HW216587   0.343   2.178   7.191 -0.2384 -0.7738  0.4601
 1651SOL     OW16588   3.680   2.328   2.947 -0.1334 -0.2471  0.2766
 1651SOL    HW116589   3.666   2.338   2.853  0.6921  0.6588  0.2518
 1651SOL    HW216590   3.618   2.259   2.972  1.6045 -1.8308  0.1871
 1652SOL     OW16591   2.728   3.317   8.521 -0.3994 -0.5174  0.3325
 1652SOL    HW116592   2.809   3.324   8.471 -0.8784  0.9564 -0.2330
 1652SOL    HW216593   2.760   3.309   8.611  0.6059  1.6824  0.1659
 1653SOL     OW16594   2.942   2.483   2.905 -0.5889  0.2052 -0.7146
 1653SOL    HW116595   2.947   2.397   2.864 -0.2495  1.2396 -2.8615
 1653SOL    HW216596   2.852   2.513   2.893 -0.8830 -1.2397 -2.1240
 1654SOL     OW16597   1.900   2.731   2.790  0.0143 -0.5021 -0.6529
 1654SOL    HW116598   1.812   2.768   2.799 -0.1196 -1.2114  0.9085
 1654SOL    HW216599   1.889   2.638   2.809 -1.0549 -0.3875 -0.7427
 1655SOL     OW16600   1.313   1.236   9.069  0.1408  0.2758 -0.2171
 1655SOL    HW116601   1.370   1.298   9.022  2.2269 -1.4103  0.0786
 1655SOL    HW216602   1.267   1.208   8.990 -0.7527  1.1265  0.0006
 1656SOL     OW16603   0.853   1.531  16.129 -0.0327 -0.0278 -0.5123
 1656SOL    HW116604   0.935   1.496  16.093  2.2315  2.4788  2.1648
 1656SOL    HW216605   0.782   1.470  16.109 -2.1656  2.6463 -1.0625
 1657SOL     OW16606   0.200   3.599   2.453  0.0207  0.3790 -0.0397
 1657SOL    HW116607   0.266   3.538   2.421 -0.2182 -0.7454  1.6770
 1657SOL    HW216608   0.143   3.611   2.376  3.3500 -0.4107 -2.6204
 1658SOL     OW16609   4.170   1.303   6.367  0.0940 -0.0108  0.2625
 1658SOL    HW116610   4.121   1.343   6.439  1.5974  0.0878  1.2286
 1658SOL    HW216611   4.110   1.240   6.329  0.4973 -1.4897  2.0716
 1659SOL     OW16612   1.976   1.038   4.001 -0.0269 -0.3223 -0.2898
 1659SOL    HW116613   1.968   1.042   3.906 -1.6461  1.2001 -0.0857
 1659SOL    HW216614   1.980   1.130   4.028 -0.9264  0.2440 -2.0878
 1660SOL     OW16615   0.623   2.854   3.391  0.0464  0.2321  0.5516
 1660SOL    HW116616   0.609   2.770   3.435 -4.0087 -0.7548 -2.6547
 1660SOL    HW216617   0.563   2.893   3.455 -1.2911  1.9505 -1.7645
 1661SOL     OW16618   3.069   3.712   2.570  0.1333  0.3481 -0.1897
 1661SOL    HW116619   2.992   3.655   2.566  0.9061 -0.7212  0.0929
 1661SOL    HW216620   3.135   3.642   2.570  1.4880  1.6104 -1.3876
 1662SOL     OW16621   0.508   4.164   9.114  0.4968  0.1172  0.1191
 1662SOL    HW116622   0.478   4.228   9.051  0.0221  0.2325  0.4624
 1662SOL    HW216623   0.440   4.168   9.182 -0.6161  1.5426 -1.0872
 1663SOL     OW16624   0.859   0.405  14.198  0.4014  0.2184 -0.6834
 1663SOL    HW116625   0.917   0.444  14.263 -0.4535  2.0870 -1.0543
 1663SOL    HW216626   0.787   0.376  14.254  2.4000 -0.6110  1.4481
 1664SOL     OW16627   2.065   2.666  17.019  0.3289 -0.5962  0.1241
 1664SOL    HW116628   2.148   2.645  16.976  0.9692 -1.6104  1.8651
 1664SOL    HW216629   2.004   2.686  16.949  0.9498  1.3857  0.1439
 1665SOL     OW16630   4.582   3.546  11.935  0.0169 -0.5643 -0.6578
 1665SOL    HW116631   4.622   3.508  12.014 -0.8731 -2.4855 -1.1390
 1665SOL    HW216632   4.527   3.473  11.907  0.8552 -1.1713 -0.7445
 1666SOL     OW16633   0.080   3.913   8.241  0.2825 -0.6672  0.2822
 1666SOL    HW116634   0.164   3.954   8.221  0.2602 -1.7050 -1.8982
 1666SOL    HW216635   0.100   3.842   8.303 -0.5088 -0.8587  0.3215
 1667SOL     OW16636   4.324   3.423   8.987 -0.3557  0.0480  0.3608
 1667SOL    HW116637   4.323   3.518   8.989 -3.2058  0.0092  1.1800
 1667SOL    HW216638   4.415   3.408   8.961  0.3403  2.9210  1.1307
 1668SOL     OW16639   1.850   2.782  14.060 -0.3834  0.7075  0.2943
 1668SOL    HW116640   1.851   2.842  14.135 -0.8095 -0.4000  1.1756
 1668SOL    HW216641   1.763   2.743  14.063 -0.0944 -0.0385 -1.0452
 1669SOL     OW16642   1.985   1.380   5.760 -0.0488  0.4086  0.2076
 1669SOL    HW116643   1.909   1.326   5.739 -1.1359  1.0469  2.4652
 1669SOL    HW216644   1.981   1.407   5.852  0.1735 -2.0394  0.9224
 1670SOL     OW16645   4.483   2.329  15.967 -0.7987 -0.1006  0.2615
 1670SOL    HW116646   4.538   2.272  15.914 -0.3011  0.1359  0.5184
 1670SOL    HW216647   4.544   2.398  15.992  0.2628 -0.7643 -0.5199
 1671SOL     OW16648   2.902   3.599   8.504  0.3957 -0.1776  0.1719
 1671SOL    HW116649   2.866   3.588   8.592 -0.1265  2.2767  0.2616
 1671SOL    HW216650   2.956   3.519   8.502  1.3438  0.4769 -0.2787
 1672SOL     OW16651   2.144   3.582   4.967 -0.5504 -0.0139 -0.2041
 1672SOL    HW116652   2.191   3.651   4.920  1.2905 -0.0131  1.6505
 1672SOL    HW216653   2.149   3.613   5.057 -3.2237 -1.5918  0.5031
 1673SOL     OW16654   1.436   0.562   2.441  0.2155 -0.3662 -0.0336
 1673SOL    HW116655   1.375   0.504   2.487  1.4288 -0.9580  0.8266
 1673SOL    HW216656   1.512   0.505   2.430 -1.3455 -2.5298  0.2491
 1674SOL     OW16657   3.108   0.636   8.716 -0.6936  0.8781  0.3987
 1674SOL    HW116658   3.084   0.696   8.646  2.7331  2.4436  0.5271
 1674SOL    HW216659   3.197   0.611   8.690 -1.2204 -1.4828  0.9341
 1675SOL     OW16660   0.630   4.581  11.125 -0.0441  0.6939 -0.4769
 1675SOL    HW116661   0.657   4.493  11.151 -0.5712  0.8120  0.4459
 1675SOL    HW216662   0.634   4.564  11.031 -0.6717 -0.0431 -0.3704
 1676SOL     OW16663   1.414   1.536   6.051 -0.7176 -0.0414  0.0124
 1676SOL    HW116664   1.324   1.504   6.047 -1.7053  2.5956  0.8937
 1676SOL    HW216665   1.447   1.487   6.126 -1.4091 -1.0029 -0.3179
 1677SOL     OW16666   4.111   2.248   4.433 -0.0706 -0.2287  0.2969
 1677SOL    HW116667   4.120   2.240   4.528  0.4875  0.6805  0.3162
 1677SOL    HW216668   4.038   2.308   4.446 -0.7874 -1.3873  1.6952
 1678SOL     OW16669   4.062   0.704   8.893  0.0097  0.3063  0.1338
 1678SOL    HW116670   4.137   0.716   8.835  0.7725 -1.1869  0.8138
 1678SOL    HW216671   4.054   0.786   8.942  0.9819 -0.3971  1.4739
 1679SOL     OW16672   0.426   2.070   2.558  0.1383  0.1111  0.4823
 1679SOL    HW116673   0.521   2.059   2.560  0.1374  0.1499  0.7303
 1679SOL    HW216674   0.397   2.112   2.640 -0.9607 -0.1092  0.2051
 1680SOL     OW16675   4.583   4.201   8.877 -0.7033 -0.4554 -0.3630
 1680SOL    HW116676   4.635   4.225   8.954  0.8313 -2.3107 -0.8248
 1680SOL    HW216677   4.542   4.287   8.866  0.0019  0.0282  0.8615
 1681SOL     OW16678   3.446   1.075   4.124 -0.1032  0.3788 -0.7969
 1681SOL    HW116679   3.435   1.170   4.127  0.1410  0.3813 -0.1019
 1681SOL    HW216680   3.362   1.042   4.155 -0.1594 -1.0657 -2.5228
 1682SOL     OW16681   3.679   4.023  12.219 -0.1506  0.4268  0.2492
 1682SOL    HW116682   3.725   4.070  12.289  1.2516  2.0051 -1.7412
 1682SOL    HW216683   3.684   3.935  12.257  0.7317  0.7228  0.8276
 1683SOL     OW16684   1.459   0.468   2.063 -0.1009 -0.1894  0.5182
 1683SOL    HW116685   1.367   0.465   2.038  0.2928 -0.5979 -0.9077
 1683SOL    HW216686   1.466   0.404   2.134  3.4144 -0.9865 -0.5155
 1684SOL     OW16687   1.340   1.444  16.354 -0.3881  0.0625 -0.0391
 1684SOL    HW116688   1.398   1.427  16.429  0.0544 -2.9769 -1.0922
 1684SOL    HW216689   1.279   1.373  16.369 -1.9756  0.7170 -3.5251
 1685SOL     OW16690   0.170   1.057   7.708 -0.7362 -0.3506 -0.5675
 1685SOL    HW116691   0.167   1.147   7.742  1.3673 -0.7599  0.7345
 1685SOL    HW216692   0.154   1.006   7.788  0.9453  1.6195  1.0559
 1686SOL     OW16693   1.239   2.616   0.006  0.4284 -0.5505  0.0429
 1686SOL    HW116694   1.251   2.613  17.650 -0.7893 -0.7642 -0.1039
 1686SOL    HW216695   1.296   2.543   0.031  0.1304 -1.4688 -1.9853
 1687SOL     OW16696   3.705   2.516   0.781 -0.1080  0.1963  0.3092
 1687SOL    HW116697   3.649   2.580   0.826 -1.1648 -0.7668  0.3340
 1687SOL    HW216698   3.789   2.559   0.799 -0.8707  2.1352 -0.7041
 1688SOL     OW16699   0.909   4.412   5.765  0.0845  0.4421  0.3196
 1688SOL    HW116700   0.818   4.399   5.738  0.2834  1.1570 -0.7005
 1688SOL    HW216701   0.942   4.455   5.686 -2.5747  1.0922 -0.4652
 1689SOL     OW16702   3.595   0.762   3.159 -1.1269  0.4151 -0.0373
 1689SOL    HW116703   3.575   0.832   3.222  0.7802  1.0105 -0.1020
 1689SOL    HW216704   3.517   0.706   3.159  1.0323 -2.6117 -2.3580
 1690SOL     OW16705   3.228   0.949   8.606 -0.3194 -0.6538  0.7958
 1690SOL    HW116706   3.199   1.036   8.633  1.4822  0.0842  0.3532
 1690SOL    HW216707   3.154   0.918   8.553  0.7202 -1.5566 -0.1207
 1691SOL     OW16708   3.101   4.394   6.642 -0.0223  0.2040 -0.0903
 1691SOL    HW116709   3.062   4.377   6.556  1.2411  0.0797 -0.6481
 1691SOL    HW216710   3.030   4.415   6.702  0.3515 -1.8623  1.0716
 1692SOL     OW16711   1.447   0.780   3.264  0.1408 -0.0774  0.5295
 1692SOL    HW116712   1.469   0.873   3.255  1.3045 -0.7349 -3.7289
 1692SOL    HW216713   1.530   0.743   3.235 -0.8168 -1.4616 -0.4701
 1693SOL     OW16714   2.164   4.361  10.647 -0.0758 -0.2716 -0.3431
 1693SOL    HW116715   2.106   4.401  10.581  1.9331 -0.7228 -2.3695
 1693SOL    HW216716   2.236   4.350  10.585  1.1127 -0.1027  1.0002
 1694SOL     OW16717   0.991   1.098  17.144  0.2554 -0.5105  0.1560
 1694SOL    HW116718   0.992   1.002  17.148 -1.5320 -0.6394 -2.6953
 1694SOL    HW216719   1.035   1.116  17.227 -0.5549 -1.6878  0.8553
 1695SOL     OW16720   4.532   3.661   5.193  0.3087  0.1402  0.3237
 1695SOL    HW116721   4.556   3.741   5.146 -0.6418  0.6039  0.6167
 1695SOL    HW216722   4.438   3.665   5.174  0.4017 -3.6390 -0.9478
 1696SOL     OW16723   2.035   2.385   6.442 -0.4425 -0.1273  0.1060
 1696SOL    HW116724   1.973   2.312   6.448 -1.7166  0.9745  0.2591
 1696SOL    HW216725   2.095   2.340   6.382 -1.2679 -1.4749  0.2791
 1697SOL     OW16726   2.586   1.270   4.525  0.6076 -0.3472 -0.3970
 1697SOL    HW116727   2.518   1.261   4.458  0.2805  3.5253 -0.5740
 1697SOL    HW216728   2.558   1.208   4.593 -0.9164  0.6685 -0.0964
 1698SOL     OW16729   3.253   2.780  13.965  0.2647 -0.5707  0.7790
 1698SOL    HW116730   3.318   2.850  13.967 -0.0399 -0.2137 -1.7444
 1698SOL    HW216731   3.310   2.707  13.985  1.2076  0.2786  1.1941
 1699SOL     OW16732   0.667   0.052   7.915 -0.3076 -0.1214  0.0309
 1699SOL    HW116733   0.740   0.039   7.976  1.1464  0.4223 -1.5537
 1699SOL    HW216734   0.675   0.146   7.894 -0.3030 -0.8696 -3.2994
 1700SOL     OW16735   4.000   0.769   3.271 -0.4298 -0.2157 -0.3651
 1700SOL    HW116736   3.934   0.830   3.305  1.1568  1.3127 -0.0692
 1700SOL    HW216737   3.942   0.729   3.205 -0.2345 -0.3303 -0.4663
 1701SOL     OW16738   1.755   3.392   6.668  0.0962  0.2202 -0.2376
 1701SOL    HW116739   1.794   3.352   6.590 -1.2588 -0.5353 -0.5307
 1701SOL    HW216740   1.700   3.321   6.702  0.1989  1.1285  1.7870
 1702SOL     OW16741   4.081   2.517   5.616  0.4226  0.0166 -0.5929
 1702SOL    HW116742   4.142   2.589   5.637  0.3593  0.1013 -0.7000
 1702SOL    HW216743   4.126   2.474   5.544  1.1826  0.5841 -0.4584
 1703SOL     OW16744   2.116   2.282   8.238 -0.1121 -0.3157  0.1512
 1703SOL    HW116745   2.121   2.281   8.334 -1.3506 -0.9993  0.2001
 1703SOL    HW216746   2.152   2.196   8.216  0.4737  0.1182 -0.5698
 1704SOL     OW16747   3.264   4.542   9.045 -0.1586  1.0173  0.2155
 1704SOL    HW116748   3.328   4.604   9.011 -0.8031  1.6499  0.1576
 1704SOL    HW216749   3.206   4.544   8.969 -0.1750 -0.3017  0.1778
 1705SOL     OW16750   1.760   3.065  15.032 -0.0634  0.2477 -0.3813
 1705SOL    HW116751   1.850   3.033  15.041 -0.3767 -0.5796 -0.2220
 1705SOL    HW216752   1.778   3.123  14.958  0.9388 -0.1192 -0.4279
 1706SOL     OW16753   0.331   3.006   1.740 -0.1719 -0.4242 -0.3158
 1706SOL    HW116754   0.307   2.921   1.703  1.4140 -0.6062 -0.9228
 1706SOL    HW216755   0.424   3.012   1.718 -0.0474  0.4907  0.4544
 1707SOL     OW16756   3.143   0.632  13.234 -0.0244 -0.2589  0.1387
 1707SOL    HW116757   3.088   0.577  13.179 -2.6594  1.3887  1.1316
 1707SOL    HW216758   3.221   0.632  13.179 -0.4840  0.8520 -0.5221
 1708SOL     OW16759   2.359   0.330   3.168  0.3641 -0.2119 -0.6571
 1708SOL    HW116760   2.323   0.288   3.246  0.2880  1.6186  0.2893
 1708SOL    HW216761   2.286   0.310   3.109  0.3842  0.1779 -0.8143
 1709SOL     OW16762   4.465   3.282   5.269  0.2870  0.0491  0.4151
 1709SOL    HW116763   4.555   3.310   5.249  0.3264  1.3611  2.4974
 1709SOL    HW216764   4.457   3.258   5.361 -0.3622  0.7668  0.5447
 1710SOL     OW16765   4.671   4.347   3.150 -0.3252  0.4689  0.4566
 1710SOL    HW116766   0.032   4.354   3.151 -0.1902 -0.9743 -0.5558
 1710SOL    HW216767   4.646   4.436   3.173 -1.0931  0.8700 -1.8720
 1711SOL     OW16768   0.539   3.186  12.388  0.0933  0.6394  0.0524
 1711SOL    HW116769   0.572   3.105  12.427 -1.1129 -0.9234 -2.1972
 1711SOL    HW216770   0.458   3.166  12.342 -0.4608  0.7565  0.9735
 1712SOL     OW16771   1.337   0.820  10.654 -0.3822  0.4112  0.1262
 1712SOL    HW116772   1.341   0.758  10.727 -5.0175 -0.7387 -0.6389
 1712SOL    HW216773   1.322   0.898  10.707 -0.6865 -0.6454  1.6088
 1713SOL     OW16774   4.554   3.064   6.712  0.7340 -1.0785 -0.4087
 1713SOL    HW116775   4.561   3.159   6.725 -0.3735 -1.2442  1.4021
 1713SOL    HW216776   4.476   3.061   6.656 -0.2164  0.0700  0.8502
 1714SOL     OW16777   4.214   2.170  16.321  0.1344 -0.0713  0.1343
 1714SOL    HW116778   4.162   2.190  16.399 -1.1102 -2.4925 -0.0747
 1714SOL    HW216779   4.183   2.082  16.300 -0.3272  0.2838 -0.7033
 1715SOL     OW16780   1.065   1.509   8.146  0.1176 -0.0474  1.0172
 1715SOL    HW116781   1.068   1.414   8.159  1.2048 -0.3162 -1.2724
 1715SOL    HW216782   1.155   1.532   8.125 -0.2384  0.4500  0.0775
 1716SOL     OW16783   3.384   3.234   4.392  0.3384  0.3131  0.5935
 1716SOL    HW116784   3.404   3.316   4.347  1.9986 -1.2223 -1.4848
 1716SOL    HW216785   3.369   3.272   4.479 -1.1413  1.0882  0.0004
 1717SOL     OW16786   4.052   1.351   7.931 -0.7558 -0.4350 -0.1657
 1717SOL    HW116787   4.112   1.314   7.995  0.1935  1.7348  0.2019
 1717SOL    HW216788   4.111   1.415   7.892  0.5278 -1.5145 -0.0006
 1718SOL     OW16789   2.480   0.139  12.788  0.2268 -0.0509 -0.2250
 1718SOL    HW116790   2.554   0.098  12.745  1.2491 -1.4190  2.8195
 1718SOL    HW216791   2.443   0.069  12.841 -0.2349  0.3002 -0.0772
 1719SOL     OW16792   1.309   2.892   0.027  0.4342 -0.5604 -0.4647
 1719SOL    HW116793   1.277   2.801   0.030 -0.7627 -0.1839 -1.9992
 1719SOL    HW216794   1.393   2.873  17.726 -0.7680 -1.1046 -2.7432
 1720SOL     OW16795   0.916   4.096   0.859 -0.6493 -0.6010  0.2222
 1720SOL    HW116796   0.835   4.086   0.808 -0.7519 -0.1013  0.2811
 1720SOL    HW216797   0.979   4.091   0.786 -1.3303 -1.1288 -0.3278
 1721SOL     OW16798   1.590   2.590   3.977 -0.1762 -0.3537 -0.1177
 1721SOL    HW116799   1.669   2.644   3.980  0.1793 -0.9172  0.5614
 1721SOL    HW216800   1.603   2.551   4.063  1.9954  1.3937  0.3364
 1722SOL     OW16801   1.847   0.245   3.074 -0.1799 -0.3607 -0.3117
 1722SOL    HW116802   1.856   0.247   2.979 -1.6732 -1.7792 -0.4699
 1722SOL    HW216803   1.756   0.272   3.084 -0.2485 -1.0134  0.8170
 1723SOL     OW16804   4.621   1.104   1.968  0.9807 -0.6395 -0.8288
 1723SOL    HW116805   4.637   1.012   1.946 -2.8459 -1.7396  1.0775
 1723SOL    HW216806   4.700   1.130   2.016  0.7280 -2.6713  0.6677
 1724SOL     OW16807   0.720   1.774   2.364 -0.0653  0.2613 -0.6062
 1724SOL    HW116808   0.666   1.852   2.376 -1.0121 -0.5623  0.5676
 1724SOL    HW216809   0.646   1.713   2.360  0.0425  0.1713 -1.3121
 1725SOL     OW16810   3.285   0.922  14.703  0.6412  0.6975 -0.6545
 1725SOL    HW116811   3.368   0.970  14.701  0.8694  0.3509  1.1932
 1725SOL    HW216812   3.292   0.866  14.625 -0.9697  1.8584 -1.6339
 1726SOL     OW16813   1.753   1.970  10.714 -0.0086  0.2139  0.5256
 1726SOL    HW116814   1.837   1.994  10.674  0.6217 -2.0482  0.4848
 1726SOL    HW216815   1.782   1.913  10.785 -1.5045 -0.3145  0.7187
 1727SOL     OW16816   0.686   1.398  14.577  0.4060 -0.1267 -0.0030
 1727SOL    HW116817   0.621   1.359  14.519  0.5716 -2.3715  1.3413
 1727SOL    HW216818   0.770   1.375  14.536  0.0216  1.9852 -1.9846
 1728SOL     OW16819   4.567   2.696   8.394  0.1839  0.1497 -0.6822
 1728SOL    HW116820   4.615   2.613   8.395  0.3961  0.2660 -1.1811
 1728SOL    HW216821   4.545   2.705   8.302  0.9206 -0.9711 -0.9709
 1729SOL     OW16822   3.990   3.078   3.633 -0.2512  0.4579  0.6170
 1729SOL    HW116823   3.909   3.059   3.586 -0.3012  0.6803  0.6163
 1729SOL    HW216824   4.052   3.037   3.573 -2.5612  0.5997 -1.8548
 1730SOL     OW16825   3.091   0.801   7.261 -0.3677  0.4813  0.5608
 1730SOL    HW116826   3.145   0.854   7.203  3.7456  0.4051  4.2893
 1730SOL    HW216827   3.057   0.868   7.321  0.8766  1.4977  0.1153
 1731SOL     OW16828   3.370   0.889   7.303 -0.2548  0.2543 -0.1848
 1731SOL    HW116829   3.456   0.930   7.308 -0.6752  1.0403  0.6175
 1731SOL    HW216830   3.360   0.869   7.396  1.7036  0.2184  0.0073
 1732SOL     OW16831   2.791   3.508   9.197 -0.1784 -0.1690  0.1151
 1732SOL    HW116832   2.752   3.572   9.136  2.1781  2.1184  1.0383
 1732SOL    HW216833   2.719   3.512   9.260 -1.0225  2.7487 -1.0263
 1733SOL     OW16834   2.536   0.295  13.042 -0.4441  0.2946 -0.1140
 1733SOL    HW116835   2.479   0.252  13.106 -1.9941  3.2284  0.4947
 1733SOL    HW216836   2.528   0.239  12.965  0.3417 -1.4573  1.1006
 1734SOL     OW16837   1.348   0.705  17.731  0.2134 -0.3730 -0.5266
 1734SOL    HW116838   1.282   0.644  17.698 -0.6765 -0.7264  1.9237
 1734SOL    HW216839   1.380   0.643   0.056 -1.6924  0.2810  1.0393
 1735SOL     OW16840   2.719   1.936   1.540  0.4019  0.2668  0.2133
 1735SOL    HW116841   2.751   1.872   1.605  2.2659  0.5505 -0.4276
 1735SOL    HW216842   2.672   2.004   1.588 -0.5377 -0.0609 -0.2465
 1736SOL     OW16843   1.883   0.503   3.778 -0.0256  0.0850 -0.1971
 1736SOL    HW116844   1.858   0.560   3.851 -2.9122  0.0994 -1.1621
 1736SOL    HW216845   1.976   0.519   3.765 -0.5697  2.1916 -1.4425
 1737SOL     OW16846   3.144   3.743  10.901 -0.1434 -0.5420 -0.1317
 1737SOL    HW116847   3.160   3.752  10.994  2.4387 -0.0665 -0.6382
 1737SOL    HW216848   3.233   3.716  10.879  0.3220  1.1274 -0.2704
 1738SOL     OW16849   0.982   2.922   7.755 -0.2497  0.0337 -0.7083
 1738SOL    HW116850   0.925   2.999   7.754  0.1443  0.3257 -1.1227
 1738SOL    HW216851   1.024   2.940   7.839  0.7170 -2.2141 -0.7238
 1739SOL     OW16852   2.824   1.004   8.920  0.7878  0.1441  0.0194
 1739SOL    HW116853   2.868   1.065   8.861  1.9453  1.2569  2.0179
 1739SOL    HW216854   2.878   0.928   8.902  1.5972  0.5540  0.7070
 1740SOL     OW16855   0.397   3.676   3.398 -0.1110  0.5365  0.0648
 1740SOL    HW116856   0.422   3.587   3.421 -1.1192  0.1833 -0.1948
 1740SOL    HW216857   0.309   3.662   3.362 -0.1119 -0.6598  0.5201
 1741SOL     OW16858   4.466   1.085  14.995 -0.4668  0.5362  0.2833
 1741SOL    HW116859   4.556   1.072  15.024 -1.6625 -3.7082  2.1114
 1741SOL    HW216860   4.461   1.028  14.918 -0.6765  0.6202  0.2368
 1742SOL     OW16861   0.287   3.081   4.221  0.4122  0.5185 -0.4199
 1742SOL    HW116862   0.336   3.137   4.281  0.0047 -1.8728  2.1364
 1742SOL    HW216863   0.312   3.115   4.135 -0.8760  0.8798 -0.6516
 1743SOL     OW16864   0.476   1.835   9.148  0.4825  0.2508 -0.1266
 1743SOL    HW116865   0.445   1.887   9.074 -0.3311 -0.0595 -0.0045
 1743SOL    HW216866   0.564   1.826   9.111  0.5863  0.6041  0.0335
 1744SOL     OW16867   4.342   4.607   7.947  0.3366 -0.0246  0.2175
 1744SOL    HW116868   4.353   4.523   7.902  1.6379 -1.4580  3.2176
 1744SOL    HW216869   4.355   4.670   7.876  0.4646  0.0792  0.3343
 1745SOL     OW16870   0.885   2.139   5.990 -0.2588  0.1611 -0.1566
 1745SOL    HW116871   0.864   2.130   5.897 -0.5237  2.2400 -0.3034
 1745SOL    HW216872   0.818   2.082   6.029 -0.4049 -1.0611 -2.2065
 1746SOL     OW16873   2.135   2.376  15.175  0.0581  0.2103 -0.0201
 1746SOL    HW116874   2.194   2.302  15.185  0.5877  0.5430 -0.6624
 1746SOL    HW216875   2.152   2.393  15.082  0.5751 -0.4501 -0.0480
 1747SOL     OW16876   0.531   1.975   2.315  0.0878 -0.1697  0.9949
 1747SOL    HW116877   0.469   1.997   2.385 -3.6186 -3.9806 -1.0480
 1747SOL    HW216878   0.478   1.918   2.259  1.4422 -1.4572  1.0492
 1748SOL     OW16879   4.154   2.882   3.791  0.0150 -0.0622 -0.1639
 1748SOL    HW116880   4.086   2.933   3.747 -1.2053 -0.4534  1.2907
 1748SOL    HW216881   4.099   2.804   3.784 -1.4033  1.1345 -2.2641
 1749SOL     OW16882   1.869   0.935   0.047  0.5759  0.3460  0.3282
 1749SOL    HW116883   1.964   0.942   0.041  0.6909 -1.7230 -0.0491
 1749SOL    HW216884   1.856   1.028   0.027  0.7478 -0.5160 -3.9431
 1750SOL     OW16885   1.564   2.556   4.409  0.0257 -0.6514 -0.2724
 1750SOL    HW116886   1.630   2.590   4.349  0.0445 -0.8184 -0.3457
 1750SOL    HW216887   1.618   2.494   4.457 -1.3955 -0.8053  1.1385
 1751SOL     OW16888   2.647   1.462   3.287 -0.2993  0.0216  0.4982
 1751SOL    HW116889   2.698   1.392   3.248 -0.2762  0.6292 -0.5631
 1751SOL    HW216890   2.707   1.520   3.334 -0.0397  0.8972 -0.9106
 1752SOL     OW16891   2.195   2.270  16.375 -0.0061  0.1022 -0.1170
 1752SOL    HW116892   2.202   2.303  16.465  0.9196 -1.0837  0.2396
 1752SOL    HW216893   2.269   2.314  16.333 -1.5777  2.6068 -0.2301
 1753SOL     OW16894   1.002   0.566   5.044  0.2779  0.5340  0.3908
 1753SOL    HW116895   1.035   0.609   5.122  0.7753  0.4485  0.2271
 1753SOL    HW216896   1.069   0.498   5.038 -1.3710 -0.9697 -1.3907
 1754SOL     OW16897   3.459   1.966   9.056  0.1402 -0.0459  0.0836
 1754SOL    HW116898   3.369   1.990   9.079  0.4596  1.0734  0.1466
 1754SOL    HW216899   3.498   2.049   9.080 -0.6367 -0.2012  1.8839
 1755SOL     OW16900   2.198   3.791   5.292  0.5278 -0.2549 -0.1094
 1755SOL    HW116901   2.277   3.813   5.244  1.6721  0.9748  2.3189
 1755SOL    HW216902   2.129   3.845   5.255 -1.5497 -0.2965  3.7225
 1756SOL     OW16903   0.404   2.017   0.932  0.0786  0.3466 -0.4174
 1756SOL    HW116904   0.359   2.100   0.916 -2.6721 -0.3846  3.6173
 1756SOL    HW216905   0.447   1.999   0.848  0.4007  0.8014 -0.3547
 1757SOL     OW16906   2.619   4.059   5.588 -0.2372  0.7872 -0.1253
 1757SOL    HW116907   2.553   4.111   5.542  0.4758  1.5988 -0.2243
 1757SOL    HW216908   2.686   4.122   5.614  0.7692 -0.5132  0.4405
 1758SOL     OW16909   1.171   1.554   1.908 -0.8197 -0.1259  0.2056
 1758SOL    HW116910   1.117   1.476   1.901  0.2142 -0.9976  1.9030
 1758SOL    HW216911   1.106   1.614   1.943  0.0228  1.5614 -1.0821
 1759SOL     OW16912   2.006   2.178   4.159  0.1435  0.3627 -0.3067
 1759SOL    HW116913   2.081   2.217   4.113  0.0037  0.1490 -0.7215
 1759SOL    HW216914   1.972   2.119   4.091 -1.6066 -0.0843  0.9701
 1760SOL     OW16915   3.002   3.362   9.539  0.5790 -0.1631  0.1111
 1760SOL    HW116916   2.976   3.308   9.464  1.0696 -0.8861  0.4565
 1760SOL    HW216917   2.987   3.449   9.503  0.7795  0.7308  2.1622
 1761SOL     OW16918   4.040   3.472   9.155  0.2552  0.0684  0.1069
 1761SOL    HW116919   4.067   3.560   9.178  2.6592 -0.7693  0.5268
 1761SOL    HW216920   4.100   3.417   9.206  0.0046  0.3528  0.6952
 1762SOL     OW16921   2.746   3.541   7.750 -0.1767  0.0108 -0.4456
 1762SOL    HW116922   2.793   3.550   7.667 -0.3774  1.9861 -0.3525
 1762SOL    HW216923   2.817   3.498   7.797 -1.3411 -0.7801  0.5804
 1763SOL     OW16924   3.857   1.677   3.723  0.5947  0.5106 -0.5596
 1763SOL    HW116925   3.816   1.601   3.763  1.1395  0.1162 -0.7534
 1763SOL    HW216926   3.797   1.749   3.739  2.0169  0.7992  3.5664
 1764SOL     OW16927   3.158   1.210   7.840 -0.5130 -0.3913 -0.1920
 1764SOL    HW116928   3.099   1.264   7.893 -1.6336  0.2883 -2.1241
 1764SOL    HW216929   3.093   1.160   7.790  1.7502  0.2855 -3.8167
 1765SOL     OW16930   2.187   2.164  16.714  0.1178 -0.4507 -0.0807
 1765SOL    HW116931   2.209   2.211  16.794 -0.5293 -0.7247  0.2601
 1765SOL    HW216932   2.138   2.235  16.672  1.8194 -1.2337 -3.4523
 1766SOL     OW16933   3.841   0.355   7.679  0.0268  0.4816  0.0444
 1766SOL    HW116934   3.753   0.366   7.716  1.3077 -2.9520  4.1066
 1766SOL    HW216935   3.833   0.277   7.624  0.0893 -0.0666  0.8209
 1767SOL     OW16936   4.080   0.798   0.048  0.2967 -0.3961 -0.4535
 1767SOL    HW116937   4.143   0.866   0.072  0.0838  0.4996 -2.4380
 1767SOL    HW216938   4.132   0.720   0.067 -0.3650 -0.5758  0.6509
 1768SOL     OW16939   2.521   3.084   4.056 -0.6162 -1.1230 -1.2055
 1768SOL    HW116940   2.486   3.128   3.978 -0.7625  0.5021 -0.2047
 1768SOL    HW216941   2.599   3.050   4.012  1.3538  0.6057  0.9391
 1769SOL     OW16942   0.312   3.499   8.299  0.2715 -0.0751  0.3659
 1769SOL    HW116943   0.379   3.434   8.318  0.8149  0.6910  1.0870
 1769SOL    HW216944   0.248   3.462   8.359  1.3435 -3.7121 -0.7206
 1770SOL     OW16945   3.426   1.348  17.607 -0.6060 -0.0263 -0.7162
 1770SOL    HW116946   3.473   1.388  17.534 -0.0517 -1.4466 -1.1270
 1770SOL    HW216947   3.336   1.337  17.577 -1.1091 -1.5735  1.3224
 1771SOL     OW16948   0.697   2.040   2.601 -0.4470 -0.1932 -0.0323
 1771SOL    HW116949   0.791   2.050   2.591 -0.2883 -1.1387  0.4698
 1771SOL    HW216950   0.697   1.975   2.672  0.0872  0.0437  0.1873
 1772SOL     OW16951   4.058   2.243   1.337  0.2747  0.4502  0.3001
 1772SOL    HW116952   4.033   2.155   1.365  2.0442 -0.8026 -2.0577
 1772SOL    HW216953   3.973   2.282   1.318  0.1862  1.0695  1.8832
 1773SOL     OW16954   4.494   4.699   9.266  1.3223 -0.4733 -0.1527
 1773SOL    HW116955   4.495   0.028   9.196 -2.1917 -1.6120 -1.2401
 1773SOL    HW216956   4.527   4.622   9.221 -2.0167 -1.3592 -1.0710
 1774SOL     OW16957   2.091   2.838  17.511 -0.5209  0.1260  0.1905
 1774SOL    HW116958   2.058   2.805  17.427 -1.0953 -1.3927  1.0304
 1774SOL    HW216959   2.124   2.758  17.551  1.5828  0.1536 -1.4160
 1775SOL     OW16960   3.881   3.109   8.076 -0.0143 -0.0168 -0.3785
 1775SOL    HW116961   3.948   3.140   8.136 -0.4854  1.0938 -0.4242
 1775SOL    HW216962   3.842   3.189   8.040 -1.4680 -0.0450  1.0984
 1776SOL     OW16963   2.179   2.266   7.678  0.0687  0.0218 -0.0209
 1776SOL    HW116964   2.143   2.199   7.735 -2.9207  1.7935  0.1676
 1776SOL    HW216965   2.136   2.251   7.594  2.7939  0.5331 -1.5352
 1777SOL     OW16966   1.184   3.917  14.653  0.2333 -0.1179 -0.0978
 1777SOL    HW116967   1.109   3.878  14.699  0.3394 -0.3506 -0.1188
 1777SOL    HW216968   1.233   3.844  14.614  1.8736  0.5512  0.7260
 1778SOL     OW16969   2.049   1.184   2.336  0.3629  0.3960  0.1129
 1778SOL    HW116970   1.986   1.124   2.294  1.2864 -0.2935 -0.2779
 1778SOL    HW216971   2.012   1.267   2.308  0.3185  0.2240 -0.3432
 1779SOL     OW16972   0.439   2.935   8.209 -0.8752  0.1729 -0.2240
 1779SOL    HW116973   0.459   2.845   8.236  2.5370  0.4422 -1.9829
 1779SOL    HW216974   0.363   2.915   8.153 -1.7468 -0.4275  1.1658
 1780SOL     OW16975   1.362   0.485   3.760 -0.6697  0.2614 -0.4830
 1780SOL    HW116976   1.439   0.541   3.773  1.8905 -2.8041 -2.4773
 1780SOL    HW216977   1.336   0.480   3.852 -0.3708 -1.9039 -0.5169
 1781SOL     OW16978   1.064   1.562  14.674 -0.1226  0.2670  0.0312
 1781SOL    HW116979   0.993   1.497  14.669 -0.0083  0.1871 -0.6046
 1781SOL    HW216980   1.060   1.595  14.764 -2.0410  0.6092 -0.1658
 1782SOL     OW16981   3.214   4.129   7.337  0.3141  0.3985  0.1171
 1782SOL    HW116982   3.225   4.219   7.305  1.1569  0.3670  0.3202
 1782SOL    HW216983   3.132   4.112   7.292  0.5910 -1.1221  0.2014
 1783SOL     OW16984   2.538   2.172   3.206  0.3345  0.5989  0.0600
 1783SOL    HW116985   2.548   2.247   3.148 -0.9886 -0.5920 -1.7054
 1783SOL    HW216986   2.608   2.122   3.165 -1.2109 -0.9074 -0.7220
 1784SOL     OW16987   2.247   1.450   1.574  0.8136  0.0951  0.0409
 1784SOL    HW116988   2.337   1.446   1.607  0.5790 -0.5501  0.6247
 1784SOL    HW216989   2.268   1.485   1.487  1.9442  0.4495  0.4527
 1785SOL     OW16990   3.610   0.613   6.807 -0.2034  0.2283 -0.0027
 1785SOL    HW116991   3.675   0.652   6.865  0.6471  1.3193 -1.6940
 1785SOL    HW216992   3.570   0.553   6.870  1.6286  0.9381  1.8463
 1786SOL     OW16993   4.171   4.041   9.033  0.0964 -0.5798  0.0091
 1786SOL    HW116994   4.181   4.102   8.960 -1.3672 -0.6805 -0.2648
 1786SOL    HW216995   4.240   4.075   9.090  0.5102  1.1187 -1.5130
 1787SOL     OW16996   3.279   0.008   1.260 -0.1987 -0.2995  0.2984
 1787SOL    HW116997   3.339   0.079   1.239 -0.7957  0.2724  0.5188
 1787SOL    HW216998   3.291   4.733   1.355  0.7230  0.1723  0.2300
 1788SOL     OW16999   2.228   4.578  13.645  0.1109 -0.0397 -0.6323
 1788SOL    HW117000   2.199   4.521  13.716 -1.3472 -0.7843 -1.8246
 1788SOL    HW217001   2.263   4.516  13.580 -0.3437  0.3893 -1.2969
 1789SOL     OW17002   3.126   0.146   7.563 -0.2913  0.4433  0.6205
 1789SOL    HW117003   3.121   0.145   7.467  1.0269 -0.6789  0.5632
 1789SOL    HW217004   3.097   0.235   7.581  1.9498  1.1060  0.9390
 1790SOL     OW17005   3.089   2.957   7.296  0.3260  0.5931 -0.3056
 1790SOL    HW117006   3.047   2.912   7.370 -0.4593  1.3440 -0.3029
 1790SOL    HW217007   3.178   2.930   7.319 -1.1414 -2.0884  2.2422
 1791SOL     OW17008   2.641   1.553   4.744  0.3375  0.3888  0.2355
 1791SOL    HW117009   2.571   1.522   4.687  0.5812 -1.5657  1.0013
 1791SOL    HW217010   2.631   1.508   4.828  1.1865 -0.5763 -0.1773
 1792SOL     OW17011   3.342   0.390   3.890  0.0003  0.5720  0.0085
 1792SOL    HW117012   3.431   0.366   3.866 -0.7096 -1.5577 -0.4197
 1792SOL    HW217013   3.352   0.407   3.984  0.3916  0.9349 -0.0984
 1793SOL     OW17014   4.107   0.185  15.370  0.1572  0.4085 -0.3764
 1793SOL    HW117015   4.119   0.233  15.453  0.8923  2.2385 -1.5398
 1793SOL    HW217016   4.088   0.252  15.304  1.7095  1.3724  0.1373
 1794SOL     OW17017   0.595   3.886   2.963 -0.2436  0.6280 -0.5546
 1794SOL    HW117018   0.638   3.816   2.914 -0.5615 -0.0482  0.1438
 1794SOL    HW217019   0.582   3.834   3.042  1.0850  1.7148  0.3873
 1795SOL     OW17020   4.211   0.284   3.151  0.1536 -0.1873 -0.6384
 1795SOL    HW117021   4.137   0.253   3.203  2.0458  0.6334  2.5489
 1795SOL    HW217022   4.161   0.290   3.070  0.5864 -1.8154 -1.0398
 1796SOL     OW17023   2.006   1.047   6.346  0.2148  0.1135  0.5749
 1796SOL    HW117024   1.937   0.981   6.355 -0.4773  0.4556 -2.2903
 1796SOL    HW217025   1.954   1.110   6.298  0.0084 -0.1880  0.4040
 1797SOL     OW17026   1.287   0.838   6.010 -0.4226 -0.1994  0.2363
 1797SOL    HW117027   1.243   0.918   6.037 -2.1046 -1.1475  0.2568
 1797SOL    HW217028   1.234   0.807   5.936 -0.9927  0.2249  0.4692
 1798SOL     OW17029   4.259   3.532   9.285 -0.5740  0.4704  0.2517
 1798SOL    HW117030   4.350   3.539   9.258 -0.5435  2.3227  0.8620
 1798SOL    HW217031   4.273   3.514   9.378 -1.5296  1.4832  0.5932
 1799SOL     OW17032   0.535   4.366   7.134  0.6733  0.1677  0.0225
 1799SOL    HW117033   0.612   4.357   7.078 -0.4436 -0.4939 -1.4040
 1799SOL    HW217034   0.530   4.276   7.164 -1.9987 -0.3770 -2.0407
 1800SOL     OW17035   3.348   2.798  15.877  0.2910 -0.7549  0.3120
 1800SOL    HW117036   3.348   2.733  15.806  0.0697  1.1995 -1.4678
 1800SOL    HW217037   3.289   2.864  15.841  2.0409  0.4286 -0.3473
 1801SOL     OW17038   0.736   3.268  15.386 -0.2780  0.5341 -0.0847
 1801SOL    HW117039   0.734   3.251  15.480  2.5408  0.1211 -0.0997
 1801SOL    HW217040   0.821   3.311  15.379  0.3857 -0.3963  2.2196
 1802SOL     OW17041   1.995   0.087  13.043  0.1988 -0.4405 -0.1428
 1802SOL    HW117042   1.920   0.142  13.066  0.3180 -0.1337 -0.4879
 1802SOL    HW217043   1.965   0.050  12.959  2.3168 -1.5596 -0.3853
 1803SOL     OW17044   2.922   2.869   2.591 -0.2529 -0.4127  0.3563
 1803SOL    HW117045   2.934   2.806   2.520 -3.1448 -2.0586  1.3183
 1803SOL    HW217046   2.828   2.879   2.579 -0.0762  1.7300  0.9174
 1804SOL     OW17047   1.488   1.458   4.655  0.3951  0.1954 -0.2694
 1804SOL    HW117048   1.544   1.381   4.662 -0.7808 -0.5072  1.1671
 1804SOL    HW217049   1.418   1.437   4.716  0.5574 -1.8586 -0.8138
 1805SOL     OW17050   3.486   3.011   6.636  0.3747 -0.1074  0.3466
 1805SOL    HW117051   3.527   2.950   6.698  0.4182  0.1039  0.5246
 1805SOL    HW217052   3.565   3.062   6.617  2.1491 -3.0315 -0.2806
 1806SOL     OW17053   1.295   1.695  14.817 -0.1479 -0.1531 -0.1969
 1806SOL    HW117054   1.224   1.658  14.869  0.4035 -0.6833  0.1679
 1806SOL    HW217055   1.259   1.674  14.731 -0.4204  0.8357 -0.3352
 1807SOL     OW17056   1.432   1.265   9.382  0.0166 -0.1104 -0.4568
 1807SOL    HW117057   1.393   1.242   9.297 -3.2034 -0.9460  1.2383
 1807SOL    HW217058   1.525   1.276   9.362 -0.5774 -0.8520 -3.6361
 1808SOL     OW17059   1.202   1.238   8.033 -0.0954 -0.1641 -0.4852
 1808SOL    HW117060   1.246   1.178   7.972 -2.3669 -0.1909 -2.0803
 1808SOL    HW217061   1.273   1.302   8.038 -0.1280 -0.4108  2.6944
 1809SOL     OW17062   1.601   2.840   0.247  0.0646  0.1467  0.2623
 1809SOL    HW117063   1.564   2.771   0.192 -2.1075 -0.2623  2.2307
 1809SOL    HW217064   1.531   2.905   0.248  0.1858  0.3220 -2.2408
 1810SOL     OW17065   3.485   2.712   6.577  0.4955  0.0028  0.0819
 1810SOL    HW117066   3.487   2.673   6.489  0.6062  3.0608 -1.2876
 1810SOL    HW217067   3.467   2.804   6.556  1.0796 -0.7220 -3.7011
 1811SOL     OW17068   3.900   4.249  10.212 -0.0181 -0.3300 -0.1374
 1811SOL    HW117069   3.837   4.190  10.171  2.2054 -2.3078 -0.7132
 1811SOL    HW217070   3.932   4.294  10.134  1.6639 -0.7569  0.3032
 1812SOL     OW17071   2.132   1.700  11.803 -0.0553 -0.2609 -0.4206
 1812SOL    HW117072   2.045   1.660  11.806 -0.6072  0.9970  0.1125
 1812SOL    HW217073   2.102   1.785  11.772 -1.0643  0.1286  1.6633
 1813SOL     OW17074   4.457   2.371   7.178  0.1731 -0.3613 -0.1789
 1813SOL    HW117075   4.365   2.397   7.173  0.5561  1.6637  2.9868
 1813SOL    HW217076   4.506   2.450   7.157 -0.6002  0.5735  1.5203
 1814SOL     OW17077   2.529   4.215   8.186  0.4199  0.1104  0.0501
 1814SOL    HW117078   2.515   4.185   8.096  0.3055  1.0019 -0.2322
 1814SOL    HW217079   2.486   4.300   8.194  0.0484  0.1212 -1.9937
 1815SOL     OW17080   4.356   1.519   8.222 -0.7478 -0.2482  0.4570
 1815SOL    HW117081   4.328   1.431   8.195  0.4069  0.0628 -1.7237
 1815SOL    HW217082   4.326   1.536   8.312  0.1059  1.9960  0.2976
 1816SOL     OW17083   1.220   0.829   4.650  0.2712 -0.0237  0.0849
 1816SOL    HW117084   1.297   0.772   4.643  0.6970  0.7032 -1.1489
 1816SOL    HW217085   1.245   0.867   4.734  1.3362  0.5189 -0.4694
 1817SOL     OW17086   1.857   3.735   5.463 -0.2344  0.3183  0.0940
 1817SOL    HW117087   1.777   3.684   5.477  1.5416 -2.5928 -0.4227
 1817SOL    HW217088   1.835   3.777   5.380 -0.5314  1.2252  0.6365
 1818SOL     OW17089   3.475   0.652   6.555  0.5889  0.7456 -0.5266
 1818SOL    HW117090   3.550   0.671   6.611  0.2307 -1.7623  0.7938
 1818SOL    HW217091   3.514   0.666   6.469  0.8981 -0.9817 -0.6681
 1819SOL     OW17092   3.918   2.188   6.654 -0.4138 -0.0542 -0.2854
 1819SOL    HW117093   3.863   2.262   6.630  3.6607  2.4354 -1.7851
 1819SOL    HW217094   3.910   2.202   6.748 -0.4184  1.3871 -0.5052
 1820SOL     OW17095   3.355   1.857   4.447 -0.7412 -0.2069 -0.1329
 1820SOL    HW117096   3.302   1.787   4.487  1.6434 -2.2054 -0.4869
 1820SOL    HW217097   3.288   1.885   4.384 -0.1911  1.3122 -0.0408
 1821SOL     OW17098   3.471   2.323   3.902 -0.5299  0.1640  0.2064
 1821SOL    HW117099   3.379   2.315   3.879 -0.1453  0.0477 -1.3098
 1821SOL    HW217100   3.509   2.250   3.853 -1.1954 -0.3743  0.5061
 1822SOL     OW17101   0.110   0.295  12.436  0.0026  0.2159 -0.0610
 1822SOL    HW117102   0.089   0.374  12.487 -1.4730 -2.0864  2.9461
 1822SOL    HW217103   0.116   0.336  12.350 -1.0350  0.9361  0.1967
 1823SOL     OW17104   2.136   4.153  15.429 -0.3264  0.2750  0.2647
 1823SOL    HW117105   2.093   4.203  15.498  2.0454  1.7566  0.6852
 1823SOL    HW217106   2.064   4.146  15.366  0.7795  2.0641 -1.1919
 1824SOL     OW17107   2.519   4.681   6.458 -0.1020 -0.0637 -0.6489
 1824SOL    HW117108   2.589   4.617   6.445 -1.6680 -2.1384  1.1551
 1824SOL    HW217109   2.514   4.714   6.369 -1.4829  0.4852 -0.3681
 1825SOL     OW17110   2.995   0.192  13.143  0.0478  0.1802 -0.3186
 1825SOL    HW117111   2.972   0.275  13.185 -1.2994 -0.5387  0.3574
 1825SOL    HW217112   2.964   0.126  13.205 -3.0447  1.8064 -0.1175
 1826SOL     OW17113   3.801   1.714   6.769  0.7562 -0.1725  0.0276
 1826SOL    HW117114   3.871   1.778   6.768 -0.9949  1.7459  1.3848
 1826SOL    HW217115   3.837   1.656   6.836  0.7797 -0.4495 -0.2219
 1827SOL     OW17116   0.447   1.913   5.668  0.2761  0.0077  0.2331
 1827SOL    HW117117   0.477   1.999   5.636 -2.7357  0.0282 -2.4826
 1827SOL    HW217118   0.352   1.913   5.682  0.1612  1.1394 -0.4948
 1828SOL     OW17119   0.885   0.263   0.186 -0.2434  0.3023 -0.4188
 1828SOL    HW117120   0.939   0.223   0.118  0.0320  0.9520 -0.5830
 1828SOL    HW217121   0.874   0.343   0.136 -3.6188 -0.5725 -1.0680
 1829SOL     OW17122   1.917   2.595   1.739  0.2602  0.1708  0.0685
 1829SOL    HW117123   1.981   2.582   1.809  1.0157  1.0568 -0.4544
 1829SOL    HW217124   1.940   2.687   1.725 -3.8843  1.2233  0.2585
 1830SOL     OW17125   3.666   2.617   3.803 -0.1430  0.0033  0.3211
 1830SOL    HW117126   3.622   2.535   3.783 -0.9770  0.5290  0.0111
 1830SOL    HW217127   3.627   2.635   3.888 -2.3461  0.3658 -0.7476
 1831SOL     OW17128   4.083   3.101   9.568 -0.4474  0.3706  0.1001
 1831SOL    HW117129   4.006   3.047   9.590 -1.3091  1.8003  0.6290
 1831SOL    HW217130   4.157   3.043   9.582  0.6246  1.2172 -2.1122
 1832SOL     OW17131   3.358   2.784  16.694  0.3783  0.1710  0.4723
 1832SOL    HW117132   3.288   2.738  16.648  0.6926  1.1935 -1.0216
 1832SOL    HW217133   3.323   2.872  16.687 -2.0472 -0.6424  2.3986
 1833SOL     OW17134   1.216   1.533   1.432 -0.1325  0.0862 -0.1270
 1833SOL    HW117135   1.190   1.443   1.415 -0.0839  0.2924 -1.3248
 1833SOL    HW217136   1.193   1.560   1.520 -0.1683 -0.1664 -0.0595
 1834SOL     OW17137   2.096   1.059   6.847 -0.1589  0.5846 -1.0281
 1834SOL    HW117138   2.109   1.041   6.754 -2.6681 -0.8863 -1.0771
 1834SOL    HW217139   2.146   1.141   6.850 -0.3798  0.6482  0.8556
 1835SOL     OW17140   1.227   2.653   2.836 -0.5142  0.2490 -0.1753
 1835SOL    HW117141   1.244   2.560   2.821 -0.5271  0.4020 -1.1788
 1835SOL    HW217142   1.203   2.685   2.749  1.5873  1.4765 -0.3073
 1836SOL     OW17143   3.743   4.661  16.359 -0.6328  0.1170  0.4729
 1836SOL    HW117144   3.682   4.657  16.432 -0.1765 -1.3341  0.7771
 1836SOL    HW217145   3.679   4.683  16.292 -2.1391 -0.8518  1.5963
 1837SOL     OW17146   1.175   4.054   8.202  0.2596  0.1971  0.1078
 1837SOL    HW117147   1.088   4.020   8.185  0.5268 -0.6283  0.3617
 1837SOL    HW217148   1.146   4.123   8.262  0.6816  0.4900 -0.0228
 1838SOL     OW17149   0.599   1.909  12.731 -0.3383 -1.0962 -0.3364
 1838SOL    HW117150   0.629   1.978  12.791 -2.0496  0.6700 -1.4898
 1838SOL    HW217151   0.567   1.849  12.798 -2.7480 -0.5581 -0.9979
 1839SOL     OW17152   2.230   3.547   4.235  0.3777  0.6610  0.7156
 1839SOL    HW117153   2.204   3.583   4.150 -0.0927  1.0157  1.0092
 1839SOL    HW217154   2.323   3.526   4.239 -0.4812 -2.6921  2.8274
 1840SOL     OW17155   2.111   1.189   4.263 -0.2238  0.9381 -0.6153
 1840SOL    HW117156   2.028   1.230   4.239 -0.0806  2.7608  2.0019
 1840SOL    HW217157   2.072   1.101   4.269  3.2867 -0.4040  2.1253
 1841SOL     OW17158   4.161   2.733   5.253 -0.3492  0.0829  0.0008
 1841SOL    HW117159   4.143   2.777   5.336 -0.8486 -2.4512  1.2513
 1841SOL    HW217160   4.168   2.807   5.193  0.1916 -0.5516 -0.7233
 1842SOL     OW17161   2.286   1.003   4.000 -0.5896 -0.2083 -0.1588
 1842SOL    HW117162   2.193   1.006   3.979 -1.0880 -0.5181  2.0050
 1842SOL    HW217163   2.309   1.090   3.967 -0.1756 -0.6070 -0.9051
 1843SOL     OW17164   4.604   1.871  16.807  0.2072  0.0146 -0.2200
 1843SOL    HW117165   4.670   1.906  16.748 -0.8391  0.8706 -0.8977
 1843SOL    HW217166   4.654   1.808  16.859 -0.2726  0.2789  0.5642
 1844SOL     OW17167   1.621   1.225  16.049 -0.4151  0.0010 -0.3228
 1844SOL    HW117168   1.598   1.155  16.109 -0.1498 -0.2661 -0.5299
 1844SOL    HW217169   1.546   1.284  16.049 -0.0099  0.5315  1.8682
 1845SOL     OW17170   2.243   4.566   1.488  0.4416  0.1552  0.0161
 1845SOL    HW117171   2.190   4.581   1.567 -0.5712 -0.9787 -0.4578
 1845SOL    HW217172   2.315   4.518   1.530 -0.5287 -0.4732  0.9689
 1846SOL     OW17173   2.999   3.593  10.238  0.3155 -0.1299  0.8762
 1846SOL    HW117174   3.088   3.569  10.212 -1.5257 -1.5947 -4.0648
 1846SOL    HW217175   3.000   3.542  10.319 -0.9243 -0.3690  0.7484
 1847SOL     OW17176   0.250   0.603   4.293 -0.0153  0.0669 -0.2177
 1847SOL    HW117177   0.192   0.597   4.368 -0.0471 -2.9679 -0.4864
 1847SOL    HW217178   0.195   0.563   4.226 -0.5335 -0.2317  0.3874
 1848SOL     OW17179   2.184   3.123   7.765 -0.0046 -0.2945  0.0915
 1848SOL    HW117180   2.228   3.162   7.689 -1.2560  1.0556  0.0617
 1848SOL    HW217181   2.108   3.180   7.757  0.9156  1.4155  3.5952
 1849SOL     OW17182   4.703   3.731   3.057 -0.1418  0.3470  0.4164
 1849SOL    HW117183   4.633   3.773   3.007  0.9177  1.4093 -0.1730
 1849SOL    HW217184   4.709   3.789   3.133  1.0611  0.7943 -0.0346
 1850SOL     OW17185   2.804   1.419   7.208  0.4095  0.0576  0.2895
 1850SOL    HW117186   2.722   1.371   7.223  0.0991  0.1128 -1.2364
 1850SOL    HW217187   2.873   1.354   7.198  0.7177  0.2573  1.1644
 1851SOL     OW17188   2.686   2.886  17.647  0.3188 -0.0575 -0.6994
 1851SOL    HW117189   2.732   2.962  17.682  0.7798 -0.7416  0.1879
 1851SOL    HW217190   2.598   2.924  17.644  0.5437  0.3448 -2.0151
 1852SOL     OW17191   1.259   1.932  15.345 -0.0014  0.1061  0.5420
 1852SOL    HW117192   1.348   1.957  15.369 -0.2055  1.1777  0.1909
 1852SOL    HW217193   1.203   1.975  15.410 -2.2161 -0.7388 -0.7998
 1853SOL     OW17194   2.416   0.806   3.732  0.2006 -0.4865 -0.1894
 1853SOL    HW117195   2.406   0.769   3.820  2.0255  1.3579  0.7760
 1853SOL    HW217196   2.508   0.781   3.721 -0.0560 -0.9046 -1.4411
 1854SOL     OW17197   3.877   3.431   9.888  0.0394 -0.5365  0.0669
 1854SOL    HW117198   3.896   3.479   9.808 -2.2254 -1.9385 -1.3002
 1854SOL    HW217199   3.861   3.342   9.857 -2.3621 -1.3289  3.5449
 1855SOL     OW17200   0.593   0.818  10.963 -0.4307  0.0696 -0.1622
 1855SOL    HW117201   0.548   0.837  10.881  1.1031  1.1170 -0.7454
 1855SOL    HW217202   0.623   0.905  10.989 -2.1737  0.6495 -0.1018
 1856SOL     OW17203   4.528   4.531   3.755  0.1135  0.1915 -0.0343
 1856SOL    HW117204   4.581   4.584   3.695  0.8279  1.6127  1.8590
 1856SOL    HW217205   4.544   4.448   3.711  0.5837 -0.8496  2.0981
 1857SOL     OW17206   2.898   2.367   9.113 -0.0859 -0.1395 -0.9876
 1857SOL    HW117207   2.809   2.360   9.079 -0.2556  4.1577 -1.4131
 1857SOL    HW217208   2.889   2.449   9.162  1.8467  0.0952 -1.0375
 1858SOL     OW17209   4.219   1.610  16.901  0.0060  0.3487  0.2010
 1858SOL    HW117210   4.155   1.656  16.847 -1.3888 -0.1952  1.3941
 1858SOL    HW217211   4.268   1.674  16.952 -1.2537  1.5566 -0.1113
 1859SOL     OW17212   3.344   2.949   4.816  0.3071  0.1366  0.5629
 1859SOL    HW117213   3.433   2.984   4.813  0.8719 -1.2784  0.4594
 1859SOL    HW217214   3.305   3.012   4.876 -0.4253  0.9423 -0.7674
 1860SOL     OW17215   0.902   4.402   6.062  0.0183  0.4401 -0.6058
 1860SOL    HW117216   0.836   4.471   6.060 -0.8565 -0.4332 -1.6718
 1860SOL    HW217217   0.876   4.352   5.984  1.2436  1.1855 -1.4845
 1861SOL     OW17218   3.833   1.352  13.070  0.3097 -0.0665 -0.3799
 1861SOL    HW117219   3.897   1.340  13.140  0.0811  0.7310 -0.0299
 1861SOL    HW217220   3.864   1.439  13.045 -1.0823  1.2291  2.4022
 1862SOL     OW17221   2.522   4.345   5.488  0.1330 -0.4283 -0.7056
 1862SOL    HW117222   2.561   4.423   5.527 -0.6597 -1.0301  1.2639
 1862SOL    HW217223   2.431   4.375   5.482  0.5443  1.2380  1.4108
 1863SOL     OW17224   3.702   1.276   5.971  0.1278  0.1332  0.1468
 1863SOL    HW117225   3.688   1.362   6.012 -0.8750 -0.2844  0.6767
 1863SOL    HW217226   3.644   1.286   5.895  1.0898  0.2934 -0.5604
 1864SOL     OW17227   1.709   0.199   3.936  0.3785  0.7800 -0.1667
 1864SOL    HW117228   1.682   0.290   3.952 -1.7243  0.4334 -1.8510
 1864SOL    HW217229   1.711   0.169   4.027  0.9253  1.1116 -0.0693
 1865SOL     OW17230   4.049   1.013   7.893 -0.7534 -0.6773  0.6839
 1865SOL    HW117231   4.120   1.059   7.847  1.8207 -3.3687  1.9488
 1865SOL    HW217232   3.986   0.994   7.823 -1.7540 -0.6924  1.5860
 1866SOL     OW17233   4.298   1.926   5.351  0.1116 -0.1624  0.0562
 1866SOL    HW117234   4.245   1.873   5.411  1.2673 -1.0944  0.2743
 1866SOL    HW217235   4.286   2.010   5.395 -1.9394 -0.7302  0.5697
 1867SOL     OW17236   2.960   4.382   9.819 -0.0018 -0.5057  0.4373
 1867SOL    HW117237   3.011   4.456   9.853  0.4726 -0.9774  0.7557
 1867SOL    HW217238   2.882   4.428   9.789  0.4658  1.8416  2.8137
 1868SOL     OW17239   0.435   1.468   4.705  0.2735  0.2596  0.1328
 1868SOL    HW117240   0.377   1.526   4.656 -1.3935 -1.0277  0.6166
 1868SOL    HW217241   0.481   1.431   4.629  4.8636  3.2216  1.4393
 1869SOL     OW17242   3.738   4.014   9.587  0.1251  0.2777 -0.2922
 1869SOL    HW117243   3.721   4.052   9.673 -2.4545 -1.1950 -0.1367
 1869SOL    HW217244   3.766   4.087   9.531  0.9978 -0.8286 -1.2886
 1870SOL     OW17245   2.322   4.106  11.418  0.0857  0.4157 -0.4187
 1870SOL    HW117246   2.300   4.078  11.507 -0.0735  3.1292  0.4091
 1870SOL    HW217247   2.322   4.018  11.381 -2.1326  0.0664  0.4140
 1871SOL     OW17248   2.875   4.113   4.998  0.3551  0.0841 -0.4806
 1871SOL    HW117249   2.938   4.184   4.985 -0.3865  0.4055 -2.4000
 1871SOL    HW217250   2.827   4.143   5.075  1.9035 -1.4502  1.0795
 1872SOL     OW17251   0.821   4.028  12.366 -0.5338  0.3624 -0.0001
 1872SOL    HW117252   0.830   3.992  12.278  1.1963 -0.4926  0.5314
 1872SOL    HW217253   0.858   4.115  12.350  1.8333 -0.5622  0.4801
 1873SOL     OW17254   3.486   1.747  16.272  0.0592  0.0942  0.4181
 1873SOL    HW117255   3.418   1.705  16.324  0.5237 -1.1757 -0.0122
 1873SOL    HW217256   3.455   1.711  16.189 -2.5133 -3.0015  2.7277
 1874SOL     OW17257   1.128   3.035   7.973 -0.2791 -0.4824 -0.2620
 1874SOL    HW117258   1.106   3.122   8.006  2.2879  0.0929 -0.0485
 1874SOL    HW217259   1.186   2.998   8.040 -0.1353 -0.7788 -0.5488
 1875SOL     OW17260   2.822   1.134  15.440  0.3286 -0.2576  0.0251
 1875SOL    HW117261   2.767   1.154  15.365  1.4775  2.8681 -0.0017
 1875SOL    HW217262   2.897   1.194  15.436 -0.1420  0.2544 -1.1147
 1876SOL     OW17263   2.296   3.799  11.335 -0.0620  0.2411  0.6380
 1876SOL    HW117264   2.284   3.836  11.247 -3.5561 -1.1624  0.5486
 1876SOL    HW217265   2.208   3.763  11.340  0.1643 -0.2302  1.1394
 1877SOL     OW17266   1.729   3.519   0.084 -0.3072 -0.3334  0.4790
 1877SOL    HW117267   1.677   3.452   0.128  1.1324 -1.9975 -0.3563
 1877SOL    HW217268   1.720   3.509  17.728  0.8672 -0.0134  0.3323
 1878SOL     OW17269   1.335   0.194   6.772  0.0061 -0.2704 -0.6223
 1878SOL    HW117270   1.371   0.268   6.820  0.6379 -0.0413 -1.4505
 1878SOL    HW217271   1.409   0.177   6.713  0.1791 -1.9595  0.0978
 1879SOL     OW17272   0.069   2.550   6.735 -0.3317  0.5812  0.4315
 1879SOL    HW117273   0.128   2.476   6.752  0.4550  1.3204  0.9278
 1879SOL    HW217274   0.128   2.624   6.754 -0.5164  0.8039  0.1389
 1880SOL     OW17275   1.266   2.286  10.988  0.2138 -0.6326  0.2849
 1880SOL    HW117276   1.267   2.248  11.076  2.2301  0.5181  0.7372
 1880SOL    HW217277   1.171   2.293  10.973  0.3882 -0.1319 -0.6095
 1881SOL     OW17278   1.405   1.427   1.790 -0.1485  0.8693  0.0181
 1881SOL    HW117279   1.344   1.465   1.854  0.3373  0.2548  0.8440
 1881SOL    HW217280   1.478   1.487   1.803  0.6910 -0.2599  0.4599
 1882SOL     OW17281   2.597   2.494   0.829 -0.4879 -0.1126  0.8177
 1882SOL    HW117282   2.560   2.423   0.775  0.4431  0.2314 -0.2811
 1882SOL    HW217283   2.567   2.570   0.779 -1.3932 -0.4825  0.7821
 1883SOL     OW17284   3.116   3.259   3.094 -0.1487 -0.1398 -0.1273
 1883SOL    HW117285   3.134   3.259   3.188  0.1368 -0.9339 -0.1765
 1883SOL    HW217286   3.078   3.171   3.087 -1.1236  0.2453  0.3921
 1884SOL     OW17287   0.907   0.565   4.543  0.3113 -0.2091 -0.4002
 1884SOL    HW117288   0.917   0.605   4.630  2.6084 -1.0813 -0.2675
 1884SOL    HW217289   0.959   0.623   4.487  2.5705 -1.1238  0.7636
 1885SOL     OW17290   3.581   2.313  11.211 -0.3334  0.2971  0.0799
 1885SOL    HW117291   3.670   2.341  11.234 -0.5384  1.8083 -0.9298
 1885SOL    HW217292   3.535   2.302  11.294  0.5957  0.6714  0.6435
 1886SOL     OW17293   1.450   4.690   0.668 -0.1882  0.4430 -0.0919
 1886SOL    HW117294   1.394   4.711   0.594  0.7106  4.2370  0.3197
 1886SOL    HW217295   1.530   4.659   0.625 -0.5154 -0.9883  0.3108
 1887SOL     OW17296   2.302   2.319   4.390 -0.4193  0.1323  0.7225
 1887SOL    HW117297   2.392   2.292   4.372 -0.7604  1.5068 -2.9650
 1887SOL    HW217298   2.310   2.334   4.485  0.4644  2.3805  0.2985
 1888SOL     OW17299   4.157   3.928   4.097  0.1674 -0.0853 -0.4220
 1888SOL    HW117300   4.149   3.900   4.006 -2.6316  0.4442 -0.3281
 1888SOL    HW217301   4.234   3.986   4.099  0.7598 -0.8744 -0.3552
 1889SOL     OW17302   2.446   4.082   0.806 -0.4228  0.4217  0.2118
 1889SOL    HW117303   2.507   4.008   0.805 -2.9787 -1.5915 -3.3259
 1889SOL    HW217304   2.438   4.096   0.712 -3.0514 -0.9816  0.2226
 1890SOL     OW17305   0.599   1.726   5.793  0.0606  0.0873 -0.4497
 1890SOL    HW117306   0.522   1.777   5.766 -1.1526 -2.5610 -1.9935
 1890SOL    HW217307   0.564   1.639   5.775 -3.0921  0.6035  3.1203
 1891SOL     OW17308   4.453   3.633   8.340 -0.0035  0.6493  0.0898
 1891SOL    HW117309   4.543   3.630   8.371  0.6089  0.8113 -1.7008
 1891SOL    HW217310   4.437   3.539   8.334 -0.4758  0.9467 -3.1770
 1892SOL     OW17311   0.671   0.581  16.554  0.0294 -0.1869  0.4458
 1892SOL    HW117312   0.756   0.540  16.539  0.2531  0.4998 -0.2137
 1892SOL    HW217313   0.684   0.660  16.501  2.6106 -0.5624  0.5423
 1893SOL     OW17314   1.831   3.020   2.643 -0.0392 -0.2359  0.0678
 1893SOL    HW117315   1.765   3.015   2.712 -0.4316 -0.9132 -0.3631
 1893SOL    HW217316   1.804   2.954   2.579 -0.5950  0.6417 -0.6106
 1894SOL     OW17317   4.553   1.268   8.873 -0.4376  0.5706  0.1073
 1894SOL    HW117318   4.525   1.206   8.806  0.3006 -1.5551  1.7380
 1894SOL    HW217319   4.634   1.232   8.909  0.1279  1.6031 -0.1546
 1895SOL     OW17320   0.528   0.430   3.953  0.5945 -0.1532  0.2262
 1895SOL    HW117321   0.594   0.389   3.897 -2.1723 -2.0724 -1.6682
 1895SOL    HW217322   0.559   0.419   4.042  0.9552 -0.6544  0.0372
 1896SOL     OW17323   0.639   2.844   4.374 -0.1245 -0.4774  0.7383
 1896SOL    HW117324   0.703   2.782   4.411  1.2168 -0.2361 -1.1979
 1896SOL    HW217325   0.686   2.921   4.342  0.7979 -0.8780  1.1103
 1897SOL     OW17326   2.512   3.166   0.475 -0.1515  0.1938  0.1670
 1897SOL    HW117327   2.482   3.249   0.438 -0.6806 -0.5379 -1.0414
 1897SOL    HW217328   2.488   3.184   0.566 -0.8551 -1.9584  0.4066
 1898SOL     OW17329   2.645   4.191  12.524 -0.2422 -0.0783 -0.4121
 1898SOL    HW117330   2.674   4.277  12.553  0.9213 -0.9209  0.9558
 1898SOL    HW217331   2.584   4.214  12.454 -3.2688  0.6679  2.5000
 1899SOL     OW17332   4.145   0.859  17.526  0.2027 -0.5141 -0.1349
 1899SOL    HW117333   4.077   0.866  17.594  0.4320  0.7642 -0.0369
 1899SOL    HW217334   4.158   0.764  17.518  0.3647 -0.2324 -2.9924
 1900SOL     OW17335   1.638   4.391   8.714 -0.0215  0.9477  0.0007
 1900SOL    HW117336   1.589   4.383   8.795 -1.0698  0.8400 -0.6487
 1900SOL    HW217337   1.723   4.412   8.755 -0.3368 -0.9084  1.6189
 1901SOL     OW17338   2.604   0.933   6.024 -0.4248 -0.3698  0.2703
 1901SOL    HW117339   2.673   0.867   6.029 -0.7274 -0.7380 -0.4878
 1901SOL    HW217340   2.652   1.016   6.035  0.3543 -0.8199  0.2709
 1902SOL     OW17341   4.590   4.251   9.578 -0.3260  0.0051 -0.5560
 1902SOL    HW117342   4.568   4.299   9.658 -1.7997  0.7591 -1.4245
 1902SOL    HW217343   4.513   4.264   9.524 -0.3911 -0.3764 -0.5535
 1903SOL     OW17344   0.287   4.561   2.640 -0.0357  0.4868 -0.0661
 1903SOL    HW117345   0.371   4.537   2.680  0.1733  0.3911 -0.5612
 1903SOL    HW217346   0.247   4.475   2.633 -1.3814  1.3316 -2.4238
 1904SOL     OW17347   0.906   0.347   2.560  0.1939 -0.0871  0.4598
 1904SOL    HW117348   0.839   0.385   2.617 -0.5277  1.6688 -1.5361
 1904SOL    HW217349   0.945   0.416   2.506 -1.9751  0.7945 -0.0165
 1905SOL     OW17350   2.629   0.633   3.486  0.1230  0.0565  0.5888
 1905SOL    HW117351   2.693   0.678   3.431  0.1527 -0.7463 -0.0464
 1905SOL    HW217352   2.643   0.684   3.565 -1.0256  0.2923  0.6461
 1906SOL     OW17353   3.035   3.741   7.393  0.4366  0.4423  0.0414
 1906SOL    HW117354   2.959   3.711   7.443  0.3717  0.3313 -0.1247
 1906SOL    HW217355   3.079   3.786   7.465  0.1418  0.2567  0.3354
 1907SOL     OW17356   1.288   4.312  16.373  0.2515 -0.0711 -0.8279
 1907SOL    HW117357   1.216   4.350  16.323  0.1027 -0.4196 -0.8847
 1907SOL    HW217358   1.249   4.307  16.461  0.2047  0.1291 -0.8384
 1908SOL     OW17359   4.462   3.129   0.241  1.0166  1.0087  0.3495
 1908SOL    HW117360   4.549   3.091   0.227  0.3157 -1.4820  2.7511
 1908SOL    HW217361   4.403   3.054   0.230  0.0353  1.5207  2.2049
 1909SOL     OW17362   0.303   0.649   6.120 -0.3507  0.3230  0.5392
 1909SOL    HW117363   0.296   0.708   6.045 -0.8242 -2.8312 -1.8949
 1909SOL    HW217364   0.236   0.583   6.100  0.4180  0.1946 -1.6737
 1910SOL     OW17365   4.423   3.899   7.560 -0.4580  0.1308 -0.1207
 1910SOL    HW117366   4.391   3.820   7.517  2.7563 -1.0993 -0.2052
 1910SOL    HW217367   4.480   3.932   7.491 -0.2574  0.3514  0.1505
 1911SOL     OW17368   0.029   1.210   6.423  0.3984  0.7249  0.5423
 1911SOL    HW117369   0.090   1.140   6.445  1.5490  1.6762  0.3516
 1911SOL    HW217370   0.046   1.214   6.329  1.0697 -0.9006  0.6027
 1912SOL     OW17371   0.672   4.221   5.882 -0.1031  0.2657 -0.4321
 1912SOL    HW117372   0.608   4.151   5.891  0.6691 -0.5199 -1.0967
 1912SOL    HW217373   0.637   4.294   5.830  2.8630  1.6045 -0.5567
 1913SOL     OW17374   2.902   2.259   8.101 -0.2016  0.2803  0.1509
 1913SOL    HW117375   2.816   2.283   8.137 -0.2253  2.2572 -1.2479
 1913SOL    HW217376   2.964   2.327   8.126 -0.0208 -0.7954  2.6971
 1914SOL     OW17377   0.403   2.690   6.725 -0.7123  0.2111 -0.7318
 1914SOL    HW117378   0.495   2.708   6.740 -1.1878  1.3167  0.8169
 1914SOL    HW217379   0.368   2.715   6.810  4.0641  2.0046  0.6470
 1915SOL     OW17380   1.669   1.588  12.040  0.6423  0.0662  0.0572
 1915SOL    HW117381   1.737   1.628  12.093 -0.3477  1.2683  0.4138
 1915SOL    HW217382   1.720   1.511  12.017 -0.8097 -0.4700 -1.4047
 1916SOL     OW17383   0.161   1.097   3.103 -0.2792  0.4408  0.5159
 1916SOL    HW117384   0.081   1.114   3.153  0.2530  0.7395  1.2662
 1916SOL    HW217385   0.187   1.186   3.076 -0.8322 -0.2181 -2.2249
 1917SOL     OW17386   3.404   2.926  13.754 -0.1025 -0.5833 -0.5656
 1917SOL    HW117387   3.470   2.972  13.805 -0.2749 -1.4410  0.4355
 1917SOL    HW217388   3.453   2.904  13.675  1.2457  2.5591 -0.6149
 1918SOL     OW17389   0.692   0.763  13.790 -0.3533  0.0083 -0.2179
 1918SOL    HW117390   0.612   0.790  13.834 -1.3699 -0.3512 -1.8424
 1918SOL    HW217391   0.728   0.701  13.854 -0.7966  1.9300  1.8654
 1919SOL     OW17392   1.847   3.292   5.685  0.1984 -0.2841 -0.1031
 1919SOL    HW117393   1.822   3.300   5.593 -1.2862 -0.7329  0.2755
 1919SOL    HW217394   1.939   3.265   5.685  0.7845  1.6895 -0.0966
 1920SOL     OW17395   2.589   3.576   2.596  0.7164 -0.5041  0.0701
 1920SOL    HW117396   2.501   3.538   2.599 -0.0367  1.3947  1.6064
 1920SOL    HW217397   2.629   3.537   2.674  2.5068  1.0041 -0.1006
 1921SOL     OW17398   2.944   4.357   4.581 -0.0800  0.5770 -0.2723
 1921SOL    HW117399   3.025   4.345   4.630 -1.3516  0.9797  1.9374
 1921SOL    HW217400   2.877   4.369   4.649  2.3722  0.6377  2.1605
 1922SOL     OW17401   3.759   1.914   6.376 -0.0452  0.3029  0.2460
 1922SOL    HW117402   3.689   1.888   6.436 -0.3193  1.0529  0.2487
 1922SOL    HW217403   3.825   1.859   6.419 -0.8107 -0.1781  0.8123
 1923SOL     OW17404   1.880   4.725   2.063  0.4819  0.1049  0.0793
 1923SOL    HW117405   1.800   0.002   2.011  0.0046 -0.8864  0.5915
 1923SOL    HW217406   1.903   0.083   2.069  1.1117 -0.0840  0.5702
 1924SOL     OW17407   1.667   2.021   8.506  0.4043 -0.6080  0.1515
 1924SOL    HW117408   1.746   2.065   8.476 -0.6974  0.9422 -0.4286
 1924SOL    HW217409   1.677   1.933   8.469  2.2965  0.1110 -1.0333
 1925SOL     OW17410   3.336   4.575  16.450 -0.3242  0.4723  0.3415
 1925SOL    HW117411   3.354   4.501  16.392  2.6684  0.4256  1.3646
 1925SOL    HW217412   3.346   4.643  16.384 -0.7837  1.0227  0.8432
 1926SOL     OW17413   0.209   0.361   6.672  0.0391 -0.1710  0.5619
 1926SOL    HW117414   0.137   0.422   6.687  1.4142  2.3040 -2.9389
 1926SOL    HW217415   0.219   0.373   6.577  0.9995 -2.3996  0.3883
 1927SOL     OW17416   0.360   4.431  17.014  0.6280 -0.8363  0.0805
 1927SOL    HW117417   0.322   4.482  16.943  1.1710  0.4053  0.6785
 1927SOL    HW217418   0.337   4.343  16.984  0.4924 -0.2727 -1.4186
 1928SOL     OW17419   2.109   4.376  13.774  0.3027 -0.3000 -0.2318
 1928SOL    HW117420   2.051   4.306  13.744  0.9081 -0.6445 -0.6032
 1928SOL    HW217421   2.112   4.354  13.867 -0.0008 -1.9899 -0.6285
 1929SOL     OW17422   2.976   2.990   4.411  0.3764  0.4262 -0.0651
 1929SOL    HW117423   3.042   3.027   4.468  0.7154 -0.2090 -0.0485
 1929SOL    HW217424   2.923   2.933   4.467 -0.0603  0.0236 -0.8731
 1930SOL     OW17425   0.181   4.655   7.473  0.5664 -0.4198 -0.0467
 1930SOL    HW117426   0.201   4.563   7.455  1.5631 -1.1727  4.8465
 1930SOL    HW217427   0.256   4.710   7.495 -0.1738  0.9593 -1.0144
 1931SOL     OW17428   2.072   2.990   2.337  0.6184 -0.1485 -0.2942
 1931SOL    HW117429   2.036   3.077   2.354  1.4798 -0.0220  0.8909
 1931SOL    HW217430   2.166   3.005   2.348  0.4914  0.0653  0.4838
 1932SOL     OW17431   2.627   2.657  12.343  0.0495 -0.2651 -0.1951
 1932SOL    HW117432   2.563   2.593  12.311 -0.0434  0.0833 -0.6968
 1932SOL    HW217433   2.707   2.603  12.343 -0.9441 -1.7461  0.5975
 1933SOL     OW17434   0.598   3.020   9.625  0.3194 -0.4373 -0.6411
 1933SOL    HW117435   0.693   3.028   9.637  0.0730 -0.2018  1.1156
 1933SOL    HW217436   0.593   2.929   9.597  0.0781 -0.1719 -1.4663
 1934SOL     OW17437   0.072   1.145   8.843  0.3958 -0.3962 -0.4089
 1934SOL    HW117438   0.128   1.125   8.918 -2.6057  2.8681  2.7235
 1934SOL    HW217439   0.042   1.055   8.831 -1.6980 -0.0243  1.9126
 1935SOL     OW17440   4.322   2.574  11.271  0.3902  0.3185 -0.1079
 1935SOL    HW117441   4.411   2.608  11.271  0.5615 -0.1384  1.3788
 1935SOL    HW217442   4.298   2.570  11.364 -2.4572  0.1949 -0.8307
 1936SOL     OW17443   1.529   1.308  17.485 -0.1006  0.2431  0.1733
 1936SOL    HW117444   1.618   1.322  17.452  0.8476  0.1518  2.7177
 1936SOL    HW217445   1.541   1.308  17.580  3.3158 -2.3207 -0.2673
 1937SOL     OW17446   0.723   4.216   9.834  0.4686  0.3915  0.5093
 1937SOL    HW117447   0.686   4.193   9.919 -0.0892  1.0856  0.4493
 1937SOL    HW217448   0.669   4.292   9.815 -0.1076 -0.0932  0.2067
 1938SOL     OW17449   0.470   4.638   6.154  0.5031 -0.1031  0.3047
 1938SOL    HW117450   0.399   4.638   6.090  0.2188 -0.7408  0.6160
 1938SOL    HW217451   0.510   4.553   6.135  0.3971 -0.6123  2.4186
 1939SOL     OW17452   1.308   0.574   6.103  0.1117 -0.2740  0.3963
 1939SOL    HW117453   1.246   0.559   6.032  0.2032 -1.0797  0.4771
 1939SOL    HW217454   1.316   0.668   6.091 -0.2787 -0.2806  0.0663
 1940SOL     OW17455   3.401   1.349   2.583  0.1788  0.3649  0.3787
 1940SOL    HW117456   3.467   1.296   2.629  0.1097  0.7688  0.9432
 1940SOL    HW217457   3.391   1.312   2.495  0.8225  0.8030  0.1185
 1941SOL     OW17458   3.796   4.429   9.286  0.2752 -0.0374  0.6503
 1941SOL    HW117459   3.824   4.521   9.285 -3.2698  1.0395 -0.4119
 1941SOL    HW217460   3.767   4.429   9.195 -1.6108 -1.0242  1.2472
 1942SOL     OW17461   0.852   3.000  16.942 -0.5772 -0.4818 -0.1741
 1942SOL    HW117462   0.799   2.977  16.866 -0.1580  1.0422 -0.9402
 1942SOL    HW217463   0.799   3.076  16.969  0.3928  0.4349 -0.8330
 1943SOL     OW17464   4.180   4.335   3.939  0.3308 -0.0317  0.3104
 1943SOL    HW117465   4.193   4.389   4.017  0.9872  0.8675 -0.4253
 1943SOL    HW217466   4.100   4.294   3.971 -0.1231 -0.9729 -2.0562
 1944SOL     OW17467   2.207   1.956   0.315 -0.1119  0.2155  0.0037
 1944SOL    HW117468   2.180   2.046   0.336  1.3493  1.2461 -2.4275
 1944SOL    HW217469   2.286   1.963   0.261 -0.4521 -0.3634 -0.5722
 1945SOL     OW17470   0.478   1.417  13.387  0.0178  0.1893 -0.0807
 1945SOL    HW117471   0.505   1.501  13.425  0.7400  0.1213 -0.4423
 1945SOL    HW217472   0.420   1.398  13.460  2.0501 -0.5929  1.3199
 1946SOL     OW17473   0.635   0.577   0.297  0.5842  0.0881 -0.3370
 1946SOL    HW117474   0.710   0.529   0.332  0.1052  0.1129  0.7352
 1946SOL    HW217475   0.649   0.662   0.338  0.9600 -1.2361  2.3105
 1947SOL     OW17476   2.910   2.708   3.185  0.0511  0.3011  0.0899
 1947SOL    HW117477   2.936   2.625   3.225  2.2336  0.9993  0.1239
 1947SOL    HW217478   2.857   2.684   3.110 -2.2592 -0.3765  1.9305
 1948SOL     OW17479   2.077   3.907   8.251 -0.1297  0.1072 -0.2693
 1948SOL    HW117480   2.077   4.002   8.246  1.1381  0.0463 -1.7108
 1948SOL    HW217481   2.063   3.904   8.345 -1.5169 -1.5027 -0.5250
 1949SOL     OW17482   4.651   2.146   7.534 -0.0586  0.2787  0.0228
 1949SOL    HW117483   4.725   2.147   7.473 -2.8581  1.7948 -3.3569
 1949SOL    HW217484   4.578   2.154   7.473 -0.9466 -0.3894  1.0073
 1950SOL     OW17485   1.329   3.736   6.978 -0.0885  0.4564  0.0762
 1950SOL    HW117486   1.346   3.818   6.933  0.8641  2.1874  3.5620
 1950SOL    HW217487   1.423   3.721   6.990 -0.4802 -0.4032  2.1939
 1951SOL     OW17488   2.392   3.527   7.651  0.5756 -0.0110  0.1210
 1951SOL    HW117489   2.343   3.513   7.732  0.7982 -0.9351  0.0906
 1951SOL    HW217490   2.321   3.532   7.587 -0.6823 -2.1198  1.3670
 1952SOL     OW17491   3.790   1.720   2.198  0.1597  0.1432 -0.4086
 1952SOL    HW117492   3.780   1.639   2.148 -1.6178  0.4329 -0.5330
 1952SOL    HW217493   3.884   1.731   2.187  0.1401 -0.0308 -0.7724
 1953SOL     OW17494   4.042   4.186   7.561 -0.4677  0.0486 -0.0016
 1953SOL    HW117495   4.063   4.128   7.634 -1.7417 -1.7326 -1.0476
 1953SOL    HW217496   4.052   4.120   7.492  1.1692  0.7857 -0.4738
 1954SOL     OW17497   2.609   3.125  12.682 -0.2167 -0.3547 -0.7672
 1954SOL    HW117498   2.604   3.193  12.614 -0.7764  0.4613  0.0971
 1954SOL    HW217499   2.653   3.182  12.745  1.6124  0.3946 -2.7094
 1955SOL     OW17500   1.860   2.924  14.417 -0.0384  0.6013  0.4411
 1955SOL    HW117501   1.798   2.961  14.354 -1.7668 -1.0269  1.1874
 1955SOL    HW217502   1.935   2.918  14.358 -0.7814 -1.2266 -0.3043
 1956SOL     OW17503   1.386   1.536   2.551  0.1777  0.6371 -0.3045
 1956SOL    HW117504   1.343   1.603   2.498 -1.8957  0.9178  1.7117
 1956SOL    HW217505   1.450   1.506   2.487 -1.3263 -0.6212 -1.2035
 1957SOL     OW17506   0.556   0.719  10.329 -0.1939 -0.1288 -0.3732
 1957SOL    HW117507   0.626   0.696  10.268  0.4924 -0.4700  0.5489
 1957SOL    HW217508   0.536   0.627  10.345  0.2283 -0.1016  0.2906
 1958SOL     OW17509   4.063   2.770   4.689 -0.2751 -1.2347  0.4887
 1958SOL    HW117510   4.079   2.691   4.739  3.6651 -1.1052 -0.6277
 1958SOL    HW217511   4.139   2.775   4.631 -2.5127 -0.9093 -2.4214
 1959SOL     OW17512   3.926   2.561   1.371 -0.1890  0.4718  0.4774
 1959SOL    HW117513   3.844   2.610   1.373 -0.0378  0.7701 -0.7633
 1959SOL    HW217514   3.967   2.610   1.443 -0.6153  2.8670 -0.9257
 1960SOL     OW17515   3.680   1.209   6.510 -0.7405 -0.4592 -0.2590
 1960SOL    HW117516   3.770   1.220   6.478 -0.8888  1.6645  0.0225
 1960SOL    HW217517   3.657   1.126   6.469 -0.5867 -0.7390  0.2238
 1961SOL     OW17518   3.892   3.048   9.029  0.2037 -0.4503 -0.6109
 1961SOL    HW117519   3.936   3.102   8.963  1.2026  0.8741  1.1183
 1961SOL    HW217520   3.953   2.974   9.021 -0.7660 -1.1875 -1.1162
 1962SOL     OW17521   4.577   1.723  11.278 -0.2706  0.7315 -0.5730
 1962SOL    HW117522   4.485   1.733  11.256 -0.7332 -0.8730  0.5978
 1962SOL    HW217523   4.581   1.726  11.374  0.6369 -1.4811 -0.5299
 1963SOL     OW17524   3.488   2.686   2.179 -0.3408 -0.1626 -0.0527
 1963SOL    HW117525   3.468   2.759   2.237 -1.7872  0.0127 -0.7643
 1963SOL    HW217526   3.583   2.699   2.180 -0.3340 -0.1133 -1.1463
 1964SOL     OW17527   4.332   1.440  11.303  0.1174  0.6511 -0.1038
 1964SOL    HW117528   4.314   1.347  11.310  2.1310  0.0861 -2.6385
 1964SOL    HW217529   4.417   1.434  11.346 -0.2270 -0.0012  0.4806
 1965SOL     OW17530   3.329   2.790   3.849 -0.3600  0.4275  0.6785
 1965SOL    HW117531   3.364   2.869   3.806 -0.0819  0.1710  0.4280
 1965SOL    HW217532   3.269   2.760   3.781  1.0340 -0.3185 -0.2434
 1966SOL     OW17533   1.791   3.684  13.376  0.5515 -0.7805  0.4409
 1966SOL    HW117534   1.876   3.675  13.418  1.1229 -0.8588 -0.7279
 1966SOL    HW217535   1.764   3.594  13.360  1.4379 -0.9231 -0.2153
 1967SOL     OW17536   2.997   1.652   8.391 -0.7204 -0.0806  0.5336
 1967SOL    HW117537   3.074   1.707   8.401 -0.9272  0.5993 -1.7238
 1967SOL    HW217538   3.025   1.560   8.383  1.7263  0.6408  0.8025
 1968SOL     OW17539   1.876   2.732   7.704  0.7655 -0.2102  0.2699
 1968SOL    HW117540   1.826   2.723   7.622 -0.1802  1.2177  0.6994
 1968SOL    HW217541   1.797   2.753   7.753 -0.2091  3.1305 -2.7661
 1969SOL     OW17542   1.839   2.805  12.095 -0.1561  0.4914  0.2149
 1969SOL    HW117543   1.863   2.797  12.002  3.1371  0.5703  1.0536
 1969SOL    HW217544   1.745   2.787  12.099 -0.3110  1.4452  0.8809
 1970SOL     OW17545   1.703   0.106   5.852  0.5568  0.3521 -0.3617
 1970SOL    HW117546   1.654   0.160   5.790  0.1221  1.4710  0.9593
 1970SOL    HW217547   1.723   0.172   5.918  0.0825  0.4356 -0.2978
 1971SOL     OW17548   0.592   3.779   0.523  0.1373 -0.0903 -0.1086
 1971SOL    HW117549   0.681   3.808   0.504  0.4005 -1.0056 -0.2505
 1971SOL    HW217550   0.592   3.692   0.485  0.3250  0.0981 -0.5401
 1972SOL     OW17551   4.358   1.445  14.686  0.4417  0.0430 -0.0642
 1972SOL    HW117552   4.319   1.365  14.720 -0.0192 -0.1014 -0.9269
 1972SOL    HW217553   4.442   1.423  14.647  0.4367  1.1951 -0.7208
 1973SOL     OW17554   2.743   1.001  12.148  0.5324 -0.1569 -0.2598
 1973SOL    HW117555   2.832   0.975  12.172 -0.1438 -1.1870  1.1442
 1973SOL    HW217556   2.693   0.925  12.176  0.7749  0.1144  0.9349
 1974SOL     OW17557   4.380   4.662   2.877 -0.1064 -0.5400  0.1293
 1974SOL    HW117558   4.438   4.654   2.801  1.2652 -2.3511  1.3953
 1974SOL    HW217559   4.306   4.709   2.836  0.4003  1.5813  1.6218
 1975SOL     OW17560   2.338   4.153   3.594 -0.1901 -0.3691  0.1892
 1975SOL    HW117561   2.364   4.236   3.554  0.9749  0.0472  1.8127
 1975SOL    HW217562   2.284   4.126   3.520  0.8463 -0.3302 -0.5864
 1976SOL     OW17563   1.309   2.564   7.476  0.3596  0.1204  0.3334
 1976SOL    HW117564   1.217   2.582   7.458 -0.2197 -1.2678  1.8720
 1976SOL    HW217565   1.325   2.516   7.394 -0.1215 -1.7590  1.3346
 1977SOL     OW17566   1.916   0.581   5.555  0.2828  0.2076  0.2636
 1977SOL    HW117567   1.962   0.609   5.634  1.0471 -0.6466  0.1106
 1977SOL    HW217568   1.959   0.643   5.496  1.3687  1.0543  1.9315
 1978SOL     OW17569   1.033   2.367   2.912  0.0613  0.3536  0.5738
 1978SOL    HW117570   1.014   2.434   2.978  0.0326  1.5526 -0.6478
 1978SOL    HW217571   0.952   2.315   2.911  2.0930 -2.7897  0.4493
 1979SOL     OW17572   1.124   4.458   4.641 -0.3983 -0.0118 -0.3104
 1979SOL    HW117573   1.067   4.391   4.603 -0.4967  0.0718 -0.3097
 1979SOL    HW217574   1.160   4.408   4.714 -0.8929 -1.3938 -1.0121
 1980SOL     OW17575   3.654   3.953   8.730  0.4330  0.1954  0.4897
 1980SOL    HW117576   3.710   4.019   8.769  1.2434 -1.1645  1.6162
 1980SOL    HW217577   3.659   3.889   8.801  1.6461  1.0609  1.1720
 1981SOL     OW17578   1.984   3.426  10.648  0.1217  0.0160  0.4205
 1981SOL    HW117579   1.896   3.462  10.632  0.6496  1.0996 -0.1051
 1981SOL    HW217580   1.984   3.340  10.607  2.1909  0.6501 -0.9371
 1982SOL     OW17581   3.240   1.452   6.180  0.1637 -0.4699 -0.0306
 1982SOL    HW117582   3.182   1.469   6.254  0.2735  0.9532 -0.2692
 1982SOL    HW217583   3.291   1.533   6.181 -1.0447  0.2935 -0.8586
 1983SOL     OW17584   3.473   2.863   9.927  0.5285  0.0428  0.5442
 1983SOL    HW117585   3.494   2.823   9.842 -0.4692 -1.1367  0.8549
 1983SOL    HW217586   3.473   2.957   9.909  1.6738 -0.1821 -0.5941
 1984SOL     OW17587   2.404   0.943   8.665  0.3512 -0.3121 -0.0943
 1984SOL    HW117588   2.499   0.957   8.664  0.3782 -0.4667  0.8263
 1984SOL    HW217589   2.401   0.854   8.630  2.2919 -0.3080 -0.2808
 1985SOL     OW17590   3.334   1.719  10.252 -0.2190  0.1901 -0.2613
 1985SOL    HW117591   3.320   1.699  10.345  0.6939  0.9210  0.0307
 1985SOL    HW217592   3.247   1.701  10.215 -1.1699 -0.1370  2.1077
 1986SOL     OW17593   1.301   1.796   6.008  0.0888  0.6215 -0.0545
 1986SOL    HW117594   1.355   1.718   6.013  0.7530  1.0829  0.0236
 1986SOL    HW217595   1.246   1.782   6.085 -0.1700  2.1366  0.0325
 1987SOL     OW17596   3.740   2.399   6.645 -0.6080 -0.0576  0.2663
 1987SOL    HW117597   3.737   2.490   6.615  0.3602 -0.5400 -1.3216
 1987SOL    HW217598   3.647   2.380   6.660 -0.6791  2.1995  2.4952
 1988SOL     OW17599   4.067   2.090   2.481  0.1110 -0.1017 -0.1202
 1988SOL    HW117600   4.076   2.076   2.575 -0.5782  1.5702  0.1831
 1988SOL    HW217601   4.064   2.185   2.491  3.4447 -0.1451  1.3566
 1989SOL     OW17602   1.770   3.396   2.862 -0.2543  0.1957 -0.5195
 1989SOL    HW117603   1.682   3.420   2.893 -0.2353 -2.7843  1.8703
 1989SOL    HW217604   1.804   3.344   2.935 -0.5606 -0.1942 -0.6537
 1990SOL     OW17605   1.189   4.235   3.457 -0.0750  0.1728  0.1720
 1990SOL    HW117606   1.115   4.218   3.398  0.5284  0.5251 -0.6913
 1990SOL    HW217607   1.236   4.152   3.450  1.3959  0.9971  0.4505
 1991SOL     OW17608   1.781   4.042   4.857 -0.5552  0.1717 -0.2302
 1991SOL    HW117609   1.789   4.104   4.930 -0.4787  1.6955 -1.5268
 1991SOL    HW217610   1.775   4.100   4.782 -1.9804  0.1366 -0.1574
 1992SOL     OW17611   4.177   3.132  10.933 -0.5235 -0.0204  0.8036
 1992SOL    HW117612   4.167   3.206  10.873  2.9266  0.0428  0.3274
 1992SOL    HW217613   4.149   3.174  11.015  0.6475 -1.5967  2.0190
 1993SOL     OW17614   0.018   1.647   3.036  0.3288  0.2897 -0.1125
 1993SOL    HW117615   0.073   1.704   3.089 -1.3750  1.3714  0.4991
 1993SOL    HW217616   0.058   1.654   2.950 -1.6625  1.3429 -0.9732
 1994SOL     OW17617   1.886   4.368   9.514 -0.4891 -0.1939 -0.2395
 1994SOL    HW117618   1.851   4.401   9.431  1.4665  1.0656 -0.5570
 1994SOL    HW217619   1.825   4.295   9.528 -0.2416 -0.8538 -2.5164
 1995SOL     OW17620   1.262   3.338   3.514  0.5038 -0.0852  0.1761
 1995SOL    HW117621   1.209   3.270   3.555 -0.8316  1.0031  0.2398
 1995SOL    HW217622   1.262   3.406   3.582  0.8451 -0.7588  0.8466
 1996SOL     OW17623   1.217   2.246   4.923 -0.0811 -0.0242  0.1985
 1996SOL    HW117624   1.288   2.258   4.860  0.5829 -0.2478  0.9070
 1996SOL    HW217625   1.246   2.162   4.960  2.2754  0.1706 -1.2243
 1997SOL     OW17626   1.724   4.663  13.226  0.6326  0.1771  0.1973
 1997SOL    HW117627   1.746   0.021  13.212 -1.7788  0.6707 -0.1699
 1997SOL    HW217628   1.647   4.639  13.175  0.9018 -0.8407  0.2720
 1998SOL     OW17629   1.979   1.594   8.628 -0.0701 -0.1050  0.2425
 1998SOL    HW117630   2.009   1.658   8.693  2.6148 -0.6309 -0.4722
 1998SOL    HW217631   2.052   1.533   8.619  0.6463  0.9377 -1.0085
 1999SOL     OW17632   4.181   0.826  15.091  0.3371 -0.0264 -0.4159
 1999SOL    HW117633   4.123   0.898  15.066  0.0122  0.5478  1.9750
 1999SOL    HW217634   4.196   0.854  15.182  0.3655  0.3981 -0.5500
 2000SOL     OW17635   1.538   0.812   5.932 -0.5030  0.2616 -0.8090
 2000SOL    HW117636   1.523   0.730   5.884  0.4300 -0.4921  0.1911
 2000SOL    HW217637   1.447   0.826   5.959  0.4631 -1.9652  3.6713
 2001SOL     OW17638   4.441   4.405  10.944 -0.0108  0.1012 -0.2322
 2001SOL    HW117639   4.360   4.376  10.902  0.6576 -2.9436  0.5865
 2001SOL    HW217640   4.440   4.338  11.012 -0.8758 -2.0730 -2.3459
 2002SOL     OW17641   4.724   3.637   6.668  0.3966 -0.0309  0.2506
 2002SOL    HW117642   0.036   3.703   6.719  0.1621 -0.1942  0.6746
 2002SOL    HW217643   4.641   3.678   6.644  0.2514 -0.1119  0.6270
 2003SOL     OW17644   3.394   4.340   5.032 -0.0831  0.0772  0.1037
 2003SOL    HW117645   3.458   4.301   4.974  1.3550  0.2972  1.5482
 2003SOL    HW217646   3.461   4.374   5.091  0.5423  0.1275 -0.6449
 2004SOL     OW17647   0.116   0.699  13.370  0.0252  0.2573  0.5638
 2004SOL    HW117648   0.166   0.692  13.451 -0.7194 -1.9898  0.8422
 2004SOL    HW217649   0.024   0.704  13.394  0.1610  0.1905  1.0984
 2005SOL     OW17650   3.973   1.749   6.439  0.6374 -0.2939  0.1996
 2005SOL    HW117651   4.026   1.736   6.360 -2.4323 -1.5811 -1.6303
 2005SOL    HW217652   4.049   1.764   6.495  0.0634  2.5268  0.2087
 2006SOL     OW17653   1.257   3.412   2.882  0.4640 -0.4432 -0.1213
 2006SOL    HW117654   1.198   3.484   2.859  1.9202  0.4972 -0.9496
 2006SOL    HW217655   1.200   3.337   2.900 -0.2657  0.4910  1.5682
 2007SOL     OW17656   2.354   0.153   8.486 -0.2581  0.1235 -0.3414
 2007SOL    HW117657   2.269   0.173   8.525 -0.6485 -1.4087 -0.3965
 2007SOL    HW217658   2.349   0.191   8.399  0.3019  0.3688 -0.2689
 2008SOL     OW17659   2.800   2.837   3.472 -0.7505  0.2774 -0.1073
 2008SOL    HW117660   2.886   2.876   3.457 -0.4812  0.3749  1.7751
 2008SOL    HW217661   2.775   2.810   3.384 -3.5933  0.8586  0.5335
 2009SOL     OW17662   2.592   2.425   5.131  0.2126  0.3350  0.0919
 2009SOL    HW117663   2.549   2.445   5.048  0.9798  0.2213 -0.3346
 2009SOL    HW217664   2.633   2.509   5.151  0.2542  1.0544 -3.0091
 2010SOL     OW17665   2.418   1.072   1.276 -0.5631  0.2254  0.2668
 2010SOL    HW117666   2.487   1.097   1.337 -0.4977 -0.8643  0.6293
 2010SOL    HW217667   2.437   1.134   1.205  1.6105 -1.8606 -0.9570
 2011SOL     OW17668   2.755   2.724  13.301  0.2625  0.2691 -0.2526
 2011SOL    HW117669   2.695   2.750  13.370  0.0223  0.9042 -0.7010
 2011SOL    HW217670   2.726   2.771  13.223 -0.5931 -2.2273 -1.4390
 2012SOL     OW17671   1.445   0.049   6.558  0.3907  0.0891  0.0712
 2012SOL    HW117672   1.524   0.049   6.612  0.4485 -0.0283 -0.0103
 2012SOL    HW217673   1.477   0.093   6.479  1.3771 -0.1516  0.3371
 2013SOL     OW17674   2.378   4.109  12.609  0.5532  0.8206  0.0728
 2013SOL    HW117675   2.447   4.150  12.661 -0.5491  1.6347  0.8893
 2013SOL    HW217676   2.399   4.143  12.522 -0.2950  0.7150 -0.1686
 2014SOL     OW17677   1.548   1.414  11.760  0.0141 -0.0958 -0.0049
 2014SOL    HW117678   1.631   1.461  11.757  0.3143 -0.7694 -1.8746
 2014SOL    HW217679   1.531   1.377  11.673 -0.3193  0.5618 -0.2235
 2015SOL     OW17680   1.942   3.087  12.054  0.3083 -0.0958 -0.3669
 2015SOL    HW117681   1.976   3.083  12.143  0.9701 -0.8226 -0.6525
 2015SOL    HW217682   1.901   3.001  12.045  0.3926 -0.0276 -1.5248
 2016SOL     OW17683   4.511   0.998   5.248  0.2398  0.1340  0.2315
 2016SOL    HW117684   4.575   0.939   5.207  0.7368  0.3413  0.7105
 2016SOL    HW217685   4.495   1.072   5.190 -1.2052  1.9639  3.0003
 2017SOL     OW17686   4.434   2.960  17.246  0.0858 -0.7016 -0.4634
 2017SOL    HW117687   4.460   2.908  17.170  2.0211  0.8726 -0.8968
 2017SOL    HW217688   4.348   2.922  17.261  0.1569 -1.2010 -1.3057
 2018SOL     OW17689   1.903   3.514  11.489 -0.0045 -0.0782 -0.0783
 2018SOL    HW117690   1.864   3.582  11.543  0.8244  0.1243  0.2700
 2018SOL    HW217691   1.850   3.438  11.512  0.8253 -1.6075 -3.2688
 2019SOL     OW17692   0.460   1.953   8.224 -0.6137 -0.2638 -0.3499
 2019SOL    HW117693   0.407   1.921   8.150  0.4405  0.4180 -1.4113
 2019SOL    HW217694   0.546   1.951   8.181 -0.8328 -0.6781 -0.7713
 2020SOL     OW17695   2.073   0.062  13.532  0.2267 -0.3210  0.0368
 2020SOL    HW117696   2.097   0.066  13.440  1.9124 -2.7468  0.3686
 2020SOL    HW217697   2.123   4.724  13.569  1.5602  0.1777 -0.7968
 2021SOL     OW17698   1.386   0.144   8.047  0.2452 -0.4139 -0.0932
 2021SOL    HW117699   1.406   0.177   7.959 -0.0531 -0.4946 -0.1896
 2021SOL    HW217700   1.295   0.115   8.042  0.2649 -0.5313  0.3126
 2022SOL     OW17701   1.899   2.137  17.550 -0.0261 -0.5859 -0.5216
 2022SOL    HW117702   1.806   2.140  17.528 -0.0250  0.8319 -0.3113
 2022SOL    HW217703   1.911   2.044  17.570  0.3783 -0.7127 -1.3206
 2023SOL     OW17704   0.559   4.086  17.085 -0.2715  0.1646  0.2338
 2023SOL    HW117705   0.543   3.994  17.066  1.9903 -0.5407  1.7635
 2023SOL    HW217706   0.471   4.118  17.105 -0.6090 -0.4972 -0.2195
 2024SOL     OW17707   0.796   1.498   6.401 -0.6342  0.1499 -0.1896
 2024SOL    HW117708   0.741   1.424   6.376  0.2534 -0.7400  0.5206
 2024SOL    HW217709   0.760   1.510   6.489  2.5558  0.7345  1.0485
 2025SOL     OW17710   3.236   1.465  13.445  0.2084  0.1321 -0.0390
 2025SOL    HW117711   3.281   1.471  13.529 -0.8759  0.3851  0.5216
 2025SOL    HW217712   3.312   1.458  13.388  0.3577 -0.7762  0.2710
 2026SOL     OW17713   0.963   4.320   9.784 -0.1340  0.2718  0.2383
 2026SOL    HW117714   1.030   4.252   9.789 -0.6306 -0.0399  2.4265
 2026SOL    HW217715   0.884   4.278   9.819  0.4064 -1.0075 -0.0623
 2027SOL     OW17716   2.288   3.375   2.527  0.2026  0.0173  0.4626
 2027SOL    HW117717   2.262   3.454   2.575 -1.6457  0.7674 -1.7703
 2027SOL    HW217718   2.214   3.315   2.525  1.0693 -1.0596  0.3641
 2028SOL     OW17719   1.976   2.652  15.513 -0.4612  0.5754  0.1629
 2028SOL    HW117720   1.958   2.591  15.585 -1.2250  1.6890  0.8990
 2028SOL    HW217721   1.886   2.663  15.481 -1.2886 -0.4071  2.1184
 2029SOL     OW17722   0.052   0.062   9.834  0.1411 -0.1613  0.1713
 2029SOL    HW117723   0.043   0.152   9.803 -0.6578 -0.5398 -0.6975
 2029SOL    HW217724   0.091   0.067   9.921 -0.6165  2.5565  0.3633
 2030SOL     OW17725   0.464   0.424   4.389 -0.4811 -0.3309 -0.2859
 2030SOL    HW117726   0.512   0.496   4.430  0.5628 -0.2401 -1.6689
 2030SOL    HW217727   0.391   0.472   4.349 -1.1476 -0.8932  0.2562
 2031SOL     OW17728   3.617   4.322   4.857 -0.0042 -0.2675 -0.1902
 2031SOL    HW117729   3.704   4.282   4.847  0.1555 -0.0413  0.2645
 2031SOL    HW217730   3.638   4.401   4.809 -1.3970 -0.0813 -0.4922
 2032SOL     OW17731   3.456   4.273   4.266 -0.2832 -0.1910  0.0775
 2032SOL    HW117732   3.532   4.245   4.318  0.5426 -0.3943 -1.2452
 2032SOL    HW217733   3.491   4.301   4.182  0.7426  0.6374  0.7777
 2033SOL     OW17734   4.208   2.817   9.918 -0.1506  0.5377  0.1404
 2033SOL    HW117735   4.261   2.869   9.977 -2.9783  0.9207  2.3626
 2033SOL    HW217736   4.219   2.731   9.960 -1.6801 -0.0389 -0.6380
 2034SOL     OW17737   3.766   2.888   1.584 -0.2629 -0.4546  0.0661
 2034SOL    HW117738   3.813   2.955   1.535  0.3378 -0.9704 -0.0637
 2034SOL    HW217739   3.828   2.879   1.655 -1.1230 -1.5826  0.6898
 2035SOL     OW17740   1.163   0.455  17.716 -0.1325 -0.2920  0.0855
 2035SOL    HW117741   1.085   0.509  17.729 -0.4311 -1.0186  1.2804
 2035SOL    HW217742   1.131   0.365  17.713 -0.1714 -0.3796  3.5279
 2036SOL     OW17743   1.830   0.169   2.819  0.5807  0.0701 -0.0819
 2036SOL    HW117744   1.773   0.098   2.850  0.2155  0.3938 -0.0207
 2036SOL    HW217745   1.868   0.126   2.743 -0.0044  0.0369 -0.3552
 2037SOL     OW17746   4.305   0.440   0.367 -0.2899  0.1174  0.3085
 2037SOL    HW117747   4.268   0.413   0.451  2.1678 -1.7989  0.7649
 2037SOL    HW217748   4.381   0.387   0.345 -0.3235  0.3638 -0.3912
 2038SOL     OW17749   2.806   3.971   3.546  0.2311 -0.1005  0.3795
 2038SOL    HW117750   2.743   3.915   3.590 -0.0024  1.1533  1.6722
 2038SOL    HW217751   2.870   4.000   3.612 -1.6248  1.6843  1.4365
 2039SOL     OW17752   2.817   0.795   6.091 -0.1083 -0.5051  0.6760
 2039SOL    HW117753   2.878   0.867   6.108 -0.0057 -0.1468 -1.2049
 2039SOL    HW217754   2.870   0.736   6.037  0.8114  1.3892 -0.5132
 2040SOL     OW17755   2.424   1.337  11.623  0.0735 -0.4187  0.0322
 2040SOL    HW117756   2.508   1.381  11.628  0.9673 -1.8665 -2.1731
 2040SOL    HW217757   2.438   1.269  11.690  0.5142  1.0140  1.3842
 2041SOL     OW17758   3.610   2.709   7.255  0.2255 -0.3601 -0.3014
 2041SOL    HW117759   3.660   2.648   7.310  0.6844  1.0255  0.8194
 2041SOL    HW217760   3.685   2.746   7.209 -0.5883  0.5533 -0.8724
 2042SOL     OW17761   4.557   0.596   1.564  0.3706  0.5366  0.5229
 2042SOL    HW117762   4.529   0.641   1.643 -2.6523 -2.9727  1.4594
 2042SOL    HW217763   4.594   0.512   1.591 -0.8704 -0.0223  0.4858
 2043SOL     OW17764   2.458   4.710   7.159  0.3884 -0.4864  0.4656
 2043SOL    HW117765   2.369   0.003   7.136  0.0929 -1.4845  0.4038
 2043SOL    HW217766   2.500   4.693   7.075 -2.2832 -1.2305 -0.7158
 2044SOL     OW17767   1.269   2.538   6.566 -0.4299  0.5697  0.2189
 2044SOL    HW117768   1.218   2.531   6.485  1.0409 -1.0602 -0.5569
 2044SOL    HW217769   1.333   2.467   6.559 -1.5902 -0.3357 -1.3370
 2045SOL     OW17770   1.237   2.725  12.089  0.0715 -0.3002 -0.3738
 2045SOL    HW117771   1.217   2.724  12.182  0.8493 -0.9863 -0.2133
 2045SOL    HW217772   1.160   2.775  12.064  1.4685  1.8322 -0.3674
 2046SOL     OW17773   4.016   3.403   5.097  0.1056  0.0781 -0.2014
 2046SOL    HW117774   4.070   3.431   5.023 -0.8376  1.2174 -0.4611
 2046SOL    HW217775   3.937   3.383   5.047 -0.8984 -0.8442  1.7589
 2047SOL     OW17776   2.950   0.168   1.994  0.3860 -0.1068 -0.2951
 2047SOL    HW117777   2.996   0.121   2.064 -3.3035 -1.7651  1.0198
 2047SOL    HW217778   2.869   0.118   1.994 -0.6728  1.6150  0.1656
 2048SOL     OW17779   0.938   2.638   7.110 -0.1064  1.1945  0.4485
 2048SOL    HW117780   0.971   2.550   7.092 -1.0295  1.0680 -0.6433
 2048SOL    HW217781   1.021   2.686   7.103  0.3356  0.5728  1.4510
 2049SOL     OW17782   3.184   2.022   6.468  0.2787 -0.0833  0.2745
 2049SOL    HW117783   3.260   1.979   6.508 -0.1853 -1.2530 -0.0933
 2049SOL    HW217784   3.141   1.944   6.432 -0.5461 -0.1529  1.3963
 2050SOL     OW17785   3.536   3.588  10.082 -0.3692 -0.2995 -0.3351
 2050SOL    HW117786   3.564   3.500  10.107  0.5183 -0.5495 -2.2368
 2050SOL    HW217787   3.472   3.565  10.015 -0.5332 -0.7371 -0.0257
 2051SOL     OW17788   1.793   1.230  16.586 -1.0839  0.3777 -0.5767
 2051SOL    HW117789   1.774   1.273  16.502 -1.2101 -0.3093 -0.9037
 2051SOL    HW217790   1.724   1.259  16.646  0.3730  3.6186 -0.4692
 2052SOL     OW17791   0.383   0.723   8.088  0.8483  0.1332 -0.3247
 2052SOL    HW117792   0.308   0.663   8.083  0.1503  0.9089  0.9015
 2052SOL    HW217793   0.379   0.755   8.178 -0.4578 -0.1910 -0.2728
 2053SOL     OW17794   4.645   4.551   6.546  0.3759  0.2847  0.3215
 2053SOL    HW117795   0.004   4.554   6.527  0.1492 -0.4437 -0.9444
 2053SOL    HW217796   4.646   4.624   6.608  1.0534  0.3414  0.2492
 2054SOL     OW17797   1.887   0.320   8.349  0.0129  0.4589  0.4762
 2054SOL    HW117798   1.903   0.239   8.397 -0.5824  0.3119  0.4259
 2054SOL    HW217799   1.814   0.359   8.398  0.7640  0.9482  1.2000
 2055SOL     OW17800   1.926   0.960   2.230 -0.0256  0.4305 -0.0288
 2055SOL    HW117801   1.854   0.899   2.213 -0.7286  0.5224  2.6086
 2055SOL    HW217802   1.955   0.982   2.142 -1.1534 -0.9183 -0.7356
 2056SOL     OW17803   3.486   2.153   8.280  0.1084 -0.5970 -0.1525
 2056SOL    HW117804   3.476   2.190   8.192 -1.0511  2.0214  1.1000
 2056SOL    HW217805   3.462   2.229   8.332 -0.9724 -0.4000 -0.9297
 2057SOL     OW17806   4.562   4.544   8.117  0.0272 -0.4208 -0.5687
 2057SOL    HW117807   4.490   4.579   8.065 -2.2494  0.2055  2.9791
 2057SOL    HW217808   4.604   4.492   8.049  0.2422 -0.9918  0.0056
 2058SOL     OW17809   2.151   3.466   5.544  0.2909 -0.5472  0.4717
 2058SOL    HW117810   2.214   3.510   5.601  1.4975 -2.6198  0.7100
 2058SOL    HW217811   2.132   3.401   5.611 -1.9501  1.2050  1.5574
 2059SOL     OW17812   0.541   2.903  10.965  0.4839 -0.2364  0.3837
 2059SOL    HW117813   0.465   2.920  10.909  1.6662  4.4150  0.1631
 2059SOL    HW217814   0.530   2.811  10.987  0.0143  0.1962  2.0031
 2060SOL     OW17815   1.133   3.414   4.976  0.1346 -0.0247 -0.5019
 2060SOL    HW117816   1.069   3.479   4.948 -0.4714 -0.3847  0.0498
 2060SOL    HW217817   1.202   3.427   4.911 -0.3462  0.8703 -0.8297
 2061SOL     OW17818   2.684   0.432   7.100  0.3776 -0.2230 -0.2183
 2061SOL    HW117819   2.743   0.499   7.134 -0.5632  1.1159 -1.2163
 2061SOL    HW217820   2.733   0.406   7.022  1.0769 -0.7045  0.3786
 2062SOL     OW17821   2.882   1.649   5.398 -0.1383 -0.5189 -0.3607
 2062SOL    HW117822   2.938   1.724   5.420  2.8332 -2.9004  0.1905
 2062SOL    HW217823   2.817   1.702   5.351 -0.2530  1.0302  1.5308
 2063SOL     OW17824   3.214   1.197   3.201  0.0906 -0.0457  0.0427
 2063SOL    HW117825   3.228   1.124   3.141 -2.8732 -0.6895  0.1642
 2063SOL    HW217826   3.228   1.162   3.289  0.7648  0.3154  0.0861
 2064SOL     OW17827   4.175   2.666   2.050  0.1727  0.1809 -0.1095
 2064SOL    HW117828   4.256   2.618   2.030 -0.9457 -0.8631 -2.1733
 2064SOL    HW217829   4.198   2.695   2.138 -0.1769 -2.1838  0.7657
 2065SOL     OW17830   1.329   1.542   8.105  0.3365 -0.3253 -0.0458
 2065SOL    HW117831   1.324   1.551   8.010  0.4912 -2.2431 -0.2261
 2065SOL    HW217832   1.423   1.542   8.122  0.5269 -0.8268 -1.1685
 2066SOL     OW17833   2.552   3.238  16.810 -0.7157  0.0918  0.3771
 2066SOL    HW117834   2.543   3.329  16.782 -0.3977 -0.1304 -0.4255
 2066SOL    HW217835   2.634   3.251  16.858 -1.2564 -1.0325  1.6095
 2067SOL     OW17836   1.665   0.512   5.589  0.7652 -0.1998  0.1205
 2067SOL    HW117837   1.625   0.564   5.520 -0.3494 -2.3037 -0.8363
 2067SOL    HW217838   1.757   0.527   5.566  0.3473  1.1498 -0.6453
 2068SOL     OW17839   1.174   1.751   6.243 -0.0364 -0.2636 -0.3521
 2068SOL    HW117840   1.141   1.683   6.302  1.1406 -0.9576 -0.4880
 2068SOL    HW217841   1.106   1.818   6.251  0.1354 -0.2735  1.2490
 2069SOL     OW17842   2.928   1.947   5.186  0.1574 -0.4096 -0.0664
 2069SOL    HW117843   2.895   2.037   5.193 -4.0541 -1.9289 -0.5152
 2069SOL    HW217844   2.852   1.896   5.213 -1.2369  1.5649 -0.1862
 2070SOL     OW17845   0.361   2.202   0.644 -0.7075 -0.4845 -0.2788
 2070SOL    HW117846   0.367   2.214   0.738  0.7264  0.0975 -0.4373
 2070SOL    HW217847   0.267   2.192   0.627 -1.2210  1.0791  1.7215
 2071SOL     OW17848   0.173   2.069   1.768  0.3190 -0.3192  0.2589
 2071SOL    HW117849   0.265   2.052   1.786  0.5857  3.0815  2.0500
 2071SOL    HW217850   0.201   2.089   1.678  0.8038  0.1394  0.5094
 2072SOL     OW17851   4.162   3.058   5.722  0.2328 -0.2241 -0.0802
 2072SOL    HW117852   4.189   3.010   5.802 -2.6500 -1.7534 -0.0418
 2072SOL    HW217853   4.137   3.143   5.757  0.3451 -0.6753  1.1383
 2073SOL     OW17854   3.361   1.166   5.887 -0.5982  0.1326 -0.0938
 2073SOL    HW117855   3.279   1.180   5.934  0.1650  2.1648  0.6241
 2073SOL    HW217856   3.402   1.097   5.939 -0.0576 -0.3478 -1.1651
 2074SOL     OW17857   3.902   4.464  13.902 -0.1590 -0.1204 -0.1045
 2074SOL    HW117858   3.931   4.375  13.923 -1.3295 -0.6971 -0.9767
 2074SOL    HW217859   3.895   4.462  13.807 -2.9362  2.2464  0.0639
 2075SOL     OW17860   2.808   2.455  17.566  0.6677  0.3943  0.4780
 2075SOL    HW117861   2.793   2.548  17.546  1.7616  0.4671  0.0051
 2075SOL    HW217862   2.789   2.410  17.484  1.6098  0.3694  0.2729
 2076SOL     OW17863   3.494   4.098   8.364  0.0054 -0.5402  0.0091
 2076SOL    HW117864   3.519   4.100   8.456 -0.7078  0.6516  0.1677
 2076SOL    HW217865   3.407   4.135   8.374 -0.0294 -0.7395  0.4360
 2077SOL     OW17866   0.763   3.007  14.670  0.2076  0.0953 -0.0905
 2077SOL    HW117867   0.828   2.972  14.731  2.0941  0.6593 -1.7569
 2077SOL    HW217868   0.764   3.101  14.692  1.6336 -0.0599  0.4629
 2078SOL     OW17869   4.526   1.148   0.447  0.3269  0.7289  0.0695
 2078SOL    HW117870   4.445   1.190   0.477 -0.5661 -0.7358 -0.2678
 2078SOL    HW217871   4.587   1.167   0.517 -0.4888  2.3569  0.3303
 2079SOL     OW17872   4.168   1.556   7.631  0.3687  0.5112 -0.2670
 2079SOL    HW117873   4.138   1.619   7.567 -0.5123  0.4398  0.0731
 2079SOL    HW217874   4.162   1.595   7.718  0.4168  1.9809 -0.9354
 2080SOL     OW17875   3.072   2.162   9.320 -0.9342  0.2962 -0.3515
 2080SOL    HW117876   3.152   2.213   9.307  0.1881 -0.9734  1.5843
 2080SOL    HW217877   3.002   2.220   9.289 -0.4160  1.3337  0.4036
 2081SOL     OW17878   1.657   3.980   2.990  0.8302  0.1018  0.2406
 2081SOL    HW117879   1.695   3.928   2.919 -1.4025  0.4716 -1.2203
 2081SOL    HW217880   1.650   4.066   2.950  3.1559  0.4308  0.5418
 2082SOL     OW17881   2.471   3.734   4.532 -0.1519 -0.0459  0.0326
 2082SOL    HW117882   2.430   3.749   4.447  2.5559  0.6494 -1.1644
 2082SOL    HW217883   2.465   3.824   4.563 -0.0246 -0.1026  0.2233
 2083SOL     OW17884   1.806   1.384   2.960 -0.1165  0.5502 -0.2994
 2083SOL    HW117885   1.850   1.374   3.045  1.7981 -0.1614 -1.3669
 2083SOL    HW217886   1.739   1.442   2.996 -1.5037 -1.2643 -0.0038
 2084SOL     OW17887   3.046   0.710   1.271  0.0731  0.0613 -0.4969
 2084SOL    HW117888   2.993   0.661   1.333 -0.7493  0.4611 -0.8826
 2084SOL    HW217889   3.014   0.796   1.299 -1.2124 -0.6512  0.2276
 2085SOL     OW17890   1.854   1.220   6.217 -0.0148 -0.2096  0.6334
 2085SOL    HW117891   1.769   1.250   6.186 -0.1162 -0.2015  0.9265
 2085SOL    HW217892   1.901   1.239   6.135 -0.5688  1.2624  0.6582
 2086SOL     OW17893   1.157   4.585  11.260 -0.4197 -0.2101 -0.2386
 2086SOL    HW117894   1.219   4.656  11.277 -2.3829  1.3489  0.4409
 2086SOL    HW217895   1.162   4.522  11.332  1.4252 -0.2183 -0.3724
 2087SOL     OW17896   3.653   0.279   3.849  0.9511  0.3224 -0.3875
 2087SOL    HW117897   3.689   0.202   3.805  0.7513 -0.9092  1.5828
 2087SOL    HW217898   3.651   0.249   3.940  0.0959  1.6222  0.0229
 2088SOL     OW17899   3.143   4.714   3.562 -0.3388 -0.0945  0.0892
 2088SOL    HW117900   3.164   0.010   3.650  2.0544  0.6570 -0.7524
 2088SOL    HW217901   3.136   0.063   3.517 -3.0920 -1.0909 -1.3478
 2089SOL     OW17902   2.223   2.648   7.902 -0.4563  0.8245 -0.0280
 2089SOL    HW117903   2.181   2.724   7.861  0.1306  1.6612  0.9370
 2089SOL    HW217904   2.158   2.585   7.870 -1.9657  2.1289  0.4319
 2090SOL     OW17905   1.635   1.842   6.234  0.0631  0.6326  0.0944
 2090SOL    HW117906   1.619   1.837   6.140  0.5729 -0.5733  0.0763
 2090SOL    HW217907   1.724   1.810   6.250  0.7341  0.7396 -3.3953
 2091SOL     OW17908   0.896   2.568   0.438 -0.3460 -0.0737 -0.4657
 2091SOL    HW117909   0.937   2.652   0.458 -0.7641 -0.0954  0.4515
 2091SOL    HW217910   0.810   2.599   0.411  0.1315 -0.1715 -2.1031
 2092SOL     OW17911   4.086   3.204  10.524  0.6730 -0.2504 -0.1758
 2092SOL    HW117912   4.018   3.248  10.574  0.3889 -1.6512  0.6566
 2092SOL    HW217913   4.080   3.113  10.554 -2.5797  0.6144  1.7599
 2093SOL     OW17914   3.817   1.750   2.947 -0.5957  0.2042  0.1244
 2093SOL    HW117915   3.894   1.723   2.997 -0.6545  0.5304  0.3879
 2093SOL    HW217916   3.819   1.681   2.881 -0.7420  0.7664 -0.4660
 2094SOL     OW17917   1.777   3.178   5.426  0.0430 -0.6209 -0.1968
 2094SOL    HW117918   1.732   3.139   5.351 -1.9815  0.3503  0.4975
 2094SOL    HW217919   1.810   3.260   5.390 -0.7891 -0.3357 -0.3116
 2095SOL     OW17920   1.529   2.526  14.237 -0.7355  0.1255  0.1355
 2095SOL    HW117921   1.615   2.493  14.264 -1.8989 -1.1197  2.3217
 2095SOL    HW217922   1.562   2.604  14.193  0.8746 -0.4741  0.2673
 2096SOL     OW17923   2.181   0.823  10.333  0.8117  0.2049  0.1981
 2096SOL    HW117924   2.169   0.844  10.240 -1.7574 -1.1554  0.2165
 2096SOL    HW217925   2.102   0.769  10.340  0.1899  0.7906 -2.3351
 2097SOL     OW17926   0.862   3.577  15.474 -0.3337 -0.2044 -0.6020
 2097SOL    HW117927   0.953   3.591  15.503 -0.4021  0.0500 -0.5079
 2097SOL    HW217928   0.885   3.549  15.385  1.4484  0.9351 -0.5126
 2098SOL     OW17929   4.228   3.157   4.019  0.0061  0.2193  0.4928
 2098SOL    HW117930   4.222   3.185   4.110  0.3438  0.4720  0.4379
 2098SOL    HW217931   4.136   3.147   3.995 -0.3334 -2.5008  2.8492
 2099SOL     OW17932   2.233   3.598  13.933  0.1396 -0.4696  0.1099
 2099SOL    HW117933   2.224   3.686  13.895  2.3676  0.0121  0.6945
 2099SOL    HW217934   2.188   3.541  13.871 -1.9271  1.3260 -0.0567
 2100SOL     OW17935   0.421   3.334   7.731 -0.2531  0.6929  0.3077
 2100SOL    HW117936   0.474   3.256   7.747 -1.4483 -0.1077  0.3857
 2100SOL    HW217937   0.339   3.285   7.742  0.1754  0.5041  2.7744
 2101SOL     OW17938   4.044   1.240   5.001 -0.2458  0.0958  0.0327
 2101SOL    HW117939   3.973   1.206   5.056 -0.1440 -2.6624 -1.5596
 2101SOL    HW217940   4.030   1.333   5.021 -0.6610 -0.3863  1.9444
 2102SOL     OW17941   0.649   2.788   9.867 -0.1849 -0.0729  0.3261
 2102SOL    HW117942   0.711   2.718   9.887 -0.3447 -1.1716 -3.1141
 2102SOL    HW217943   0.695   2.867   9.895 -0.4721  0.6153 -1.1302
 2103SOL     OW17944   3.523   4.097   5.897  0.3407  0.6900  0.2977
 2103SOL    HW117945   3.614   4.101   5.927  0.8087  1.0758 -1.1670
 2103SOL    HW217946   3.492   4.180   5.932  1.1948  0.8124  0.7708
 2104SOL     OW17947   0.039   4.329   5.571  0.0036 -0.4755 -0.3351
 2104SOL    HW117948   4.696   4.385   5.577  2.2612  2.5912  0.0231
 2104SOL    HW217949   0.028   4.301   5.480  1.3605  0.3631 -0.7512
 2105SOL     OW17950   1.678   0.427  10.743 -0.0392  0.0822  0.5937
 2105SOL    HW117951   1.713   0.393  10.826  0.3699 -0.9152  0.0074
 2105SOL    HW217952   1.593   0.456  10.776  0.0471  1.9344 -0.7767
 2106SOL     OW17953   2.284   4.355  14.736 -0.1920  0.3610 -0.8045
 2106SOL    HW117954   2.198   4.388  14.761  1.1765  1.7288  2.2003
 2106SOL    HW217955   2.284   4.401  14.652  3.3509 -3.0370 -2.6369
 2107SOL     OW17956   3.609   3.135   3.981  0.4193 -0.7169 -0.6171
 2107SOL    HW117957   3.590   3.097   4.067  2.1286  0.5157  0.2887
 2107SOL    HW217958   3.531   3.190   3.978 -1.7315 -3.7399  0.4213
 2108SOL     OW17959   3.214   1.837   6.018 -0.3113 -0.1349 -0.6233
 2108SOL    HW117960   3.248   1.788   6.094 -0.4136  1.5872  0.5454
 2108SOL    HW217961   3.164   1.906   6.062  0.9791 -0.4780  1.4205
 2109SOL     OW17962   0.079   4.245   5.925 -0.6091  0.0708  0.0249
 2109SOL    HW117963   0.025   4.315   5.889 -0.4391  0.5203  0.6572
 2109SOL    HW217964   0.013   4.189   5.966 -1.1761 -1.1619 -2.5817
 2110SOL     OW17965   4.047   4.515   4.487  0.3835 -0.0347  0.1534
 2110SOL    HW117966   4.038   4.484   4.396 -0.7704 -1.0841  0.6161
 2110SOL    HW217967   3.956   4.536   4.510  1.0859  2.0563  1.0314
 2111SOL     OW17968   4.313   1.256   5.901  0.0972 -0.1284  0.4110
 2111SOL    HW117969   4.266   1.339   5.897 -0.2276 -0.2308  2.3509
 2111SOL    HW217970   4.275   1.216   5.823 -2.6794  0.4776  1.4784
 2112SOL     OW17971   4.568   3.752   3.468  0.2761 -0.1176 -0.1747
 2112SOL    HW117972   4.592   3.700   3.545 -1.5288 -0.8527 -0.1080
 2112SOL    HW217973   4.543   3.677   3.414 -2.1179  0.5469  0.0212
 2113SOL     OW17974   1.547   1.258   6.664  0.1300 -0.7692  0.1358
 2113SOL    HW117975   1.537   1.352   6.649  2.8836 -0.6365 -0.9450
 2113SOL    HW217976   1.458   1.224   6.664 -0.1976  0.1061  1.7924
 2114SOL     OW17977   1.793   4.270   8.348  0.3859  0.0349 -0.2358
 2114SOL    HW117978   1.854   4.200   8.326 -0.6284 -0.4119 -1.6492
 2114SOL    HW217979   1.742   4.285   8.268 -0.4771 -0.1325  0.2815
 2115SOL     OW17980   1.008   0.928   7.952 -0.6627 -0.3572 -0.3425
 2115SOL    HW117981   0.990   0.939   7.859 -0.0391 -0.9707 -0.5334
 2115SOL    HW217982   1.039   0.838   7.958  1.8750  0.4012 -2.1878
 2116SOL     OW17983   3.426   0.688   5.949 -0.0031 -0.0215  0.6274
 2116SOL    HW117984   3.514   0.653   5.933 -0.9132 -2.4058  0.8236
 2116SOL    HW217985   3.400   0.629   6.019  2.2974 -2.8552 -0.8882
 2117SOL     OW17986   3.482   2.529   2.711  0.1156 -0.3219 -0.4596
 2117SOL    HW117987   3.429   2.462   2.754  1.5860  0.5787  2.7569
 2117SOL    HW217988   3.567   2.484   2.710 -0.0362 -0.5984 -0.9443
 2118SOL     OW17989   0.817   2.636   7.594 -0.4519  0.1576  0.1236
 2118SOL    HW117990   0.813   2.663   7.685 -3.0393 -0.0263  0.0665
 2118SOL    HW217991   0.732   2.665   7.561 -0.3314  0.2959 -0.0616
 2119SOL     OW17992   2.417   2.494   2.673 -0.0236 -0.1142 -0.1347
 2119SOL    HW117993   2.329   2.499   2.635 -0.5074 -1.1112  0.8358
 2119SOL    HW217994   2.455   2.580   2.654 -2.2457  0.8836 -0.1591
 2120SOL     OW17995   3.449   4.234   3.483  0.1713  0.1129 -0.3505
 2120SOL    HW117996   3.397   4.161   3.449  0.2920 -0.2695  0.2826
 2120SOL    HW217997   3.410   4.301   3.427 -1.1301 -1.3452 -1.1990
 2121SOL     OW17998   1.099   1.281   3.095 -0.0662  0.9403  0.3846
 2121SOL    HW117999   1.074   1.242   3.012 -1.9732  0.4845  1.1798
 2121SOL    HW218000   1.146   1.361   3.068  0.8659  0.1242 -0.4027
 2122SOL     OW18001   2.154   2.114   1.382 -0.0991  0.3146 -0.0325
 2122SOL    HW118002   2.190   2.190   1.428  0.3209  0.3265 -0.3818
 2122SOL    HW218003   2.151   2.158   1.297  0.9796  1.0587  0.3240
 2123SOL     OW18004   2.573   2.281   2.563  0.2667  0.0521  0.1858
 2123SOL    HW118005   2.619   2.365   2.558  2.8771 -1.2430  2.6684
 2123SOL    HW218006   2.485   2.306   2.592 -0.1070 -1.2296  0.1349
 2124SOL     OW18007   0.261   2.396   7.665 -0.6852  0.0611 -0.1591
 2124SOL    HW118008   0.205   2.428   7.594 -0.2650 -1.0725 -0.9920
 2124SOL    HW218009   0.306   2.477   7.690 -1.7152  0.5223  0.2181
 2125SOL     OW18010   1.087   2.773   4.024  0.1841  0.5027  0.3325
 2125SOL    HW118011   1.076   2.776   4.119 -1.0090  1.8853  0.1406
 2125SOL    HW218012   1.150   2.702   4.011  0.0084  0.6774 -1.3449
 2126SOL     OW18013   0.448   3.724   7.097 -0.1549  0.1995  0.2360
 2126SOL    HW118014   0.467   3.664   7.025  1.7359  1.0352  0.0313
 2126SOL    HW218015   0.536   3.753   7.120 -0.4967  1.5587 -0.2351
 2127SOL     OW18016   3.662   0.044   5.279  0.5197 -0.2197  0.5018
 2127SOL    HW118017   3.735   0.103   5.300 -1.5575  3.1446 -1.7957
 2127SOL    HW218018   3.693   0.026   5.191 -0.6729 -2.2920  0.5062
 2128SOL     OW18019   3.370   0.377   9.810  0.2157  0.0668  0.3524
 2128SOL    HW118020   3.395   0.374   9.717  1.6783 -0.3503  0.7605
 2128SOL    HW218021   3.288   0.425   9.815 -0.7349 -1.2445 -2.3500
 2129SOL     OW18022   4.192   0.182   8.045 -0.5245 -0.3789 -0.1097
 2129SOL    HW118023   4.211   0.259   7.991 -2.2213 -0.5081 -0.9097
 2129SOL    HW218024   4.099   0.189   8.065 -0.1826 -1.6968  1.8527
 2130SOL     OW18025   2.109   3.572   3.962  0.5061  0.4350 -0.3624
 2130SOL    HW118026   2.118   3.517   3.884  0.2609  0.8469 -0.6795
 2130SOL    HW218027   2.182   3.633   3.955 -2.2436  3.8450  1.0887
 2131SOL     OW18028   0.835   1.909   3.633  0.1831  0.4151 -0.2148
 2131SOL    HW118029   0.833   2.001   3.660 -1.5105  0.3006  0.0428
 2131SOL    HW218030   0.769   1.920   3.564  1.0649  0.1967 -1.1035
 2132SOL     OW18031   3.002   1.868   5.489  0.8396  0.0412 -0.8668
 2132SOL    HW118032   3.004   1.884   5.583  1.8558  0.2169 -0.9119
 2132SOL    HW218033   2.998   1.953   5.445 -3.4159 -0.6635 -1.8038
 2133SOL     OW18034   2.770   1.440   5.517  0.2308 -0.0486 -0.3845
 2133SOL    HW118035   2.688   1.419   5.472 -0.2696 -0.6589  0.7990
 2133SOL    HW218036   2.802   1.516   5.469 -1.9873  1.3757  0.3867
 2134SOL     OW18037   4.214   1.933   7.955 -0.3906 -0.0884 -0.3698
 2134SOL    HW118038   4.285   1.920   8.018 -1.3182 -1.1052  0.4399
 2134SOL    HW218039   4.165   2.003   7.997  0.3988  0.7378 -0.8083
 2135SOL     OW18040   1.977   2.233   6.040 -0.0079  0.7017  0.5317
 2135SOL    HW118041   1.901   2.243   6.097  0.1347 -0.7019  0.9630
 2135SOL    HW218042   1.998   2.323   6.013 -1.8226  0.8049 -0.5201
 2136SOL     OW18043   0.305   4.146   8.453  0.8597  0.1135 -0.3774
 2136SOL    HW118044   0.277   4.114   8.367  4.7387 -1.9855 -0.8841
 2136SOL    HW218045   0.222   4.166   8.495  2.0900  0.7500  1.7787
 2137SOL     OW18046   2.647   1.573   8.209  0.3496  0.1610  0.0962
 2137SOL    HW118047   2.610   1.624   8.137  0.0264 -0.5467 -0.2390
 2137SOL    HW218048   2.723   1.626   8.236  1.8943 -0.4511 -3.0731
 2138SOL     OW18049   3.928   1.611  12.975 -0.4215  0.0199  0.4214
 2138SOL    HW118050   4.020   1.627  12.998 -0.4128 -0.3008  0.6105
 2138SOL    HW218051   3.905   1.675  12.908 -0.6183 -0.4391  0.0571
 2139SOL     OW18052   4.281   3.459  11.123 -0.1475  0.0273 -0.0141
 2139SOL    HW118053   4.281   3.554  11.133  1.3798 -0.1329  1.5945
 2139SOL    HW218054   4.240   3.437  11.040 -0.9271  1.2330  0.0469
 2140SOL     OW18055   1.716   2.639  17.119  0.1385  0.4375  0.4680
 2140SOL    HW118056   1.711   2.587  17.039 -1.1216 -0.7469  1.3204
 2140SOL    HW218057   1.621   2.647  17.130  0.3944  1.6490  1.7841
 2141SOL     OW18058   1.770   0.432   4.965  0.1282  0.3177  0.0232
 2141SOL    HW118059   1.860   0.415   4.991 -0.0754  0.7622  1.0331
 2141SOL    HW218060   1.781   0.432   4.870 -2.8958 -1.4740 -0.3486
 2142SOL     OW18061   3.565   0.586  15.078  0.5536  0.1356 -0.1697
 2142SOL    HW118062   3.652   0.607  15.045  0.3761  2.4627  0.8626
 2142SOL    HW218063   3.516   0.574  14.997  0.2032 -0.7498  0.1765
 2143SOL     OW18064   0.051   4.057   2.855 -0.6127  0.2967 -0.7598
 2143SOL    HW118065   4.731   4.064   2.933 -0.5306  0.1351 -0.6893
 2143SOL    HW218066   0.100   4.139   2.849 -1.5017  0.8601 -0.4422
 2144SOL     OW18067   2.871   0.046   7.183 -0.5952 -0.3232 -0.2560
 2144SOL    HW118068   2.855   0.084   7.269 -1.0024  1.1565 -0.9831
 2144SOL    HW218069   2.842   4.693   7.206 -0.7357 -0.2915 -0.3108
 2145SOL     OW18070   3.952   4.703   8.276 -0.1365 -0.2245 -0.4507
 2145SOL    HW118071   4.033   4.654   8.269 -0.1422 -0.5925  2.1157
 2145SOL    HW218072   3.950   0.032   8.205 -0.7649  0.6735  0.3675
 2146SOL     OW18073   3.261   0.815  10.044 -0.0584 -0.4882  0.3002
 2146SOL    HW118074   3.174   0.799  10.080  0.6011 -0.6706  1.8011
 2146SOL    HW218075   3.316   0.744  10.078 -0.9893 -0.3504  2.0798
 2147SOL     OW18076   3.396   4.462   9.745 -0.7302 -0.0992 -0.2456
 2147SOL    HW118077   3.305   4.482   9.766 -0.7010  0.7261 -0.8785
 2147SOL    HW218078   3.390   4.371   9.715  1.2538 -0.3010 -0.0105
 2148SOL     OW18079   3.315   0.630   0.671 -0.3144 -0.0795 -0.2502
 2148SOL    HW118080   3.233   0.583   0.680 -0.7981  1.0638  1.3717
 2148SOL    HW218081   3.293   0.704   0.614 -1.6398 -1.2227 -1.2122
 2149SOL     OW18082   3.100   2.974   3.949  0.0018 -0.1795  1.0022
 2149SOL    HW118083   3.034   2.949   4.015  0.7990 -0.5636  1.6494
 2149SOL    HW218084   3.181   2.952   3.994 -0.3901  0.5170  2.0568
 2150SOL     OW18085   2.016   4.282   8.090  0.0487  0.5637  0.5020
 2150SOL    HW118086   1.995   4.234   8.009 -0.5333 -0.6076  1.3500
 2150SOL    HW218087   1.987   4.369   8.063  0.5261 -0.4581 -3.3816
 2151SOL     OW18088   4.255   0.253   4.938  0.1597 -0.3957 -0.0873
 2151SOL    HW118089   4.234   0.332   4.988 -1.6670 -2.1264  1.8569
 2151SOL    HW218090   4.219   0.265   4.850 -1.3775 -0.3364  0.5485
 2152SOL     OW18091   0.644   2.219   7.305 -0.3392  0.6505  1.1196
 2152SOL    HW118092   0.660   2.252   7.393  0.8895 -3.3353  2.4090
 2152SOL    HW218093   0.553   2.246   7.290 -0.0781  1.2058  0.5448
 2153SOL     OW18094   2.584   0.231  14.614 -0.5091  0.1484 -0.1330
 2153SOL    HW118095   2.620   0.215  14.702  0.1855  0.0842 -0.4277
 2153SOL    HW218096   2.524   0.157  14.609  1.0764 -1.1649  0.1740
 2154SOL     OW18097   1.756   2.075  17.233  0.1245 -0.0324 -0.4246
 2154SOL    HW118098   1.841   2.101  17.266 -0.9825  2.0078  0.8330
 2154SOL    HW218099   1.778   2.012  17.164 -1.0053  0.5668 -1.3468
 2155SOL     OW18100   1.697   3.495   6.109  0.8990  0.1119  0.0905
 2155SOL    HW118101   1.645   3.492   6.028 -1.8006  1.9728  1.7600
 2155SOL    HW218102   1.631   3.451   6.163  2.0920  0.3771  1.7512
 2156SOL     OW18103   2.437   2.829   6.991  0.4788  0.0697  0.1765
 2156SOL    HW118104   2.518   2.840   6.941  0.5326 -3.2643 -0.4299
 2156SOL    HW218105   2.384   2.899   6.953  0.5145  0.3191  0.5811
 2157SOL     OW18106   1.098   1.307   2.001 -0.0342 -0.1861  0.1992
 2157SOL    HW118107   1.086   1.245   1.929  0.0588 -0.4369  0.3992
 2157SOL    HW218108   1.184   1.283   2.034  0.8983  1.0909 -1.3254
 2158SOL     OW18109   1.821   3.219   5.058  0.0401 -0.6974  0.5237
 2158SOL    HW118110   1.887   3.151   5.072 -0.5109 -1.0576  1.4101
 2158SOL    HW218111   1.760   3.170   5.004  2.1374 -3.2936  0.5119
 2159SOL     OW18112   1.240   2.252   9.787  0.1894  0.2531  0.7742
 2159SOL    HW118113   1.222   2.333   9.835 -0.6536 -0.1918  1.2183
 2159SOL    HW218114   1.292   2.205   9.852  1.1824 -0.4773 -0.5567
 2160SOL     OW18115   2.563   0.350   6.421 -0.1015 -0.3945 -0.1100
 2160SOL    HW118116   2.521   0.425   6.379 -1.2176 -0.2458  1.2682
 2160SOL    HW218117   2.534   0.282   6.361  0.5636 -0.7890  0.0177
 2161SOL     OW18118   2.677   3.461  10.474 -0.1684 -0.1998 -0.4097
 2161SOL    HW118119   2.761   3.502  10.494  1.3825 -3.0144 -0.9962
 2161SOL    HW218120   2.622   3.497  10.543 -1.4185 -1.3960 -0.7805
 2162SOL     OW18121   0.920   3.051   8.374 -0.0267 -0.1533 -0.4177
 2162SOL    HW118122   0.832   3.058   8.409 -0.0357 -0.6206 -0.3466
 2162SOL    HW218123   0.940   3.140   8.343 -0.7321  0.6731  1.4945
 2163SOL     OW18124   3.164   4.479   1.430 -0.2846  0.2760 -0.1291
 2163SOL    HW118125   3.075   4.503   1.456 -0.2903 -1.4420  1.4788
 2163SOL    HW218126   3.157   4.395   1.384  0.6093  0.0870  0.0807
 2164SOL     OW18127   1.400   2.907   3.222 -0.2806 -0.0067  0.0687
 2164SOL    HW118128   1.482   2.888   3.268  0.8146  0.2284 -1.7802
 2164SOL    HW218129   1.330   2.907   3.287 -0.5913  3.2486 -0.2938
 2165SOL     OW18130   0.484   4.456   0.690  0.1252  0.2854 -0.0343
 2165SOL    HW118131   0.571   4.478   0.725  0.8323 -1.8544 -0.4736
 2165SOL    HW218132   0.462   4.374   0.735 -0.6625 -0.3657 -1.6127
 2166SOL     OW18133   3.139   4.695   8.577  0.8224  0.5906  0.0082
 2166SOL    HW118134   3.167   0.015   8.650  2.9441  0.1041 -0.4676
 2166SOL    HW218135   3.132   0.027   8.509  0.9308  0.7846  0.1892
 2167SOL     OW18136   2.017   2.994  15.063 -0.2043 -0.5606 -0.0718
 2167SOL    HW118137   2.101   3.035  15.083 -0.2025 -0.7347  0.2823
 2167SOL    HW218138   2.029   2.899  15.064 -0.5970 -0.6072 -0.1008
 2168SOL     OW18139   0.466   1.110   3.533  0.8744  0.0169  0.2713
 2168SOL    HW118140   0.408   1.060   3.475  2.4536 -1.9028  0.3555
 2168SOL    HW218141   0.550   1.066   3.526  1.4196  1.4579 -2.1686
 2169SOL     OW18142   2.288   1.198   7.844  0.2375  0.4794  0.2486
 2169SOL    HW118143   2.232   1.271   7.818 -0.6579 -0.2835  0.0160
 2169SOL    HW218144   2.225   1.140   7.887 -0.3927  0.4780 -0.6778
 2170SOL     OW18145   1.152   0.043   6.547  0.3495 -0.2180 -0.3010
 2170SOL    HW118146   1.235   0.091   6.547  0.8923 -1.1628 -0.5589
 2170SOL    HW218147   1.174   4.722   6.621 -2.9891 -0.2880  0.6657
 2171SOL     OW18148   3.753   0.733   4.879  0.6235 -0.4353  0.1569
 2171SOL    HW118149   3.787   0.645   4.861  2.0765  0.0126  0.6941
 2171SOL    HW218150   3.737   0.765   4.790 -0.0260 -0.7880  0.1510
 2172SOL     OW18151   2.999   3.955   8.318 -0.9725  0.0880 -0.1335
 2172SOL    HW118152   2.978   3.875   8.270  0.6850  1.1517 -2.6327
 2172SOL    HW218153   2.916   4.001   8.315 -1.6533 -1.0323  1.4182
 2173SOL     OW18154   0.935   4.633   0.711 -0.5422 -0.0074 -0.0822
 2173SOL    HW118155   1.008   4.613   0.652 -1.8749  2.8158 -2.6818
 2173SOL    HW218156   0.979   4.686   0.776  0.2506 -1.7664  0.8277
 2174SOL     OW18157   4.722   0.575   5.644 -0.2688  0.1036 -0.1663
 2174SOL    HW118158   0.061   0.541   5.593  0.2441 -0.4537  0.9436
 2174SOL    HW218159   4.671   0.495   5.658 -0.9783  0.2622 -1.8246
 2175SOL     OW18160   1.955   0.303   5.580 -0.0132  0.8464 -0.2387
 2175SOL    HW118161   1.976   0.397   5.574  0.3070  0.8105  0.3589
 2175SOL    HW218162   1.862   0.309   5.601  0.1072 -1.9157  0.9676
 2176SOL     OW18163   3.487   1.855  10.666  0.0120  0.2589 -0.1032
 2176SOL    HW118164   3.418   1.880  10.605  1.5113  3.3226 -0.5101
 2176SOL    HW218165   3.497   1.940  10.710  0.8574 -0.8912  1.9502
 2177SOL     OW18166   2.762   3.346   4.694  0.2019 -0.4598  0.2125
 2177SOL    HW118167   2.769   3.328   4.788  3.1526  2.5407  0.6124
 2177SOL    HW218168   2.818   3.423   4.686 -0.4007  0.0038  0.4814
 2178SOL     OW18169   4.695   1.422   8.680 -0.0490 -0.4363 -0.0474
 2178SOL    HW118170   4.640   1.377   8.744  0.4093  0.3436  0.8910
 2178SOL    HW218171   0.012   1.481   8.735  0.1643 -0.7646  0.1031
 2179SOL     OW18172   3.077   2.938   3.462  0.1901 -0.5003  0.4514
 2179SOL    HW118173   3.151   2.887   3.493  1.8542  1.0187 -1.0411
 2179SOL    HW218174   3.093   2.931   3.368 -0.2392  0.1731  0.3250
 2180SOL     OW18175   2.556   1.521   0.212 -0.2742 -0.5551  0.3846
 2180SOL    HW118176   2.519   1.482   0.291 -0.0617  0.5772  1.0410
 2180SOL    HW218177   2.640   1.475   0.220  0.5365  1.0524  1.1601
 2181SOL     OW18178   2.769   3.121   0.030 -0.2353  0.3617  0.4956
 2181SOL    HW118179   2.684   3.162   0.046 -1.0300 -1.7667  1.6803
 2181SOL    HW218180   2.808   3.118   0.117  0.4515 -0.7072  0.1519
 2182SOL     OW18181   0.704   0.592   5.718 -0.6032 -0.1535 -0.2312
 2182SOL    HW118182   0.724   0.524   5.654 -0.4363 -0.4327  0.1155
 2182SOL    HW218183   0.615   0.572   5.748 -1.0425  1.7539 -0.2492
 2183SOL     OW18184   0.976   0.912   7.694 -0.1134  0.1130  0.2563
 2183SOL    HW118185   0.927   0.831   7.684  2.3247 -0.9139 -3.4693
 2183SOL    HW218186   1.056   0.880   7.653  1.0646  1.2452  1.6455
 2184SOL     OW18187   4.707   0.902   4.641  0.4437 -0.0526 -0.1876
 2184SOL    HW118188   0.034   0.920   4.570  1.2061 -2.9074 -0.2820
 2184SOL    HW218189   0.005   0.817   4.671  1.7840  1.2679  2.0748
 2185SOL     OW18190   0.487   4.666   3.532 -0.3896 -0.2444 -0.4555
 2185SOL    HW118191   0.556   4.729   3.512 -0.6748 -0.1397 -1.1206
 2185SOL    HW218192   0.416   4.724   3.559 -0.2358  0.5200 -1.6728
 2186SOL     OW18193   0.313   4.266   5.094 -0.2427 -0.3433 -0.6228
 2186SOL    HW118194   0.391   4.242   5.044 -0.2024 -0.2939 -0.5833
 2186SOL    HW218195   0.254   4.198   5.061 -0.1596 -0.5704 -0.3106
 2187SOL     OW18196   1.208   0.375   5.115  0.9368  0.2790  0.6420
 2187SOL    HW118197   1.293   0.365   5.158  2.3602  3.3341 -1.4430
 2187SOL    HW218198   1.210   0.285   5.081  0.0483  0.4621  0.0946
 2188SOL     OW18199   4.136   2.677   6.004  0.2911 -0.3123 -0.1559
 2188SOL    HW118200   4.215   2.637   6.041  0.0757  0.8110  1.5247
 2188SOL    HW218201   4.124   2.758   6.054  1.9685  0.1729 -0.5502
 2189SOL     OW18202   2.990   0.231   4.171 -0.5952 -0.7076 -0.1622
 2189SOL    HW118203   2.989   0.254   4.078  0.3136  1.4973  0.3832
 2189SOL    HW218204   3.001   0.136   4.174  2.3635 -0.3300  0.4455
 2190SOL     OW18205   3.256   1.099   4.896  0.8085  0.5176  0.2999
 2190SOL    HW118206   3.289   1.142   4.817 -0.0271 -0.1234 -0.4017
 2190SOL    HW218207   3.199   1.167   4.931  1.0390  0.8276  0.0728
 2191SOL     OW18208   0.334   0.470  10.663 -0.3263  0.0534 -0.4768
 2191SOL    HW118209   0.334   0.555  10.708 -0.5603 -0.5810  0.7165
 2191SOL    HW218210   0.428   0.450  10.664 -0.1044  1.0022 -1.9157
 2192SOL     OW18211   2.630   0.905   6.480  0.5263 -0.3825 -0.7039
 2192SOL    HW118212   2.675   0.987   6.499  1.1744 -1.3548  1.9965
 2192SOL    HW218213   2.542   0.942   6.473  0.5811 -0.0826  0.1786
 2193SOL     OW18214   0.147   4.480   6.195  0.7815 -0.4762  0.1645
 2193SOL    HW118215   0.156   4.410   6.131  0.7210  0.3842 -0.7815
 2193SOL    HW218216   0.094   4.436   6.262  1.5009  0.5441  1.4140
 2194SOL     OW18217   2.170   1.143   3.681  0.2007 -0.0263 -0.1761
 2194SOL    HW118218   2.261   1.141   3.653  0.1498 -1.2656 -0.2364
 2194SOL    HW218219   2.174   1.215   3.744  1.0832 -1.7136  1.6869
 2195SOL     OW18220   2.114   3.418   0.509  0.4820  0.2678  0.3273
 2195SOL    HW118221   2.104   3.386   0.419  0.1083 -2.8039  1.4411
 2195SOL    HW218222   2.205   3.397   0.534  0.5356  0.9173  0.6684
 2196SOL     OW18223   1.145   3.648  15.478  0.5637  0.3295 -0.4254
 2196SOL    HW118224   1.103   3.718  15.428 -1.4005 -0.1449  0.5640
 2196SOL    HW218225   1.238   3.670  15.469  0.6880  0.7172  1.7752
 2197SOL     OW18226   1.083   4.707   7.795 -0.5297 -0.3361  0.8073
 2197SOL    HW118227   1.155   4.644   7.803 -0.6663 -0.4977  0.7697
 2197SOL    HW218228   1.017   4.642   7.770 -0.7213  0.3165 -0.4013
 2198SOL     OW18229   2.754   0.194  14.399 -0.6476  0.4875 -0.0984
 2198SOL    HW118230   2.718   0.172  14.484 -0.5901  2.0599  0.3481
 2198SOL    HW218231   2.844   0.221  14.417 -0.5669 -0.3019  0.6543
 2199SOL     OW18232   0.764   3.866   3.878  0.0467  0.5566  0.2647
 2199SOL    HW118233   0.686   3.823   3.844 -0.4808  1.2942  0.5550
 2199SOL    HW218234   0.785   3.931   3.811 -1.0611  1.9779  1.3137
 2200SOL     OW18235   2.017   2.055   5.852 -0.5557  0.3027 -0.5776
 2200SOL    HW118236   1.933   2.017   5.825 -1.8079  0.5705  2.9411
 2200SOL    HW218237   1.992   2.122   5.915 -1.4029 -2.0259  1.5582
 2201SOL     OW18238   2.084   4.579   7.009 -0.2095 -0.2758 -0.1851
 2201SOL    HW118239   2.084   4.597   7.103 -0.4307  0.7516 -0.3816
 2201SOL    HW218240   2.158   4.519   7.019  0.6896  0.8994  0.1833
 2202SOL     OW18241   3.921   1.268  10.695  0.0433 -0.2395 -0.0841
 2202SOL    HW118242   3.848   1.303  10.747 -1.7706 -1.2409 -1.9683
 2202SOL    HW218243   3.986   1.336  10.712  1.0066 -1.4562  1.0748
 2203SOL     OW18244   0.896   3.310   3.605  0.1383 -0.2442  0.0951
 2203SOL    HW118245   0.907   3.346   3.694  0.5522 -4.5523  1.7707
 2203SOL    HW218246   0.973   3.254   3.605  0.6158  0.4225 -0.5993
 2204SOL     OW18247   1.393   1.160   5.965 -0.3336  0.1652  0.4104
 2204SOL    HW118248   1.372   1.147   6.057  1.7423 -0.7790  0.7600
 2204SOL    HW218249   1.321   1.199   5.916 -0.4033  0.4733  0.7589
 2205SOL     OW18250   3.744   2.058   5.232 -0.0915  0.3303 -0.2988
 2205SOL    HW118251   3.650   2.048   5.244 -0.0954  1.0432  0.2166
 2205SOL    HW218252   3.774   1.987   5.289 -1.9738  0.4778  0.8804
 2206SOL     OW18253   4.149   4.491  12.218 -0.1698 -0.1559 -0.0070
 2206SOL    HW118254   4.126   4.439  12.141 -0.4308  1.2588 -0.8877
 2206SOL    HW218255   4.064   4.484  12.261 -0.3815  0.3076 -0.3498
 2207SOL     OW18256   1.766   0.872   6.069 -0.3110  0.3050  0.2935
 2207SOL    HW118257   1.681   0.856   6.027 -0.5203  1.3569  0.2999
 2207SOL    HW218258   1.776   0.966   6.050  2.7505  0.0697  0.7410
 2208SOL     OW18259   1.552   3.319   5.499 -0.2468 -0.5028  0.1019
 2208SOL    HW118260   1.607   3.255   5.454  1.0963  1.1652 -0.6177
 2208SOL    HW218261   1.496   3.257   5.545 -0.4214 -0.8095 -0.5348
 2209SOL     OW18262   4.414   4.125   7.244 -0.3798 -0.2931 -0.1954
 2209SOL    HW118263   4.398   4.217   7.265  1.6643 -0.0042  0.1495
 2209SOL    HW218264   4.492   4.113   7.299  0.9013 -0.1087 -1.9604
 2210SOL     OW18265   2.479   2.865  15.979 -0.1391  0.0944  0.9439
 2210SOL    HW118266   2.411   2.816  16.025  1.2013 -0.4575  2.2987
 2210SOL    HW218267   2.424   2.900  15.908 -3.4218 -0.9089  2.9688
 2211SOL     OW18268   2.793   0.096   0.601 -0.0184  0.3615  0.0011
 2211SOL    HW118269   2.703   0.110   0.571 -0.3020  0.0027  0.6907
 2211SOL    HW218270   2.825   0.020   0.553  0.6519  1.5188 -1.3688
 2212SOL     OW18271   0.738   3.202   7.533  0.1758 -0.4268  0.1206
 2212SOL    HW118272   0.713   3.149   7.457 -2.3690 -1.1003  1.4254
 2212SOL    HW218273   0.820   3.242   7.502  0.5298  0.7095  2.4995
 2213SOL     OW18274   4.158   0.691   0.405  0.2789 -0.0098 -0.2325
 2213SOL    HW118275   4.184   0.772   0.449  0.9726 -1.0752  1.3115
 2213SOL    HW218276   4.239   0.640   0.397 -1.1586 -2.6781  2.0352
 2214SOL     OW18277   4.238   3.207   9.875 -0.0787 -0.1078  1.1003
 2214SOL    HW118278   4.147   3.184   9.856 -0.1448  1.2282 -0.1831
 2214SOL    HW218279   4.274   3.121   9.898  0.1626 -0.2996 -0.0023
 2215SOL     OW18280   3.854   1.064  11.044 -0.0285 -0.0144  0.7467
 2215SOL    HW118281   3.885   1.150  11.073  2.8085 -0.8219  0.1788
 2215SOL    HW218282   3.760   1.069  11.031 -0.2407 -1.2867  1.8317
 2216SOL     OW18283   0.950   0.995   3.124 -0.1181 -0.1103 -0.8851
 2216SOL    HW118284   1.000   1.021   3.046 -1.1189 -0.3788 -1.6135
 2216SOL    HW218285   1.018   0.998   3.191  0.9887  0.7486 -2.0290
 2217SOL     OW18286   2.169   3.985   5.792  0.1123 -0.0215 -0.2084
 2217SOL    HW118287   2.113   4.062   5.803 -0.8874 -0.7611 -0.0968
 2217SOL    HW218288   2.095   3.930   5.765 -0.3683 -0.5490  2.1287
 2218SOL     OW18289   0.712   4.623   6.956  0.0384  0.3551 -0.0821
 2218SOL    HW118290   0.718   4.528   6.956 -2.0789  0.2189  0.8041
 2218SOL    HW218291   0.627   4.631   6.912  0.3589 -0.5293 -0.8447
 2219SOL     OW18292   2.906   3.015   4.134  0.6901  0.0945  0.2056
 2219SOL    HW118293   2.875   3.105   4.132 -2.5294 -0.9748  1.2275
 2219SOL    HW218294   2.924   3.005   4.227  1.4049 -1.3264 -0.0901
 2220SOL     OW18295   3.681   1.892   0.123  0.4097  0.3655 -0.3342
 2220SOL    HW118296   3.741   1.953   0.082 -0.4527  1.8840  0.6654
 2220SOL    HW218297   3.697   1.924   0.212  1.6553 -2.5707  0.5042
 2221SOL     OW18298   3.638   4.416   5.151 -0.0620  0.2092 -0.3738
 2221SOL    HW118299   3.690   4.458   5.219  0.0643  0.1971 -0.4616
 2221SOL    HW218300   3.704   4.350   5.129  0.9019  1.5766 -1.6211
 2222SOL     OW18301   3.394   1.756   1.532  0.3572 -0.3817 -0.6340
 2222SOL    HW118302   3.301   1.775   1.515  0.4564  1.3129  0.6926
 2222SOL    HW218303   3.392   1.663   1.554  3.0934 -0.4387 -0.7258
 2223SOL     OW18304   4.354   3.125  15.040  0.3290 -0.2534  0.4668
 2223SOL    HW118305   4.325   3.041  15.075  0.1849 -0.3748  0.0526
 2223SOL    HW218306   4.442   3.129  15.078  0.4115 -1.6318  0.4047
 2224SOL     OW18307   3.801   0.881   6.566 -0.5341 -0.2832  0.5735
 2224SOL    HW118308   3.744   0.917   6.499  0.8092  0.4540 -0.1711
 2224SOL    HW218309   3.865   0.824   6.524  1.2996  1.8581  0.4420
 2225SOL     OW18310   0.086   3.350   4.836  0.1748  0.2433 -0.6761
 2225SOL    HW118311   0.148   3.392   4.895 -0.9437 -0.1162  0.7642
 2225SOL    HW218312   0.023   3.310   4.897  3.0163 -2.1345  0.6767
 2226SOL     OW18313   2.186   1.034   1.396  0.1197 -0.2725  0.3003
 2226SOL    HW118314   2.193   1.107   1.457  1.4146  0.2627 -0.4929
 2226SOL    HW218315   2.262   1.048   1.340 -0.3350 -0.7480 -0.4363
 2227SOL     OW18316   2.046   3.386  10.281  0.3677 -0.8220 -0.2697
 2227SOL    HW118317   1.951   3.388  10.280  0.3908 -1.6299 -3.2134
 2227SOL    HW218318   2.069   3.382  10.374  0.1034 -0.2886 -0.1789
 2228SOL     OW18319   2.468   2.429  12.251  0.2946  0.1730 -0.4994
 2228SOL    HW118320   2.424   2.345  12.264 -1.6835  1.4764  1.2452
 2228SOL    HW218321   2.534   2.408  12.186 -0.9997 -2.0244 -1.1138
 2229SOL     OW18322   1.017   0.892   4.054  0.2577 -0.2030 -0.1016
 2229SOL    HW118323   1.024   0.964   3.992  2.0146  1.0356  1.5076
 2229SOL    HW218324   0.932   0.862   4.022  0.3736 -0.2780 -0.3401
 2230SOL     OW18325   3.180   2.564   5.216  0.9405 -0.2317  0.2748
 2230SOL    HW118326   3.228   2.512   5.152  1.5837 -1.3098  1.6373
 2230SOL    HW218327   3.198   2.653   5.186 -0.4573 -0.1943 -0.4276
 2231SOL     OW18328   3.782   1.679   7.403  0.0364 -0.2249  0.0363
 2231SOL    HW118329   3.765   1.705   7.494 -1.4950 -3.1136  0.5874
 2231SOL    HW218330   3.838   1.603   7.420 -0.4164 -1.1627 -2.6545
 2232SOL     OW18331   0.794   4.175   0.418 -0.0293  0.0662 -0.0633
 2232SOL    HW118332   0.786   4.148   0.326 -0.0235 -0.5245  0.1101
 2232SOL    HW218333   0.886   4.201   0.426  0.1904 -0.5242 -0.6632
 2233SOL     OW18334   2.406   3.281   5.654  0.1753 -0.5336  0.6005
 2233SOL    HW118335   2.396   3.371   5.686  0.1633 -0.6854  1.0151
 2233SOL    HW218336   2.463   3.244   5.721 -1.2783 -2.0128  1.0021
 2234SOL     OW18337   2.286   0.566   6.694  0.0825 -0.3915  0.2544
 2234SOL    HW118338   2.355   0.621   6.657  0.9229 -1.2837  0.4935
 2234SOL    HW218339   2.326   0.480   6.684  0.8021  0.1484 -1.5847
 2235SOL     OW18340   1.979   3.789   6.648  0.3305 -0.6488 -0.0531
 2235SOL    HW118341   1.961   3.800   6.554  1.0530 -2.3122 -0.3853
 2235SOL    HW218342   1.979   3.880   6.676 -2.0334 -0.3890 -0.8781
 2236SOL     OW18343   3.138   0.731   7.989  0.2549 -0.3293  0.2699
 2236SOL    HW118344   3.224   0.743   8.029  1.0035  0.8122 -1.7017
 2236SOL    HW218345   3.094   0.816   7.995 -0.6539 -0.7123 -1.1379
 2237SOL     OW18346   2.187   2.215  14.703  0.0688  0.2141  0.7566
 2237SOL    HW118347   2.179   2.121  14.717 -2.4742  0.3154  0.0802
 2237SOL    HW218348   2.282   2.223  14.705  0.0773  0.1457  0.6028
 2238SOL     OW18349   2.237   0.057  15.354  0.3383 -0.0932  0.2634
 2238SOL    HW118350   2.147   0.051  15.385 -0.3728  0.5091 -1.7139
 2238SOL    HW218351   2.252   4.697  15.356 -2.2638 -0.4982  0.0507
 2239SOL     OW18352   2.195   4.022   9.604 -0.3392 -0.3739 -0.1383
 2239SOL    HW118353   2.147   3.948   9.641  2.0216 -1.7978  0.0951
 2239SOL    HW218354   2.149   4.084   9.661 -0.2220  0.2863 -0.7612
 2240SOL     OW18355   2.021   2.635  13.925  0.3405  0.0291  0.3984
 2240SOL    HW118356   1.955   2.681  13.977  1.3664  0.0175  1.7168
 2240SOL    HW218357   2.089   2.702  13.915 -1.4875  2.2453  2.7666
 2241SOL     OW18358   4.220   3.253  12.335  0.2036  0.3271  0.1430
 2241SOL    HW118359   4.143   3.290  12.378  0.5756 -1.3997  2.2642
 2241SOL    HW218360   4.287   3.303  12.382  0.8748 -0.8441  0.4152
 2242SOL     OW18361   1.491   1.744   3.772  0.0526  0.6536  0.3367
 2242SOL    HW118362   1.409   1.724   3.816  0.6090 -1.6396  0.3001
 2242SOL    HW218363   1.560   1.750   3.839  0.6324 -1.8445 -0.0378
 2243SOL     OW18364   3.062   1.486  16.325 -0.9903  0.7112  0.7607
 2243SOL    HW118365   2.991   1.459  16.267 -0.8227 -2.2193  1.9543
 2243SOL    HW218366   3.006   1.480  16.402 -0.5050 -2.3062  0.8868
 2244SOL     OW18367   0.016   1.395   7.488  0.2547 -0.0784 -0.5099
 2244SOL    HW118368   4.696   1.473   7.481  1.1128  0.6822  1.2773
 2244SOL    HW218369   4.728   1.381   7.580 -2.3877 -1.2322 -1.3446
 2245SOL     OW18370   2.698   2.900   6.919 -0.2267 -0.0297 -0.1013
 2245SOL    HW118371   2.776   2.919   6.972  0.1394  1.7041 -1.2594
 2245SOL    HW218372   2.733   2.852   6.843  0.6758  0.1298  0.2173
 2246SOL     OW18373   2.936   0.801  12.259  0.0305 -0.4916  0.2145
 2246SOL    HW118374   2.887   0.720  12.276 -0.8147  0.2807  1.4332
 2246SOL    HW218375   2.960   0.792  12.167  2.1105 -0.5002  0.7656
 2247SOL     OW18376   1.131   4.433   9.391 -0.0512 -0.0247 -0.2931
 2247SOL    HW118377   1.189   4.361   9.412  0.4027  0.1971 -0.8035
 2247SOL    HW218378   1.061   4.404   9.449 -0.0156 -1.2959 -0.8869
 2248SOL     OW18379   1.532   0.460   7.579  0.3153 -0.0081 -0.4021
 2248SOL    HW118380   1.446   0.419   7.574 -0.4147  1.5688 -0.6844
 2248SOL    HW218381   1.562   0.435   7.492 -0.9809 -0.2039 -0.7885
 2249SOL     OW18382   1.177   0.386   9.236 -0.0509  0.0023  0.3482
 2249SOL    HW118383   1.214   0.300   9.216  0.5467  0.3761 -0.1522
 2249SOL    HW218384   1.093   0.348   9.261 -0.1040  0.1877  0.4543
 2250SOL     OW18385   4.199   2.475   1.377 -0.3511 -0.3889  0.1203
 2250SOL    HW118386   4.130   2.408   1.377  0.5545 -1.3164 -0.3097
 2250SOL    HW218387   4.224   2.481   1.285  3.4325 -3.0815  0.9698
 2251SOL     OW18388   1.801   1.716   1.973 -0.0810  0.2375  0.3005
 2251SOL    HW118389   1.845   1.789   2.016  1.3141 -0.5923  0.2807
 2251SOL    HW218390   1.860   1.643   1.990  1.8271  1.2955 -1.7628
 2252SOL     OW18391   3.731   1.959   2.375 -0.0625 -0.0514  0.3978
 2252SOL    HW118392   3.761   1.903   2.303 -3.0161 -1.8421  0.5484
 2252SOL    HW218393   3.658   1.916   2.421  1.5377 -1.6308  1.4481
 2253SOL     OW18394   3.939   0.746   0.253  0.3746  0.6913 -0.0984
 2253SOL    HW118395   3.985   0.761   0.170 -1.5590  1.4536 -1.0479
 2253SOL    HW218396   4.014   0.728   0.310  0.5318 -1.3858 -0.9906
 2254SOL     OW18397   1.824   4.714   5.638 -0.2158 -0.3699 -0.4367
 2254SOL    HW118398   1.783   0.016   5.717 -0.6341  0.0647 -0.8591
 2254SOL    HW218399   1.899   4.663   5.668 -0.7374 -0.9904 -0.1959
 2255SOL     OW18400   0.865   2.655   5.828  0.0466 -0.4123  0.4935
 2255SOL    HW118401   0.907   2.715   5.889  5.4175 -2.3256 -1.2902
 2255SOL    HW218402   0.855   2.709   5.749 -0.2865 -1.4353 -0.1743
 2256SOL     OW18403   1.788   0.357  13.696 -0.1153  0.5407 -0.5515
 2256SOL    HW118404   1.700   0.349  13.732  0.5964 -1.4291  0.7614
 2256SOL    HW218405   1.777   0.354  13.601 -2.1613 -2.0889 -0.2445
 2257SOL     OW18406   0.162   4.723   5.343  0.2325  0.0446  0.3799
 2257SOL    HW118407   0.181   0.001   5.436  1.7432  1.0730 -0.0645
 2257SOL    HW218408   0.199   4.638   5.323  0.9989  0.1375  1.4008
 2258SOL     OW18409   2.233   1.213   2.541 -1.3595 -0.4183 -0.6001
 2258SOL    HW118410   2.223   1.126   2.579 -3.1711 -0.5346 -1.3131
 2258SOL    HW218411   2.170   1.207   2.469 -1.9194  1.0287 -0.2540
 2259SOL     OW18412   3.474   3.975  10.672  0.2110  0.2503  0.6986
 2259SOL    HW118413   3.379   3.965  10.678  0.3630 -1.3571  0.2504
 2259SOL    HW218414   3.493   3.996  10.764 -1.4263  0.4773  1.0019
 2260SOL     OW18415   4.094   4.006   3.136 -0.0509 -0.4094  0.0357
 2260SOL    HW118416   4.030   3.990   3.067  0.1985  0.5707 -0.4238
 2260SOL    HW218417   4.027   4.011   3.204 -0.6840 -0.5267 -0.5881
 2261SOL     OW18418   0.382   2.593  16.762  0.1491  0.2340  0.3441
 2261SOL    HW118419   0.294   2.620  16.736 -0.1244  1.6399  2.8085
 2261SOL    HW218420   0.388   2.515  16.707  1.9008 -0.7933  1.9812
 2262SOL     OW18421   2.282   3.666   8.830 -0.6092  0.5527  0.3877
 2262SOL    HW118422   2.368   3.698   8.801  0.7923 -2.1175  1.6140
 2262SOL    HW218423   2.285   3.686   8.924  0.1985  3.1284 -0.1667
 2263SOL     OW18424   1.678   1.767   8.766  0.0135  0.0460  0.6949
 2263SOL    HW118425   1.607   1.709   8.795  0.1824 -0.8851 -0.7808
 2263SOL    HW218426   1.619   1.841   8.749  1.2195  0.0687 -3.2692
 2264SOL     OW18427   0.938   4.162   6.167  0.9173  0.1728 -0.1415
 2264SOL    HW118428   0.947   4.248   6.126  2.0109  0.4839  0.7586
 2264SOL    HW218429   1.017   4.119   6.133 -0.3739 -0.8471 -1.8868
 2265SOL     OW18430   3.544   4.275   7.426 -0.0605  0.7001  0.3354
 2265SOL    HW118431   3.606   4.344   7.450  1.2979  0.8358 -3.4731
 2265SOL    HW218432   3.525   4.297   7.335  0.3983  1.5191  0.4428
 2266SOL     OW18433   4.002   4.025   6.479 -0.4546  0.7785 -0.5153
 2266SOL    HW118434   4.052   4.104   6.502 -1.8296  1.0073  1.6504
 2266SOL    HW218435   3.916   4.063   6.492  0.0630  2.0380 -0.8119
 2267SOL     OW18436   0.449   3.181   6.742  0.3308 -0.2425  0.2346
 2267SOL    HW118437   0.490   3.247   6.687 -3.2449  1.2443 -0.6369
 2267SOL    HW218438   0.490   3.100   6.711  0.3691 -0.9962  2.2192
 2268SOL     OW18439   4.185   2.981   4.831 -0.0602  0.5490 -0.0638
 2268SOL    HW118440   4.190   3.058   4.774  0.1809 -1.4616 -2.7220
 2268SOL    HW218441   4.120   2.935   4.780  1.4449 -1.1059 -0.4823
 2269SOL     OW18442   1.975   0.948   2.716 -0.3607  0.4951 -0.4821
 2269SOL    HW118443   1.999   0.983   2.630  0.2846  0.7702 -0.1912
 2269SOL    HW218444   1.906   1.006   2.748 -0.1101  0.2437  0.4838
 2270SOL     OW18445   4.679   1.619   7.234  0.0579 -0.3462  0.3169
 2270SOL    HW118446   4.625   1.681   7.184 -1.2591  0.0177  2.1743
 2270SOL    HW218447   4.654   1.621   7.327 -1.0737  1.2273 -0.0126
 2271SOL     OW18448   1.177   0.871   5.050 -0.1078  0.2136 -0.4490
 2271SOL    HW118449   1.183   0.954   5.004  2.9006 -0.2835 -0.9235
 2271SOL    HW218450   1.206   0.801   4.992 -1.0707  1.4465 -2.4211
 2272SOL     OW18451   2.138   1.168  10.294  0.0200 -0.1654  0.2338
 2272SOL    HW118452   2.127   1.245  10.349  1.5323 -0.0156  0.3383
 2272SOL    HW218453   2.226   1.153  10.329  0.4183 -1.5451 -1.3263
 2273SOL     OW18454   0.636   2.656  14.273  0.4817  0.4988  0.0920
 2273SOL    HW118455   0.703   2.679  14.338 -0.1472  0.4998  0.7331
 2273SOL    HW218456   0.558   2.690  14.317  0.2243  1.0548 -0.7931
 2274SOL     OW18457   0.058   0.515   4.075  0.2681  0.0857 -0.7876
 2274SOL    HW118458   0.120   0.445   4.051 -0.0488 -0.5249  0.2060
 2274SOL    HW218459   0.094   0.588   4.024 -0.9106  0.3862 -1.1904
 2275SOL     OW18460   0.634   4.691  15.766 -0.0856  0.1150 -0.0855
 2275SOL    HW118461   0.679   4.632  15.827  1.3149  1.2154 -0.0535
 2275SOL    HW218462   0.691   0.032  15.766  0.0894 -0.0312 -1.8313
 2276SOL     OW18463   2.976   3.100   2.427  0.2092 -0.4696 -0.3470
 2276SOL    HW118464   2.890   3.134   2.450  0.4507  0.9635 -1.5981
 2276SOL    HW218465   2.974   3.016   2.473 -0.6102 -0.4318 -0.3212
 2277SOL     OW18466   2.911   2.197   3.619 -0.5297  0.0545  0.9918
 2277SOL    HW118467   2.979   2.263   3.608 -0.6450  0.1952  1.1211
 2277SOL    HW218468   2.927   2.149   3.538  0.8496  1.4730  0.4368
 2278SOL     OW18469   2.976   0.419   6.817  0.0206 -0.5167  0.2077
 2278SOL    HW118470   2.959   0.337   6.864 -0.9366 -0.4377  0.0143
 2278SOL    HW218471   2.963   0.386   6.728 -0.9017  0.9473 -0.1871
 2279SOL     OW18472   0.152   3.228   7.705 -0.4243 -0.0564 -0.0066
 2279SOL    HW118473   0.078   3.273   7.745 -0.2289 -0.8445  1.2269
 2279SOL    HW218474   0.158   3.141   7.745  0.2259  0.7910  1.7259
 2280SOL     OW18475   3.377   0.215  16.282 -0.7702 -0.7144  0.7088
 2280SOL    HW118476   3.298   0.199  16.333 -2.6633  0.5362 -1.8061
 2280SOL    HW218477   3.388   0.306  16.308 -0.1345 -0.8545  0.9393
 2281SOL     OW18478   1.672   4.304   7.813 -0.5128  0.1778 -0.0379
 2281SOL    HW118479   1.621   4.383   7.829 -0.0102  0.2098  1.3641
 2281SOL    HW218480   1.739   4.334   7.751 -0.9059 -1.0402 -1.0494
 2282SOL     OW18481   1.013   3.687   4.410  0.4683  0.3231  0.0484
 2282SOL    HW118482   1.060   3.626   4.466  2.3159  0.9396 -0.8348
 2282SOL    HW218483   1.006   3.758   4.474 -0.2626  0.2499  0.0509
 2283SOL     OW18484   4.661   0.291   3.141 -0.3569 -0.3049  0.2082
 2283SOL    HW118485   4.603   0.326   3.074  1.8072  1.7649 -0.5970
 2283SOL    HW218486   4.633   0.201   3.127 -0.7837 -0.2442  0.6914
 2284SOL     OW18487   1.128   4.224   8.435 -0.5062  0.7741  0.0051
 2284SOL    HW118488   1.170   4.291   8.489  3.4151 -0.0622 -1.9826
 2284SOL    HW218489   1.041   4.261   8.428 -0.0826  1.7363 -0.1578
 2285SOL     OW18490   3.377   3.766  15.912 -0.2344 -0.4368  0.4156
 2285SOL    HW118491   3.399   3.858  15.928 -1.7318 -0.1080  0.6735
 2285SOL    HW218492   3.379   3.725  15.998  1.4707  1.1419  1.1158
 2286SOL     OW18493   4.044   1.680   3.468 -0.4256  0.0406 -0.3341
 2286SOL    HW118494   3.976   1.710   3.528 -0.9740 -2.1821  0.1410
 2286SOL    HW218495   4.114   1.746   3.475  0.1006 -0.4089 -1.2909
 2287SOL     OW18496   4.395   3.911  17.734  0.0492  0.0136 -0.0564
 2287SOL    HW118497   4.398   3.965  17.656  1.5188 -1.9600 -1.3846
 2287SOL    HW218498   4.485   3.926   0.024 -1.1017  0.5569  3.2629
 2288SOL     OW18499   4.353   1.148  11.380  0.4559 -0.0799  0.3180
 2288SOL    HW118500   4.412   1.117  11.448 -1.8360 -1.7677  1.5668
 2288SOL    HW218501   4.284   1.191  11.431 -0.4390  0.9656 -1.7710
 2289SOL     OW18502   0.641   3.183   6.108 -0.2068  0.0407 -0.8088
 2289SOL    HW118503   0.628   3.219   6.021  2.5785 -1.3631 -1.8124
 2289SOL    HW218504   0.605   3.095   6.095 -0.5394  0.4798 -2.8604
 2290SOL     OW18505   0.266   0.361   8.216  0.1280  0.1377 -0.3234
 2290SOL    HW118506   0.284   0.450   8.247 -0.1986  0.6197 -1.5431
 2290SOL    HW218507   0.204   0.335   8.285  0.6372  0.8615  0.4150
 2291SOL     OW18508   1.448   4.236   4.610 -0.1348  0.5652  0.7494
 2291SOL    HW118509   1.416   4.251   4.698 -0.5880  1.4844  0.4171
 2291SOL    HW218510   1.542   4.238   4.631 -0.3159  1.3268  1.4713
 2292SOL     OW18511   4.559   3.193   4.731 -0.5380 -0.2623  0.4786
 2292SOL    HW118512   4.601   3.150   4.657  1.3284 -0.2979  1.5621
 2292SOL    HW218513   4.561   3.120   4.793  0.5097 -0.4982  0.1714
 2293SOL     OW18514   0.797   2.425   4.776  0.4245 -0.0133  0.2537
 2293SOL    HW118515   0.872   2.365   4.772  0.1357 -0.4760  1.8243
 2293SOL    HW218516   0.847   2.503   4.800  0.7061  0.6427 -2.4759
 2294SOL     OW18517   1.893   3.863   6.902  0.1272 -0.0261 -0.4723
 2294SOL    HW118518   1.918   3.804   6.974 -1.9155  2.0149  1.8796
 2294SOL    HW218519   1.913   3.802   6.830 -0.7357 -0.2354 -0.5280
 2295SOL     OW18520   4.012   1.959   8.973 -0.2870  0.7516  0.2358
 2295SOL    HW118521   3.941   2.016   8.943  0.8822  2.2763  0.3208
 2295SOL    HW218522   4.078   2.011   8.927 -0.0391  1.0372  0.8964
 2296SOL     OW18523   4.416   2.680   9.339 -0.2774  0.6054  0.4079
 2296SOL    HW118524   4.482   2.698   9.273  0.3565  0.8837  1.1206
 2296SOL    HW218525   4.460   2.678   9.424  1.1151  0.8839 -0.3082
 2297SOL     OW18526   0.376   0.395   2.284  0.1835  0.3510 -0.2210
 2297SOL    HW118527   0.447   0.457   2.265  0.5115  0.6125  1.8485
 2297SOL    HW218528   0.378   0.400   2.379 -0.4870  0.8211 -0.2376
 2298SOL     OW18529   1.263   3.083   5.226  0.0802  0.1175 -0.2148
 2298SOL    HW118530   1.341   3.137   5.230 -0.3018  0.6684 -0.2655
 2298SOL    HW218531   1.292   3.013   5.167  2.1203 -1.3054  2.4615
 2299SOL     OW18532   2.690   2.194   0.906 -0.2377 -0.1468  0.4144
 2299SOL    HW118533   2.676   2.270   0.964 -2.6174  1.2930 -2.0714
 2299SOL    HW218534   2.598   2.170   0.893  0.2927 -2.6933  1.3602
 2300SOL     OW18535   0.212   0.435   6.399  0.4053 -0.8229 -0.2332
 2300SOL    HW118536   0.164   0.467   6.322  0.0679 -1.8571 -0.4450
 2300SOL    HW218537   0.296   0.481   6.395  0.6540 -1.3482 -0.9484
 2301SOL     OW18538   3.627   4.363   0.558 -0.0676 -0.5781 -0.0243
 2301SOL    HW118539   3.681   4.411   0.620 -2.1889  0.0541  1.3456
 2301SOL    HW218540   3.663   4.277   0.580  0.9131  0.8631  3.9133
 2302SOL     OW18541   2.451   3.314  12.522 -1.0392 -0.1042  0.1358
 2302SOL    HW118542   2.439   3.226  12.485 -1.1179  0.5551 -1.4056
 2302SOL    HW218543   2.391   3.365  12.467 -2.7247 -0.1991  1.8617
 2303SOL     OW18544   4.487   2.496  15.649 -0.2409  0.5034 -0.3876
 2303SOL    HW118545   4.497   2.514  15.555  0.4358  1.0292 -0.2156
 2303SOL    HW218546   4.487   2.585  15.684  0.0716  1.3916 -2.6660
 2304SOL     OW18547   2.568   4.562   1.276 -0.3095  0.3126 -0.0734
 2304SOL    HW118548   2.578   4.570   1.370 -1.5001  0.5417  0.0349
 2304SOL    HW218549   2.507   4.634   1.261  0.6111  1.1106  0.0004
 2305SOL     OW18550   1.205   2.544   3.912  0.2624  0.5617 -0.2253
 2305SOL    HW118551   1.135   2.504   3.860  0.0041  1.5917 -0.6729
 2305SOL    HW218552   1.236   2.606   3.847  1.0604  0.0889 -0.2950
 2306SOL     OW18553   3.511   2.996   4.507  0.1134  0.0258 -0.1474
 2306SOL    HW118554   3.520   3.083   4.546 -2.0824  0.9319 -1.6401
 2306SOL    HW218555   3.597   2.973   4.473 -0.4433 -1.7250 -0.3725
 2307SOL     OW18556   1.435   1.868  13.603  0.3232 -0.1376 -0.1045
 2307SOL    HW118557   1.420   1.886  13.511 -0.6211 -1.3357 -0.1791
 2307SOL    HW218558   1.390   1.943  13.641 -0.5171  0.2969 -1.9948
 2308SOL     OW18559   3.511   2.327   0.737  0.0925 -0.1254 -0.6261
 2308SOL    HW118560   3.523   2.246   0.787 -1.7173 -0.0523 -0.0737
 2308SOL    HW218561   3.589   2.379   0.758 -1.1400  1.5270 -0.1164
 2309SOL     OW18562   2.504   2.903   6.571  0.3269 -0.1650  0.7382
 2309SOL    HW118563   2.517   2.990   6.610  1.2775  0.4651 -0.9750
 2309SOL    HW218564   2.414   2.876   6.591  0.4471 -1.5141 -0.5511
 2310SOL     OW18565   2.299   0.623  11.564 -0.3549 -0.2397 -0.0858
 2310SOL    HW118566   2.336   0.535  11.562 -0.7246 -0.3725 -1.0066
 2310SOL    HW218567   2.315   0.657  11.476 -1.0135  1.5472  0.4759
 2311SOL     OW18568   2.481   2.617   8.559  0.5080  0.3501 -0.4588
 2311SOL    HW118569   2.447   2.530   8.539  0.8778 -0.1447  1.0285
 2311SOL    HW218570   2.428   2.630   8.638  0.4237  1.1221 -0.6381
 2312SOL     OW18571   3.359   0.596   5.165 -0.0736  0.6458  0.0886
 2312SOL    HW118572   3.367   0.500   5.158 -0.7054  0.6948 -1.3640
 2312SOL    HW218573   3.380   0.634   5.080  0.8747 -1.6166 -0.7030
 2313SOL     OW18574   0.561   0.894   3.007  0.0715 -0.2285  1.1737
 2313SOL    HW118575   0.573   0.983   2.974  0.9284 -1.4672 -1.8393
 2313SOL    HW218576   0.465   0.887   3.001  0.3598 -2.4201 -0.8553
 2314SOL     OW18577   0.694   0.348  11.469  0.3891 -0.0501 -0.4372
 2314SOL    HW118578   0.719   0.418  11.408  0.2839 -0.2758 -0.7369
 2314SOL    HW218579   0.779   0.333  11.509  0.8340  2.1000 -0.5911
 2315SOL     OW18580   2.372   1.620   8.846 -0.0575 -0.1475  0.4232
 2315SOL    HW118581   2.405   1.663   8.925 -0.9504  2.7744 -0.8028
 2315SOL    HW218582   2.350   1.533   8.881  0.5813 -0.6197 -0.3552
 2316SOL     OW18583   2.980   0.610   5.288 -0.6482 -0.0047 -0.2430
 2316SOL    HW118584   3.026   0.689   5.260 -1.1712 -0.1593 -1.5867
 2316SOL    HW218585   2.889   0.639   5.276 -0.4899 -0.2566 -2.1912
 2317SOL     OW18586   3.334   2.679  13.354 -0.0394  0.1751  0.2475
 2317SOL    HW118587   3.354   2.656  13.444  1.8012 -0.2045 -0.2620
 2317SOL    HW218588   3.255   2.625  13.353 -1.4720  2.2685  0.8796
 2318SOL     OW18589   4.244   0.784   1.750  0.3365  0.1170 -0.1456
 2318SOL    HW118590   4.178   0.776   1.681  1.0682  0.0152 -0.8332
 2318SOL    HW218591   4.207   0.859   1.796  1.9911  0.7462  0.1441
 2319SOL     OW18592   3.156   4.317   6.261 -0.3804  0.5914  0.0646
 2319SOL    HW118593   3.153   4.227   6.229  0.5391 -0.1508  2.0592
 2319SOL    HW218594   3.115   4.374   6.196 -0.5413  0.1479 -0.2214
 2320SOL     OW18595   3.939   1.594  16.181 -0.1336  1.0896 -0.0191
 2320SOL    HW118596   3.888   1.674  16.170 -0.6774  1.0963  2.6325
 2320SOL    HW218597   3.874   1.523  16.179 -1.7400  2.5969 -1.2050
 2321SOL     OW18598   0.176   3.497   6.059 -0.0600 -0.2185  0.6934
 2321SOL    HW118599   0.109   3.563   6.041 -1.5691 -2.3563 -1.6605
 2321SOL    HW218600   0.182   3.441   5.981  0.5408 -1.5343  1.6950
 2322SOL     OW18601   1.368   0.371   8.371 -0.1805  0.2431  0.3954
 2322SOL    HW118602   1.347   0.448   8.318  1.3466  0.0255 -0.5280
 2322SOL    HW218603   1.288   0.320   8.355  0.7101 -1.2355  0.6597
 2323SOL     OW18604   2.234   2.038   8.176  0.1299  0.3242  0.1995
 2323SOL    HW118605   2.297   2.003   8.239  0.0917 -2.8229 -1.5332
 2323SOL    HW218606   2.263   1.995   8.096 -2.9325 -0.1738 -0.6273
 2324SOL     OW18607   1.648   2.026   3.955  0.2313 -0.1809 -0.3728
 2324SOL    HW118608   1.742   2.030   3.968  0.1952  2.3573 -1.0058
 2324SOL    HW218609   1.645   2.048   3.861 -2.5252  0.1272 -0.2283
 2325SOL     OW18610   3.003   0.789   2.016 -0.1645  0.3032 -0.2262
 2325SOL    HW118611   2.997   0.733   2.094 -1.5337 -0.1909 -0.6920
 2325SOL    HW218612   3.006   0.736   1.937 -1.6120 -0.4214  0.2087
 2326SOL     OW18613   2.606   2.685   7.770 -0.3506 -0.1822  0.3456
 2326SOL    HW118614   2.590   2.731   7.688  0.6515 -1.0132 -0.2995
 2326SOL    HW218615   2.586   2.753   7.835 -0.0864  0.6091 -0.3986
 2327SOL     OW18616   2.583   0.305   9.667  0.1713 -0.2588 -0.5468
 2327SOL    HW118617   2.599   0.365   9.593  2.8461 -0.7376 -0.3543
 2327SOL    HW218618   2.541   0.365   9.729 -0.1651 -1.6553  0.5704
 2328SOL     OW18619   1.700   1.973   3.456  1.0264 -0.5564  0.0998
 2328SOL    HW118620   1.674   2.058   3.421 -0.4861 -0.5881  1.1221
 2328SOL    HW218621   1.785   1.976   3.411  1.5211 -2.6854  0.8637
 2329SOL     OW18622   1.113   2.961   3.312  0.0028  0.5646  0.3382
 2329SOL    HW118623   1.122   2.999   3.224 -0.3906  2.6773  1.2090
 2329SOL    HW218624   1.028   2.996   3.336 -0.2021 -1.2252  2.2775
 2330SOL     OW18625   2.067   4.476   9.865  0.0936  0.4654 -0.2147
 2330SOL    HW118626   2.069   4.436   9.952 -0.5929 -2.2985 -1.4390
 2330SOL    HW218627   2.155   4.511   9.854 -0.1270  0.9181 -0.5050
 2331SOL     OW18628   4.691   0.210   9.434 -0.1349 -0.2373  0.1229
 2331SOL    HW118629   0.028   0.158   9.398  0.1548  0.1017  0.2132
 2331SOL    HW218630   4.633   0.137   9.457  2.0294 -2.1237 -0.3905
 2332SOL     OW18631   0.694   2.329  15.817  0.1148 -0.0717 -0.5515
 2332SOL    HW118632   0.758   2.259  15.814  0.1174 -0.0696 -0.5435
 2332SOL    HW218633   0.704   2.358  15.726  0.4921  4.9446  1.0550
 2333SOL     OW18634   3.056   0.764  10.222 -0.5163 -0.2458 -0.3999
 2333SOL    HW118635   2.988   0.797  10.163 -0.4434  2.1043  0.8432
 2333SOL    HW218636   3.067   0.673  10.194 -0.2480  0.0015 -1.0812
 2334SOL     OW18637   2.417   1.057   3.600  0.5725  0.0453 -0.3894
 2334SOL    HW118638   2.465   1.047   3.683  0.2004 -2.0025 -0.4310
 2334SOL    HW218639   2.378   0.971   3.593 -1.5883  0.8103  2.2546
 2335SOL     OW18640   3.623   0.842   2.329  0.2007  0.4055  0.5206
 2335SOL    HW118641   3.626   0.922   2.381  0.6603  0.7366 -0.0066
 2335SOL    HW218642   3.557   0.864   2.262 -0.1392 -1.1682  0.3504
 2336SOL     OW18643   0.034   3.386   8.392 -0.0872  0.0266 -0.0973
 2336SOL    HW118644   4.685   3.362   8.353 -0.8820 -1.0726  2.2509
 2336SOL    HW218645   0.030   3.336   8.474 -0.4703  0.3595  0.0874
 2337SOL     OW18646   3.051   3.453  15.554 -0.2048  0.0044 -0.2990
 2337SOL    HW118647   2.965   3.488  15.530 -1.2432 -1.1187  1.8424
 2337SOL    HW218648   3.104   3.532  15.545 -2.7671  2.0100  2.4414
 2338SOL     OW18649   2.466   3.454  16.682 -0.0091  0.3573 -0.1947
 2338SOL    HW118650   2.487   3.478  16.591  0.1397 -2.2545 -0.8641
 2338SOL    HW218651   2.445   3.542  16.714 -0.0847  0.0890  0.4738
 2339SOL     OW18652   1.613   2.551   0.073  0.5716  0.1424  0.4746
 2339SOL    HW118653   1.681   2.557   0.140  1.4964 -1.3017 -0.3394
 2339SOL    HW218654   1.670   2.517   0.004 -0.3125  0.6850 -0.5173
 2340SOL     OW18655   0.673   3.185  17.036  0.1622  0.1598 -0.4102
 2340SOL    HW118656   0.600   3.185  17.098  1.1267 -0.1100  0.7298
 2340SOL    HW218657   0.668   3.263  16.981 -1.6938  1.1412  1.1369
 2341SOL     OW18658   1.034   1.163   6.605 -0.0987  0.4931  0.0761
 2341SOL    HW118659   0.955   1.110   6.600  0.5590 -0.5012  0.1127
 2341SOL    HW218660   1.009   1.219   6.678  0.0893  1.9624 -0.9756
 2342SOL     OW18661   4.223   2.104   3.267  0.3084 -0.1086 -0.4496
 2342SOL    HW118662   4.194   2.195   3.260  0.0065 -0.3131 -1.9286
 2342SOL    HW218663   4.164   2.063   3.204 -2.2954  2.0438  0.5747
 2343SOL     OW18664   1.195   0.391   7.273  0.7750  0.2953  0.1974
 2343SOL    HW118665   1.142   0.454   7.322  2.3820  0.6227  1.5312
 2343SOL    HW218666   1.269   0.449   7.256  0.6568  0.4508  0.2134
 2344SOL     OW18667   0.501   4.455   3.716 -0.0435 -0.5423  0.3245
 2344SOL    HW118668   0.508   4.529   3.656 -1.1604 -0.4303  0.3293
 2344SOL    HW218669   0.452   4.397   3.658 -0.3209 -1.5691  1.5879
 2345SOL     OW18670   0.732   1.151   5.524 -0.2941  0.2339 -0.6467
 2345SOL    HW118671   0.822   1.169   5.552 -0.6097  0.1995  0.3751
 2345SOL    HW218672   0.708   1.243   5.518 -0.8084  0.1443  0.1822
 2346SOL     OW18673   1.357   0.340  11.468  0.9596  0.1879 -0.3193
 2346SOL    HW118674   1.278   0.335  11.522 -0.1319 -0.6639 -2.0073
 2346SOL    HW218675   1.418   0.360  11.539  0.5228 -1.0577  0.4046
 2347SOL     OW18676   2.280   2.444   3.206 -0.2083  0.2937  0.2173
 2347SOL    HW118677   2.189   2.473   3.201 -0.5120 -0.6538  0.0868
 2347SOL    HW218678   2.304   2.435   3.113 -1.4558 -3.7560  0.2832
 2348SOL     OW18679   3.586   0.416   9.600 -0.4059 -0.1448  0.2430
 2348SOL    HW118680   3.638   0.458   9.668 -0.6711 -0.3354  0.5615
 2348SOL    HW218681   3.630   0.330   9.601  0.9556  0.5655  1.3567
 2349SOL     OW18682   0.675   3.912  14.788  0.4169  0.1661 -0.3404
 2349SOL    HW118683   0.763   3.910  14.825  0.0058  0.5343  0.6712
 2349SOL    HW218684   0.689   3.955  14.704 -0.7495 -1.1693 -1.2348
 2350SOL     OW18685   2.189   1.239  10.989  0.1597  0.1465 -0.2219
 2350SOL    HW118686   2.239   1.159  10.969  0.8789  0.6151 -0.2732
 2350SOL    HW218687   2.240   1.285  11.055 -0.1455 -1.5532  1.1937
 2351SOL     OW18688   2.887   1.190   1.568 -0.2126 -1.0614 -0.0564
 2351SOL    HW118689   2.971   1.223   1.537 -1.9784  0.7797 -2.9033
 2351SOL    HW218690   2.884   1.242   1.648  3.1765 -0.5308 -0.2876
 2352SOL     OW18691   4.290   4.652   5.691 -0.0760  0.4759  0.6544
 2352SOL    HW118692   4.218   4.690   5.742 -1.7798  0.7827 -1.9938
 2352SOL    HW218693   4.283   4.709   5.615 -1.3795 -1.1109 -0.4155
 2353SOL     OW18694   0.043   3.837   0.748  0.3979  0.2245  0.3395
 2353SOL    HW118695   0.073   3.879   0.828 -1.5998  1.6736  0.3125
 2353SOL    HW218696   4.686   3.828   0.771 -0.1383 -0.0592 -1.9426
 2354SOL     OW18697   2.916   4.231   2.311 -0.4607 -0.1863 -0.0736
 2354SOL    HW118698   2.966   4.286   2.251 -0.3723  0.1682  0.3236
 2354SOL    HW218699   2.952   4.267   2.392  1.9676 -0.6610 -0.9529
 2355SOL     OW18700   0.614   0.839   1.778 -0.0130  0.0729  0.0357
 2355SOL    HW118701   0.625   0.772   1.845 -1.2610 -0.3384 -0.1670
 2355SOL    HW218702   0.673   0.908   1.807 -1.2146  0.6601  1.0678
 2356SOL     OW18703   1.505   1.503   1.482 -0.0617 -0.1434  0.3185
 2356SOL    HW118704   1.490   1.597   1.473 -1.2528 -0.3381  0.3830
 2356SOL    HW218705   1.414   1.478   1.469  0.0760 -0.6707  0.3344
 2357SOL     OW18706   0.169   1.309  12.456 -0.0055 -0.1794  0.4555
 2357SOL    HW118707   0.170   1.225  12.502  1.6823 -0.3721  0.0703
 2357SOL    HW218708   0.077   1.333  12.461 -0.2320 -1.0641  0.4348
 2358SOL     OW18709   0.142   0.907   2.268 -0.4298  0.7853  0.2307
 2358SOL    HW118710   0.202   0.835   2.250 -1.2722  0.1984 -0.2270
 2358SOL    HW218711   0.067   0.879   2.216 -0.9390 -1.0873  1.9655
 2359SOL     OW18712   4.000   0.367   6.114 -0.0299 -0.2438 -0.4145
 2359SOL    HW118713   4.003   0.324   6.199  1.6541 -1.8870 -1.3222
 2359SOL    HW218714   3.959   0.452   6.131 -0.4469 -0.3548 -0.8885
 2360SOL     OW18715   3.228   4.724   1.810  0.2664  0.1647 -0.1974
 2360SOL    HW118716   3.317   0.019   1.826  0.0768  0.7310 -0.2190
 2360SOL    HW218717   3.221   4.653   1.874  0.9121 -1.4364 -1.8955
 2361SOL     OW18718   0.170   1.806  12.074  0.3931 -0.2203  0.2688
 2361SOL    HW118719   0.189   1.793  12.167  1.7334 -1.3504 -0.1634
 2361SOL    HW218720   0.214   1.727  12.043  0.5314  0.4816 -1.3205
 2362SOL     OW18721   2.381   4.161   4.324 -0.3080 -0.6707 -0.3462
 2362SOL    HW118722   2.440   4.182   4.251 -0.6453 -0.5143 -0.5761
 2362SOL    HW218723   2.302   4.210   4.301  0.6861  1.0521 -0.0966
 2363SOL     OW18724   1.609   2.196   1.503 -0.0990 -0.2707 -0.3617
 2363SOL    HW118725   1.690   2.160   1.466  0.7060  0.0431  1.1049
 2363SOL    HW218726   1.643   2.282   1.526 -0.0737 -0.1292 -0.9120
 2364SOL     OW18727   1.892   0.675   2.731  0.2020 -0.1836 -1.0406
 2364SOL    HW118728   1.817   0.684   2.790  1.7617  0.9023  0.7715
 2364SOL    HW218729   1.917   0.767   2.728 -0.3751  0.0047 -0.1199
 2365SOL     OW18730   2.178   0.697   7.290 -0.1718  0.2404 -0.1209
 2365SOL    HW118731   2.222   0.738   7.216  0.9583  1.9666  1.5155
 2365SOL    HW218732   2.099   0.750   7.283 -1.5197 -1.6492  0.6031
 2366SOL     OW18733   4.456   3.538   5.859  0.5245 -0.3684  0.1538
 2366SOL    HW118734   4.458   3.481   5.782 -2.7216 -3.0846  2.0890
 2366SOL    HW218735   4.538   3.586   5.848  0.9173 -0.7410  1.4464
 2367SOL     OW18736   3.201   3.064   4.544  0.1296  0.5696  0.3220
 2367SOL    HW118737   3.288   3.041   4.512  0.1436 -1.6580  2.0096
 2367SOL    HW218738   3.220   3.153   4.574  1.5259  1.3305 -2.7578
 2368SOL     OW18739   3.190   0.498   2.893  0.4465 -0.0701 -0.0354
 2368SOL    HW118740   3.132   0.491   2.969  0.0982 -0.1009 -0.3026
 2368SOL    HW218741   3.165   0.580   2.849  3.5261 -1.0485 -3.6352
 2369SOL     OW18742   2.092   1.059   6.006  0.2794 -0.5038 -0.6832
 2369SOL    HW118743   2.128   1.119   6.071  2.5654 -2.0836 -0.4952
 2369SOL    HW218744   2.130   0.982   6.047  1.0207 -0.1147 -0.6344
 2370SOL     OW18745   1.914   0.597   6.110 -0.0178 -0.0930 -0.0229
 2370SOL    HW118746   1.883   0.548   6.034  1.8836 -2.2111  0.6043
 2370SOL    HW218747   1.879   0.686   6.100  0.9416  0.3463  0.5454
 2371SOL     OW18748   3.097   1.112   3.804  0.0324  0.2408  0.1176
 2371SOL    HW118749   3.161   1.045   3.780  0.9536  0.6864  1.3246
 2371SOL    HW218750   3.153   1.187   3.824  1.1819 -0.4421 -0.5413
 2372SOL     OW18751   4.541   0.248   6.737 -0.6128  0.1333 -0.0243
 2372SOL    HW118752   4.617   0.293   6.700 -0.5494  0.5182  0.5757
 2372SOL    HW218753   4.568   0.158   6.722 -1.4708 -0.1403  0.1168
 2373SOL     OW18754   1.791   0.237   4.227 -0.4483 -0.1016  0.3281
 2373SOL    HW118755   1.864   0.204   4.279 -0.7231  0.3873  1.0230
 2373SOL    HW218756   1.735   0.267   4.299 -0.2925  2.9484 -0.8354
 2374SOL     OW18757   0.792   3.967   2.200 -0.4023 -0.5859 -0.0243
 2374SOL    HW118758   0.772   4.008   2.284 -1.1023 -1.9430  0.4775
 2374SOL    HW218759   0.724   3.900   2.212  0.8259 -1.4170  2.3576
 2375SOL     OW18760   2.939   0.660   9.168 -0.0024  0.2087  0.2802
 2375SOL    HW118761   2.919   0.687   9.078  3.2006  0.8184 -0.2501
 2375SOL    HW218762   2.997   0.731   9.195 -2.1353  2.5773 -1.3279
 2376SOL     OW18763   1.725   0.043   9.372 -0.0188  0.4480  0.0246
 2376SOL    HW118764   1.697   4.687   9.369  1.2249 -0.0020  1.8430
 2376SOL    HW218765   1.656   0.068   9.434 -0.6049  1.3420 -1.0046
 2377SOL     OW18766   1.516   2.164   4.412  0.5122  0.3946  0.1817
 2377SOL    HW118767   1.580   2.131   4.349  0.5277  1.0197 -0.1273
 2377SOL    HW218768   1.550   2.128   4.494  0.2001  1.7305  0.8978
 2378SOL     OW18769   4.733   2.134  12.103  0.7348  0.8376 -0.6416
 2378SOL    HW118770   0.062   2.065  12.087 -1.1149 -1.1526  0.3787
 2378SOL    HW218771   4.686   2.131  12.020  0.3412 -0.0165 -0.3865
 2379SOL     OW18772   4.406   2.279   5.118  0.3212 -0.0862 -0.1262
 2379SOL    HW118773   4.487   2.268   5.167  0.5891  0.1385 -0.5205
 2379SOL    HW218774   4.412   2.365   5.076 -0.2228  0.0181  0.0067
 2380SOL     OW18775   3.807   1.781   8.224  0.0790  0.6007 -0.4502
 2380SOL    HW118776   3.867   1.733   8.280 -2.0566  0.0685  1.4016
 2380SOL    HW218777   3.779   1.853   8.281 -1.3060  0.0179 -0.3815
 2381SOL     OW18778   0.063   2.959   9.062  0.2837  0.5509  0.5380
 2381SOL    HW118779   0.109   2.922   9.138 -2.0174  1.5165  2.3927
 2381SOL    HW218780   0.052   3.052   9.085  1.0893  0.5392  0.9809
 2382SOL     OW18781   3.510   3.263   6.984  0.3761 -0.2377  0.3633
 2382SOL    HW118782   3.420   3.240   6.962  1.5262 -2.1894 -2.1769
 2382SOL    HW218783   3.505   3.319   7.062 -1.2832  0.7743 -0.4684
 2383SOL     OW18784   2.897   3.333   7.982  0.6421  0.3148  0.1951
 2383SOL    HW118785   2.922   3.250   8.022  0.1533  0.2425  0.3386
 2383SOL    HW218786   2.965   3.395   8.011  0.6743  0.4110 -0.0768
 2384SOL     OW18787   1.484   1.922   0.523  0.7591 -0.1518 -0.3736
 2384SOL    HW118788   1.398   1.962   0.532 -0.0316 -1.6216 -1.3912
 2384SOL    HW218789   1.533   1.987   0.472 -0.7724  0.3502 -1.1824
 2385SOL     OW18790   0.794   0.212   4.548  0.0643  0.1834  0.2189
 2385SOL    HW118791   0.793   0.280   4.480  0.9313 -0.1729 -0.1614
 2385SOL    HW218792   0.883   0.179   4.536  0.1948  0.0533  1.6027
 2386SOL     OW18793   3.262   3.248  16.562 -0.1832  0.3545 -0.3119
 2386SOL    HW118794   3.275   3.303  16.485 -0.5735  1.3247  0.3219
 2386SOL    HW218795   3.182   3.280  16.604 -0.1323  0.3640 -0.2213
 2387SOL     OW18796   4.202   1.445  10.489  0.0616  0.1455  0.5148
 2387SOL    HW118797   4.177   1.490  10.408  1.2829 -0.1823 -0.0488
 2387SOL    HW218798   4.158   1.360  10.479  3.6543 -1.8518  1.4203
 2388SOL     OW18799   1.754   0.089   2.496  0.1371 -0.2029 -0.9375
 2388SOL    HW118800   1.790   0.013   2.449 -1.4253 -1.6043  0.1271
 2388SOL    HW218801   1.822   0.155   2.483 -0.0942  0.0002 -1.1109
 2389SOL     OW18802   0.524   0.617   7.867  0.1043 -0.3569  0.2090
 2389SOL    HW118803   0.478   0.660   7.939 -1.0515 -0.0518 -0.7148
 2389SOL    HW218804   0.523   0.682   7.797 -1.4593 -0.5037  0.0963
 2390SOL     OW18805   0.753   3.642   9.657 -0.0783 -0.2796  0.5662
 2390SOL    HW118806   0.657   3.643   9.661 -0.0813  2.9411 -0.0251
 2390SOL    HW218807   0.767   3.550   9.634  0.5738  0.4113 -1.8333
 2391SOL     OW18808   2.145   0.982   8.905 -0.1344  0.0247 -0.4091
 2391SOL    HW118809   2.121   0.918   8.838 -1.2715  0.3365 -0.3124
 2391SOL    HW218810   2.145   1.059   8.847 -1.1025  0.3716  0.0495
 2392SOL     OW18811   2.426   1.068   6.328  0.0001  0.6432  0.2949
 2392SOL    HW118812   2.477   1.137   6.285  3.3619 -0.2698  2.8755
 2392SOL    HW218813   2.336   1.096   6.313  0.4308  2.0246  0.2565
 2393SOL     OW18814   1.092   1.444   4.387 -0.1486  0.7530 -0.4916
 2393SOL    HW118815   0.997   1.437   4.394 -0.0509  0.6171  0.6829
 2393SOL    HW218816   1.114   1.387   4.314  1.1580 -0.5099  0.8978
 2394SOL     OW18817   3.416   1.989  16.648 -0.3022  0.2381  0.2775
 2394SOL    HW118818   3.495   1.973  16.699 -1.7290 -0.1067  2.3919
 2394SOL    HW218819   3.438   1.933  16.574  0.3924 -1.5731  1.8356
 2395SOL     OW18820   4.170   4.719   4.653  0.2297  0.5881 -0.5312
 2395SOL    HW118821   4.081   4.685   4.650 -0.8130  3.2061  0.6472
 2395SOL    HW218822   4.184   0.019   4.565 -0.6513  0.9522 -0.5233
 2396SOL     OW18823   4.316   0.332   5.975  0.3152  0.0997  0.0201
 2396SOL    HW118824   4.357   0.406   5.930  1.4502 -0.6041 -0.1114
 2396SOL    HW218825   4.230   0.325   5.933 -0.1396 -1.3299  1.1701
 2397SOL     OW18826   2.041   3.793   1.632 -0.2008  0.6434  0.1354
 2397SOL    HW118827   1.997   3.814   1.550 -2.7690  2.5842  2.0124
 2397SOL    HW218828   1.970   3.747   1.676 -2.2565  1.8677 -1.9211
 2398SOL     OW18829   4.175   0.586  14.756 -0.0482  0.5075  0.1273
 2398SOL    HW118830   4.120   0.613  14.829 -0.4584  1.2443 -0.4577
 2398SOL    HW218831   4.256   0.551  14.792 -0.1993  0.0917  0.0662
 2399SOL     OW18832   0.632   2.208  16.148  0.1425  0.8451  0.5445
 2399SOL    HW118833   0.625   2.113  16.151  0.1753  0.7800 -2.0538
 2399SOL    HW218834   0.698   2.208  16.078 -0.7251  0.6323 -0.2630
 2400SOL     OW18835   1.775   1.938   7.923 -0.0139 -0.0891 -0.5857
 2400SOL    HW118836   1.730   1.862   7.886 -0.5440  0.5059 -1.1624
 2400SOL    HW218837   1.829   1.890   7.986 -1.0766 -1.3588 -0.6421
 2401SOL     OW18838   0.410   3.557   6.191 -0.3059  0.3415 -0.0137
 2401SOL    HW118839   0.426   3.473   6.234  2.6006 -0.1051 -1.9847
 2401SOL    HW218840   0.326   3.533   6.152 -0.0461 -1.7361  0.6977
 2402SOL     OW18841   4.598   2.805   6.802 -0.3610  0.5411 -0.4705
 2402SOL    HW118842   4.547   2.882   6.778 -0.1947  1.5488  2.3786
 2402SOL    HW218843   4.525   2.744   6.810  1.2436 -1.3632 -0.1990
 2403SOL     OW18844   0.066   2.162   5.893 -0.1137 -0.0064  0.2581
 2403SOL    HW118845   0.095   2.123   5.976 -0.5758 -1.4365 -0.2575
 2403SOL    HW218846   4.706   2.155   5.899 -0.2265  1.2793 -0.1319
 2404SOL     OW18847   0.874   4.432   1.858  0.5711  0.0607  0.3747
 2404SOL    HW118848   0.922   4.425   1.941  0.4037  2.0321  0.6457
 2404SOL    HW218849   0.790   4.393   1.883 -0.5374  1.1214 -1.6679
 2405SOL     OW18850   3.903   2.921   6.544 -0.5869  0.2383  0.0900
 2405SOL    HW118851   3.842   2.866   6.494 -0.7261 -1.1834  1.8059
 2405SOL    HW218852   3.916   2.987   6.476 -1.4756  0.4996  0.1740
 2406SOL     OW18853   4.258   4.356   6.113  0.4053  0.4513 -0.4194
 2406SOL    HW118854   4.257   4.354   6.017 -2.0890 -1.6527 -0.3701
 2406SOL    HW218855   4.299   4.442   6.123 -1.0615  1.2906 -1.5376
 2407SOL     OW18856   1.021   3.679   3.465  0.2482 -0.4859 -0.1742
 2407SOL    HW118857   0.964   3.642   3.397  0.2574 -1.9016  0.6119
 2407SOL    HW218858   0.963   3.658   3.537 -0.7317 -0.1134 -0.8509
 2408SOL     OW18859   1.494   1.268   4.356  0.2881 -0.4568  0.1091
 2408SOL    HW118860   1.432   1.245   4.426 -1.8284 -2.5921 -2.5113
 2408SOL    HW218861   1.452   1.342   4.312 -2.1180 -1.6607  0.4007
 2409SOL     OW18862   0.012   3.398   9.450  0.0796  0.1846 -0.6062
 2409SOL    HW118863   0.040   3.389   9.541  1.7472  0.6561 -1.0851
 2409SOL    HW218864   0.038   3.310   9.423 -2.2503 -1.2074  1.6415
 2410SOL     OW18865   3.471   1.094  17.397  0.2175 -0.1778 -0.4426
 2410SOL    HW118866   3.518   1.127  17.474 -1.6894  3.0313 -0.6625
 2410SOL    HW218867   3.466   0.999  17.412  0.5462 -0.0617  0.3839
 2411SOL     OW18868   4.406   4.037   5.365  0.2890 -0.6357  0.0870
 2411SOL    HW118869   4.351   4.000   5.296 -0.7277  0.8315  0.1121
 2411SOL    HW218870   4.339   4.047   5.433 -0.6485 -0.7517 -0.8253
 2412SOL     OW18871   2.113   2.860   7.811  0.0483  0.8187  0.3222
 2412SOL    HW118872   2.140   2.947   7.784  2.0087  0.5683  1.4828
 2412SOL    HW218873   2.021   2.853   7.784  0.3650  1.2734 -0.8508
 2413SOL     OW18874   3.874   2.615   4.313 -0.4455  0.1218 -0.4396
 2413SOL    HW118875   3.890   2.530   4.273  2.6026  0.8692 -0.8181
 2413SOL    HW218876   3.879   2.590   4.405  1.8991  0.6787 -0.4234
 2414SOL     OW18877   4.114   1.689   4.302  0.2606 -0.7837 -0.5973
 2414SOL    HW118878   4.078   1.689   4.214  0.5597  1.5096 -0.7385
 2414SOL    HW218879   4.072   1.761   4.350 -0.8038 -1.6153 -0.2887
 2415SOL     OW18880   3.817   0.385   8.111 -0.7299 -0.4578 -0.5803
 2415SOL    HW118881   3.721   0.387   8.107 -0.6884 -1.4664 -1.7988
 2415SOL    HW218882   3.838   0.294   8.092  2.4760 -0.4136  2.7642
 2416SOL     OW18883   0.381   0.520   1.357  0.3181  0.0746 -0.4214
 2416SOL    HW118884   0.405   0.576   1.430 -0.0788  0.7467 -0.8135
 2416SOL    HW218885   0.325   0.464   1.411  1.3156 -0.0727  0.4715
 2417SOL     OW18886   1.604   4.191   3.505  0.3052  0.1828  0.3307
 2417SOL    HW118887   1.562   4.112   3.473  0.4876  0.3329 -0.2912
 2417SOL    HW218888   1.615   4.174   3.598  0.2747 -1.9464 -0.0582
 2418SOL     OW18889   1.229   0.958   5.728  0.0814  0.1172  0.3373
 2418SOL    HW118890   1.289   0.898   5.684 -0.1194 -0.1098  0.3724
 2418SOL    HW218891   1.276   0.975   5.810 -2.3895 -0.0444  1.7970
 2419SOL     OW18892   0.533   1.789  12.328 -0.2143  0.5815  0.5913
 2419SOL    HW118893   0.464   1.832  12.276  0.0903 -0.9448 -1.0870
 2419SOL    HW218894   0.508   1.698  12.312  3.1780 -0.0541 -1.0646
 2420SOL     OW18895   2.077   3.007   2.736  0.1607  0.2092  0.7645
 2420SOL    HW118896   2.036   3.021   2.822  0.9958  0.0989  1.1763
 2420SOL    HW218897   2.005   3.023   2.675 -0.6815 -1.9797  1.1934
 2421SOL     OW18898   3.833   2.177   8.200 -0.8943 -0.2154  0.5493
 2421SOL    HW118899   3.845   2.253   8.257  1.2472 -0.2719  0.1648
 2421SOL    HW218900   3.817   2.102   8.257 -2.4908  0.6920  1.3110
 2422SOL     OW18901   4.416   0.438   9.013  0.2095  1.1492  0.0105
 2422SOL    HW118902   4.376   0.455   8.928 -3.2120 -2.2359  0.9209
 2422SOL    HW218903   4.361   0.487   9.075 -0.8496 -0.0309 -0.0136
 2423SOL     OW18904   2.955   3.619   9.419 -0.0321 -0.2163 -0.0030
 2423SOL    HW118905   3.032   3.581   9.376  0.0776 -1.5868  1.4184
 2423SOL    HW218906   2.936   3.697   9.367 -1.5821 -0.7105 -0.1660
 2424SOL     OW18907   3.875   0.590   7.903 -0.2552 -0.0765 -0.0191
 2424SOL    HW118908   3.788   0.628   7.896  0.7172  1.9551 -1.1299
 2424SOL    HW218909   3.865   0.533   7.980  0.7758  0.2680  0.3719
 2425SOL     OW18910   4.585   1.438   2.119 -0.0877 -0.0446  0.9542
 2425SOL    HW118911   4.596   1.491   2.198 -0.5875  0.6799  0.5261
 2425SOL    HW218912   4.666   1.458   2.072 -1.0077  0.4267 -0.4122
 2426SOL     OW18913   3.146   3.328  14.172 -0.5484 -0.2670  0.2239
 2426SOL    HW118914   3.086   3.399  14.149  0.9623  0.8047 -0.4781
 2426SOL    HW218915   3.224   3.344  14.118 -1.3532 -0.4824 -1.0025
 2427SOL     OW18916   0.973   4.182   4.893  0.3180  0.2533 -0.1450
 2427SOL    HW118917   0.932   4.122   4.955  1.4463  2.9112  3.2214
 2427SOL    HW218918   1.030   4.121   4.847  0.0022 -0.9864  1.1124
 2428SOL     OW18919   2.231   0.795  12.366 -0.0218  0.1398 -0.2824
 2428SOL    HW118920   2.252   0.801  12.459 -1.4062  0.5916 -0.0071
 2428SOL    HW218921   2.250   0.885  12.339  1.8246 -0.1025  0.1848
 2429SOL     OW18922   3.931   2.662  11.788 -0.0998  0.1919  0.1101
 2429SOL    HW118923   3.991   2.732  11.762  0.9957 -0.7312  0.1484
 2429SOL    HW218924   3.942   2.654  11.883  1.2879 -0.2508 -0.0805
 2430SOL     OW18925   4.402   4.335  16.695  0.1262  0.3454 -0.5381
 2430SOL    HW118926   4.339   4.376  16.635  0.3548 -0.2595 -1.1906
 2430SOL    HW218927   4.339   4.320  16.766  2.0406  0.5634  1.2218
 2431SOL     OW18928   0.671   3.956   9.162 -0.1191  0.8957  0.2399
 2431SOL    HW118929   0.621   4.033   9.134  1.0581  1.4634 -0.2840
 2431SOL    HW218930   0.659   3.954   9.257  2.0545  0.3650  0.4950
 2432SOL     OW18931   1.114   2.195   7.908 -0.2853  0.0779 -0.1226
 2432SOL    HW118932   1.123   2.167   7.817  1.5927 -0.3896  0.2259
 2432SOL    HW218933   1.029   2.238   7.896  1.0921  2.9415  0.5467
 2433SOL     OW18934   1.096   0.726   3.795  0.0683 -0.4128  0.6614
 2433SOL    HW118935   1.030   0.792   3.771  0.1936  0.1425  1.8618
 2433SOL    HW218936   1.103   0.670   3.717  1.8155  1.6789 -0.6786
 2434SOL     OW18937   3.892   3.429   4.695 -0.3429  0.0398 -0.4604
 2434SOL    HW118938   3.896   3.481   4.614 -0.0704 -1.3718 -1.3425
 2434SOL    HW218939   3.922   3.352   4.648 -1.1377 -0.0589 -0.8098
 2435SOL     OW18940   0.629   2.300  12.451 -0.1954  0.1873  0.0999
 2435SOL    HW118941   0.636   2.348  12.533 -0.0329  0.3932 -0.0336
 2435SOL    HW218942   0.694   2.353  12.404 -0.7912 -0.9052 -1.9578
 2436SOL     OW18943   1.633   3.601   8.667  0.1021 -0.3543  0.6477
 2436SOL    HW118944   1.554   3.656   8.672 -0.7035 -1.4693 -0.0050
 2436SOL    HW218945   1.695   3.673   8.655  1.6563 -1.8668 -0.2124
 2437SOL     OW18946   1.410   3.926   4.267 -0.0722  0.2648 -0.0814
 2437SOL    HW118947   1.334   3.894   4.218 -0.0859  0.4261 -0.1615
 2437SOL    HW218948   1.390   3.929   4.361 -0.0223 -1.0164 -0.0286
 2438SOL     OW18949   0.597   2.991   1.683 -0.4520  0.2565 -0.7208
 2438SOL    HW118950   0.689   3.016   1.698 -0.3623 -1.1525  1.0989
 2438SOL    HW218951   0.593   2.974   1.589  3.5521 -2.9289 -0.3195
 2439SOL     OW18952   3.237   3.283   5.869 -0.3300 -0.0513  0.5318
 2439SOL    HW118953   3.196   3.312   5.787 -0.6647 -0.5534  0.5196
 2439SOL    HW218954   3.208   3.192   5.873 -0.5997  0.0016 -0.2636
 2440SOL     OW18955   3.871   4.177   3.733  0.0656  0.2449  0.2564
 2440SOL    HW118956   3.782   4.158   3.702 -0.9083 -0.7984  3.6960
 2440SOL    HW218957   3.914   4.202   3.651 -0.3537 -0.2259 -0.1043
 2441SOL     OW18958   3.609   2.480  10.280  0.1809 -0.1549  0.1544
 2441SOL    HW118959   3.575   2.566  10.253 -0.5548 -1.2787 -2.5147
 2441SOL    HW218960   3.607   2.427  10.200  0.7106 -0.9389  0.6651
 2442SOL     OW18961   3.070   0.104   8.247 -0.2579  0.3822 -0.2403
 2442SOL    HW118962   3.095   0.144   8.164  0.4356 -2.2476 -1.3043
 2442SOL    HW218963   3.149   0.128   8.296  0.5588  1.1466 -1.9325
 2443SOL     OW18964   2.596   0.961   3.006 -0.0368  0.1244  0.2974
 2443SOL    HW118965   2.551   0.877   2.998 -0.8431  0.5111  0.7954
 2443SOL    HW218966   2.558   1.003   2.930 -0.1089  1.3430  1.0158
 2444SOL     OW18967   3.481   1.118  11.393  0.2544  0.0495 -0.0658
 2444SOL    HW118968   3.477   1.039  11.340 -1.2817  0.5737 -0.7381
 2444SOL    HW218969   3.425   1.168  11.332 -0.3635  0.6151  0.9545
 2445SOL     OW18970   2.934   3.631   6.531 -0.5009  0.1807 -0.1406
 2445SOL    HW118971   2.997   3.580   6.480  1.9708  1.4699  1.5857
 2445SOL    HW218972   2.965   3.624   6.622  0.3567  0.4121 -0.4128
 2446SOL     OW18973   0.296   1.053   5.072 -0.3408  0.0560 -0.1750
 2446SOL    HW118974   0.303   1.062   4.977  1.8587 -3.4102 -0.3408
 2446SOL    HW218975   0.284   1.145   5.096 -0.9041  0.1983 -1.0016
 2447SOL     OW18976   0.177   3.432   6.976 -0.1013 -0.4072  0.2305
 2447SOL    HW118977   0.114   3.503   6.989  1.5937  1.2799 -0.9462
 2447SOL    HW218978   0.221   3.430   7.061  2.8228 -0.3366 -1.3102
 2448SOL     OW18979   2.203   4.094   4.746 -0.5997  0.0059  0.5978
 2448SOL    HW118980   2.168   4.039   4.676 -2.3603  1.5154  0.2629
 2448SOL    HW218981   2.285   4.053   4.771  0.6237  1.3463 -1.2392
 2449SOL     OW18982   3.248   0.195  12.449  0.7167 -0.9741 -0.1984
 2449SOL    HW118983   3.333   0.195  12.492  1.4539 -1.5986 -1.6698
 2449SOL    HW218984   3.235   0.286  12.422  2.0184 -1.3509 -2.0983
 2450SOL     OW18985   3.991   0.176   3.296  0.1028  0.3046 -0.0732
 2450SOL    HW118986   3.914   0.218   3.257 -0.2815 -0.5905 -0.2876
 2450SOL    HW218987   3.994   0.095   3.245  0.2237  0.9832 -1.1404
 2451SOL     OW18988   2.893   2.194   6.250  0.3429  0.3003  0.2035
 2451SOL    HW118989   2.861   2.227   6.334  1.0080 -1.9091  1.3119
 2451SOL    HW218990   2.973   2.244   6.236  1.9788 -2.2778  0.3824
 2452SOL     OW18991   0.501   4.532   2.407  0.3216  0.0997 -0.4403
 2452SOL    HW118992   0.562   4.542   2.480 -2.5297 -0.8828  2.0740
 2452SOL    HW218993   0.509   4.437   2.414  0.0525  0.1868  1.1457
 2453SOL     OW18994   0.708   4.677   1.969  0.1186  0.0285  0.3996
 2453SOL    HW118995   0.654   4.606   2.005 -1.0157  0.4953 -0.3978
 2453SOL    HW218996   0.687   4.658   1.877 -0.0004  0.6845  0.2954
 2454SOL     OW18997   3.482   2.310   7.612 -0.2663 -0.3598 -0.6096
 2454SOL    HW118998   3.440   2.327   7.697  0.5709 -2.8372  0.3069
 2454SOL    HW218999   3.430   2.373   7.563 -2.1018  1.3925  3.5633
 2455SOL     OW19000   1.625   2.704  10.340  0.2693  0.3470  0.1245
 2455SOL    HW119001   1.580   2.728  10.421  0.2449 -1.1325  0.5560
 2455SOL    HW219002   1.562   2.709  10.268 -0.7124  0.0504  0.9714
 2456SOL     OW19003   3.086   4.591  11.061 -0.6562 -1.0282 -0.2808
 2456SOL    HW119004   3.101   4.552  11.147 -0.6285 -0.9821 -0.2648
 2456SOL    HW219005   2.991   4.582  11.052 -0.6594 -0.7686 -0.4987
 2457SOL     OW19006   1.872   0.456   5.858 -0.2185 -0.7129  0.3217
 2457SOL    HW119007   1.877   0.537   5.808 -1.3555 -0.4486  0.6445
 2457SOL    HW219008   1.783   0.433   5.832 -0.2422 -0.5948  0.2989
 2458SOL     OW19009   2.753   0.988   3.239 -0.0577  0.6682  0.0810
 2458SOL    HW119010   2.685   1.031   3.291 -3.6852 -2.3517 -2.1467
 2458SOL    HW219011   2.713   0.966   3.155  1.5859 -2.4456  0.0959
 2459SOL     OW19012   2.694   4.646   8.958 -0.0943 -0.1240 -0.0281
 2459SOL    HW119013   2.777   4.648   8.910  0.7222  1.8932  1.4446
 2459SOL    HW219014   2.706   4.568   9.012  0.8609 -0.2482 -0.4164
 2460SOL     OW19015   1.744   3.430  14.403 -0.1546  0.0022 -0.2544
 2460SOL    HW119016   1.702   3.385  14.476 -1.1513 -0.2436 -0.9851
 2460SOL    HW219017   1.813   3.366  14.387  0.0773  0.2822 -0.3778
 2461SOL     OW19018   0.707   0.698   8.617 -0.1292  0.0988  0.4237
 2461SOL    HW119019   0.720   0.726   8.708 -1.9990 -0.3433  0.8175
 2461SOL    HW219020   0.670   0.781   8.588 -0.6442 -0.2416  0.1126
 2462SOL     OW19021   3.383   1.494  13.657  0.0031  0.0968  0.4512
 2462SOL    HW119022   3.437   1.464  13.729  0.4088 -1.5702 -0.5497
 2462SOL    HW219023   3.400   1.587  13.642  0.1364  0.2245  1.4246
 2463SOL     OW19024   1.947   1.365   7.549  0.0668  0.5920  0.3684
 2463SOL    HW119025   1.990   1.356   7.634 -1.0677  0.4639  0.9257
 2463SOL    HW219026   1.963   1.457   7.531  0.6471  0.0357 -2.0033
 2464SOL     OW19027   1.233   0.021   3.976  0.6515 -0.3510 -0.1734
 2464SOL    HW119028   1.200   0.081   3.908  0.6408 -0.0519  0.0927
 2464SOL    HW219029   1.236   0.078   4.053  0.3447 -0.8395  0.2016
 2465SOL     OW19030   2.492   1.478  13.335  0.3357  0.3043  0.4190
 2465SOL    HW119031   2.539   1.424  13.398 -0.3501 -1.5634 -0.6548
 2465SOL    HW219032   2.477   1.563  13.376 -0.4210  0.4787 -0.2038
 2466SOL     OW19033   4.083   4.299  10.037 -0.5285 -0.0366 -0.0706
 2466SOL    HW119034   4.131   4.220  10.009  0.9867  0.3887  1.3414
 2466SOL    HW219035   4.052   4.330   9.952  0.9570 -1.1892 -1.0555
 2467SOL     OW19036   4.708   3.840   9.480  0.2410 -0.0476 -0.3368
 2467SOL    HW119037   0.033   3.891   9.535  1.1409 -0.2541 -1.1205
 2467SOL    HW219038   0.027   3.767   9.447 -0.4387  0.9315 -3.5658
 2468SOL     OW19039   2.186   0.105   7.098 -0.1975 -0.1956 -0.3159
 2468SOL    HW119040   2.195   0.176   7.034  1.9727  0.6275  0.9095
 2468SOL    HW219041   2.113   0.057   7.058 -0.2300 -0.7997  0.4653
 2469SOL     OW19042   1.519   1.477  14.989  0.4220 -0.6167 -0.6884
 2469SOL    HW119043   1.603   1.453  14.950  0.3447 -0.9360 -0.6616
 2469SOL    HW219044   1.467   1.412  14.941 -0.9461 -0.3510  0.4363
 2470SOL     OW19045   3.752   2.210   4.059 -1.0817 -0.8770 -0.7368
 2470SOL    HW119046   3.667   2.231   4.097 -1.5810  0.1078 -2.4140
 2470SOL    HW219047   3.728   2.145   3.993 -0.0908 -0.0894 -1.8765
 2471SOL     OW19048   3.888   1.007  14.332 -0.0364  0.0931  0.7848
 2471SOL    HW119049   3.799   0.976  14.316 -0.2077  0.8463  0.2669
 2471SOL    HW219050   3.867   1.088  14.379  0.5105  0.6693  0.0372
 2472SOL     OW19051   0.409   3.787   7.652  0.2934 -0.1076 -1.0185
 2472SOL    HW119052   0.402   3.708   7.598 -0.5924 -0.7753  0.0570
 2472SOL    HW219053   0.496   3.824   7.635 -0.5045  1.8924 -0.6441
 2473SOL     OW19054   4.639   0.103   6.383 -0.0783  0.2117 -0.1200
 2473SOL    HW119055   4.653   0.068   6.295 -1.6428 -1.1513  0.1714
 2473SOL    HW219056   4.550   0.084   6.411  0.5448 -2.0146  0.3022
 2474SOL     OW19057   2.564   0.697   9.029 -0.3710  0.2646 -0.0235
 2474SOL    HW119058   2.506   0.770   9.009 -0.8408  0.2949  1.4318
 2474SOL    HW219059   2.616   0.722   9.105  0.2186 -0.6782 -0.1192
 2475SOL     OW19060   2.495   0.463   4.490  0.2417 -0.8887  0.2107
 2475SOL    HW119061   2.482   0.404   4.564  0.0259 -1.7792 -0.5360
 2475SOL    HW219062   2.558   0.528   4.521 -3.0568  2.3529  0.0633
 2476SOL     OW19063   2.323   2.854   6.018  0.0522 -0.6362 -0.4622
 2476SOL    HW119064   2.327   2.844   6.113  0.6877  1.1881 -0.3047
 2476SOL    HW219065   2.279   2.773   5.991  0.7374 -1.1826  0.0715
 2477SOL     OW19066   3.368   2.364   8.386 -0.2314  0.0586  0.0968
 2477SOL    HW119067   3.293   2.376   8.444  0.0155  0.1749  0.3933
 2477SOL    HW219068   3.433   2.415   8.435  0.4136 -0.3025 -0.3901
 2478SOL     OW19069   1.020   2.378   6.142  0.3536 -0.0983 -0.0716
 2478SOL    HW119070   0.966   2.304   6.114 -1.4228  0.4783  1.8686
 2478SOL    HW219071   1.103   2.347   6.106  0.5635 -0.6575  0.9105
 2479SOL     OW19072   2.611   1.409   2.863  0.3183 -0.1928 -0.4299
 2479SOL    HW119073   2.554   1.337   2.835 -0.9148  0.2879  0.8633
 2479SOL    HW219074   2.659   1.423   2.781  1.2749 -0.0489  0.1507
 2480SOL     OW19075   2.932   2.098   7.129  0.0843 -0.0464  0.8385
 2480SOL    HW119076   2.927   2.003   7.144  1.5665  0.0059  1.6541
 2480SOL    HW219077   2.867   2.133   7.189  0.5770  2.6441 -0.2299
 2481SOL     OW19078   3.840   2.726   0.584 -0.2349  0.8872  0.4744
 2481SOL    HW119079   3.759   2.679   0.565  0.6419 -0.5931  0.4406
 2481SOL    HW219080   3.855   2.703   0.675 -0.9705 -0.3406  0.2821
 2482SOL     OW19081   1.746   0.567   4.701 -0.0382  0.1130  0.4092
 2482SOL    HW119082   1.726   0.474   4.694 -0.6060  0.1715  1.3341
 2482SOL    HW219083   1.664   0.615   4.686  0.8715  1.0368 -1.7412
 2483SOL     OW19084   3.122   2.338   6.203 -0.0775  0.6320 -0.0736
 2483SOL    HW119085   3.201   2.325   6.150 -0.1240  1.8444 -0.4378
 2483SOL    HW219086   3.139   2.395   6.278 -2.2716  3.1134 -1.4681
 2484SOL     OW19087   4.369   1.605   2.681  0.0513 -0.2560  0.2619
 2484SOL    HW119088   4.403   1.544   2.747 -0.9441 -0.7943  0.2857
 2484SOL    HW219089   4.315   1.668   2.728  0.6596 -0.2741  0.9801
 2485SOL     OW19090   4.590   2.781   5.573  0.4078  0.6520  0.2144
 2485SOL    HW119091   4.551   2.851   5.625  2.1574  2.2820 -0.6549
 2485SOL    HW219092   4.648   2.830   5.514  1.4858  1.6945  2.1648
 2486SOL     OW19093   2.040   1.328   7.806 -0.1801  0.5258 -0.4291
 2486SOL    HW119094   1.955   1.290   7.828  0.6453 -0.6880  0.6627
 2486SOL    HW219095   2.053   1.386   7.881 -0.5033 -0.1755  0.1730
 2487SOL     OW19096   1.301   4.359   2.776 -0.4007  0.1973  0.3683
 2487SOL    HW119097   1.340   4.285   2.823  1.7929  0.1674 -1.4980
 2487SOL    HW219098   1.247   4.405   2.840 -1.1203 -0.7259  0.4170
 2488SOL     OW19099   1.229   0.184  15.203  0.6891  0.3113 -0.1311
 2488SOL    HW119100   1.278   0.111  15.240 -0.4388 -0.0922  0.5741
 2488SOL    HW219101   1.188   0.215  15.284 -0.6272 -3.1862  0.5816
 2489SOL     OW19102   0.507   1.854  15.905 -0.2713 -0.0973  0.2489
 2489SOL    HW119103   0.512   1.937  15.858 -0.7271  0.9152  1.9810
 2489SOL    HW219104   0.539   1.876  15.993  0.7410 -1.4930  0.2223
 2490SOL     OW19105   4.213   1.930  13.557  0.2864 -0.7613  0.4932
 2490SOL    HW119106   4.133   1.960  13.513  0.3623 -1.3667 -0.0640
 2490SOL    HW219107   4.265   1.983  13.497 -2.0087 -1.0559 -1.7796
 2491SOL     OW19108   1.470   0.502  14.640  0.0691  0.6234  0.5184
 2491SOL    HW119109   1.418   0.566  14.592 -0.8928 -0.6265 -0.1088
 2491SOL    HW219110   1.403   0.472  14.701 -0.4389  0.6647 -0.0289
 2492SOL     OW19111   1.699   2.599   1.920  0.3401 -0.1086 -0.6307
 2492SOL    HW119112   1.780   2.572   1.877  2.3096  0.2963  2.8282
 2492SOL    HW219113   1.657   2.650   1.851 -0.8911 -0.5643 -0.2315
 2493SOL     OW19114   4.083   3.832   2.108 -0.1781 -0.2801  0.0128
 2493SOL    HW119115   4.161   3.787   2.141  1.3780  0.7348 -2.2288
 2493SOL    HW219116   4.034   3.755   2.078  0.3330 -0.5819 -0.0513
 2494SOL     OW19117   2.090   0.099   4.999  0.5017 -0.1153 -0.4191
 2494SOL    HW119118   2.149   0.161   4.956 -0.1864 -1.3796 -3.2487
 2494SOL    HW219119   2.141   0.018   4.988  0.4774 -0.1611 -0.2003
 2495SOL     OW19120   4.564   1.263   3.983  0.0535  0.4844  0.6676
 2495SOL    HW119121   4.619   1.323   4.034  1.7722  0.3765 -1.0624
 2495SOL    HW219122   4.485   1.309   4.010 -0.8271  1.0791 -2.8886
 2496SOL     OW19123   1.273   4.297   4.831 -0.6104 -0.6583  0.8807
 2496SOL    HW119124   1.287   4.300   4.926  2.5124  1.7706  0.3633
 2496SOL    HW219125   1.238   4.210   4.818 -1.2637 -0.4374  1.1465
 2497SOL     OW19126   4.581   1.076  11.122 -0.3237  0.5907  0.2297
 2497SOL    HW119127   4.485   1.070  11.128 -0.0020 -2.4363  2.2767
 2497SOL    HW219128   4.595   1.170  11.130 -0.8423  0.4345  2.9896
 2498SOL     OW19129   3.470   0.049   2.333 -0.2552  0.2463  0.3161
 2498SOL    HW119130   3.445   0.097   2.253  2.4630 -0.8386 -1.1822
 2498SOL    HW219131   3.384   0.045   2.374 -0.5081  3.2391  0.1081
 2499SOL     OW19132   2.984   0.281  10.098  0.0883  0.1819  0.0316
 2499SOL    HW119133   3.065   0.269  10.048 -0.2522 -0.1047 -0.4560
 2499SOL    HW219134   2.912   0.239  10.051 -1.3721  0.5801  1.9179
 2500SOL     OW19135   0.448   1.572   3.233 -0.1945  0.0144 -0.1030
 2500SOL    HW119136   0.430   1.512   3.306  2.1671  1.2118  1.4776
 2500SOL    HW219137   0.517   1.626   3.272  0.0751  0.3342 -1.0305
 2501SOL     OW19138   2.442   0.328   6.668 -0.2124 -0.0802  0.0957
 2501SOL    HW119139   2.382   0.255   6.651  0.0443 -0.5105  1.0495
 2501SOL    HW219140   2.491   0.334   6.586 -0.5490 -0.1730 -0.1095
 2502SOL     OW19141   4.468   4.551   0.479 -0.3693 -0.0491 -0.4295
 2502SOL    HW119142   4.414   4.623   0.513  0.3677 -1.5209  3.8905
 2502SOL    HW219143   4.506   4.511   0.557  1.1573 -2.0426 -2.1981
 2503SOL     OW19144   3.896   3.335  13.058 -0.2307  0.0995 -0.4044
 2503SOL    HW119145   3.812   3.301  13.089 -0.4383  0.0069 -1.0715
 2503SOL    HW219146   3.911   3.382  13.140 -2.1274 -1.2721  0.7115
 2504SOL     OW19147   2.744   1.245  10.447 -0.0953  0.6406  0.3232
 2504SOL    HW119148   2.773   1.173  10.502 -2.7403 -1.5116 -1.0732
 2504SOL    HW219149   2.826   1.294  10.435 -0.2308  0.5294 -1.1578
 2505SOL     OW19150   1.289   1.975   6.564 -0.5512  0.3569  0.0602
 2505SOL    HW119151   1.256   2.048   6.512 -5.3315 -3.2447 -1.9869
 2505SOL    HW219152   1.341   1.929   6.498 -0.5276 -2.0977  1.7724
 2506SOL     OW19153   4.595   2.778   9.133  0.2224 -0.1261 -0.3611
 2506SOL    HW119154   4.688   2.795   9.151 -0.3492  2.5127  0.1219
 2506SOL    HW219155   4.595   2.738   9.046  0.1582  0.4207 -0.6163
 2507SOL     OW19156   0.548   0.941   6.217 -0.4047 -0.0922  0.3599
 2507SOL    HW119157   0.493   0.878   6.263  1.2415 -0.4891  1.7888
 2507SOL    HW219158   0.483   1.011   6.219 -0.8903 -0.5753  1.5813
 2508SOL     OW19159   4.091   3.316  16.490  0.0409  0.1237 -0.2903
 2508SOL    HW119160   4.106   3.373  16.565 -0.7685  3.4852 -2.6598
 2508SOL    HW219161   4.090   3.231  16.533 -0.9070 -1.2195 -2.9124
 2509SOL     OW19162   1.236   1.261   1.641  0.6840 -0.7359 -0.0815
 2509SOL    HW119163   1.280   1.320   1.702 -0.2547 -1.3927  1.2273
 2509SOL    HW219164   1.314   1.233   1.592 -0.9857 -2.0404 -2.0135
 2510SOL     OW19165   0.952   3.833   7.728 -0.0724  0.8217  0.2950
 2510SOL    HW119166   0.936   3.740   7.718 -0.9422  1.1088 -1.0792
 2510SOL    HW219167   0.876   3.864   7.778 -0.8021  0.4172 -0.5444
 2511SOL     OW19168   2.343   0.457   3.579 -0.5439 -0.6011  0.1691
 2511SOL    HW119169   2.379   0.544   3.563  1.5162 -1.7925 -1.6688
 2511SOL    HW219170   2.359   0.448   3.673 -0.3558 -0.0305  0.1869
 2512SOL     OW19171   3.982   0.791   7.182 -0.3511 -0.2942 -0.1398
 2512SOL    HW119172   3.974   0.815   7.089 -0.0223  0.1387 -0.0569
 2512SOL    HW219173   4.022   0.868   7.224  2.4140 -1.0906 -1.2870
 2513SOL     OW19174   0.063   1.197   6.144  0.6788 -0.7975  0.7436
 2513SOL    HW119175   4.704   1.184   6.127  0.7123 -1.5456  1.1076
 2513SOL    HW219176   0.101   1.172   6.060  1.4322 -0.9064  1.1218
 2514SOL     OW19177   4.427   3.827   9.464  0.4596  0.3103  0.2329
 2514SOL    HW119178   4.400   3.846   9.554 -1.2345 -0.8028 -0.0274
 2514SOL    HW219179   4.522   3.837   9.471  0.3525  0.4567  1.4851
 2515SOL     OW19180   1.190   2.467  11.913 -0.5895 -0.6268  0.4336
 2515SOL    HW119181   1.119   2.495  11.855 -1.3556 -1.6545  0.8638
 2515SOL    HW219182   1.220   2.386  11.871 -0.8041 -0.8403  0.6933
 2516SOL     OW19183   3.144   1.119   6.685  0.0576 -0.5796  0.2810
 2516SOL    HW119184   3.094   1.082   6.757  0.2960 -1.0935  0.1805
 2516SOL    HW219185   3.213   1.054   6.676 -0.5400 -1.0412 -1.0704
 2517SOL     OW19186   1.450   2.745   5.519  0.6889 -0.1940 -0.0528
 2517SOL    HW119187   1.531   2.721   5.563  1.0653  1.7285  0.3182
 2517SOL    HW219188   1.419   2.656   5.501 -1.9452  0.4148  1.3394
 2518SOL     OW19189   2.919   1.295   3.234 -0.1981 -0.3202  0.1738
 2518SOL    HW119190   2.913   1.245   3.153 -1.0354  2.1049 -1.2367
 2518SOL    HW219191   3.014   1.297   3.250 -0.1172 -0.2481 -0.3099
 2519SOL     OW19192   2.736   0.856   4.137  0.4036 -0.6015  0.2482
 2519SOL    HW119193   2.642   0.873   4.129  0.3376 -0.0805  2.1160
 2519SOL    HW219194   2.735   0.789   4.205 -2.3874 -2.3144 -1.4587
 2520SOL     OW19195   2.345   3.036   2.305 -0.1667  0.0458 -0.0648
 2520SOL    HW119196   2.436   3.065   2.300 -0.2423 -0.1925 -2.5397
 2520SOL    HW219197   2.310   3.105   2.249  0.1887 -0.7056 -1.1929
 2521SOL     OW19198   1.074   0.344  10.090  0.3528 -0.1774 -0.8952
 2521SOL    HW119199   1.146   0.394  10.128  1.2375 -2.1816  0.0379
 2521SOL    HW219200   1.123   0.272  10.050 -0.3444  0.2443 -2.5369
 2522SOL     OW19201   1.599   2.436  17.380 -0.3295  0.2145 -0.1778
 2522SOL    HW119202   1.612   2.347  17.345  2.1039  0.7875 -0.7135
 2522SOL    HW219203   1.688   2.471  17.381  0.7650 -2.5356  1.7800
 2523SOL     OW19204   3.863   0.395   1.424 -0.5459 -0.0650 -0.1067
 2523SOL    HW119205   3.811   0.441   1.490  0.5416  0.4358  0.3948
 2523SOL    HW219206   3.842   0.303   1.444 -1.0814  0.0190 -0.2891
 2524SOL     OW19207   3.708   0.916   4.164  0.9709  0.2061 -0.0465
 2524SOL    HW119208   3.727   0.854   4.094 -1.1571 -0.3876 -0.1130
 2524SOL    HW219209   3.621   0.950   4.144  0.1633 -0.1230  2.9421
 2525SOL     OW19210   3.338   2.784   0.677 -0.0103 -0.2020 -0.1313
 2525SOL    HW119211   3.299   2.817   0.596  2.8019  1.4284 -0.8339
 2525SOL    HW219212   3.334   2.865   0.728  0.6903  0.1325 -0.6111
 2526SOL     OW19213   1.417   0.434   8.637 -0.2665 -0.4042 -0.8450
 2526SOL    HW119214   1.346   0.497   8.648  1.1283  0.7185  1.7893
 2526SOL    HW219215   1.406   0.396   8.550 -0.5336  2.7578 -2.1983
 2527SOL     OW19216   0.271   4.326  12.877  0.3336 -0.2428  0.2688
 2527SOL    HW119217   0.316   4.252  12.836 -2.7022 -1.2046 -1.3427
 2527SOL    HW219218   0.265   4.388  12.804 -1.8847  1.2854  1.7733
 2528SOL     OW19219   3.092   1.276   2.495  0.1145  0.0791  0.5560
 2528SOL    HW119220   3.121   1.278   2.587 -0.8673  2.1491  0.8074
 2528SOL    HW219221   3.110   1.186   2.468  1.1326  0.6425 -0.6579
 2529SOL     OW19222   3.499   1.717  12.776  0.3464  0.3503  0.2640
 2529SOL    HW119223   3.454   1.800  12.781  1.1857  0.7667  0.9112
 2529SOL    HW219224   3.499   1.681  12.865 -0.4412  0.1597  0.1810
 2530SOL     OW19225   2.939   1.451   3.659  0.5363 -0.1824 -0.7994
 2530SOL    HW119226   2.909   1.420   3.745  0.3058  3.5430  0.4408
 2530SOL    HW219227   2.915   1.376   3.605  1.4078 -0.7975 -0.3301
 2531SOL     OW19228   1.708   0.171  13.114 -0.1109  0.7157 -0.4067
 2531SOL    HW119229   1.694   0.157  13.021 -0.0255  1.4329 -0.5324
 2531SOL    HW219230   1.677   0.261  13.124 -0.9697  0.3396  0.3319
 2532SOL     OW19231   1.114   1.657   2.670 -0.3419 -0.1313  0.7726
 2532SOL    HW119232   1.185   1.611   2.626 -0.7306  0.7610 -0.7930
 2532SOL    HW219233   1.069   1.702   2.598  1.6410 -0.7851 -0.8711
 2533SOL     OW19234   3.677   1.530   5.134 -0.0955  0.0460  0.1840
 2533SOL    HW119235   3.664   1.466   5.204 -1.5590 -1.5062 -1.4953
 2533SOL    HW219236   3.607   1.592   5.152 -0.5976 -0.0219 -1.5241
 2534SOL     OW19237   0.207   1.465   6.791 -0.4371  0.3478  0.0653
 2534SOL    HW119238   0.149   1.512   6.851  1.0555  0.5250  1.3625
 2534SOL    HW219239   0.280   1.525   6.779 -0.2211  0.3061  1.1250
 2535SOL     OW19240   0.946   3.840  17.234 -0.1204 -0.0742 -0.0057
 2535SOL    HW119241   0.955   3.748  17.208  0.9237  0.7248 -2.4183
 2535SOL    HW219242   1.006   3.853  17.308 -2.1056  1.5821  1.3054
 2536SOL     OW19243   3.084   1.784  10.556  0.1516  0.8696  0.5899
 2536SOL    HW119244   3.168   1.743  10.536 -0.9886 -0.6827 -1.0652
 2536SOL    HW219245   3.041   1.715  10.608  1.1151  1.3842  2.0639
 2537SOL     OW19246   4.524   2.744   6.185 -0.0730  0.3599 -0.3038
 2537SOL    HW119247   4.548   2.752   6.277  0.3665  0.9321 -0.4698
 2537SOL    HW219248   4.478   2.827   6.171 -1.1189 -0.1594  0.0292
 2538SOL     OW19249   2.403   1.660   7.220 -0.3405  0.1747  0.7497
 2538SOL    HW119250   2.403   1.701   7.306  0.6409 -1.1291  1.3806
 2538SOL    HW219251   2.480   1.697   7.177 -0.9728  0.9341  0.2692
 2539SOL     OW19252   1.410   1.297  14.280  0.2161 -0.3740  0.2464
 2539SOL    HW119253   1.410   1.239  14.204 -1.0134 -1.0012  0.7284
 2539SOL    HW219254   1.344   1.358  14.249 -0.4110 -1.4464 -0.5161
 2540SOL     OW19255   3.199   3.093   2.251  0.0066  0.0143  0.0798
 2540SOL    HW119256   3.128   3.108   2.314 -1.6604 -2.0460 -1.2957
 2540SOL    HW219257   3.182   3.166   2.191 -0.6260  0.0492  0.2985
 2541SOL     OW19258   4.538   4.431   0.720  0.0773  0.4619  0.4545
 2541SOL    HW119259   4.527   4.505   0.780  0.9017  1.9929 -1.3156
 2541SOL    HW219260   4.500   4.360   0.772 -4.7196  1.6929 -1.3428
 2542SOL     OW19261   1.111   3.294   7.075 -0.0294  0.4533 -0.2087
 2542SOL    HW119262   1.182   3.248   7.121 -0.7617 -1.2064 -0.7463
 2542SOL    HW219263   1.169   3.347   7.020 -0.0014 -1.0066 -1.5656
 2543SOL     OW19264   2.072   0.643   9.831  0.9778  0.4053 -0.5584
 2543SOL    HW119265   2.044   0.564   9.784  1.4680  0.0648 -0.2742
 2543SOL    HW219266   2.121   0.693   9.766 -1.7922  0.1072 -2.8935
 2544SOL     OW19267   0.288   3.459   0.523  0.2258  0.8030  0.5139
 2544SOL    HW119268   0.275   3.550   0.550 -0.8041  0.5535  0.8782
 2544SOL    HW219269   0.374   3.461   0.482  0.5379  0.0351  1.1285
 2545SOL     OW19270   4.472   3.536   4.284 -0.4502  0.3600 -0.2061
 2545SOL    HW119271   4.530   3.523   4.209  0.8171  1.0831  0.6461
 2545SOL    HW219272   4.388   3.552   4.241 -0.6245 -1.6407 -0.5997
 2546SOL     OW19273   4.526   0.997   8.202 -0.6425 -0.0042  0.1834
 2546SOL    HW119274   4.439   0.976   8.237 -0.5225 -1.3714 -0.3551
 2546SOL    HW219275   4.497   1.001   8.111 -1.2715  1.0616  0.4221
 2547SOL     OW19276   1.776   0.133   9.138 -0.5441 -0.5381  0.2094
 2547SOL    HW119277   1.765   0.092   9.224  1.3738  1.9135  1.6299
 2547SOL    HW219278   1.700   0.190   9.137 -0.6756 -0.7047  0.7056
 2548SOL     OW19279   2.483   3.006   0.727 -0.1804  0.0117  0.0883
 2548SOL    HW119280   2.550   2.954   0.682 -1.2168 -1.7998  0.6087
 2548SOL    HW219281   2.538   3.064   0.779  0.3516 -0.7785  0.4114
 2549SOL     OW19282   1.466   1.904   8.288 -0.1568 -0.3214  0.2974
 2549SOL    HW119283   1.378   1.941   8.300  0.1364  0.2774  0.5624
 2549SOL    HW219284   1.507   1.975   8.238  0.7142 -1.0224  0.0201
 2550SOL     OW19285   0.255   4.461   3.948  0.2435 -0.5303  0.1329
 2550SOL    HW119286   0.288   4.420   3.868  2.2794  1.0008  0.1973
 2550SOL    HW219287   0.317   4.428   4.013 -0.7090 -1.1394  0.7258
 2551SOL     OW19288   3.378   4.367   8.180  0.1135 -0.8110  0.4906
 2551SOL    HW119289   3.388   4.293   8.239  0.4453 -1.0589  0.1322
 2551SOL    HW219290   3.316   4.421   8.227  1.6985  0.9948  0.5192
 2552SOL     OW19291   3.081   3.257   2.044  0.1980 -0.0885  0.0778
 2552SOL    HW119292   3.097   3.222   1.957  0.0871 -0.7163  0.3147
 2552SOL    HW219293   2.997   3.294   2.018 -0.5398 -1.4920  0.5192
 2553SOL     OW19294   1.649   2.092   3.695 -0.3038  0.1155 -0.1065
 2553SOL    HW119295   1.660   2.042   3.614  0.5913 -1.1799  0.8100
 2553SOL    HW219296   1.709   2.165   3.687  0.3145 -0.2077  1.5350
 2554SOL     OW19297   4.427   4.088  16.022  0.3053  0.4410 -0.0600
 2554SOL    HW119298   4.404   4.162  15.966 -0.9330 -1.6327 -2.3150
 2554SOL    HW219299   4.510   4.119  16.059  0.1494 -0.0474  0.7263
 2555SOL     OW19300   2.574   3.090  11.594  0.1447  0.0243 -0.2409
 2555SOL    HW119301   2.661   3.111  11.628 -0.1471 -0.4982  0.8207
 2555SOL    HW219302   2.532   3.057  11.673  0.5785 -1.4051 -0.6028
 2556SOL     OW19303   2.536   2.070   6.634 -0.3716 -0.4826  0.3809
 2556SOL    HW119304   2.593   2.029   6.699 -1.8926 -2.4101  0.5076
 2556SOL    HW219305   2.575   2.157   6.635  0.5565 -0.9097  1.6145
 2557SOL     OW19306   4.410   4.593  11.640 -0.2399  0.2153 -0.6264
 2557SOL    HW119307   4.350   4.544  11.696 -0.4496  2.1415  0.8424
 2557SOL    HW219308   4.432   4.529  11.572 -0.7834 -1.7551  1.0274
 2558SOL     OW19309   0.644   3.807  12.038 -0.6742 -0.5213 -0.3867
 2558SOL    HW119310   0.635   3.720  12.075 -1.1717  0.2254  1.2485
 2558SOL    HW219311   0.723   3.805  11.985  0.2901  0.8273  0.9941
 2559SOL     OW19312   3.650   1.117   4.896  0.1413  0.7156 -0.6657
 2559SOL    HW119313   3.639   1.057   4.822 -0.2367  0.2537 -0.2320
 2559SOL    HW219314   3.704   1.074   4.962 -2.6141  1.0301  1.7748
 2560SOL     OW19315   0.099   0.162  16.850 -0.1517  0.8498  0.0714
 2560SOL    HW119316   0.039   0.112  16.907 -2.9377  3.4764 -0.5797
 2560SOL    HW219317   0.185   0.158  16.892 -0.0131  1.7554 -0.1420
 2561SOL     OW19318   2.597   1.637   1.002 -0.5799 -0.0373  0.4197
 2561SOL    HW119319   2.569   1.604   0.916 -0.1178 -0.3640  0.3954
 2561SOL    HW219320   2.516   1.634   1.054 -0.6847 -1.2825  0.1959
 2562SOL     OW19321   2.137   2.991   6.289  0.2531  0.3325  0.0698
 2562SOL    HW119322   2.168   3.082   6.291  1.3852 -0.0279 -1.1402
 2562SOL    HW219323   2.072   2.995   6.219 -0.4067  0.1632  0.6786
 2563SOL     OW19324   4.722   3.149   8.657 -0.2510  0.6276  0.1323
 2563SOL    HW119325   4.666   3.075   8.634 -0.0495  0.7777 -0.8098
 2563SOL    HW219326   0.031   3.113   8.734 -0.6329 -2.0281 -0.8683
 2564SOL     OW19327   4.727   4.481   5.135 -0.1160  0.4207 -0.2048
 2564SOL    HW119328   4.708   4.573   5.113  0.2758  0.2631 -1.2409
 2564SOL    HW219329   4.640   4.448   5.156 -0.4039 -0.0628 -2.0910
 2565SOL     OW19330   4.104   2.876   8.979 -0.2334 -0.6887 -0.3958
 2565SOL    HW119331   4.104   2.872   8.883 -2.6763  0.7852 -0.4800
 2565SOL    HW219332   4.157   2.800   9.000  0.9232  0.4933  0.9345
 2566SOL     OW19333   4.344   1.114   2.031 -0.2837 -0.0447 -0.2638
 2566SOL    HW119334   4.341   1.210   2.023  0.0203  0.1854  2.5573
 2566SOL    HW219335   4.437   1.094   2.023 -0.8739 -2.4783 -0.7855
 2567SOL     OW19336   1.612   2.006   0.019  0.0675  0.5425 -0.3914
 2567SOL    HW119337   1.553   1.979  17.688 -0.5567  1.4803 -0.2405
 2567SOL    HW219338   1.549   2.043   0.081 -0.8898  2.7738 -2.6766
 2568SOL     OW19339   2.795   0.250   9.438  0.2206 -0.3465  0.2281
 2568SOL    HW119340   2.714   0.274   9.483 -0.1429 -0.0204 -0.5966
 2568SOL    HW219341   2.794   0.319   9.371 -2.1696 -1.9100 -1.3838
 2569SOL     OW19342   3.150   3.634   6.249 -0.1703 -0.1374 -0.4759
 2569SOL    HW119343   3.198   3.622   6.167  0.3200 -0.7162 -0.1036
 2569SOL    HW219344   3.222   3.643   6.311 -0.2138  1.2210 -0.6136
 2570SOL     OW19345   4.503   4.391  16.364  0.0625 -0.2633  0.3061
 2570SOL    HW119346   4.491   4.298  16.345 -1.8694 -0.0688  0.5737
 2570SOL    HW219347   4.557   4.387  16.443  1.6437 -0.3372 -0.7848
 2571SOL     OW19348   0.439   3.694   0.736 -0.2861 -0.4011  0.5368
 2571SOL    HW119349   0.376   3.742   0.683 -1.0579 -3.1783 -1.0717
 2571SOL    HW219350   0.521   3.732   0.705 -0.5253 -1.6291 -1.5893
 2572SOL     OW19351   1.829   2.220   7.031  0.0713  0.0830  0.3121
 2572SOL    HW119352   1.747   2.193   7.074 -1.2400  2.6148 -0.5938
 2572SOL    HW219353   1.891   2.163   7.077  0.4330 -0.1113 -0.4142
 2573SOL     OW19354   1.859   0.132  16.611  0.1417  0.9078 -0.6639
 2573SOL    HW119355   1.830   0.174  16.692 -0.3553 -2.7841  1.0520
 2573SOL    HW219356   1.792   0.161  16.550 -0.8272 -2.8836 -1.3889
 2574SOL     OW19357   3.348   3.511   9.923 -0.3702  0.0973  0.1167
 2574SOL    HW119358   3.295   3.514   9.843  0.0978  1.4664 -0.1427
 2574SOL    HW219359   3.419   3.454   9.894 -1.5555  0.0803 -2.7657
 2575SOL     OW19360   1.646   0.984   9.292 -0.4724 -0.0987  0.8638
 2575SOL    HW119361   1.585   0.914   9.270 -0.7002  1.6491 -4.1182
 2575SOL    HW219362   1.724   0.960   9.243  0.1813  0.8095  1.4440
 2576SOL     OW19363   2.383   1.689   1.206  0.0519 -0.4084  0.5016
 2576SOL    HW119364   2.466   1.706   1.252 -0.1109  0.2212  0.5619
 2576SOL    HW219365   2.357   1.780   1.194  0.0188 -0.5885 -0.7574
 2577SOL     OW19366   3.579   4.336   3.128 -0.2588 -0.2369  0.8673
 2577SOL    HW119367   3.547   4.375   3.047 -0.6164  0.7583  1.4828
 2577SOL    HW219368   3.596   4.419   3.173  0.8708 -0.1977  0.3631
 2578SOL     OW19369   1.277   2.431   4.176 -0.1372  0.1171  0.1526
 2578SOL    HW119370   1.266   2.469   4.089 -1.5190 -0.8052 -0.0661
 2578SOL    HW219371   1.290   2.339   4.154  0.3034 -0.2024  1.7413
 2579SOL     OW19372   0.889   3.459   5.458 -0.1524  0.6024 -0.0750
 2579SOL    HW119373   0.886   3.522   5.531  0.6640  1.5603 -0.8758
 2579SOL    HW219374   0.980   3.442   5.435 -1.0347 -2.2753 -1.4353
 2580SOL     OW19375   3.114   2.368   6.984  0.0535  0.1207 -0.9586
 2580SOL    HW119376   3.067   2.446   7.010 -0.5920 -1.5313  2.7990
 2580SOL    HW219377   3.156   2.346   7.067  0.4435 -0.9429 -1.4262
 2581SOL     OW19378   1.119   1.658   7.073 -0.4095  0.1688 -0.1275
 2581SOL    HW119379   1.183   1.723   7.102  2.2743 -2.6431  0.2576
 2581SOL    HW219380   1.083   1.628   7.156 -0.3249 -2.0278 -0.8929
 2582SOL     OW19381   0.640   0.255   1.724  0.0927 -0.1057  0.0051
 2582SOL    HW119382   0.581   0.181   1.711 -1.2316  1.1225 -0.9259
 2582SOL    HW219383   0.592   0.299   1.795 -0.1361 -0.4753  0.0814
 2583SOL     OW19384   0.389   1.511  12.811  0.0985  0.3830 -0.8744
 2583SOL    HW119385   0.445   1.434  12.801  1.6523  1.5236 -0.9293
 2583SOL    HW219386   0.377   1.536  12.719 -2.0450  0.2283 -0.6508
 2584SOL     OW19387   1.365   2.289   6.567 -0.4217 -0.1408  0.3808
 2584SOL    HW119388   1.325   2.244   6.641 -0.0807 -0.8688  0.1209
 2584SOL    HW219389   1.304   2.254   6.502 -0.0041 -2.2047  1.1220
 2585SOL     OW19390   0.117   3.271   2.126 -0.4611 -0.3959  0.4578
 2585SOL    HW119391   0.106   3.241   2.036  1.9509  0.2144 -0.0496
 2585SOL    HW219392   0.175   3.342   2.100  1.0130 -1.4057  0.9637
 2586SOL     OW19393   3.526   2.698   0.968  0.0847  0.1152 -0.2622
 2586SOL    HW119394   3.441   2.722   1.003 -0.4148  0.0754 -1.4661
 2586SOL    HW219395   3.559   2.634   1.032 -0.1566  0.5442  0.2863
 2587SOL     OW19396   0.507   4.097   7.168 -0.6609 -0.1410  0.7255
 2587SOL    HW119397   0.503   4.098   7.264 -0.6371  2.2406  0.7010
 2587SOL    HW219398   0.548   4.011   7.156  1.7728  0.8473  1.8914
 2588SOL     OW19399   2.614   3.408   7.417  0.6730 -0.0357  0.3333
 2588SOL    HW119400   2.637   3.316   7.432 -1.4652 -0.6899 -0.3550
 2588SOL    HW219401   2.649   3.447   7.497 -1.2696 -2.0012  2.1445
 2589SOL     OW19402   3.563   1.766   8.489  0.0908  0.1716  0.2001
 2589SOL    HW119403   3.578   1.676   8.460  0.8806  0.2342  0.4134
 2589SOL    HW219404   3.616   1.815   8.426 -2.9645  3.7120  0.3676
 2590SOL     OW19405   1.999   4.310  16.995 -0.0484  0.3269 -0.0044
 2590SOL    HW119406   1.947   4.262  17.058 -1.1244 -0.7033 -1.6637
 2590SOL    HW219407   2.023   4.242  16.932 -2.8231 -1.5828  1.0056
 2591SOL     OW19408   2.730   3.011   3.710 -0.4070 -0.0312  0.5471
 2591SOL    HW119409   2.704   2.935   3.657 -2.1282  1.2478 -0.4401
 2591SOL    HW219410   2.755   3.068   3.637 -0.7061  0.5734  0.9158
 2592SOL     OW19411   1.732   3.050   2.367 -0.0406 -0.2821  0.6270
 2592SOL    HW119412   1.743   3.101   2.448  0.7748  1.9101 -0.8683
 2592SOL    HW219413   1.746   2.961   2.401  0.4944 -0.1565  0.7271
 2593SOL     OW19414   1.297   1.225   1.333 -0.4566  0.2647  0.1571
 2593SOL    HW119415   1.343   1.149   1.368 -0.5618 -0.3327 -1.0054
 2593SOL    HW219416   1.241   1.183   1.268  1.1782  0.3474 -1.3282
 2594SOL     OW19417   0.441   2.870   5.988 -0.0773  0.8771  0.5378
 2594SOL    HW119418   0.468   2.883   6.079  2.1462 -0.0800  0.0205
 2594SOL    HW219419   0.346   2.872   6.002 -0.0963  1.2062  0.3576
 2595SOL     OW19420   0.682   2.282   8.233  0.4667  0.3870  0.7154
 2595SOL    HW119421   0.714   2.338   8.304 -1.2138  0.5798  1.3180
 2595SOL    HW219422   0.737   2.205   8.248  1.9094  1.6796  2.1320
 2596SOL     OW19423   2.905   4.292   5.981 -0.5042 -0.6641  0.6221
 2596SOL    HW119424   3.001   4.295   5.982 -0.5019 -0.2895 -0.1360
 2596SOL    HW219425   2.878   4.356   5.915  0.8346  0.7241  1.4200
 2597SOL     OW19426   2.977   4.298   1.069  0.3819 -0.6783  0.3689
 2597SOL    HW119427   2.890   4.336   1.086  0.1954  0.3890 -2.9258
 2597SOL    HW219428   3.033   4.372   1.094 -2.0838  2.0365 -2.0975
 2598SOL     OW19429   3.977   4.720   7.840 -0.4779 -0.0442 -0.1066
 2598SOL    HW119430   4.065   4.687   7.825  0.5029  1.4347  2.4122
 2598SOL    HW219431   3.923   4.641   7.841  0.0531 -0.4091 -0.7329
 2599SOL     OW19432   0.174   4.021   5.021 -0.2471 -0.2862 -0.1871
 2599SOL    HW119433   0.112   3.948   5.023 -1.5065  0.7879 -0.0407
 2599SOL    HW219434   0.252   3.965   5.020 -0.0555  0.0097 -2.0753
 2600SOL     OW19435   2.573   0.514   6.007  0.4007  0.4328  0.0219
 2600SOL    HW119436   2.667   0.497   6.006  0.0242 -1.6634  0.0763
 2600SOL    HW219437   2.549   0.521   6.099  0.0113  0.6003 -0.0901
 2601SOL     OW19438   4.033   3.287   6.575  0.2491 -0.3060 -0.2680
 2601SOL    HW119439   4.012   3.380   6.559 -3.0155 -0.9721  0.1884
 2601SOL    HW219440   4.116   3.267   6.531  0.0402 -0.8838 -0.3943
 2602SOL     OW19441   3.429   2.131  12.623 -0.1816 -0.1563 -0.6762
 2602SOL    HW119442   3.396   2.214  12.590  2.4107  1.1937  0.1499
 2602SOL    HW219443   3.454   2.152  12.714 -3.1312 -2.2834  0.6085
 2603SOL     OW19444   2.890   3.915   5.609 -0.1536  0.4465 -0.7903
 2603SOL    HW119445   2.811   3.948   5.566  1.2309  3.1698 -1.2402
 2603SOL    HW219446   2.862   3.932   5.699  0.9212 -1.1492 -0.1670
 2604SOL     OW19447   0.689   3.336   5.806 -0.4077 -0.5302 -0.5234
 2604SOL    HW119448   0.598   3.355   5.827 -0.0361  1.7417 -0.9387
 2604SOL    HW219449   0.718   3.427   5.800 -1.3836 -0.4199 -3.4698
 2605SOL     OW19450   4.020   2.573   5.087 -0.0754  0.1595  0.4911
 2605SOL    HW119451   4.080   2.614   5.150  1.0594 -0.1073 -0.4017
 2605SOL    HW219452   3.979   2.644   5.037  0.8897 -0.6878 -1.5173
 2606SOL     OW19453   3.212   4.189  16.268  0.5628  0.0426 -0.1166
 2606SOL    HW119454   3.286   4.132  16.247 -1.9930 -2.6480 -1.6770
 2606SOL    HW219455   3.209   4.204  16.362  1.3033  0.5443 -0.1637
 2607SOL     OW19456   3.287   2.529   0.764 -0.6062  0.1334  0.4384
 2607SOL    HW119457   3.313   2.621   0.760 -0.2374  0.0227  0.3551
 2607SOL    HW219458   3.372   2.493   0.742 -0.4886 -0.6129  2.1396
 2608SOL     OW19459   4.294   0.473   6.478 -0.4131 -0.2462 -0.3142
 2608SOL    HW119460   4.377   0.438   6.446 -0.2747 -1.0839  0.9316
 2608SOL    HW219461   4.266   0.529   6.406 -0.3487  0.1644 -0.0233
 2609SOL     OW19462   3.774   0.426   7.411 -0.0211 -0.0725 -0.1906
 2609SOL    HW119463   3.763   0.518   7.384  1.3716 -0.1790 -1.0981
 2609SOL    HW219464   3.782   0.443   7.505 -1.7008 -0.0056 -0.0568
 2610SOL     OW19465   3.037   1.946  10.135  0.0711  0.1486  0.1152
 2610SOL    HW119466   2.996   1.866  10.104 -0.3503  0.4233 -0.0445
 2610SOL    HW219467   3.023   2.017  10.072 -0.5977 -0.3684 -0.3120
 2611SOL     OW19468   1.901   1.086   8.159 -0.1567  0.2422 -0.7983
 2611SOL    HW119469   1.882   1.000   8.121  0.3829 -0.4638  0.5236
 2611SOL    HW219470   1.914   1.066   8.252  1.5642  0.5179 -0.9669
 2612SOL     OW19471   3.242   1.715   5.791  0.5743  0.2334  0.4037
 2612SOL    HW119472   3.249   1.749   5.880 -1.3307  0.3338  0.5300
 2612SOL    HW219473   3.173   1.775   5.761  1.2771  0.4011 -0.9026
 2613SOL     OW19474   2.054   3.633  11.309 -0.6387  0.3597  0.3791
 2613SOL    HW119475   2.008   3.714  11.284 -1.3852  0.1688  1.1723
 2613SOL    HW219476   1.995   3.597  11.375  0.0752 -3.8194 -1.2693
 2614SOL     OW19477   4.697   3.015   5.241 -0.2489 -0.4839  0.5802
 2614SOL    HW119478   4.607   2.991   5.265 -0.3492  0.2706  0.9696
 2614SOL    HW219479   4.682   3.086   5.178  1.0592  0.3773  1.2484
 2615SOL     OW19480   2.532   0.123   0.548 -0.6477 -0.3720 -0.0183
 2615SOL    HW119481   2.478   0.166   0.614 -1.2191  1.4360 -1.6435
 2615SOL    HW219482   2.464   0.093   0.488 -0.5049 -0.0473 -0.3468
 2616SOL     OW19483   1.704   3.455   5.102  0.1022 -0.6725 -0.2004
 2616SOL    HW119484   1.747   3.370   5.096 -1.8733 -1.6537 -0.4573
 2616SOL    HW219485   1.740   3.491   5.020  1.8389  1.4736  1.5143
 2617SOL     OW19486   1.456   3.834   8.247  0.3551  0.4535 -0.4138
 2617SOL    HW119487   1.400   3.804   8.318  1.8908 -0.0740  0.5796
 2617SOL    HW219488   1.515   3.759   8.240  0.9637  0.9103 -0.2180
 2618SOL     OW19489   0.943   1.688   7.379 -0.3881  0.9331  0.3560
 2618SOL    HW119490   0.863   1.668   7.331 -0.3284  0.2696  0.5307
 2618SOL    HW219491   0.922   1.648   7.463 -1.1752  0.7520  0.0760
 2619SOL     OW19492   2.615   3.639   9.010 -0.2156 -0.5662 -0.4775
 2619SOL    HW119493   2.625   3.667   8.919  0.3432 -1.3179 -0.6483
 2619SOL    HW219494   2.546   3.695   9.045  0.6100  0.3951 -0.3642
 2620SOL     OW19495   4.618   4.606   1.080  0.1784 -0.3371 -0.4211
 2620SOL    HW119496   4.668   4.685   1.099  0.6720 -0.8255  0.3156
 2620SOL    HW219497   4.579   4.629   0.995 -1.0258 -2.6708 -0.4943
 2621SOL     OW19498   2.662   2.127   2.302  0.4608  0.6388  0.3729
 2621SOL    HW119499   2.641   2.203   2.356 -3.9648  0.5628 -1.2278
 2621SOL    HW219500   2.748   2.151   2.269 -0.5830  1.3023 -1.9137
 2622SOL     OW19501   3.950   1.742   5.014  0.2536 -0.0207 -0.2835
 2622SOL    HW119502   3.999   1.818   5.046  2.7906 -1.3037 -1.0530
 2622SOL    HW219503   3.985   1.738   4.925  0.1010  0.7850 -0.3745
 2623SOL     OW19504   2.040   0.423   1.779 -0.3265 -0.0160  0.5893
 2623SOL    HW119505   2.103   0.490   1.753  0.7907 -0.4695  2.1381
 2623SOL    HW219506   1.970   0.467   1.828 -0.0441 -0.4522  1.3909
 2624SOL     OW19507   0.023   1.204   4.966 -0.0423  0.0147 -0.3272
 2624SOL    HW119508   0.070   1.177   4.887  0.0526  1.6039 -0.8258
 2624SOL    HW219509   0.014   1.121   5.012  1.8813  0.8628  1.5534
 2625SOL     OW19510   3.533   4.107  13.068  0.5511  0.5610 -0.0154
 2625SOL    HW119511   3.621   4.069  13.072  0.3438  0.2412  1.3410
 2625SOL    HW219512   3.550   4.187  13.018 -0.1385  0.7383  0.0465
 2626SOL     OW19513   1.722   0.801  17.041  0.0712  0.3422  0.5134
 2626SOL    HW119514   1.688   0.826  16.955  0.6620 -0.4256  0.0583
 2626SOL    HW219515   1.717   0.706  17.040  0.0729  0.3497 -0.9456
 2627SOL     OW19516   2.986   2.125  14.839  0.4793  0.0465 -0.4549
 2627SOL    HW119517   3.029   2.186  14.779  1.8020  1.1905  1.6405
 2627SOL    HW219518   3.057   2.131  14.904  1.2836 -1.4904 -1.1950
 2628SOL     OW19519   0.244   4.395  11.858  0.9227 -0.1320 -0.0523
 2628SOL    HW119520   0.201   4.352  11.784  3.0084 -0.6573 -0.9382
 2628SOL    HW219521   0.268   4.317  11.907 -2.0959 -1.4743 -0.6860
 2629SOL     OW19522   1.883   4.526   8.321 -0.4222  0.2547 -0.1306
 2629SOL    HW119523   1.849   4.440   8.347  0.7918  0.1054  0.9819
 2629SOL    HW219524   1.889   4.506   8.228 -3.8004  3.1489 -0.9757
 2630SOL     OW19525   4.440   1.744   2.265 -0.3803 -0.0663  0.0564
 2630SOL    HW119526   4.401   1.699   2.340  0.9183 -1.1548  0.0921
 2630SOL    HW219527   4.416   1.686   2.192  0.8005 -0.0149 -0.3873
 2631SOL     OW19528   4.388   1.180   1.652 -0.2054  0.1448 -0.2988
 2631SOL    HW119529   4.295   1.162   1.638 -0.6169  1.6225  0.5727
 2631SOL    HW219530   4.426   1.093   1.639 -0.9354 -0.0007 -1.4157
 2632SOL     OW19531   3.029   0.737  12.004 -0.0338  0.1706  0.4076
 2632SOL    HW119532   3.100   0.775  11.953  0.9222  0.4343  1.9319
 2632SOL    HW219533   3.013   0.657  11.953 -0.0583 -0.1056  0.8433
 2633SOL     OW19534   4.055   4.408  11.013 -0.4157  0.0917  0.4244
 2633SOL    HW119535   3.988   4.462  10.972 -1.3414 -1.4575 -0.1355
 2633SOL    HW219536   4.087   4.345  10.949 -0.9622  0.9214 -0.6592
 2634SOL     OW19537   1.006   0.894   5.468 -0.0402 -0.7326 -0.1137
 2634SOL    HW119538   0.927   0.908   5.521 -0.7295 -0.7925 -1.1320
 2634SOL    HW219539   1.077   0.899   5.532 -1.9137  0.5311  1.8487
 2635SOL     OW19540   2.757   3.815  11.006  0.5874  0.2295 -0.3325
 2635SOL    HW119541   2.678   3.778  10.966  0.0552  3.4117 -2.1868
 2635SOL    HW219542   2.768   3.734  11.056  2.2782  0.9236  0.4056
 2636SOL     OW19543   2.479   4.520   0.736 -0.3169 -0.1199  0.1219
 2636SOL    HW119544   2.519   4.453   0.681 -0.8267  0.3815 -0.8718
 2636SOL    HW219545   2.534   4.594   0.709 -1.7916  1.0850  0.4248
 2637SOL     OW19546   2.168   2.752   2.570  0.2061  0.4044 -0.3589
 2637SOL    HW119547   2.100   2.818   2.563  0.0023  0.3585  1.1533
 2637SOL    HW219548   2.169   2.730   2.663 -0.4779 -0.8648 -0.6437
 2638SOL     OW19549   4.087   4.123   9.386  0.0944  0.3260  0.4802
 2638SOL    HW119550   4.133   4.041   9.403  0.5285  0.8359  1.7105
 2638SOL    HW219551   4.136   4.154   9.310  3.0056  1.4490  2.8467
 2639SOL     OW19552   3.630   3.322   2.710 -0.5388  0.1855 -0.0925
 2639SOL    HW119553   3.538   3.322   2.686 -0.7653 -0.1847  0.7880
 2639SOL    HW219554   3.656   3.236   2.676 -0.9967  0.6063 -1.4993
 2640SOL     OW19555   3.091   4.546   2.818 -0.3010 -0.2684 -0.5984
 2640SOL    HW119556   3.093   4.605   2.893  1.1257  0.7015 -1.4118
 2640SOL    HW219557   3.126   4.606   2.752 -0.3645  1.3753  0.8842
 2641SOL     OW19558   1.078   3.329   7.978 -0.0432  0.1648  0.7875
 2641SOL    HW119559   1.057   3.377   8.059 -1.1400  0.0602  0.5586
 2641SOL    HW219560   1.128   3.393   7.926  0.0316  1.1100  2.0061
 2642SOL     OW19561   0.533   2.322  16.663 -0.1177  0.8264  0.1861
 2642SOL    HW119562   0.497   2.305  16.576 -0.0566  2.8784 -0.2507
 2642SOL    HW219563   0.610   2.376  16.644  0.6094  0.4065  1.8877
 2643SOL     OW19564   0.309   4.523  12.650 -0.0534 -0.4290  0.0933
 2643SOL    HW119565   0.383   4.529  12.711  0.3581 -0.1913 -0.4334
 2643SOL    HW219566   0.314   4.596  12.588  2.9557 -1.3729 -0.7358
 2644SOL     OW19567   4.567   2.854  16.745  0.0728 -1.0856 -0.2628
 2644SOL    HW119568   4.562   2.762  16.719  2.8889 -1.0105 -1.0931
 2644SOL    HW219569   4.563   2.892  16.657  2.4953  1.3316  0.6797
 2645SOL     OW19570   3.435   1.680   4.173 -0.0838  0.0936  0.2194
 2645SOL    HW119571   3.474   1.766   4.183 -1.4722  0.5685  1.4973
 2645SOL    HW219572   3.375   1.672   4.247  0.0280 -1.2173  0.1704
 2646SOL     OW19573   0.313   1.476   2.690 -0.4694  0.3391 -0.2689
 2646SOL    HW119574   0.405   1.451   2.692  0.5499  4.0696  0.3281
 2646SOL    HW219575   0.280   1.454   2.603  0.9797  1.6154 -1.1482
 2647SOL     OW19576   1.957   1.916   4.579 -0.0126  0.2056  0.1270
 2647SOL    HW119577   1.893   1.908   4.651 -1.4001  1.3584 -0.9836
 2647SOL    HW219578   1.992   1.829   4.593 -2.6702 -1.3925 -3.2086
 2648SOL     OW19579   4.257   2.462   5.439  0.2807  0.4531 -0.0023
 2648SOL    HW119580   4.336   2.470   5.493  0.9839 -0.0534 -0.9423
 2648SOL    HW219581   4.286   2.496   5.354  0.2842 -0.5819 -0.4232
 2649SOL     OW19582   1.087   3.124   3.630  0.3423  0.1026 -0.0296
 2649SOL    HW119583   1.104   3.150   3.721  1.5357 -1.3890  0.1727
 2649SOL    HW219584   1.034   3.046   3.646  1.1900 -0.6142 -0.6735
 2650SOL     OW19585   0.292   1.739   5.972  0.3642  0.0285  0.0561
 2650SOL    HW119586   0.280   1.709   5.882  2.6470  1.2203 -0.6449
 2650SOL    HW219587   0.359   1.808   5.968 -1.1619  1.4732 -0.7652
 2651SOL     OW19588   1.958   0.478   3.177  0.3467 -0.4764  0.0448
 2651SOL    HW119589   1.933   0.398   3.131 -3.8451  0.1986  1.2016
 2651SOL    HW219590   2.021   0.443   3.241  0.5193  2.2854  1.3668
 2652SOL     OW19591   0.007   1.944   2.631  0.2163 -0.0213  0.4500
 2652SOL    HW119592   0.001   2.028   2.586  1.1761 -0.1794  0.0331
 2652SOL    HW219593   4.657   1.905   2.612 -0.1672  1.1047 -0.1635
 2653SOL     OW19594   2.089   4.170   0.260  0.1454 -0.1651 -0.2829
 2653SOL    HW119595   2.095   4.187   0.166  2.6463  1.7505  0.1918
 2653SOL    HW219596   1.994   4.168   0.257  0.1030  0.5191  0.4228
 2654SOL     OW19597   3.699   0.854  16.269 -0.2645 -0.4195  0.5118
 2654SOL    HW119598   3.780   0.809  16.246  0.1221  1.0933 -1.1081
 2654SOL    HW219599   3.637   0.787  16.239  0.4334 -0.2567 -1.2896
 2655SOL     OW19600   3.023   1.329  15.520  0.0084 -0.0619 -0.0691
 2655SOL    HW119601   3.059   1.409  15.482 -0.5511  0.5624  0.6960
 2655SOL    HW219602   3.098   1.302  15.573  0.4633 -0.3747 -0.8768
 2656SOL     OW19603   1.167   1.087   3.272 -0.0115  0.5776  0.7659
 2656SOL    HW119604   1.262   1.082   3.281 -0.1839 -2.5737  0.8066
 2656SOL    HW219605   1.162   1.172   3.229  0.6667  0.7745  1.0866
 2657SOL     OW19606   3.550   1.928   4.267  0.3780 -0.0938  0.7464
 2657SOL    HW119607   3.478   1.906   4.327  1.2132  0.7524  2.0578
 2657SOL    HW219608   3.541   2.023   4.257 -1.2616 -0.3243 -0.0378
 2658SOL     OW19609   1.050   3.374   2.679  0.2859 -0.2748  1.0126
 2658SOL    HW119610   0.991   3.445   2.655  0.8867  0.2068  0.9612
 2658SOL    HW219611   1.022   3.308   2.616 -0.7989  0.4435  0.7551
 2659SOL     OW19612   2.157   0.809   3.646  0.0495 -0.2692 -0.0056
 2659SOL    HW119613   2.250   0.799   3.666  0.5062  0.4723 -1.7798
 2659SOL    HW219614   2.120   0.743   3.704 -0.0285  1.2550  1.6967
 2660SOL     OW19615   4.276   4.712   6.728 -0.3649  0.8888  0.0776
 2660SOL    HW119616   4.276   4.667   6.812  2.1133  1.5267  0.4347
 2660SOL    HW219617   4.330   0.054   6.747  0.8801 -0.0522  0.3362
 2661SOL     OW19618   1.037   1.992   4.613  0.1198 -0.3100  0.1018
 2661SOL    HW119619   1.102   2.021   4.549 -1.3033  1.1534 -0.6951
 2661SOL    HW219620   1.027   1.902   4.583  0.4172  0.1346 -1.3340
 2662SOL     OW19621   3.642   3.026  13.835  0.0852  0.0056  0.2349
 2662SOL    HW119622   3.723   3.021  13.784  1.3814  2.7766  1.9976
 2662SOL    HW219623   3.619   3.113  13.803  1.4239  0.7880  1.4180
 2663SOL     OW19624   1.034   4.344   6.389 -0.2823 -0.1164 -0.0929
 2663SOL    HW119625   0.942   4.361   6.371 -0.4364 -0.3868  0.4476
 2663SOL    HW219626   1.039   4.275   6.322 -0.8395 -0.4362  0.1927
 2664SOL     OW19627   0.093   2.653   5.103 -0.0908  0.5656 -0.4190
 2664SOL    HW119628   0.079   2.655   5.198 -0.1059  2.4790 -0.4646
 2664SOL    HW219629   0.188   2.661   5.096 -0.4254  1.9197 -3.1583
 2665SOL     OW19630   0.229   4.505   5.689 -0.4607 -0.3332  0.1994
 2665SOL    HW119631   0.298   4.489   5.625 -1.4732  2.5140 -1.5722
 2665SOL    HW219632   0.167   4.433   5.683  0.5760 -1.2694  0.6660
 2666SOL     OW19633   1.828   2.208   6.381  0.2600  0.1756 -0.0501
 2666SOL    HW119634   1.749   2.189   6.431  1.7321  0.1597  2.2690
 2666SOL    HW219635   1.795   2.239   6.296 -0.5739 -1.6229 -0.3900
 2667SOL     OW19636   0.403   0.413   7.558 -0.1356  0.2867  0.0746
 2667SOL    HW119637   0.442   0.335   7.597 -2.0589  0.2490  1.9075
 2667SOL    HW219638   0.333   0.379   7.503  1.0158 -1.6327 -0.2041
 2668SOL     OW19639   1.944   2.019   3.030 -0.4658  0.2093 -0.4068
 2668SOL    HW119640   1.889   1.952   3.069 -0.4944  0.3478 -0.2092
 2668SOL    HW219641   1.891   2.035   2.952 -1.6014 -1.3281  0.0603
 2669SOL     OW19642   2.850   0.956  10.449  0.0764 -0.4562 -0.3159
 2669SOL    HW119643   2.820   0.950  10.359  0.4635  0.2316 -0.4930
 2669SOL    HW219644   2.944   0.970  10.442  0.1105  0.0541  1.0559
 2670SOL     OW19645   2.682   4.354  11.734 -0.8084 -0.2577  0.1847
 2670SOL    HW119646   2.668   4.266  11.768 -2.7143 -0.1398 -0.2584
 2670SOL    HW219647   2.748   4.388  11.794 -0.4146  0.5452 -0.6989
 2671SOL     OW19648   0.788   1.381   2.912 -0.5370  0.5551 -0.5424
 2671SOL    HW119649   0.814   1.430   2.835 -0.6017  1.2902 -0.0939
 2671SOL    HW219650   0.806   1.452   2.974  1.9677 -0.2258 -0.3476
 2672SOL     OW19651   1.700   1.917   2.501  0.2316  0.4523  0.0368
 2672SOL    HW119652   1.672   2.004   2.472 -0.7833 -0.4888 -1.7576
 2672SOL    HW219653   1.622   1.863   2.511  0.4005 -0.4849 -3.8597
 2673SOL     OW19654   2.154   0.488   6.414 -0.0429  0.4424  0.2851
 2673SOL    HW119655   2.173   0.568   6.463 -1.0280  0.4110  0.7210
 2673SOL    HW219656   2.073   0.454   6.453 -0.1661  0.8060  0.3425
 2674SOL     OW19657   3.244   0.103   8.769 -0.0886 -0.0707 -0.4734
 2674SOL    HW119658   3.330   0.102   8.811  0.4152  1.9289 -1.4031
 2674SOL    HW219659   3.241   0.192   8.733 -0.3112  0.8724  1.8604
 2675SOL     OW19660   2.533   4.630  11.781  0.4175  0.0904 -0.2107
 2675SOL    HW119661   2.578   4.546  11.773 -2.2302 -1.6760  3.7299
 2675SOL    HW219662   2.548   4.640  11.875 -0.1255  1.3015 -0.2519
 2676SOL     OW19663   0.065   0.841   1.681 -0.2294  0.0727 -0.5126
 2676SOL    HW119664   0.147   0.853   1.729 -0.1066 -0.2815 -0.6387
 2676SOL    HW219665   0.012   0.829   1.760 -0.2117  0.2607 -0.4712
 2677SOL     OW19666   3.652   0.250   9.050  0.3100  0.0233 -0.2797
 2677SOL    HW119667   3.603   0.296   9.119 -1.3099 -0.8309 -0.8419
 2677SOL    HW219668   3.725   0.308   9.029 -1.0792  0.9784 -2.4973
 2678SOL     OW19669   0.256   3.989   0.435 -0.0908 -0.8776  0.2389
 2678SOL    HW119670   0.326   4.035   0.482  0.7472 -2.2468  0.3265
 2678SOL    HW219671   0.255   3.906   0.482 -0.4340 -1.4111 -0.7263
 2679SOL     OW19672   0.244   1.877   3.780 -0.3563 -0.0588  0.2715
 2679SOL    HW119673   0.205   1.793   3.756 -1.4569  0.2878  0.8122
 2679SOL    HW219674   0.331   1.873   3.740  0.3394  1.8817  1.5645
 2680SOL     OW19675   0.011   4.707  15.141 -0.0109  0.3317  0.2297
 2680SOL    HW119676   0.062   0.036  15.192 -0.5007  0.0261  1.0987
 2680SOL    HW219677   4.674   4.707  15.205 -2.9440  2.3355 -3.0931
 2681SOL     OW19678   1.287   4.247   6.262  0.2785  0.2374  0.1515
 2681SOL    HW119679   1.249   4.335   6.262 -1.8155 -0.6529  0.8379
 2681SOL    HW219680   1.379   4.266   6.278  0.6867 -1.1343 -0.5989
 2682SOL     OW19681   0.980   2.443   6.792 -0.1603  0.3381 -0.3986
 2682SOL    HW119682   1.025   2.493   6.725 -0.2223  3.1572  1.6566
 2682SOL    HW219683   1.045   2.456   6.861 -1.5854 -0.4270  1.0952
 2683SOL     OW19684   2.587   2.422  14.295  0.6183 -0.5849  0.2877
 2683SOL    HW119685   2.535   2.477  14.236 -0.0771  2.2499  3.5653
 2683SOL    HW219686   2.609   2.479  14.368  0.1189 -0.5002  0.3706
 2684SOL     OW19687   0.800   2.102   5.739  0.7201  0.2023  0.3874
 2684SOL    HW119688   0.857   2.105   5.662 -1.5006 -0.9838 -1.2838
 2684SOL    HW219689   0.782   2.196   5.730  0.9283  0.2670  0.6556
 2685SOL     OW19690   1.992   3.351   1.198  0.3476 -0.6167  0.3090
 2685SOL    HW119691   1.966   3.367   1.107 -1.2701  0.0054  0.8797
 2685SOL    HW219692   1.923   3.404   1.239 -0.5654 -0.7336 -1.0651
 2686SOL     OW19693   0.359   3.267   4.939  0.4727 -0.0893 -0.0338
 2686SOL    HW119694   0.353   3.232   4.850  1.9691  0.3876 -0.3206
 2686SOL    HW219695   0.381   3.189   4.989 -2.2918 -2.8452 -3.1102
 2687SOL     OW19696   4.484   0.835  13.446 -0.3777  0.0764  0.2785
 2687SOL    HW119697   4.497   0.763  13.508  1.2669  0.8297  0.7879
 2687SOL    HW219698   4.398   0.872  13.468 -0.2504  0.8525 -0.5536
 2688SOL     OW19699   0.802   1.476   5.884  0.1523 -0.0434 -0.0556
 2688SOL    HW119700   0.770   1.557   5.922  0.6332  0.2566 -0.2902
 2688SOL    HW219701   0.888   1.501   5.851  0.9141 -1.2487  1.0075
 2689SOL     OW19702   4.058   2.464  13.774  0.0943 -0.2279  0.9689
 2689SOL    HW119703   4.142   2.489  13.812  0.3186 -0.7281  0.8041
 2689SOL    HW219704   4.004   2.459  13.853  1.1579 -0.3231  1.6923
 2690SOL     OW19705   2.547   3.650  10.917 -0.3146 -0.0295 -0.5886
 2690SOL    HW119706   2.509   3.586  10.857 -2.0465  0.5463 -0.1160
 2690SOL    HW219707   2.483   3.626  10.984 -0.5917 -1.7368 -1.4624
 2691SOL     OW19708   3.786   0.034   8.946 -0.0872 -0.4069 -0.9507
 2691SOL    HW119709   3.733   0.103   8.985  0.6549  0.5998 -1.7417
 2691SOL    HW219710   3.872   0.066   8.972 -0.6541  0.1339  0.2358
 2692SOL     OW19711   4.734   0.917   5.849 -0.8734  0.1022 -0.4059
 2692SOL    HW119712   0.056   0.840   5.839  0.1960  0.7563  0.5784
 2692SOL    HW219713   0.064   0.984   5.827  0.3484 -0.4845  1.3560
 2693SOL     OW19714   1.658   3.960   4.035  0.7427  0.3683  0.1193
 2693SOL    HW119715   1.751   3.958   4.059  0.2821 -2.9929  1.7487
 2693SOL    HW219716   1.646   4.029   3.971  0.1981 -0.6305 -0.8492
 2694SOL     OW19717   4.126   2.606  12.999 -0.0318 -0.6442  0.5860
 2694SOL    HW119718   4.083   2.561  13.072 -0.0597 -1.4530  0.0650
 2694SOL    HW219719   4.070   2.683  12.986  0.4676  0.2285  3.4381
 2695SOL     OW19720   4.500   0.998   7.020  0.2203  0.3344  0.3414
 2695SOL    HW119721   4.501   0.993   6.925  2.3080 -0.3625  0.4089
 2695SOL    HW219722   4.470   1.085   7.047 -2.0189 -0.7462  1.3618
 2696SOL     OW19723   2.316   0.364   5.485 -0.0743 -0.2356 -0.0300
 2696SOL    HW119724   2.360   0.317   5.556  1.1419 -1.0819 -1.3453
 2696SOL    HW219725   2.222   0.357   5.503 -0.0076 -1.6019 -0.2088
 2697SOL     OW19726   2.346   2.492   0.351  0.2220 -0.6175  0.1533
 2697SOL    HW119727   2.257   2.506   0.383  0.3028  1.1258 -0.3743
 2697SOL    HW219728   2.361   2.575   0.306 -2.9910 -0.3615 -0.4589
 2698SOL     OW19729   4.599   2.130  16.347  0.8277  0.7519  0.3507
 2698SOL    HW119730   4.605   2.066  16.276 -0.8026 -1.0352  1.8287
 2698SOL    HW219731   4.669   2.097  16.403 -0.2096 -1.4625  0.3469
 2699SOL     OW19732   0.748   3.169  17.724 -0.2642  0.3298 -0.0015
 2699SOL    HW119733   0.736   3.077  17.700 -0.4753  0.1821  0.6814
 2699SOL    HW219734   0.725   3.160   0.077 -0.6842  2.1966  0.0817
 2700SOL     OW19735   2.669   3.567  11.436  0.2958 -0.1220 -0.9233
 2700SOL    HW119736   2.739   3.540  11.496 -0.3927 -0.9159 -0.4863
 2700SOL    HW219737   2.631   3.645  11.475  1.0239 -1.2624  2.1048
 2701SOL     OW19738   1.658   2.352   6.629  0.2915  0.1634 -0.0813
 2701SOL    HW119739   1.567   2.330   6.608  0.4466  0.0484 -0.6224
 2701SOL    HW219740   1.642   2.425   6.689  1.2687  0.8400 -0.6560
 2702SOL     OW19741   2.666   2.856  11.833  0.1372  0.4381 -0.0985
 2702SOL    HW119742   2.582   2.829  11.872  0.6905  0.9379  1.4349
 2702SOL    HW219743   2.660   2.951  11.832 -0.4278  0.4074  0.4118
 2703SOL     OW19744   2.918   3.618   4.878 -0.4758 -0.7104  0.4114
 2703SOL    HW119745   2.825   3.640   4.871 -0.8649 -1.7406  2.3610
 2703SOL    HW219746   2.961   3.696   4.913 -0.6451 -0.5435  0.2415
 2704SOL     OW19747   2.883   4.428   9.388  0.4863 -0.1065 -0.3560
 2704SOL    HW119748   2.843   4.512   9.410  0.7977 -0.0316 -0.0715
 2704SOL    HW219749   2.942   4.452   9.316  0.5060  1.8013  0.2943
 2705SOL     OW19750   1.291   3.390   5.692 -0.7832  0.0191 -0.3707
 2705SOL    HW119751   1.302   3.317   5.630 -0.7066  0.1015 -0.4548
 2705SOL    HW219752   1.198   3.382   5.713 -0.6395  1.6657  0.8297
 2706SOL     OW19753   1.832   0.350  14.441  0.1746 -0.3465  0.0259
 2706SOL    HW119754   1.910   0.297  14.427 -0.4312 -0.4574 -2.8367
 2706SOL    HW219755   1.852   0.409  14.514 -1.1805  1.4793 -1.0668
 2707SOL     OW19756   3.148   4.221   3.188  0.4354  0.4243 -0.2530
 2707SOL    HW119757   3.160   4.204   3.281  1.2120  0.2441 -0.3823
 2707SOL    HW219758   3.226   4.193   3.140 -0.3616 -1.9961 -0.0959
 2708SOL     OW19759   0.772   1.008   1.886  0.2379  0.4343 -0.2546
 2708SOL    HW119760   0.766   1.062   1.965 -2.9414 -0.7181  0.3066
 2708SOL    HW219761   0.815   1.071   1.829 -0.9682  3.2817  1.9382
 2709SOL     OW19762   0.894   3.807   9.975  0.5324 -0.0712  0.6664
 2709SOL    HW119763   0.799   3.816   9.965  0.8963  0.1205 -2.8319
 2709SOL    HW219764   0.910   3.902   9.975  0.8068 -0.1184  1.9663
 2710SOL     OW19765   3.213   0.857   5.841  0.2324  0.2447  0.3133
 2710SOL    HW119766   3.128   0.834   5.880  1.2480  0.6086  2.7046
 2710SOL    HW219767   3.188   0.935   5.792  0.1070 -0.0999 -0.1727
 2711SOL     OW19768   0.248   2.470   1.147  0.7835  0.8251 -0.2538
 2711SOL    HW119769   0.313   2.520   1.098  1.3017 -0.1092 -0.5197
 2711SOL    HW219770   0.166   2.489   1.100  0.8453 -0.9736 -1.0874
 2712SOL     OW19771   3.762   4.480   7.406  0.5121  0.1951  0.1072
 2712SOL    HW119772   3.809   4.484   7.323  1.0032 -0.2145  0.3602
 2712SOL    HW219773   3.728   4.569   7.415  1.7602  0.6040  0.7995
 2713SOL     OW19774   3.538   0.020  12.558  0.2769  0.1661 -0.1552
 2713SOL    HW119775   3.470   0.087  12.550 -0.1461 -0.2317  0.1956
 2713SOL    HW219776   3.580   0.068  12.629  0.0880  1.3160 -0.8080
 2714SOL     OW19777   1.536   0.523   1.811  0.9466  0.1817  0.2210
 2714SOL    HW119778   1.496   0.534   1.898  1.1794  0.6011  0.2732
 2714SOL    HW219779   1.575   0.436   1.820  1.4617  0.3694 -0.2013
 2715SOL     OW19780   3.049   0.581   3.383 -0.4960  0.3898  0.0354
 2715SOL    HW119781   2.977   0.643   3.386  0.1035  0.9510  3.2209
 2715SOL    HW219782   3.114   0.625   3.438  1.0596  0.6372 -1.9984
 2716SOL     OW19783   2.251   1.189   1.608  0.1300 -0.4413  0.3994
 2716SOL    HW119784   2.343   1.215   1.621 -0.0176 -0.4769  1.5230
 2716SOL    HW219785   2.219   1.277   1.590 -0.2200 -0.7121 -0.2888
 2717SOL     OW19786   4.331   2.302   6.553 -0.0277 -0.5679 -0.4345
 2717SOL    HW119787   4.377   2.359   6.491  0.5627 -2.5006 -1.7512
 2717SOL    HW219788   4.325   2.355   6.632 -2.0703 -0.1429 -0.8645
 2718SOL     OW19789   1.361   1.220  15.182 -0.1572  0.1709 -0.1429
 2718SOL    HW119790   1.314   1.144  15.217 -0.4932  0.7219  0.5820
 2718SOL    HW219791   1.367   1.201  15.088  1.0358  0.2724 -0.0901
 2719SOL     OW19792   2.985   3.239   4.933 -0.8052  0.3331 -0.0260
 2719SOL    HW119793   3.000   3.277   5.020  4.3284 -1.1765 -0.2674
 2719SOL    HW219794   2.891   3.222   4.944 -0.8038 -0.0016 -0.5409
 2720SOL     OW19795   3.055   2.662   9.874  0.1117  0.2584  0.1601
 2720SOL    HW119796   3.137   2.702   9.902 -0.1963  0.7215  0.3999
 2720SOL    HW219797   2.998   2.697   9.943  0.5319  1.2835 -0.0009
 2721SOL     OW19798   2.881   4.473   0.525 -0.0050  0.4812  0.0069
 2721SOL    HW119799   2.967   4.446   0.495 -0.1048  1.1901 -0.9066
 2721SOL    HW219800   2.896   4.529   0.601  1.4336  0.9342 -0.6196
 2722SOL     OW19801   4.213   1.795   9.100  0.5014  0.2189 -0.8483
 2722SOL    HW119802   4.156   1.847   9.044  0.2719  0.6716 -0.1937
 2722SOL    HW219803   4.288   1.852   9.112  0.0026  0.0853  3.0434
 2723SOL     OW19804   1.710   0.894   3.881  0.2949  0.0290  0.1351
 2723SOL    HW119805   1.668   0.980   3.871 -0.1584  0.0510  2.2884
 2723SOL    HW219806   1.791   0.903   3.830 -0.0491 -0.9272 -0.5853
 2724SOL     OW19807   0.600   4.442  17.112  0.1383 -0.6950 -0.1688
 2724SOL    HW119808   0.513   4.440  17.072  1.0430 -2.7756 -2.0280
 2724SOL    HW219809   0.583   4.510  17.178 -0.6976 -0.3337 -0.7561
 2725SOL     OW19810   3.419   0.749  16.775  0.2457 -0.4313 -0.5098
 2725SOL    HW119811   3.325   0.741  16.789  0.1644 -1.0306 -1.3929
 2725SOL    HW219812   3.456   0.673  16.819  1.8179 -0.5414 -1.9968
 2726SOL     OW19813   3.277   0.405   8.772 -0.0254  0.1423 -0.2759
 2726SOL    HW119814   3.271   0.372   8.861 -1.2870  1.4636  0.1332
 2726SOL    HW219815   3.191   0.446   8.767  0.4243  1.1490  0.3508
 2727SOL     OW19816   3.684   1.470   5.501  0.2476  0.0140 -0.2443
 2727SOL    HW119817   3.613   1.508   5.554  1.3388  1.2717  0.2999
 2727SOL    HW219818   3.638   1.412   5.441 -0.3989 -0.5898  0.8312
 2728SOL     OW19819   1.793   2.986   5.591  0.1227 -0.0448 -0.2975
 2728SOL    HW119820   1.785   3.063   5.535  4.3838 -0.6254 -1.6919
 2728SOL    HW219821   1.863   3.020   5.646  0.0840 -3.4499  1.8894
 2729SOL     OW19822   1.198   0.916   6.975 -0.5780 -0.1344 -0.2103
 2729SOL    HW119823   1.185   0.984   7.042 -0.5312 -0.1227 -0.2130
 2729SOL    HW219824   1.120   0.922   6.919  0.6265  1.2417 -1.7372
 2730SOL     OW19825   1.465   1.640  17.192  0.0526 -0.1909  0.4472
 2730SOL    HW119826   1.401   1.710  17.180  0.1268 -0.3073 -0.5872
 2730SOL    HW219827   1.404   1.581  17.236  0.9215 -2.6489 -1.6552
 2731SOL     OW19828   3.466   1.601   6.461 -0.1036 -0.3898  0.0580
 2731SOL    HW119829   3.548   1.578   6.504  0.1736  0.0353 -0.2459
 2731SOL    HW219830   3.399   1.539   6.490 -0.9500  0.2312 -0.5410
 2732SOL     OW19831   2.575   4.235  17.088 -0.6616  0.2908 -0.4897
 2732SOL    HW119832   2.553   4.166  17.151 -2.0387  1.6341  0.5090
 2732SOL    HW219833   2.505   4.297  17.110  1.4866  3.1662 -1.6946
 2733SOL     OW19834   3.450   3.908   4.989 -0.3699 -0.1564 -0.3839
 2733SOL    HW119835   3.524   3.968   5.002  0.4690 -1.4489  0.8009
 2733SOL    HW219836   3.427   3.877   5.077 -2.2995  0.1707 -0.7735
 2734SOL     OW19837   0.570   1.396   5.193 -0.2132 -0.3434 -0.4404
 2734SOL    HW119838   0.576   1.492   5.198 -0.7952 -0.3514  0.3965
 2734SOL    HW219839   0.474   1.397   5.201 -0.3290 -3.5850 -1.5360
 2735SOL     OW19840   2.734   3.453  12.386  0.1100  0.2855  0.3383
 2735SOL    HW119841   2.722   3.547  12.396  1.7266  0.5340 -0.0247
 2735SOL    HW219842   2.677   3.422  12.317 -0.9842 -2.1862  2.3592
 2736SOL     OW19843   4.314   0.051   2.247 -0.4678  0.0164 -0.9595
 2736SOL    HW119844   4.282   4.727   2.316 -0.0110 -0.2534 -0.9812
 2736SOL    HW219845   4.228   0.062   2.206 -0.8523 -2.5783 -0.8511
 2737SOL     OW19846   3.462   2.205   6.641 -0.0981  0.4111 -0.1345
 2737SOL    HW119847   3.539   2.178   6.691 -1.7018 -2.0746  0.9709
 2737SOL    HW219848   3.421   2.262   6.706  0.4703  0.8690 -0.1735
 2738SOL     OW19849   0.272   3.175   5.512  0.0822 -0.0815 -0.2871
 2738SOL    HW119850   0.246   3.217   5.430  0.8773  0.1019 -0.4465
 2738SOL    HW219851   0.354   3.130   5.492  0.6543  0.5906  0.5334
 2739SOL     OW19852   1.588   1.054   1.982  0.2285 -0.4773 -0.4671
 2739SOL    HW119853   1.646   1.129   1.966  0.1159  0.1173  1.8069
 2739SOL    HW219854   1.624   1.005   1.908 -2.1023 -1.6123 -0.8285
 2740SOL     OW19855   3.917   0.006  17.600  0.1341  0.0212  0.6404
 2740SOL    HW119856   3.918   0.035  17.691 -1.3983 -0.2201  0.7427
 2740SOL    HW219857   4.003   0.042  17.580  0.2134 -0.6215 -0.1569
 2741SOL     OW19858   0.373   2.543   5.455 -0.4606 -0.5880  0.3488
 2741SOL    HW119859   0.455   2.590   5.469 -0.9412  0.5246 -0.6035
 2741SOL    HW219860   0.399   2.496   5.376  0.7736  2.4384 -1.0372
 2742SOL     OW19861   0.954   3.585  15.794 -0.1765  0.6212  0.3896
 2742SOL    HW119862   1.042   3.621  15.792  0.9053 -2.0183  0.5253
 2742SOL    HW219863   0.944   3.548  15.882  1.4854  2.0640  1.1737
 2743SOL     OW19864   1.962   0.165   4.411  0.6038  0.0778  0.0043
 2743SOL    HW119865   2.009   0.101   4.465  0.9867  0.7799  0.5117
 2743SOL    HW219866   2.021   0.241   4.416 -0.7733  1.1784 -0.8656
 2744SOL     OW19867   1.256   3.108   7.648 -0.1792  0.2690 -0.3176
 2744SOL    HW119868   1.213   3.136   7.567 -1.5243  0.3863  0.4259
 2744SOL    HW219869   1.186   3.080   7.708  0.2141  0.5051  0.2504
 2745SOL     OW19870   4.508   2.438   6.355  0.1260 -0.4314  0.0097
 2745SOL    HW119871   4.469   2.515   6.314 -2.0280 -1.5159 -0.0178
 2745SOL    HW219872   4.601   2.460   6.351 -0.1236  1.0001  1.5252
 2746SOL     OW19873   1.519   3.864  16.742 -0.1734  0.1282 -0.1003
 2746SOL    HW119874   1.562   3.918  16.675  0.5049 -1.0237 -0.5976
 2746SOL    HW219875   1.511   3.778  16.701 -0.2132 -0.4915  1.2384
 2747SOL     OW19876   1.346   0.137   5.601 -0.2516 -0.3342  0.3127
 2747SOL    HW119877   1.254   0.114   5.586  0.5963 -2.4100 -1.6269
 2747SOL    HW219878   1.393   0.068   5.554 -0.1816  0.2035 -0.3946
 2748SOL     OW19879   3.300   3.306   4.652 -0.3119  0.0583 -0.0520
 2748SOL    HW119880   3.369   3.316   4.718  0.0093 -0.0325 -0.3702
 2748SOL    HW219881   3.228   3.362   4.681 -2.3025 -0.8766 -3.2264
 2749SOL     OW19882   2.976   2.946   7.022  0.0854 -0.4844  0.5885
 2749SOL    HW119883   3.040   2.915   6.957 -1.8682 -2.4929 -0.4149
 2749SOL    HW219884   3.032   2.934   7.099  0.3804  0.6600  0.5446
 2750SOL     OW19885   3.693   4.463   3.378 -0.3551  0.1781  0.1701
 2750SOL    HW119886   3.637   4.453   3.454 -0.9764 -1.0769 -0.4523
 2750SOL    HW219887   3.759   4.524   3.412 -1.7051  1.8382 -0.1806
 2751SOL     OW19888   1.583   4.443   4.789 -0.2912 -0.4523  0.0382
 2751SOL    HW119889   1.494   4.471   4.811  0.2127  1.7745 -0.7547
 2751SOL    HW219890   1.600   4.419   4.880  0.0898 -0.5250 -0.0560
 2752SOL     OW19891   2.335   2.886  15.319 -0.6098 -0.0006 -0.1864
 2752SOL    HW119892   2.239   2.888  15.318 -0.6049  0.3428  0.8101
 2752SOL    HW219893   2.349   2.793  15.335 -2.2586 -0.0121  1.2063
 2753SOL     OW19894   1.167   1.234  14.546  0.2147 -0.0779  0.4297
 2753SOL    HW119895   1.249   1.277  14.568  0.7410 -1.2601  0.7836
 2753SOL    HW219896   1.182   1.203  14.457  1.0806 -0.0407  0.5625
 2754SOL     OW19897   1.582   1.422   8.301 -0.3088 -0.0023  0.1497
 2754SOL    HW119898   1.546   1.498   8.347  1.5125  1.8718 -1.5427
 2754SOL    HW219899   1.572   1.361   8.373 -1.0196  0.9771  0.8780
 2755SOL     OW19900   2.922   1.047  16.717 -0.0787  0.0547 -0.4244
 2755SOL    HW119901   2.852   1.012  16.772  0.3292 -0.7243 -0.4017
 2755SOL    HW219902   2.950   0.978  16.658 -1.7196  1.1571 -2.4932
 2756SOL     OW19903   2.527   4.438   7.116 -0.8464 -0.4174 -0.2545
 2756SOL    HW119904   2.564   4.433   7.028 -0.2281  0.9528 -0.0638
 2756SOL    HW219905   2.525   4.532   7.131  2.1600 -0.1031 -1.8359
 2757SOL     OW19906   2.188   0.563   6.158 -0.0005 -0.2174  0.1276
 2757SOL    HW119907   2.156   0.536   6.244 -0.3261 -1.7682 -0.4932
 2757SOL    HW219908   2.102   0.581   6.121  0.4880 -0.7933 -1.2876
 2758SOL     OW19909   2.902   3.471   2.605 -0.4096  0.1956  0.1451
 2758SOL    HW119910   2.969   3.439   2.666  0.3603 -1.6534 -1.6658
 2758SOL    HW219911   2.831   3.473   2.669 -1.8191 -0.0351 -1.4229
 2759SOL     OW19912   3.957   3.769   6.332 -0.0858 -0.1773  0.0005
 2759SOL    HW119913   3.885   3.832   6.329 -0.1016 -0.1468  0.9075
 2759SOL    HW219914   3.985   3.783   6.423 -1.2511 -1.1644  0.5117
 2760SOL     OW19915   2.242   2.136  15.209 -0.3981 -0.0212 -0.2572
 2760SOL    HW119916   2.334   2.112  15.193 -1.1098 -0.8796 -2.9370
 2760SOL    HW219917   2.196   2.071  15.156 -0.2112  0.9859 -1.6414
 2761SOL     OW19918   3.771   2.210   7.794 -0.0882 -0.0179 -0.3848
 2761SOL    HW119919   3.715   2.142   7.832 -0.8717  1.0059  0.2921
 2761SOL    HW219920   3.706   2.275   7.765 -1.2299 -1.1309 -0.3506
 2762SOL     OW19921   0.019   1.589   3.499 -0.0824  0.0187 -0.2414
 2762SOL    HW119922   4.703   1.556   3.425  0.4046  0.2691 -0.6887
 2762SOL    HW219923   4.694   1.663   3.513  0.3848  0.6424 -1.5570
 2763SOL     OW19924   0.999   1.824   2.461 -0.0491  0.3624 -0.0329
 2763SOL    HW119925   0.984   1.917   2.476  0.8295  0.5910 -0.5482
 2763SOL    HW219926   0.918   1.807   2.413 -0.5623  0.8859  0.6520
 2764SOL     OW19927   1.366   0.364   4.268  0.7263 -0.7275 -0.3907
 2764SOL    HW119928   1.450   0.357   4.315  1.6193 -1.7324 -2.1354
 2764SOL    HW219929   1.306   0.386   4.340  0.2204  1.6110 -1.5501
 2765SOL     OW19930   4.487   2.810   3.101  0.5885 -0.3239 -0.1394
 2765SOL    HW119931   4.400   2.799   3.061  1.7710  0.4550 -2.8963
 2765SOL    HW219932   4.530   2.880   3.053  0.9532 -0.9678 -0.7465
 2766SOL     OW19933   0.051   4.145   8.590  0.0032  0.6368  0.0337
 2766SOL    HW119934   4.707   4.115   8.545 -1.0348  2.6540  0.4864
 2766SOL    HW219935   0.014   4.219   8.638 -0.5482  1.4815 -1.6752
 2767SOL     OW19936   3.197   1.232   8.662 -0.0866  0.4104  0.0383
 2767SOL    HW119937   3.279   1.250   8.707 -0.5456 -0.9445  1.4283
 2767SOL    HW219938   3.213   1.281   8.582 -1.6347  0.6778 -0.1062
 2768SOL     OW19939   3.169   0.209  16.457  0.0186  0.1365 -0.4914
 2768SOL    HW119940   3.182   0.153  16.534  1.0698 -2.2775 -2.4139
 2768SOL    HW219941   3.095   0.249  16.502  0.1314  2.4141 -2.3577
 2769SOL     OW19942   2.739   4.664   3.714  0.1990 -0.2682 -0.5077
 2769SOL    HW119943   2.698   4.618   3.788 -2.3566  0.7753 -1.2819
 2769SOL    HW219944   2.816   4.607   3.716  0.6439  0.3942  1.0531
 2770SOL     OW19945   1.130   3.113   3.963  0.2270  0.1990  0.3409
 2770SOL    HW119946   1.105   3.167   4.037 -1.1538  0.5673 -0.4092
 2770SOL    HW219947   1.056   3.058   3.939 -0.6417  0.3320  2.7487
 2771SOL     OW19948   0.098   1.391   5.513  0.1232 -0.2831 -0.1449
 2771SOL    HW119949   0.069   1.479   5.488  0.3434 -0.0655  0.3738
 2771SOL    HW219950   0.014   1.345   5.506 -2.0331  3.5967 -0.3476
 2772SOL     OW19951   1.947   1.258   1.833  0.1600 -0.4479 -0.3681
 2772SOL    HW119952   1.936   1.235   1.741 -2.9785 -0.3610  0.0033
 2772SOL    HW219953   1.989   1.343   1.819  0.5304 -0.7821 -1.2800
 2773SOL     OW19954   3.432   2.325   3.340 -0.5740  0.1964 -0.5264
 2773SOL    HW119955   3.507   2.381   3.363 -0.7069  0.2509 -0.2217
 2773SOL    HW219956   3.479   2.245   3.316  0.6583  1.1974 -1.4554
 2774SOL     OW19957   4.293   0.756   5.383 -0.1446  0.2804 -0.4781
 2774SOL    HW119958   4.363   0.692   5.375 -1.3389 -0.9352 -1.3730
 2774SOL    HW219959   4.281   0.789   5.293 -0.5217  1.0993 -0.1278
 2775SOL     OW19960   4.124   0.031  11.979 -0.4318  0.6323  0.6277
 2775SOL    HW119961   4.033   0.016  11.954  0.1146  2.2370 -2.3858
 2775SOL    HW219962   4.116   0.033  12.075  2.2184  0.9672  0.8409
 2776SOL     OW19963   2.453   1.196   8.078 -0.0699  0.4631  0.4950
 2776SOL    HW119964   2.388   1.233   8.018  0.1491 -0.3758 -0.2574
 2776SOL    HW219965   2.465   1.107   8.044 -0.1975  1.0236 -1.0025
 2777SOL     OW19966   2.072   1.058   0.636  0.6732 -0.0686 -0.3001
 2777SOL    HW119967   2.040   1.111   0.563 -0.7975 -0.1438  0.2873
 2777SOL    HW219968   2.043   1.116   0.706  0.2527 -0.6827  0.0330
 2778SOL     OW19969   3.267   3.501   2.581  0.0153  0.2010 -0.0455
 2778SOL    HW119970   3.237   3.412   2.564 -1.8827  1.0680 -1.2010
 2778SOL    HW219971   3.344   3.510   2.526 -0.4644  2.1949 -0.3878
 2779SOL     OW19972   0.345   0.763   4.721 -0.4582  0.0850  0.2091
 2779SOL    HW119973   0.412   0.711   4.765  0.0330  0.5035 -0.0441
 2779SOL    HW219974   0.386   0.816   4.653  1.6390 -0.4172  1.0919
 2780SOL     OW19975   4.172   0.456   5.412 -0.1418 -0.0788  1.0061
 2780SOL    HW119976   4.206   0.545   5.419 -3.0123  1.1043 -0.0197
 2780SOL    HW219977   4.164   0.437   5.318  1.1572  1.2985  0.6234
 2781SOL     OW19978   2.269   1.559   7.608  0.0643  0.7603 -0.6950
 2781SOL    HW119979   2.267   1.464   7.614  1.0373  0.7788 -0.0689
 2781SOL    HW219980   2.252   1.583   7.699 -3.9017  2.0336 -1.7896
 2782SOL     OW19981   0.518   0.881   2.687 -0.0530 -0.2136 -0.2273
 2782SOL    HW119982   0.462   0.958   2.699 -0.7330 -0.8956  1.0182
 2782SOL    HW219983   0.604   0.921   2.695 -0.4544  0.8470 -1.2137
 2783SOL     OW19984   3.656   3.152   7.535  0.2958  0.1051 -0.3622
 2783SOL    HW119985   3.654   3.091   7.461 -0.1492  0.3387 -0.5403
 2783SOL    HW219986   3.587   3.111   7.589 -0.7453  1.3917 -0.7255
 2784SOL     OW19987   4.247   3.173   6.368  0.0092  0.1042  0.4826
 2784SOL    HW119988   4.323   3.229   6.381 -0.3645  0.6646  0.2837
 2784SOL    HW219989   4.279   3.099   6.420 -3.8545 -0.9753  1.3033
 2785SOL     OW19990   1.057   0.165  16.070  0.1180 -0.0266 -0.2304
 2785SOL    HW119991   1.050   0.258  16.092  0.1042  0.2521 -1.3675
 2785SOL    HW219992   1.086   0.174  15.979  0.8093  0.4431  0.0309
 2786SOL     OW19993   1.724   1.156   3.644 -0.4374  0.3084 -0.0113
 2786SOL    HW119994   1.798   1.114   3.689  0.4995  3.1777  1.0835
 2786SOL    HW219995   1.743   1.125   3.556  0.8221 -2.1092  1.1097
 2787SOL     OW19996   4.020   1.771  16.747  0.7454 -0.1253 -0.5206
 2787SOL    HW119997   4.070   1.824  16.685  2.3989 -0.8753  0.1619
 2787SOL    HW219998   3.948   1.735  16.695 -1.0520  1.1283  1.1378
 2788SOL     OW19999   4.153   0.803   4.095 -0.4007 -0.2076 -0.4514
 2788SOL    HW120000   4.086   0.769   4.154 -0.5501  0.8471 -0.0114
 2788SOL    HW220001   4.220   0.736   4.082  1.4732  1.8766 -1.4139
 2789SOL     OW20002   3.469   2.592   4.006 -0.1722 -0.3942 -0.0804
 2789SOL    HW120003   3.395   2.645   3.973  0.2682  0.0975 -0.2809
 2789SOL    HW220004   3.431   2.506   3.987  2.5967 -1.2621 -1.5697
 2790SOL     OW20005   3.238   0.241   9.428  0.1635 -0.3987  0.5697
 2790SOL    HW120006   3.307   0.177   9.411 -0.0197 -0.5856  0.5167
 2790SOL    HW220007   3.188   0.221   9.349  1.0502 -0.6686  0.0838
 2791SOL     OW20008   0.243   3.550   5.756 -0.0131  0.5083  0.7957
 2791SOL    HW120009   0.202   3.510   5.680  0.4824  1.6376 -0.0587
 2791SOL    HW220010   0.274   3.627   5.709 -2.1085  0.5053 -0.5903
 2792SOL     OW20011   4.630   3.981   0.125 -0.3682  0.1801  0.0973
 2792SOL    HW120012   4.724   3.978   0.143 -0.8584 -1.5425  2.4520
 2792SOL    HW220013   4.603   4.028   0.204  0.7537 -2.4457  2.0479
 2793SOL     OW20014   1.739   4.291  15.426  0.0551 -0.1620 -0.0415
 2793SOL    HW120015   1.768   4.314  15.338  1.4272  1.1349  0.7483
 2793SOL    HW220016   1.813   4.318  15.480 -0.2075 -0.0873  0.2800
 2794SOL     OW20017   2.914   3.313  11.915 -0.2117  0.4761  0.1600
 2794SOL    HW120018   2.924   3.394  11.864  1.1537  2.2777  3.2751
 2794SOL    HW220019   2.995   3.304  11.965 -1.0491  3.4677  2.1051
 2795SOL     OW20020   0.167   1.017   7.082 -0.2249  0.4017  0.0657
 2795SOL    HW120021   0.172   1.032   7.176 -1.5104  0.3865  0.1393
 2795SOL    HW220022   0.142   1.102   7.046 -0.0833  1.1313  1.6876
 2796SOL     OW20023   2.881   0.089   2.336 -0.8329 -0.1383  0.8878
 2796SOL    HW120024   2.842   0.010   2.299  0.8912  0.4857 -2.3240
 2796SOL    HW220025   2.844   0.143   2.266 -1.5621 -1.4595  0.2553
 2797SOL     OW20026   1.772   0.938  12.787  0.0511  0.5111 -0.1316
 2797SOL    HW120027   1.731   0.887  12.717 -0.0356 -2.7352  2.2854
 2797SOL    HW220028   1.829   0.868  12.819 -0.8803  0.0627  0.5415
 2798SOL     OW20029   1.974   0.050   8.226  0.1137  0.1128  0.6072
 2798SOL    HW120030   1.995   0.130   8.274 -0.7839  1.0550 -0.5723
 2798SOL    HW220031   1.936   4.721   8.286  0.5364 -0.9822 -0.3149
 2799SOL     OW20032   1.127   3.666   7.122 -0.3003  0.5125 -0.8480
 2799SOL    HW120033   1.204   3.679   7.067  0.6156  0.5145  0.4625
 2799SOL    HW220034   1.106   3.754   7.153  1.8198  0.9042 -0.5406
 2800SOL     OW20035   1.972   1.976   6.444 -0.5633 -0.1033  0.1677
 2800SOL    HW120036   1.926   1.956   6.525  1.7833 -1.9196  1.0348
 2800SOL    HW220037   1.927   2.056   6.416 -3.7172 -1.5854  1.0362
 2801SOL     OW20038   1.659   0.718  10.897 -0.0205 -0.0023  0.0178
 2801SOL    HW120039   1.747   0.752  10.878  0.2923 -1.5568 -1.2949
 2801SOL    HW220040   1.667   0.623  10.891  1.2089  0.2142 -2.0846
 2802SOL     OW20041   1.392   1.200   7.306  0.0777 -0.0224 -0.2361
 2802SOL    HW120042   1.356   1.278   7.264 -2.1508 -1.3080 -0.7438
 2802SOL    HW220043   1.481   1.201   7.273  0.7954  0.9708  1.7253
 2803SOL     OW20044   3.300   3.061   9.289 -0.6124  0.7998  0.0274
 2803SOL    HW120045   3.239   3.048   9.361 -0.6892  0.7280 -0.0493
 2803SOL    HW220046   3.280   3.153   9.270 -0.3084  0.9685  0.5464
 2804SOL     OW20047   1.771   2.308   5.727 -0.4197  0.5423 -0.6960
 2804SOL    HW120048   1.779   2.213   5.728  0.0887  0.5797 -0.6957
 2804SOL    HW220049   1.724   2.316   5.810  1.5738 -1.2322  0.6301
 2805SOL     OW20050   2.355   1.653   8.092 -0.7516 -0.1559 -0.4497
 2805SOL    HW120051   2.338   1.676   8.183  0.0549  1.8790 -0.8281
 2805SOL    HW220052   2.412   1.724   8.063 -0.1872 -0.6980 -0.6911
 2806SOL     OW20053   0.163   3.337   2.939  0.8087  0.3859 -0.2835
 2806SOL    HW120054   0.243   3.307   2.896  1.4164 -0.3397  1.3478
 2806SOL    HW220055   0.121   3.386   2.868 -1.7989  1.5760  2.0973
 2807SOL     OW20056   2.548   0.119   5.531 -0.2297 -0.1214 -0.0933
 2807SOL    HW120057   2.459   0.085   5.538 -0.0716 -0.1517  1.9032
 2807SOL    HW220058   2.550   0.181   5.605 -1.4767 -2.0048  1.5157
 2808SOL     OW20059   2.237   4.127   8.737  0.2403  0.0286 -0.0849
 2808SOL    HW120060   2.210   4.214   8.709 -1.4738  0.0931  1.7620
 2808SOL    HW220061   2.154   4.082   8.719  0.0463  0.1783  0.4352
 2809SOL     OW20062   0.442   0.566   8.537  0.1583 -0.1709  0.3609
 2809SOL    HW120063   0.409   0.539   8.623  1.3973  0.7944  1.1255
 2809SOL    HW220064   0.529   0.588   8.570  0.3615  3.2607 -2.5595
 2810SOL     OW20065   2.139   0.289   8.542 -0.3596  0.5384 -0.6069
 2810SOL    HW120066   2.054   0.261   8.577  1.5121  0.9211  4.2315
 2810SOL    HW220067   2.160   0.348   8.615  4.4979 -1.8619 -0.0880
 2811SOL     OW20068   3.349   1.768  14.359 -0.2005 -0.1375 -0.3792
 2811SOL    HW120069   3.281   1.767  14.292 -0.6177  1.0430  0.0310
 2811SOL    HW220070   3.420   1.709  14.333 -1.1164 -0.7368 -1.5107
 2812SOL     OW20071   4.451   4.624   5.327  0.5469 -0.0495 -0.1282
 2812SOL    HW120072   4.521   4.688   5.345 -1.5457  1.6211  1.9613
 2812SOL    HW220073   4.377   4.683   5.312 -1.0077 -1.8635  0.4380
 2813SOL     OW20074   1.035   1.509   3.981 -0.1954  0.1726  0.0167
 2813SOL    HW120075   1.026   1.460   4.063 -0.7559  1.1838  0.5634
 2813SOL    HW220076   0.979   1.465   3.918  0.0205  1.5193 -1.0975
 2814SOL     OW20077   4.134   4.291  12.022  0.1969 -0.7937  0.1267
 2814SOL    HW120078   4.065   4.227  12.007  1.0372 -1.3760 -1.2418
 2814SOL    HW220079   4.201   4.238  12.066  1.0704  1.2234  1.2428
 2815SOL     OW20080   3.001   3.872   6.416  0.7895  0.0630 -0.2155
 2815SOL    HW120081   2.966   3.790   6.450  0.6338  0.7229  1.2111
 2815SOL    HW220082   3.072   3.896   6.475  1.9100 -1.0816 -1.0932
 2816SOL     OW20083   4.493   3.596   6.981  0.5996 -0.5842 -0.1806
 2816SOL    HW120084   4.421   3.575   6.923  0.9653  0.8223 -1.1346
 2816SOL    HW220085   4.526   3.674   6.937  0.6188  0.9434  2.4947
 2817SOL     OW20086   2.311   4.500  16.809  0.3717 -0.7730  0.0397
 2817SOL    HW120087   2.342   4.590  16.801 -1.0786 -0.3075 -0.3466
 2817SOL    HW220088   2.353   4.460  16.733  2.0406  2.9898 -1.0202
 2818SOL     OW20089   0.011   4.379   4.014  0.1007  0.4967  0.4215
 2818SOL    HW120090   4.691   4.332   3.953 -0.6422  0.1514  1.3617
 2818SOL    HW220091   0.070   4.417   3.949 -0.9920  0.9376 -0.2899
 2819SOL     OW20092   0.705   0.987   3.523 -0.5153  0.1229  0.2649
 2819SOL    HW120093   0.679   0.895   3.525 -0.2492  0.0575  0.7985
 2819SOL    HW220094   0.801   0.987   3.530 -0.5389  2.7237  0.5759
 2820SOL     OW20095   2.660   3.742   2.892 -0.0567  0.1283  0.0007
 2820SOL    HW120096   2.741   3.696   2.913 -0.6909 -1.0443 -0.0955
 2820SOL    HW220097   2.590   3.676   2.898  1.1534 -1.2022 -0.5721
 2821SOL     OW20098   0.140   0.893   2.743 -0.7200 -0.3785  0.2980
 2821SOL    HW120099   0.091   0.812   2.729 -3.7866  2.0136 -2.8177
 2821SOL    HW220100   0.187   0.910   2.661 -2.2288  3.1462  0.1819
 2822SOL     OW20101   1.675   0.654  15.901 -0.2758 -0.1210  0.2561
 2822SOL    HW120102   1.601   0.715  15.907 -0.4541 -0.2701 -0.4551
 2822SOL    HW220103   1.732   0.685  15.971  0.4476 -2.2402  0.5899
 2823SOL     OW20104   2.082   4.644   1.701 -0.1438 -0.0738  0.5022
 2823SOL    HW120105   2.086   0.003   1.720 -0.3629 -0.3677  1.9920
 2823SOL    HW220106   2.018   4.644   1.630  0.0680 -0.4603  0.3152
 2824SOL     OW20107   3.667   4.046  11.725  0.0248  0.2481 -0.4867
 2824SOL    HW120108   3.714   4.129  11.716 -0.0493  0.3034 -0.3694
 2824SOL    HW220109   3.643   4.051  11.818  0.3939  0.8766 -0.4277
 2825SOL     OW20110   4.281   2.104  16.946  0.2264 -0.7344 -0.1436
 2825SOL    HW120111   4.268   2.009  16.949 -1.3906 -0.5270 -0.8609
 2825SOL    HW220112   4.319   2.119  16.860 -1.0418  0.1520 -0.5497
 2826SOL     OW20113   2.941   2.427   9.807  0.2169 -0.1395  0.2790
 2826SOL    HW120114   2.982   2.499   9.856  0.1070  0.2210 -0.1594
 2826SOL    HW220115   2.852   2.461   9.807  0.5975  0.9145  2.5146
 2827SOL     OW20116   4.364   1.401   7.745 -0.7795 -0.2393  0.3508
 2827SOL    HW120117   4.431   1.453   7.791 -1.2836 -0.3497  1.2143
 2827SOL    HW220118   4.319   1.474   7.703 -0.1382  0.0404  0.1432
 2828SOL     OW20119   3.768   1.496   2.006 -0.5802 -0.1039  0.5565
 2828SOL    HW120120   3.829   1.517   1.935 -0.0455 -0.6714  0.8519
 2828SOL    HW220121   3.687   1.533   1.970  0.3488  0.2322 -1.1792
 2829SOL     OW20122   4.190   4.038   3.524 -0.3432 -0.1648  0.0642
 2829SOL    HW120123   4.174   3.944   3.514  1.2795 -0.4675  0.3624
 2829SOL    HW220124   4.284   4.041   3.504 -0.2596  0.2728  0.5166
 2830SOL     OW20125   1.252   3.569   5.934  0.0346 -0.2387 -0.2234
 2830SOL    HW120126   1.194   3.523   5.873 -0.5838 -0.5452  0.5930
 2830SOL    HW220127   1.199   3.558   6.013 -0.1030 -1.6471 -0.4985
 2831SOL     OW20128   3.060   0.050  12.367  0.0647 -0.3085 -0.3292
 2831SOL    HW120129   3.120   4.731  12.315 -1.8358 -2.1181 -0.6117
 2831SOL    HW220130   3.120   0.111  12.411  0.0150 -0.7390  0.3406
 2832SOL     OW20131   3.949   0.491   5.257  0.2243 -0.6472 -0.1721
 2832SOL    HW120132   3.943   0.574   5.304 -1.1168 -0.2776 -1.0037
 2832SOL    HW220133   3.882   0.438   5.300  0.2247  0.6008  1.3410
 2833SOL     OW20134   4.518   2.961   7.188  0.2990  0.0437 -0.2118
 2833SOL    HW120135   4.503   2.996   7.101  2.5502  3.0105  0.5796
 2833SOL    HW220136   4.613   2.973   7.183  0.2669  0.1835 -0.4956
 2834SOL     OW20137   2.375   1.720   4.730  0.6422  0.0790  0.3287
 2834SOL    HW120138   2.343   1.668   4.804  0.6005  2.0052  1.6721
 2834SOL    HW220139   2.428   1.786   4.776 -0.0087  1.0551 -0.3245
 2835SOL     OW20140   0.764   0.627  14.037  0.4352  0.3263  0.1758
 2835SOL    HW120141   0.809   0.559  14.087  0.1708  0.7378  0.9771
 2835SOL    HW220142   0.671   0.606  14.045  0.2110  1.5689  0.7570
 2836SOL     OW20143   0.843   4.068  16.760 -0.0417  0.1397  0.3964
 2836SOL    HW120144   0.780   4.115  16.815 -1.1399 -1.6977  0.7392
 2836SOL    HW220145   0.792   4.009  16.704 -0.5466  0.8785  0.0807
 2837SOL     OW20146   0.071   1.882   7.584  0.5102  0.7001  0.1138
 2837SOL    HW120147   0.146   1.923   7.627  0.1392 -0.8004  2.2196
 2837SOL    HW220148   0.044   1.947   7.520  0.8491 -0.2194 -0.9469
 2838SOL     OW20149   1.449   2.550   5.743  0.2406  0.0099  0.0852
 2838SOL    HW120150   1.469   2.534   5.835  0.3370 -0.2079  0.0269
 2838SOL    HW220151   1.499   2.631   5.731 -1.6162  0.9233 -1.4294
 2839SOL     OW20152   3.003   3.767   3.494 -0.1474 -0.1830  0.0003
 2839SOL    HW120153   3.056   3.809   3.562  1.3299 -1.0289 -0.6357
 2839SOL    HW220154   2.924   3.822   3.498 -0.1788 -0.1605 -1.0068
 2840SOL     OW20155   2.009   1.746   3.372  0.0674 -0.0229 -0.1790
 2840SOL    HW120156   2.099   1.773   3.389 -0.6456  1.6455  0.9625
 2840SOL    HW220157   1.977   1.816   3.316 -0.2025 -0.6662 -0.8219
 2841SOL     OW20158   2.546   0.650   7.741 -0.2256 -0.7242  0.0871
 2841SOL    HW120159   2.624   0.594   7.747  1.9795  2.1500 -1.5119
 2841SOL    HW220160   2.484   0.579   7.725 -0.9582  0.0899 -0.6872
 2842SOL     OW20161   3.930   3.390   3.485 -0.8368  0.6839 -0.1295
 2842SOL    HW120162   3.964   3.475   3.514  2.2715 -0.9293  1.0685
 2842SOL    HW220163   3.998   3.357   3.426 -0.1399 -2.0075  2.1370
 2843SOL     OW20164   3.422   2.912   2.360  0.0694  0.7743  0.2986
 2843SOL    HW120165   3.439   2.859   2.438 -1.1855 -0.5953 -0.3551
 2843SOL    HW220166   3.335   2.946   2.381  0.9748  2.8930  0.6285
 2844SOL     OW20167   1.367   3.617   3.235 -0.3323 -0.2095  0.1511
 2844SOL    HW120168   1.388   3.608   3.142 -2.0677  1.7075 -0.4330
 2844SOL    HW220169   1.289   3.562   3.244 -1.3466  1.2515  0.4056
 2845SOL     OW20170   2.088   3.996  11.613 -0.1976  0.2370 -0.0885
 2845SOL    HW120171   2.124   3.909  11.631 -1.0874 -0.1486 -0.1697
 2845SOL    HW220172   2.163   4.047  11.643 -1.6606  2.5050 -0.2267
 2846SOL     OW20173   2.043   0.555  13.418  0.3279  0.2311  0.0505
 2846SOL    HW120174   2.118   0.586  13.366 -0.0633  1.6905  0.3799
 2846SOL    HW220175   1.986   0.631  13.423  1.5634  1.3595 -2.5030
 2847SOL     OW20176   1.070   3.879   6.309 -0.1885 -0.1594 -0.1309
 2847SOL    HW120177   1.149   3.856   6.358  0.9520  1.6920 -1.1212
 2847SOL    HW220178   1.098   3.932   6.234 -0.6928 -0.2977 -0.4196
 2848SOL     OW20179   2.154   0.981   7.983  0.1971 -0.7668  0.1078
 2848SOL    HW120180   2.223   0.938   8.034 -0.6495 -3.0245 -0.6394
 2848SOL    HW220181   2.075   0.977   8.037  0.9302  1.4192  1.3510
 2849SOL     OW20182   0.246   4.585  16.820 -1.0362  0.1220  0.3379
 2849SOL    HW120183   0.266   4.650  16.752 -1.2350 -0.9969 -0.7970
 2849SOL    HW220184   0.151   4.597  16.823 -0.9263  1.2225 -0.5850
 2850SOL     OW20185   3.925   4.514   8.897 -0.3327  0.5623  0.0883
 2850SOL    HW120186   3.874   4.589   8.867  0.8760  0.0223 -3.3794
 2850SOL    HW220187   3.857   4.470   8.947  0.9890 -0.9509  0.5853
 2851SOL     OW20188   1.998   1.744  14.630  0.0238 -0.6339  0.0125
 2851SOL    HW120189   1.959   1.756  14.544  2.0444  1.4645 -0.6403
 2851SOL    HW220190   2.025   1.652  14.625 -0.7052 -0.9236  1.5037
 2852SOL     OW20191   2.864   1.417   2.400  0.1140 -0.6573  0.1480
 2852SOL    HW120192   2.831   1.343   2.350 -1.4919  0.1871 -0.0397
 2852SOL    HW220193   2.953   1.391   2.423  0.8833  0.4576 -1.5884
 2853SOL     OW20194   4.081   2.372   8.964  0.4610  0.0808  0.4912
 2853SOL    HW120195   4.102   2.456   9.005  2.0336 -0.7433  1.3779
 2853SOL    HW220196   4.002   2.395   8.915  1.2139  1.0223 -0.2863
 2854SOL     OW20197   1.684   3.820   1.284  0.3431  0.2972  0.0384
 2854SOL    HW120198   1.639   3.783   1.209  0.3143 -0.5467  0.4802
 2854SOL    HW220199   1.635   3.902   1.277  0.1076  0.1563  0.0471
 2855SOL     OW20200   2.129   4.588   1.986  0.2190  0.1709  0.1699
 2855SOL    HW120201   2.050   4.636   2.009  1.2028  1.8556  0.0647
 2855SOL    HW220202   2.131   4.608   1.893 -1.2788 -1.7851 -0.2583
 2856SOL     OW20203   3.411   0.580   3.165  0.1357  0.1407  0.0047
 2856SOL    HW120204   3.385   0.488   3.168  0.3156  0.1606  2.0413
 2856SOL    HW220205   3.325   0.621   3.152 -0.5696 -0.4713  2.9915
 2857SOL     OW20206   1.315   1.845   7.130  0.8956  0.2899  0.2673
 2857SOL    HW120207   1.374   1.857   7.056  1.0622  0.6197  0.4545
 2857SOL    HW220208   1.358   1.890   7.202  2.2768 -1.5864  0.6307
 2858SOL     OW20209   2.996   3.867   4.997 -0.5114  0.2657  0.0728
 2858SOL    HW120210   2.939   3.941   5.020  0.3198  0.6611  0.8920
 2858SOL    HW220211   3.073   3.909   4.958 -1.0162 -0.8165 -2.0350
 2859SOL     OW20212   3.762   1.671   7.136 -0.0894 -0.0453  0.1646
 2859SOL    HW120213   3.743   1.654   7.229 -1.2065 -0.7745 -0.2074
 2859SOL    HW220214   3.675   1.677   7.097  0.6945  1.7812 -1.2858
 2860SOL     OW20215   3.036   3.484   2.293 -0.2292 -0.4540 -0.0691
 2860SOL    HW120216   2.944   3.501   2.274  0.5559  1.2030 -2.3869
 2860SOL    HW220217   3.025   3.410   2.353 -1.3840 -0.6707 -0.5438
 2861SOL     OW20218   2.993   2.780   5.953  0.8235  0.1204 -0.8040
 2861SOL    HW120219   3.008   2.822   6.038  0.3656 -1.5237  0.0893
 2861SOL    HW220220   2.965   2.693   5.982 -0.2799  0.8532  0.3136
 2862SOL     OW20221   3.740   3.434   4.361  0.1944 -0.6839 -0.3440
 2862SOL    HW120222   3.788   3.515   4.374  0.1964 -0.5694 -1.0501
 2862SOL    HW220223   3.800   3.384   4.305  2.2088 -0.4885  1.6733
 2863SOL     OW20224   3.321   0.512   5.749 -0.4015  0.1148 -0.4826
 2863SOL    HW120225   3.357   0.439   5.799  0.5186  0.4545 -0.6516
 2863SOL    HW220226   3.377   0.583   5.781 -0.1274  0.6741 -2.1696
 2864SOL     OW20227   2.830   1.632   3.454 -0.2639 -0.0955  0.2157
 2864SOL    HW120228   2.875   1.576   3.517 -0.8059  1.0013  1.5613
 2864SOL    HW220229   2.756   1.659   3.508 -1.0039  1.8276 -1.7452
 2865SOL     OW20230   0.444   3.523  15.490 -0.8094 -0.5083  0.4855
 2865SOL    HW120231   0.349   3.519  15.497 -0.8197 -0.1912  0.5012
 2865SOL    HW220232   0.463   3.581  15.563  1.1971 -2.4130  1.4711
 2866SOL     OW20233   4.697   2.815  15.937  0.5052  0.1784  0.1723
 2866SOL    HW120234   4.692   2.909  15.919  3.4351  0.2378 -0.4025
 2866SOL    HW220235   0.057   2.812  15.929  0.1257 -2.5022 -3.9525
 2867SOL     OW20236   2.875   3.141   7.207  0.1472  0.1782 -0.1965
 2867SOL    HW120237   2.904   3.099   7.126  0.1023  1.0381 -0.6611
 2867SOL    HW220238   2.841   3.064   7.251 -0.2388  0.5485  0.1523
 2868SOL     OW20239   1.579   4.413   5.640 -0.2686  0.4065  1.0201
 2868SOL    HW120240   1.545   4.493   5.600 -1.2095  0.3784  1.7771
 2868SOL    HW220241   1.499   4.362   5.652 -0.0744 -0.6380 -2.0223
 2869SOL     OW20242   4.689   0.417  17.041 -0.3175 -0.0264 -0.0315
 2869SOL    HW120243   4.634   0.421  17.119 -1.0270  0.0441 -0.5296
 2869SOL    HW220244   4.630   0.393  16.969 -2.9989  0.7606  1.9016
 2870SOL     OW20245   1.060   3.167   3.124 -0.1484 -0.6950  0.0683
 2870SOL    HW120246   0.990   3.162   3.189 -1.6417 -0.4013 -1.5161
 2870SOL    HW220247   1.010   3.153   3.043 -0.6070 -1.3142  0.4623
 2871SOL     OW20248   0.677   3.596  15.679  0.4625  0.1794  0.1379
 2871SOL    HW120249   0.725   3.600  15.596  0.6161  0.1804  0.2262
 2871SOL    HW220250   0.750   3.592  15.741  1.9176 -0.7720 -1.6266
 2872SOL     OW20251   1.445   4.055   8.088  0.3597 -0.5323  0.7655
 2872SOL    HW120252   1.359   4.078   8.123  1.4125  0.3863  2.7947
 2872SOL    HW220253   1.465   3.970   8.128  0.0384 -1.1196 -0.3292
 2873SOL     OW20254   1.110   4.070  17.090  0.3501 -0.5170  0.0166
 2873SOL    HW120255   1.045   4.008  17.123 -0.2726  0.8696  1.4046
 2873SOL    HW220256   1.174   4.006  17.059  0.3453  0.0011 -1.0720
 2874SOL     OW20257   3.022   1.082   5.180 -0.3820  0.1863  0.0077
 2874SOL    HW120258   3.096   1.139   5.162 -2.7180  2.4027 -2.6715
 2874SOL    HW220259   2.953   1.148   5.181 -0.7390 -0.1625 -1.4442
 2875SOL     OW20260   3.517   0.646   3.790 -0.1007  0.5611 -0.3553
 2875SOL    HW120261   3.427   0.641   3.760 -0.3852 -0.6112  0.6753
 2875SOL    HW220262   3.560   0.607   3.713  0.6491 -1.0217  0.8635
 2876SOL     OW20263   0.763   3.298  12.343  0.4511 -0.1382 -0.2694
 2876SOL    HW120264   0.785   3.250  12.263  1.5702  1.2079 -0.7766
 2876SOL    HW220265   0.675   3.267  12.363  0.3742  1.3390  1.6961
 2877SOL     OW20266   3.555   1.938   6.174 -0.1185  0.5382 -0.5210
 2877SOL    HW120267   3.629   1.896   6.219 -2.2476  0.2126  2.6941
 2877SOL    HW220268   3.530   2.008   6.235  0.8955  0.8603 -0.4799
 2878SOL     OW20269   3.071   0.195  12.083 -0.0550 -0.4845 -0.1320
 2878SOL    HW120270   3.109   0.281  12.065 -1.3412  0.5516  2.1548
 2878SOL    HW220271   3.142   0.141  12.118 -2.0886 -2.7801  0.4405
 2879SOL     OW20272   2.717   2.847   4.421 -0.2932 -0.0749  0.2278
 2879SOL    HW120273   2.640   2.863   4.367  0.7633 -0.1168 -1.2863
 2879SOL    HW220274   2.722   2.931   4.467 -1.3789 -0.7652  1.5941
 2880SOL     OW20275   0.456   1.545  12.250  0.0265  0.1150 -0.1268
 2880SOL    HW120276   0.429   1.503  12.169  1.5719 -0.7046 -0.2177
 2880SOL    HW220277   0.522   1.481  12.275 -2.1213 -1.0469  2.4930
 2881SOL     OW20278   4.372   2.678   4.378 -0.4997 -0.3342 -1.0234
 2881SOL    HW120279   4.396   2.767   4.355 -2.5006  0.1931 -1.1044
 2881SOL    HW220280   4.361   2.694   4.471  3.3778 -0.6734 -0.5056
 2882SOL     OW20281   3.090   4.175   9.096  0.1343 -0.3363 -0.1567
 2882SOL    HW120282   3.127   4.115   9.032  2.9652 -0.3356  1.5027
 2882SOL    HW220283   3.104   4.133   9.181  1.2745 -1.2214 -0.7810
 2883SOL     OW20284   2.460   3.127   3.238 -0.0576  0.2160  0.0857
 2883SOL    HW120285   2.532   3.170   3.285 -0.9711  1.6820  0.1299
 2883SOL    HW220286   2.386   3.186   3.251  0.1347  0.3191  0.7098
 2884SOL     OW20287   0.991   3.264  15.853  0.1033 -0.0342  0.0878
 2884SOL    HW120288   1.071   3.317  15.857  0.1111 -0.1051  0.8214
 2884SOL    HW220289   0.980   3.254  15.759 -1.3050 -0.0797  0.2643
 2885SOL     OW20290   4.668   0.450   8.203  0.3160 -0.2476 -0.8782
 2885SOL    HW120291   4.714   0.484   8.280 -0.8754  0.2752 -0.3940
 2885SOL    HW220292   4.730   0.396   8.155 -0.9013 -3.3954  1.1237
 2886SOL     OW20293   1.948   1.009   3.737 -0.1169  0.4319 -0.8723
 2886SOL    HW120294   1.978   0.929   3.693  1.1779  0.4978 -0.0967
 2886SOL    HW220295   2.022   1.066   3.718 -0.2747  1.2101  0.8922
 2887SOL     OW20296   1.675   0.894  11.248 -0.1749 -0.0020  0.1294
 2887SOL    HW120297   1.657   0.827  11.313  1.4028  2.6616  3.3729
 2887SOL    HW220298   1.672   0.845  11.166 -0.0292  0.6536 -0.2757
 2888SOL     OW20299   4.601   0.699   7.632  0.0306  0.3804 -0.0952
 2888SOL    HW120300   4.598   0.721   7.725  1.7224  0.0463  0.0408
 2888SOL    HW220301   4.507   0.703   7.614  0.6461  1.8258 -3.0759
 2889SOL     OW20302   2.193   3.237  12.169  0.4983 -0.2133 -0.7599
 2889SOL    HW120303   2.251   3.246  12.094 -1.4760  1.0596 -2.1386
 2889SOL    HW220304   2.186   3.144  12.188 -0.2794 -0.1046 -0.5098
 2890SOL     OW20305   0.325   1.392   6.483  0.0252  0.0827 -0.2460
 2890SOL    HW120306   0.286   1.478   6.494 -0.1112 -0.1692  1.2758
 2890SOL    HW220307   0.286   1.376   6.397 -1.8382 -0.5469  0.7100
 2891SOL     OW20308   2.300   0.896   1.882 -1.0634 -0.3071  0.5026
 2891SOL    HW120309   2.237   0.927   1.817  0.9227  2.7466  0.0442
 2891SOL    HW220310   2.263   0.933   1.962 -1.7651  1.2914 -0.5645
 2892SOL     OW20311   4.333   4.025   2.341 -0.1094  0.1801  0.0442
 2892SOL    HW120312   4.398   4.061   2.402 -0.9977  0.8995  0.5655
 2892SOL    HW220313   4.255   4.046   2.393 -0.7837 -3.4746  0.4930
 2893SOL     OW20314   1.729   0.011   1.344 -0.6354 -0.0382  0.7084
 2893SOL    HW120315   1.706   4.719   1.256  1.8489 -1.0323  0.3787
 2893SOL    HW220316   1.642   0.022   1.383 -0.0709  1.8291  1.4440
 2894SOL     OW20317   2.818   3.259  14.095 -0.0863  0.3274  0.2931
 2894SOL    HW120318   2.736   3.212  14.113  0.3528  0.0555  1.6205
 2894SOL    HW220319   2.851   3.265  14.185 -2.2882 -1.4110  1.2351
 2895SOL     OW20320   4.509   3.136  17.469  0.2206 -0.2730 -0.0175
 2895SOL    HW120321   4.457   3.102  17.542  1.9352  0.6906  1.6376
 2895SOL    HW220322   4.474   3.079  17.400 -3.6733  0.8655  1.0004
 2896SOL     OW20323   4.666   2.406   2.011  0.2384  0.6920 -0.6750
 2896SOL    HW120324   0.013   2.357   2.015 -0.6638 -0.7344  0.2254
 2896SOL    HW220325   4.622   2.343   1.953  0.6148 -2.7952  2.8527
 2897SOL     OW20326   2.340   0.236   2.012 -0.4654  0.0583  0.1307
 2897SOL    HW120327   2.356   0.243   1.917 -1.1456 -1.1518 -0.0717
 2897SOL    HW220328   2.286   0.313   2.030 -3.5416 -2.0720 -0.0074
 2898SOL     OW20329   3.980   2.243   7.618 -0.5921  0.0128  0.0716
 2898SOL    HW120330   4.019   2.328   7.639  0.9467 -0.7911  0.4163
 2898SOL    HW220331   3.910   2.235   7.682 -0.3475  2.0177  0.6022
 2899SOL     OW20332   0.847   3.111   2.958  0.3483  0.6128 -0.6993
 2899SOL    HW120333   0.776   3.150   3.009  0.5870  0.9662 -0.6398
 2899SOL    HW220334   0.823   3.019   2.950 -1.1565  1.1713 -2.5721
 2900SOL     OW20335   3.433   3.455   8.943  0.0532  0.0734 -0.0003
 2900SOL    HW120336   3.505   3.394   8.961  2.2870  2.1533 -1.8909
 2900SOL    HW220337   3.441   3.515   9.017  2.0785 -0.1000 -0.0809
 2901SOL     OW20338   1.576   0.977   3.023  0.0684  0.7713 -0.3315
 2901SOL    HW120339   1.605   0.893   2.988 -2.2355  0.2435 -0.9690
 2901SOL    HW220340   1.489   0.978   2.985  0.0364  1.0830 -0.2529
 2902SOL     OW20341   0.915   1.450   2.678 -0.5934 -0.3130 -0.0311
 2902SOL    HW120342   0.889   1.474   2.589  0.9420 -2.3330 -1.0269
 2902SOL    HW220343   0.984   1.517   2.685 -0.8157  0.1530 -2.0761
 2903SOL     OW20344   1.408   2.176  14.161  0.4018  0.5144  0.1160
 2903SOL    HW120345   1.380   2.113  14.228  0.1980 -1.0305 -1.4144
 2903SOL    HW220346   1.345   2.162  14.091  1.3353  1.1447 -0.8390
 2904SOL     OW20347   0.596   3.550   2.626 -0.9335  0.2275  0.1595
 2904SOL    HW120348   0.639   3.634   2.611 -1.7865  0.5000 -0.7319
 2904SOL    HW220349   0.526   3.572   2.688 -1.0958 -3.2342  1.2378
 2905SOL     OW20350   1.161   3.486   4.599  0.0519 -0.4766 -0.4738
 2905SOL    HW120351   1.182   3.425   4.529  0.9227  1.7817 -2.1713
 2905SOL    HW220352   1.227   3.468   4.667 -2.7526 -0.5279  2.2694
 2906SOL     OW20353   0.334   2.042  16.326 -0.2749 -0.0597  1.1617
 2906SOL    HW120354   0.323   1.949  16.309  0.8860  0.0850 -0.4014
 2906SOL    HW220355   0.304   2.085  16.245  0.2242 -1.4590  0.2255
 2907SOL     OW20356   2.389   4.369   1.186 -0.0882 -0.5231  0.2302
 2907SOL    HW120357   2.451   4.424   1.234  0.2549 -3.1756  2.8309
 2907SOL    HW220358   2.448   4.335   1.118  0.0497  1.0141 -0.4122
 2908SOL     OW20359   1.313   4.218   1.884  0.2842  0.1803  0.7564
 2908SOL    HW120360   1.284   4.208   1.975 -0.0203 -0.7554  0.5561
 2908SOL    HW220361   1.247   4.274   1.843 -1.9018 -2.3939  0.7435
 2909SOL     OW20362   0.991   0.981   2.415  0.8684 -0.4007 -0.1457
 2909SOL    HW120363   1.047   1.059   2.411 -1.6239  1.3032 -2.5407
 2909SOL    HW220364   1.044   0.932   2.352  0.5270  1.2550 -1.7306
 2910SOL     OW20365   0.440   2.171   3.524 -0.0976  0.2491 -0.0701
 2910SOL    HW120366   0.409   2.083   3.543  0.9701 -0.0222  0.4136
 2910SOL    HW220367   0.365   2.213   3.483 -0.1205 -1.2397 -1.5848
 2911SOL     OW20368   1.195   2.710   7.009  0.6700  0.1997  0.7320
 2911SOL    HW120369   1.207   2.623   6.970  1.6359  1.7305 -2.3851
 2911SOL    HW220370   1.178   2.765   6.933  0.7691 -2.1588 -0.9916
 2912SOL     OW20371   3.850   2.287  10.341 -0.3889 -0.1460  0.5720
 2912SOL    HW120372   3.794   2.363  10.325  1.2100  0.8791 -0.1057
 2912SOL    HW220373   3.796   2.208  10.349 -0.7997 -0.0519 -1.4224
 2913SOL     OW20374   2.828   0.628   9.464 -0.3781  0.3558  0.0041
 2913SOL    HW120375   2.901   0.607   9.406  0.5785 -0.0439  1.3241
 2913SOL    HW220376   2.864   0.692   9.526 -0.2269 -1.2474  1.5984
 2914SOL     OW20377   3.659   1.751   8.973  0.1202  0.3869  0.6249
 2914SOL    HW120378   3.699   1.795   9.048  2.7242 -2.3859  0.8944
 2914SOL    HW220379   3.603   1.820   8.938  1.5111  0.1745 -2.0417
 2915SOL     OW20380   0.392   2.386   4.598 -0.0081  0.1594  0.2387
 2915SOL    HW120381   0.433   2.457   4.549 -0.4629 -0.4563 -1.0063
 2915SOL    HW220382   0.324   2.437   4.643  0.2794 -0.2846  1.1917
 2916SOL     OW20383   1.932   3.181   3.390  0.2274 -0.3429  0.1915
 2916SOL    HW120384   1.854   3.125   3.397 -1.1947  1.7896  1.3694
 2916SOL    HW220385   1.910   3.242   3.460 -1.1507 -1.5512  0.8127
 2917SOL     OW20386   0.314   1.217   3.722  0.1315 -0.3609  0.3390
 2917SOL    HW120387   0.374   1.176   3.659  0.2341  1.4668 -0.7406
 2917SOL    HW220388   0.242   1.246   3.666  0.0279 -2.2968 -0.5456
 2918SOL     OW20389   0.880   1.156   7.407 -0.4582  0.3135 -0.1540
 2918SOL    HW120390   0.793   1.118   7.411 -0.5082  0.2838 -1.6479
 2918SOL    HW220391   0.884   1.207   7.326  1.2782 -2.4188 -1.7869
 2919SOL     OW20392   3.099   4.519   4.051 -0.6987 -0.4873  0.2284
 2919SOL    HW120393   3.082   4.582   4.121  0.0201 -1.1028  0.9628
 2919SOL    HW220394   3.072   4.569   3.974 -0.7178  0.0504  0.5823
 2920SOL     OW20395   3.747   0.282   2.710  0.0948  0.6805 -0.4091
 2920SOL    HW120396   3.654   0.296   2.691  0.0561 -3.6585 -3.3804
 2920SOL    HW220397   3.772   0.289   2.618  0.9230 -0.5353 -0.2829
 2921SOL     OW20398   4.597   4.197   6.648  0.1608  0.4644  0.4453
 2921SOL    HW120399   4.580   4.121   6.592  2.2998  0.0376  0.3914
 2921SOL    HW220400   4.666   4.242   6.599 -0.0921  1.1502  0.7128
 2922SOL     OW20401   1.721   1.673   5.274 -0.6651  0.2108  0.1856
 2922SOL    HW120402   1.632   1.665   5.239 -2.6716 -1.7611  5.6364
 2922SOL    HW220403   1.724   1.582   5.302 -0.3679 -0.1306 -1.0005
 2923SOL     OW20404   2.055   3.998   5.205  0.1185  0.2629 -0.4535
 2923SOL    HW120405   2.076   4.013   5.112  1.4739 -2.3714 -0.5718
 2923SOL    HW220406   1.966   3.964   5.193  0.4610 -0.7810 -0.0970
 2924SOL     OW20407   4.637   4.492   5.906  0.1107 -0.7068 -0.4735
 2924SOL    HW120408   4.551   4.516   5.941  0.5587  2.4070 -1.4836
 2924SOL    HW220409   4.657   4.570   5.853 -2.5910  0.0241 -0.4264
 2925SOL     OW20410   3.000   0.821   8.504 -0.4182 -0.1708 -0.3916
 2925SOL    HW120411   2.910   0.831   8.472 -0.6102 -2.0958 -0.4890
 2925SOL    HW220412   3.031   0.768   8.430  0.6800  0.2877 -0.2468
 2926SOL     OW20413   0.056   1.753   9.968  0.4031 -0.1909  0.3555
 2926SOL    HW120414   0.090   1.829   9.920 -0.3536 -0.5800 -0.7946
 2926SOL    HW220415   0.135   1.744  10.021 -3.0287 -1.5433  5.2362
 2927SOL     OW20416   4.546   4.205   5.966 -0.0914  0.4859  0.1457
 2927SOL    HW120417   4.465   4.154   5.965 -0.4509  1.0624 -0.1532
 2927SOL    HW220418   4.534   4.256   5.886 -1.2342  1.2078  0.7879
 2928SOL     OW20419   2.592   3.280  14.797  0.2836  0.1360  0.2815
 2928SOL    HW120420   2.539   3.213  14.752  0.2172  0.0429  0.5003
 2928SOL    HW220421   2.645   3.233  14.861 -1.3064 -2.4819 -0.3002
 2929SOL     OW20422   1.762   4.403   1.176 -1.2674 -0.2489 -0.2293
 2929SOL    HW120423   1.734   4.311   1.185 -1.0200 -0.3574 -0.5596
 2929SOL    HW220424   1.857   4.397   1.168 -1.1025 -0.3622  1.7435
 2930SOL     OW20425   4.366   0.328   9.413 -0.4771  0.0178  0.1910
 2930SOL    HW120426   4.274   0.352   9.396 -0.7574 -2.4735 -1.7630
 2930SOL    HW220427   4.423   0.393   9.373  1.9523 -0.6023  2.6751
 2931SOL     OW20428   3.387   3.567   3.824  0.2524 -0.2770  0.1292
 2931SOL    HW120429   3.385   3.481   3.865 -1.0688  0.5015  1.6984
 2931SOL    HW220430   3.481   3.588   3.823 -0.1626  1.6127 -0.4463
 2932SOL     OW20431   3.043   4.487   3.445  0.0428 -0.0433 -0.1650
 2932SOL    HW120432   3.082   4.545   3.510  1.3913 -2.7266  1.4646
 2932SOL    HW220433   3.019   4.417   3.506 -1.5032 -0.2204 -0.9973
 2933SOL     OW20434   3.930   3.877   5.075 -0.5186 -0.2740  0.3250
 2933SOL    HW120435   3.990   3.828   5.131 -1.9867  0.1344  2.2649
 2933SOL    HW220436   3.911   3.806   5.014  1.5800 -1.4690  1.0491
 2934SOL     OW20437   2.484   3.983   4.689 -0.2619  0.1320  0.4608
 2934SOL    HW120438   2.562   3.956   4.737 -0.1412 -1.3264 -0.5399
 2934SOL    HW220439   2.515   4.055   4.633  0.2007  0.6764  1.4224
 2935SOL     OW20440   0.808   3.577   5.882  0.4146 -0.4577 -0.1826
 2935SOL    HW120441   0.867   3.564   5.956  0.2803  0.4937  0.0992
 2935SOL    HW220442   0.747   3.641   5.921  0.4304 -0.9166  0.5980
 2936SOL     OW20443   1.765   2.175   0.599  1.2071  0.4611 -0.1916
 2936SOL    HW120444   1.680   2.169   0.554  0.6904  2.5277  0.5006
 2936SOL    HW220445   1.816   2.110   0.552  0.9207 -0.7127  1.1160
 2937SOL     OW20446   0.993   0.836  17.205  0.0771  0.6342 -0.0904
 2937SOL    HW120447   1.019   0.787  17.283  1.7180  0.3338 -0.8201
 2937SOL    HW220448   0.909   0.793  17.185 -0.7797  2.0865  0.4011
 2938SOL     OW20449   4.471   0.942   5.807 -0.2538  0.1893 -0.3964
 2938SOL    HW120450   4.566   0.928   5.807  0.0914  2.4890  1.3613
 2938SOL    HW220451   4.442   0.909   5.722  0.5282  0.4266 -0.7541
 2939SOL     OW20452   1.751   0.704  14.534 -0.1136 -0.2986 -0.3263
 2939SOL    HW120453   1.724   0.716  14.443  0.9168  0.4950 -0.5212
 2939SOL    HW220454   1.670   0.722  14.583  0.9627  0.7890  1.0523
 2940SOL     OW20455   0.795   1.125   4.210 -0.2282 -0.5190 -0.0769
 2940SOL    HW120456   0.853   1.121   4.134  0.3267 -0.8424  0.3693
 2940SOL    HW220457   0.722   1.075   4.171  0.0483 -1.0122  0.0364
 2941SOL     OW20458   0.886   3.075   8.710 -0.7610 -0.5040 -0.5321
 2941SOL    HW120459   0.813   3.107   8.657 -1.6043  1.8400  2.0842
 2941SOL    HW220460   0.842   3.038   8.786 -1.8950  1.6118 -0.1603
 2942SOL     OW20461   0.883   2.907  11.363 -0.3852  0.3868 -0.1247
 2942SOL    HW120462   0.860   2.978  11.423  1.6599  0.5573  0.4517
 2942SOL    HW220463   0.807   2.907  11.305 -1.3196 -2.2649  1.1004
 2943SOL     OW20464   1.622   3.291   0.186 -0.0946 -0.2043 -0.2495
 2943SOL    HW120465   1.678   3.214   0.192  0.3975  0.2912  1.4175
 2943SOL    HW220466   1.553   3.261   0.126 -1.3222  1.1987  0.4426
 2944SOL     OW20467   2.896   0.370   4.379 -0.2851 -1.1023 -0.3076
 2944SOL    HW120468   2.932   0.326   4.303 -2.1248 -3.3505  0.1145
 2944SOL    HW220469   2.976   0.399   4.423 -1.0255  1.6303 -0.7666
 2945SOL     OW20470   2.523   0.046   3.025  0.7791 -0.5078 -0.4960
 2945SOL    HW120471   2.546   0.108   3.094 -2.0866 -1.6217  1.4476
 2945SOL    HW220472   2.554   0.088   2.944  0.2710  0.9009  0.0470
 2946SOL     OW20473   2.176   0.182   3.369 -0.1932  0.2124 -0.4948
 2946SOL    HW120474   2.083   0.159   3.375 -0.1516  0.5963  1.5180
 2946SOL    HW220475   2.202   0.103   3.321  3.7540  2.2233 -1.6947
 2947SOL     OW20476   1.028   2.444   1.944 -0.1438 -0.4626  0.3977
 2947SOL    HW120477   1.046   2.530   1.907 -1.4392 -1.1669 -1.8784
 2947SOL    HW220478   0.938   2.456   1.973 -1.1703  1.5285 -3.5375
 2948SOL     OW20479   0.812   0.733   3.966  0.5809 -0.0421  0.1678
 2948SOL    HW120480   0.755   0.788   3.912 -1.0841 -0.2999  1.6627
 2948SOL    HW220481   0.814   0.650   3.919  3.9079 -0.0818  0.3745
 2949SOL     OW20482   1.232   2.727  10.382 -0.6964 -0.0022  0.0719
 2949SOL    HW120483   1.265   2.659  10.441 -0.6905  0.2133  0.3156
 2949SOL    HW220484   1.181   2.670  10.324  0.9479 -0.7269 -0.6863
 2950SOL     OW20485   3.307   3.555   5.233  0.8108 -0.3054  0.4276
 2950SOL    HW120486   3.248   3.629   5.216  3.2075  1.3187 -0.8313
 2950SOL    HW220487   3.334   3.582   5.321  1.3263 -0.5634  0.3472
 2951SOL     OW20488   3.927   0.326   3.548  0.2940 -0.1406  0.2587
 2951SOL    HW120489   3.953   0.246   3.593  0.7298  0.5997  1.3318
 2951SOL    HW220490   3.934   0.296   3.458 -0.4277  0.9353 -0.1526
 2952SOL     OW20491   2.461   2.535   6.009  0.5748  0.0645 -0.9855
 2952SOL    HW120492   2.485   2.627   6.025 -1.2082 -0.0107  1.9692
 2952SOL    HW220493   2.540   2.487   5.984  1.2154  0.3368  0.4821
 2953SOL     OW20494   4.062   1.912   2.246  0.0996  0.5280  0.5056
 2953SOL    HW120495   4.056   1.831   2.297 -1.4930 -0.8156 -1.7996
 2953SOL    HW220496   4.029   1.976   2.309 -0.0538  0.2473  0.7133
 2954SOL     OW20497   3.474   2.005   5.255  0.4645  0.0130  0.0420
 2954SOL    HW120498   3.385   1.987   5.286 -0.0567  1.0639 -0.8086
 2954SOL    HW220499   3.471   1.959   5.171  2.2671 -0.7971  0.4333
 2955SOL     OW20500   1.639   3.547   5.613  0.2717  0.0782 -0.0301
 2955SOL    HW120501   1.575   3.595   5.560  0.0759  0.9708  1.0122
 2955SOL    HW220502   1.620   3.462   5.573 -0.3547  0.7395 -1.1551
 2956SOL     OW20503   1.183   1.184  16.839 -0.3276 -0.4569 -0.0188
 2956SOL    HW120504   1.182   1.142  16.753  1.1846 -2.0179  0.7387
 2956SOL    HW220505   1.259   1.136  16.872 -0.1102 -2.1704 -3.0644
 2957SOL     OW20506   0.166   1.433   8.480 -0.9038 -0.0714 -0.3287
 2957SOL    HW120507   0.218   1.363   8.518 -0.3781  1.6179  2.1038
 2957SOL    HW220508   0.099   1.443   8.548 -0.1594  0.3048  0.3516
 2958SOL     OW20509   3.105   1.472   5.856 -0.5974 -0.2068 -0.5028
 2958SOL    HW120510   3.065   1.446   5.773 -2.1670 -1.1193  0.5502
 2958SOL    HW220511   3.161   1.544   5.825 -0.3837  0.1229  0.6551
 2959SOL     OW20512   3.206   4.134   9.440  0.0028 -0.2134 -0.2653
 2959SOL    HW120513   3.150   4.056   9.435 -0.3739  0.0392  0.0304
 2959SOL    HW220514   3.140   4.192   9.479  1.6029  0.4064  1.4834
 2960SOL     OW20515   0.728   4.081   1.881 -0.2695 -1.3887 -0.3183
 2960SOL    HW120516   0.722   3.997   1.925 -0.5093 -1.2535 -0.0959
 2960SOL    HW220517   0.815   4.067   1.845  0.0766 -0.5266  0.1812
 2961SOL     OW20518   3.161   0.117   9.687 -0.1012  0.1567 -0.0692
 2961SOL    HW120519   3.164   0.023   9.673 -0.1484  0.0901  0.3778
 2961SOL    HW220520   3.135   0.143   9.599 -1.1308  0.1572  0.2332
 2962SOL     OW20521   3.362   0.960   6.277  0.4191 -0.3884 -0.0100
 2962SOL    HW120522   3.304   0.898   6.232 -0.3576 -0.2707  0.8311
 2962SOL    HW220523   3.404   0.999   6.201 -1.3034 -1.0479 -1.2965
 2963SOL     OW20524   3.505   0.166   8.825  0.0149 -0.0735  0.2475
 2963SOL    HW120525   3.560   0.201   8.896  0.1329  0.4210 -0.0860
 2963SOL    HW220526   3.522   0.230   8.755 -0.5767  0.8924  0.9828
 2964SOL     OW20527   1.379   2.567   4.963 -0.5355  0.3012 -0.0163
 2964SOL    HW120528   1.464   2.526   4.946 -0.5976  0.2635 -0.2384
 2964SOL    HW220529   1.355   2.599   4.876 -1.5721  0.9197  0.4929
 2965SOL     OW20530   4.446   3.083  12.088 -0.3553  0.1844 -0.1505
 2965SOL    HW120531   4.482   3.037  12.164  1.8712 -0.0499 -1.3358
 2965SOL    HW220532   4.489   3.038  12.015  0.8597 -1.6694  1.6870
 2966SOL     OW20533   2.067   2.118  11.435 -0.3610 -0.7962  0.3221
 2966SOL    HW120534   2.117   2.198  11.451 -0.2213 -0.6869 -0.6613
 2966SOL    HW220535   1.988   2.133  11.488 -1.0402 -1.3431 -0.5304
 2967SOL     OW20536   0.457   2.935   3.571 -0.2610 -0.3974  0.1476
 2967SOL    HW120537   0.424   3.024   3.583  0.7706  0.2504 -1.8277
 2967SOL    HW220538   0.387   2.892   3.619 -0.3781  1.0685  1.2797
 2968SOL     OW20539   0.306   1.116   2.637 -0.0285  0.2043  0.1211
 2968SOL    HW120540   0.295   1.162   2.720 -0.6431  1.2396 -0.5444
 2968SOL    HW220541   0.287   1.183   2.571 -1.1472  1.4868  1.7580
 2969SOL     OW20542   1.618   4.234   4.378  0.5378 -0.2570  0.4953
 2969SOL    HW120543   1.546   4.197   4.430 -0.6925  1.9777  0.3937
 2969SOL    HW220544   1.581   4.317   4.348  2.3718  0.1365 -0.6594
 2970SOL     OW20545   0.295   2.737  13.396 -0.6120 -0.2680 -0.5457
 2970SOL    HW120546   0.286   2.652  13.439 -0.1120  0.1412  0.3527
 2970SOL    HW220547   0.216   2.739  13.342 -0.4275  0.6576 -0.7767
 2971SOL     OW20548   2.025   0.616  12.418 -0.0078 -0.4112  0.3927
 2971SOL    HW120549   2.062   0.701  12.398  1.0508 -0.6913  1.1598
 2971SOL    HW220550   2.098   0.558  12.398 -0.1042 -0.0807 -0.9209
 2972SOL     OW20551   1.626   1.141   4.806  0.0415  0.4193 -0.5839
 2972SOL    HW120552   1.715   1.162   4.833 -1.0318  2.6765  1.1481
 2972SOL    HW220553   1.569   1.185   4.870 -1.1114 -1.7420 -0.1151
 2973SOL     OW20554   2.928   2.743   2.339  0.1418 -0.5139 -0.3565
 2973SOL    HW120555   2.997   2.761   2.275  0.6644 -1.4225 -0.0588
 2973SOL    HW220556   2.860   2.706   2.283 -0.1275 -0.2575 -0.1994
 2974SOL     OW20557   1.555   3.483   1.150 -0.1822 -0.0148 -0.6216
 2974SOL    HW120558   1.466   3.453   1.134  0.3959 -2.3038  0.4834
 2974SOL    HW220559   1.556   3.566   1.102 -0.4968  1.8417  2.6130
 2975SOL     OW20560   0.343   3.206  15.136 -0.2732 -0.3484  0.1021
 2975SOL    HW120561   0.403   3.280  15.126  1.0524 -1.3918  0.3762
 2975SOL    HW220562   0.330   3.213  15.231 -2.1365  2.0123 -0.3390
 2976SOL     OW20563   2.344   2.014   7.776  0.1086 -0.6688 -0.6601
 2976SOL    HW120564   2.407   2.015   7.705 -2.5146  1.6703 -2.9518
 2976SOL    HW220565   2.261   2.024   7.730  0.9328 -0.1216 -2.0185
 2977SOL     OW20566   0.305   2.286   0.948  0.3920  0.1083 -0.8119
 2977SOL    HW120567   0.222   2.323   0.977  0.5255 -3.3492  3.8997
 2977SOL    HW220568   0.367   2.305   1.018 -2.7298  0.9548  1.6988
 2978SOL     OW20569   2.883   1.735   6.915 -0.2517 -0.3447  0.3814
 2978SOL    HW120570   2.944   1.798   6.874  1.9499 -2.4689  0.3839
 2978SOL    HW220571   2.817   1.733   6.845  0.4491  1.2497 -0.3524
 2979SOL     OW20572   4.114   1.790   5.528 -0.0009  0.2368 -0.4975
 2979SOL    HW120573   4.059   1.745   5.463 -0.3421  2.1050 -1.4946
 2979SOL    HW220574   4.054   1.862   5.547  0.2161  0.1181  0.6200
 2980SOL     OW20575   1.359   4.538   5.823  0.3814  0.2460  0.7608
 2980SOL    HW120576   1.323   4.471   5.881 -1.9429  1.4924  0.7588
 2980SOL    HW220577   1.446   4.559   5.857  1.0641 -0.8549 -0.2880
 2981SOL     OW20578   1.740   3.050   1.719  0.4362  0.1130 -0.2962
 2981SOL    HW120579   1.746   3.116   1.788  0.7571  1.3407 -1.5003
 2981SOL    HW220580   1.803   3.085   1.656 -1.2187  0.1585 -1.9202
 2982SOL     OW20581   1.239   1.862   3.824 -0.0313  0.9610  0.4759
 2982SOL    HW120582   1.276   1.875   3.736 -0.7755  0.5476  0.1064
 2982SOL    HW220583   1.196   1.945   3.838 -0.6707  0.6005  0.6220
 2983SOL     OW20584   0.052   4.443   8.543  0.0862  0.3461 -0.5362
 2983SOL    HW120585   0.089   4.520   8.500  1.9475  0.6046  1.4985
 2983SOL    HW220586   0.085   4.457   8.632  3.3460 -1.8642 -1.4044
 2984SOL     OW20587   1.858   2.951  16.544 -0.5963  0.1561  0.7104
 2984SOL    HW120588   1.819   3.030  16.581  0.4366  1.2447 -0.5255
 2984SOL    HW220589   1.815   2.883  16.597 -1.8199  0.1602 -0.2672
 2985SOL     OW20590   2.967   2.317  16.625  0.2052  0.1076  0.0318
 2985SOL    HW120591   2.936   2.227  16.636  2.1395 -0.3545  1.7200
 2985SOL    HW220592   3.056   2.300  16.655  0.1072 -0.6742 -0.1170
 2986SOL     OW20593   1.069   4.690   3.748  0.0304  0.6811  0.2557
 2986SOL    HW120594   1.122   4.615   3.724  0.2683  1.3144 -1.1793
 2986SOL    HW220595   1.128   0.031   3.744  1.0150 -0.0244  1.3615
 2987SOL     OW20596   2.517   3.827   3.398 -0.2953 -0.2682 -0.2275
 2987SOL    HW120597   2.532   3.739   3.363 -0.0628 -0.0025 -0.8005
 2987SOL    HW220598   2.546   3.880   3.323 -1.8476 -0.9253 -1.2955
 2988SOL     OW20599   1.280   0.654   8.209  0.7395  0.1184 -0.2797
 2988SOL    HW120600   1.190   0.653   8.243  1.0777  1.3790  0.6207
 2988SOL    HW220601   1.312   0.735   8.248 -0.5374 -1.4531  3.9957
 2989SOL     OW20602   3.939   4.598  17.361  0.4608  0.0777  0.0833
 2989SOL    HW120603   3.869   4.641  17.312 -1.8196 -3.6982  0.0304
 2989SOL    HW220604   3.945   4.663  17.431 -0.7805 -1.2481  1.4187
 2990SOL     OW20605   2.731   3.571  10.132  0.3082  0.0928  0.1299
 2990SOL    HW120606   2.693   3.658  10.126  0.2972  0.0750 -0.0801
 2990SOL    HW220607   2.825   3.590  10.135  0.0890  1.1153  0.1850
 2991SOL     OW20608   3.855   3.048   4.848  0.3073  0.2291  0.2570
 2991SOL    HW120609   3.902   3.071   4.928 -2.0483  1.4020  1.2910
 2991SOL    HW220610   3.764   3.032   4.872 -0.9915  2.2805 -3.2093
 2992SOL     OW20611   3.211   2.353   9.726 -0.5395  0.4178 -0.1846
 2992SOL    HW120612   3.231   2.443   9.698  0.3920  0.1013 -0.5359
 2992SOL    HW220613   3.115   2.348   9.730 -0.4918 -1.1625 -1.1880
 2993SOL     OW20614   2.736   2.057   4.379 -0.1833  0.3102 -0.0446
 2993SOL    HW120615   2.715   2.066   4.471 -0.0447 -1.9030  0.2107
 2993SOL    HW220616   2.665   2.104   4.335  0.3412 -1.2815 -2.6511
 2994SOL     OW20617   2.965   1.844   2.241 -0.4676  0.8816  0.1269
 2994SOL    HW120618   2.908   1.767   2.232  3.0395 -1.5361 -1.3174
 2994SOL    HW220619   2.996   1.827   2.330  1.6292  1.2457 -0.5390
 2995SOL     OW20620   3.865   2.948   0.851 -0.0542  0.3073  0.7880
 2995SOL    HW120621   3.788   2.896   0.829 -0.6828  1.5754  0.0116
 2995SOL    HW220622   3.905   2.951   0.764 -1.6763  0.2350  0.0412
 2996SOL     OW20623   4.734   3.085  15.880  0.5296 -0.3167  0.3356
 2996SOL    HW120624   0.062   3.110  15.813 -1.8325 -1.8765 -2.4826
 2996SOL    HW220625   4.663   3.146  15.861  1.2634  0.8152  1.2355
 2997SOL     OW20626   0.603   2.138   7.889 -0.1207  0.3817  0.4280
 2997SOL    HW120627   0.607   2.042   7.888  1.3070  0.4507  0.6010
 2997SOL    HW220628   0.543   2.156   7.962  0.7007  1.2510  0.8883
 2998SOL     OW20629   0.107   2.904   3.923 -0.2656  0.8273  0.6452
 2998SOL    HW120630   0.019   2.887   3.956 -0.5311 -0.3173 -0.6684
 2998SOL    HW220631   0.159   2.864   3.993  0.9926 -2.8091 -2.3525
 2999SOL     OW20632   0.762   3.507   4.632  0.5674 -0.3358  0.1219
 2999SOL    HW120633   0.706   3.439   4.671  0.5485 -0.1145  0.4809
 2999SOL    HW220634   0.800   3.462   4.557  2.6734  0.6348  0.6257
 3000SOL     OW20635   2.038   4.203   9.723  0.6965  0.3947 -0.0649
 3000SOL    HW120636   1.955   4.231   9.685 -0.4307 -2.5461  0.2490
 3000SOL    HW220637   2.061   4.285   9.768  0.6614  0.2464  0.2173
 3001SOL     OW20638   3.349   1.073   8.121  0.1161 -0.3767 -0.0841
 3001SOL    HW120639   3.316   0.989   8.153  0.2680 -0.6286 -0.5885
 3001SOL    HW220640   3.439   1.059   8.150 -0.1847 -0.2121  0.9381
 3002SOL     OW20641   3.318   0.842   7.584 -0.1809 -0.2015 -0.5089
 3002SOL    HW120642   3.238   0.858   7.634  1.4984 -0.3322  2.2144
 3002SOL    HW220643   3.340   0.752   7.608 -0.5123 -0.6944 -2.0204
 3003SOL     OW20644   2.738   3.742   2.426  0.3793  0.1335  0.2090
 3003SOL    HW120645   2.773   3.806   2.489 -0.7180  1.1692 -0.2236
 3003SOL    HW220646   2.694   3.680   2.484 -0.5323  0.1558 -0.4628
 3004SOL     OW20647   4.619   1.338   1.801  0.0458  0.3544 -0.7880
 3004SOL    HW120648   4.612   1.269   1.868  2.1837 -2.2573 -3.2194
 3004SOL    HW220649   4.590   1.295   1.720  2.4322 -0.2709 -1.3263
 3005SOL     OW20650   1.578   3.782   9.230 -0.1314 -0.3456 -0.1005
 3005SOL    HW120651   1.523   3.705   9.217  0.0687 -0.4728 -0.1897
 3005SOL    HW220652   1.659   3.734   9.246  0.2760  0.4904  0.3332
 3006SOL     OW20653   1.332   2.143  13.227  0.2128 -0.2491  0.3135
 3006SOL    HW120654   1.406   2.090  13.255  0.1478  0.8802  2.6254
 3006SOL    HW220655   1.286   2.083  13.168 -1.2175 -0.2845  1.4481
 3007SOL     OW20656   3.255   2.227  15.022 -0.0454 -0.0650 -0.2427
 3007SOL    HW120657   3.244   2.239  14.928 -0.2058 -0.3301 -0.2583
 3007SOL    HW220658   3.338   2.178  15.030  0.6560  0.9811 -1.2641
 3008SOL     OW20659   1.301   3.773   7.631 -0.2276 -0.0572  0.7361
 3008SOL    HW120660   1.272   3.827   7.557 -2.1285  1.0221  2.2594
 3008SOL    HW220661   1.395   3.788   7.630 -0.2393 -0.0347  0.0313
 3009SOL     OW20662   2.539   4.052  17.321 -0.6243  0.6898  0.6070
 3009SOL    HW120663   2.521   4.083  17.410  1.1273  1.6737  0.6225
 3009SOL    HW220664   2.448   4.038  17.297 -0.8105  2.9426  0.0547
 3010SOL     OW20665   2.732   0.956   5.654  0.9588 -0.0304  0.2089
 3010SOL    HW120666   2.804   0.899   5.627 -0.7021 -1.3702 -1.3657
 3010SOL    HW220667   2.750   0.964   5.748  2.2134 -0.8299  0.0329
 3011SOL     OW20668   4.063   3.757   4.270  0.5741 -0.2865  0.0873
 3011SOL    HW120669   4.086   3.824   4.205 -0.1586 -0.2676 -0.1520
 3011SOL    HW220670   4.119   3.681   4.255 -0.6715 -1.4254  1.3137
 3012SOL     OW20671   1.224   2.928   7.400 -0.0512 -0.1712  0.3881
 3012SOL    HW120672   1.266   2.957   7.481 -2.1591  0.3314  1.3056
 3012SOL    HW220673   1.156   2.868   7.433 -0.5816 -0.2777 -0.8990
 3013SOL     OW20674   2.868   4.036  10.160  0.4064 -0.3351  0.5438
 3013SOL    HW120675   2.905   3.975  10.224  1.1432  0.1736  0.6045
 3013SOL    HW220676   2.949   4.082  10.140  0.0642  0.0835  0.1292
 3014SOL     OW20677   2.995   0.025   1.723  0.3547 -0.2311 -0.2053
 3014SOL    HW120678   3.087   0.019   1.749 -0.2898 -0.7455  1.9029
 3014SOL    HW220679   2.954   0.062   1.800 -0.3550 -2.7820  0.6261
 3015SOL     OW20680   2.879   3.076   1.210  0.5203 -0.1397 -0.9088
 3015SOL    HW120681   2.813   3.108   1.272  1.1077 -1.8658  0.6065
 3015SOL    HW220682   2.828   3.102   1.133 -1.6724  0.7690  0.8432
 3016SOL     OW20683   2.904   2.702   4.176 -0.7324 -0.1661 -0.3121
 3016SOL    HW120684   2.932   2.776   4.230 -0.0212 -0.3007 -0.4882
 3016SOL    HW220685   2.908   2.630   4.239  0.4589 -0.4368 -0.6937
 3017SOL     OW20686   0.745   3.782   4.336  0.0623 -0.4632 -0.0186
 3017SOL    HW120687   0.742   3.822   4.249 -1.8932  1.6639  1.0203
 3017SOL    HW220688   0.830   3.738   4.331  0.0431 -0.4387 -0.5626
 3018SOL     OW20689   0.901   1.077   5.053  0.0347  0.1218  0.3275
 3018SOL    HW120690   0.817   1.123   5.062 -0.1509  0.0471 -0.9246
 3018SOL    HW220691   0.944   1.069   5.138 -0.2001  0.6028  0.4863
 3019SOL     OW20692   2.966   2.033   4.856  0.3006  0.1976  0.0712
 3019SOL    HW120693   3.042   2.070   4.902  1.3348  1.8823 -2.9711
 3019SOL    HW220694   2.959   2.081   4.773  0.1658 -1.3199 -0.7973
 3020SOL     OW20695   0.594   1.888   7.932 -0.4142 -0.5658  0.3194
 3020SOL    HW120696   0.541   1.812   7.957 -1.6821  0.1184 -0.2299
 3020SOL    HW220697   0.670   1.880   7.989  1.6034  1.5756 -2.0608
 3021SOL     OW20698   3.975   0.248   4.184 -0.1207  0.4119  0.1998
 3021SOL    HW120699   3.985   0.176   4.122 -1.1081 -0.0486  0.5744
 3021SOL    HW220700   4.051   0.303   4.163  0.3987 -0.8439 -1.2407
 3022SOL     OW20701   1.789   0.061  13.563  0.0250  0.3007 -0.6094
 3022SOL    HW120702   1.823   0.085  13.477  1.2618 -0.1909 -0.2660
 3022SOL    HW220703   1.866   0.086  13.614 -0.8965 -0.0687  0.9705
 3023SOL     OW20704   3.000   1.699   5.112  0.0031 -0.5408 -0.4899
 3023SOL    HW120705   2.919   1.665   5.150 -0.2906  1.9901  1.1402
 3023SOL    HW220706   2.979   1.792   5.114  1.7389 -0.1590 -0.5081
 3024SOL     OW20707   3.297   0.868  16.543  0.1138  0.1248 -0.0213
 3024SOL    HW120708   3.380   0.896  16.503  0.2427 -0.1548  0.0489
 3024SOL    HW220709   3.334   0.810  16.609 -1.1117  0.3734  0.8651
 3025SOL     OW20710   3.735   3.652   2.796  0.4764 -0.6701  0.0068
 3025SOL    HW120711   3.716   3.639   2.703 -2.3539  1.5099  0.2827
 3025SOL    HW220712   3.795   3.727   2.798 -1.1148  0.6938 -3.3239
 3026SOL     OW20713   4.157   4.571  16.540  0.4823 -0.0184 -0.0243
 3026SOL    HW120714   4.227   4.537  16.484  0.1176  1.6117 -1.4474
 3026SOL    HW220715   4.128   4.650  16.496 -1.7051 -1.7069 -1.6439
 3027SOL     OW20716   2.860   3.303   4.091 -0.6470 -0.1185  0.1884
 3027SOL    HW120717   2.930   3.367   4.095 -0.6630 -0.1229  0.5232
 3027SOL    HW220718   2.812   3.320   4.172  2.9704  2.6330  1.7251
 3028SOL     OW20719   0.104   2.274  11.120 -0.2251 -0.3208  0.1391
 3028SOL    HW120720   0.169   2.239  11.181  1.1244  2.8325  0.5176
 3028SOL    HW220721   0.088   2.206  11.055  4.4498 -2.6274  1.3851
 3029SOL     OW20722   1.499   3.242  17.670  0.4203 -0.0212 -0.4031
 3029SOL    HW120723   1.410   3.260  17.639 -0.5979 -0.7871  2.0712
 3029SOL    HW220724   1.512   3.153  17.638  1.6347  0.7804 -2.1183
 3030SOL     OW20725   2.673   0.851   7.016 -0.7357 -0.1442  0.0180
 3030SOL    HW120726   2.724   0.816   6.942  0.7703 -0.0910  1.0346
 3030SOL    HW220727   2.632   0.930   6.980 -2.8727 -1.2036  0.1248
 3031SOL     OW20728   4.114   3.326   3.003  0.3474  0.0345 -0.1529
 3031SOL    HW120729   4.086   3.418   2.994 -0.0813 -0.2743 -1.9933
 3031SOL    HW220730   4.144   3.311   2.914 -1.4054  1.1849 -0.9393
 3032SOL     OW20731   3.162   3.511   8.885  0.5511  0.7827 -0.9076
 3032SOL    HW120732   3.188   3.590   8.838 -0.1593  0.9864 -0.9570
 3032SOL    HW220733   3.243   3.483   8.928 -1.4654  0.6366  2.7850
 3033SOL     OW20734   0.098   1.890   1.515  0.6002 -0.0049  0.2202
 3033SOL    HW120735   0.021   1.932   1.477  0.5145 -0.7076 -0.3846
 3033SOL    HW220736   0.065   1.869   1.602  1.5459 -1.2039  0.2999
 3034SOL     OW20737   2.018   0.737   3.272  0.8723 -0.0888 -0.0085
 3034SOL    HW120738   2.005   0.644   3.252  1.1017  0.5036 -2.9176
 3034SOL    HW220739   1.964   0.767   3.198  1.1563  1.2459  0.3292
 3035SOL     OW20740   2.152   1.886   2.880  0.1161  0.1841 -0.1923
 3035SOL    HW120741   2.241   1.895   2.914 -0.6435 -0.3932  1.9433
 3035SOL    HW220742   2.111   1.924   2.957 -0.1512 -0.7148  0.0944
 3036SOL     OW20743   2.367   2.748   3.611  0.3730  0.2889 -0.1377
 3036SOL    HW120744   2.365   2.803   3.532 -0.3939  0.7782  0.2231
 3036SOL    HW220745   2.310   2.678   3.579 -0.8543  0.7274  1.1043
 3037SOL     OW20746   0.971   1.254  14.756 -0.1137  0.1214 -0.0674
 3037SOL    HW120747   0.951   1.160  14.755  1.6552 -0.2629  0.2875
 3037SOL    HW220748   1.041   1.254  14.690 -1.4329  0.3140 -1.4843
 3038SOL     OW20749   0.201   0.062   5.096 -0.5860  0.0093  0.0465
 3038SOL    HW120750   0.268   0.011   5.052 -0.2957 -0.1358  0.6554
 3038SOL    HW220751   0.213   0.037   5.188 -0.2342 -0.5288 -0.1475
 3039SOL     OW20752   3.124   0.736  15.747  0.2355  0.2697  0.1850
 3039SOL    HW120753   3.052   0.711  15.689 -0.3486  2.1482  0.1233
 3039SOL    HW220754   3.197   0.688  15.706 -0.0354  0.3373 -0.3677
 3040SOL     OW20755   2.529   0.056  15.058 -0.0849  0.1947 -0.5449
 3040SOL    HW120756   2.539   0.116  15.132  3.2881 -2.5537  1.2288
 3040SOL    HW220757   2.541   0.123  14.990 -1.3743 -0.8505 -1.8015
 3041SOL     OW20758   4.393   1.875   7.463 -0.0299 -0.2536 -0.4268
 3041SOL    HW120759   4.389   1.965   7.431  4.3208  0.2907  0.6593
 3041SOL    HW220760   4.317   1.875   7.522 -1.1665 -1.8674 -1.8881
 3042SOL     OW20761   3.124   3.764   2.064 -0.0759  0.3112 -0.1770
 3042SOL    HW120762   3.029   3.769   2.057 -0.0975  1.0515  0.7265
 3042SOL    HW220763   3.140   3.779   2.157  1.7629  1.0449 -0.6112
 3043SOL     OW20764   1.444   2.174  16.429  0.6313 -0.3368 -0.2705
 3043SOL    HW120765   1.439   2.212  16.341  0.0830  0.4657  0.1122
 3043SOL    HW220766   1.401   2.093  16.402 -0.4920  0.1394  0.0949
 3044SOL     OW20767   3.391   2.887  16.158  0.1944  0.8433 -0.5141
 3044SOL    HW120768   3.384   2.872  16.064 -1.1842 -1.3582 -0.0727
 3044SOL    HW220769   3.425   2.805  16.194  0.4115  0.6640 -1.1275
 3045SOL     OW20770   3.326   4.168   8.785 -0.6377  0.0232 -0.3003
 3045SOL    HW120771   3.342   4.081   8.823 -1.5518  0.0033  0.0299
 3045SOL    HW220772   3.238   4.149   8.753 -1.4858  2.3710  0.6689
 3046SOL     OW20773   0.007   4.146   8.094 -0.5059  0.7854  0.2454
 3046SOL    HW120774   0.017   4.069   8.150 -1.7783  0.3711 -0.1173
 3046SOL    HW220775   0.001   4.210   8.165  0.5052  0.4755  0.6108
 3047SOL     OW20776   4.107   1.507   5.779 -0.5451 -0.0389  0.1180
 3047SOL    HW120777   4.032   1.448   5.769 -0.5973  0.2693 -1.3082
 3047SOL    HW220778   4.145   1.505   5.691  0.1530 -1.0412  0.4322
 3048SOL     OW20779   0.983   4.279   3.258 -0.1461  0.2642  0.1902
 3048SOL    HW120780   1.032   4.307   3.181  0.2125 -1.0482 -0.0502
 3048SOL    HW220781   0.904   4.242   3.218 -0.0449 -0.8080  1.0039
 3049SOL     OW20782   3.134   2.853   2.165 -0.0077 -0.5853  0.4023
 3049SOL    HW120783   3.171   2.919   2.223  2.8782  0.7477 -2.9544
 3049SOL    HW220784   3.209   2.826   2.111 -1.1031  0.8742 -1.8526
 3050SOL     OW20785   1.343   0.875   7.320  0.3692  0.8465 -0.3591
 3050SOL    HW120786   1.413   0.845   7.377  2.5485  1.7832 -2.5389
 3050SOL    HW220787   1.396   0.937   7.269  0.5587 -0.9391 -2.3283
 3051SOL     OW20788   1.999   3.411   4.155 -0.2526  0.3904  0.4818
 3051SOL    HW120789   2.034   3.440   4.070 -0.4138 -0.8040 -0.0082
 3051SOL    HW220790   2.083   3.410   4.201  0.3002  0.1110 -0.5111
 3052SOL     OW20791   0.055   2.517   4.034  0.0631  0.2715  0.4349
 3052SOL    HW120792   4.704   2.546   4.065 -0.8145  0.3130 -2.0676
 3052SOL    HW220793   0.112   2.547   4.105 -0.2181 -1.3577  1.3362
 3053SOL     OW20794   0.757   1.411   8.020  0.0257 -0.0558  0.5711
 3053SOL    HW120795   0.849   1.421   7.996  0.3251 -1.0426  1.3169
 3053SOL    HW220796   0.726   1.502   8.026 -2.5497 -0.8850 -0.3154
 3054SOL     OW20797   4.531   3.558   6.340 -0.2016 -0.5224  0.3086
 3054SOL    HW120798   4.495   3.590   6.257  2.3693 -1.3093 -1.1303
 3054SOL    HW220799   4.449   3.570   6.387  0.9655 -0.3850  2.2942
 3055SOL     OW20800   3.747   1.421  10.832  0.4194 -0.0373 -0.8905
 3055SOL    HW120801   3.780   1.502  10.791  1.0131 -0.4200 -1.1733
 3055SOL    HW220802   3.749   1.441  10.925 -0.7535  0.1170 -0.8987
 3056SOL     OW20803   1.634   3.640   8.225  0.0671 -0.2337  0.2727
 3056SOL    HW120804   1.709   3.697   8.209  1.4586 -1.5163  2.1655
 3056SOL    HW220805   1.641   3.579   8.152  0.6561 -1.3426  1.2613
 3057SOL     OW20806   0.648   3.862   6.358 -0.2052  0.3226 -0.6263
 3057SOL    HW120807   0.568   3.913   6.343 -1.4607 -1.2792  0.6743
 3057SOL    HW220808   0.625   3.817   6.439  2.4808 -2.1177 -1.2201
 3058SOL     OW20809   0.782   0.333   7.440  0.0848  0.1349 -0.0226
 3058SOL    HW120810   0.856   0.339   7.499  0.1726 -1.0410 -0.0147
 3058SOL    HW220811   0.759   0.426   7.433  0.8288  0.1749 -2.0624
 3059SOL     OW20812   2.942   0.801   0.980 -0.1481  0.0529 -0.0660
 3059SOL    HW120813   2.964   0.739   1.051 -3.8660  0.0480  1.1010
 3059SOL    HW220814   2.897   0.735   0.926 -0.7111  1.8190 -1.7188
 3060SOL     OW20815   4.106   4.179  12.387  0.1975 -0.1895 -0.5597
 3060SOL    HW120816   4.199   4.178  12.411 -0.5921 -2.6173  2.4134
 3060SOL    HW220817   4.108   4.146  12.297  0.3629 -0.1404 -0.5740
 3061SOL     OW20818   0.349   2.052  12.685 -0.8621 -0.5189  0.6640
 3061SOL    HW120819   0.444   2.062  12.683 -1.0723  1.5174  0.5260
 3061SOL    HW220820   0.345   1.957  12.691  1.0779 -0.6405 -0.1354
 3062SOL     OW20821   1.834   1.712   1.648 -0.0692  0.5582 -0.0352
 3062SOL    HW120822   1.772   1.779   1.621 -1.8811 -1.5710 -1.1118
 3062SOL    HW220823   1.914   1.762   1.667  0.7105  0.1685 -2.3620
 3063SOL     OW20824   2.173   0.063   9.023 -0.2461 -0.3253 -0.6860
 3063SOL    HW120825   2.112   0.134   9.041 -2.2511 -2.3843  0.7365
 3063SOL    HW220826   2.169   0.030   9.113 -1.7100  0.2867 -0.5259
 3064SOL     OW20827   0.837   4.551   3.357  0.4116 -0.4457 -0.6807
 3064SOL    HW120828   0.840   4.630   3.303 -0.5569 -0.2720 -0.4858
 3064SOL    HW220829   0.919   4.506   3.340  0.1437 -1.1124 -0.1882
 3065SOL     OW20830   3.541   3.507   1.709  0.5470  0.0277  0.1810
 3065SOL    HW120831   3.458   3.519   1.662  0.1668  1.1215  1.1507
 3065SOL    HW220832   3.526   3.423   1.753  0.2267 -0.9777 -1.8325
 3066SOL     OW20833   0.982   1.330   3.319 -0.1990  0.5866 -0.2610
 3066SOL    HW120834   1.069   1.359   3.344  0.9434 -2.5868 -0.5359
 3066SOL    HW220835   0.997   1.318   3.225 -1.0045  2.3992 -0.6156
 3067SOL     OW20836   0.120   4.275   6.605  0.3553  0.2446 -0.0843
 3067SOL    HW120837   0.163   4.227   6.675  0.5377 -1.5391 -1.4027
 3067SOL    HW220838   0.182   4.348   6.599 -0.8170  1.4698  2.9369
 3068SOL     OW20839   0.040   3.651   2.260 -0.0352 -0.2194 -0.6250
 3068SOL    HW120840   0.060   3.658   2.166  0.7197  1.9372 -0.2942
 3068SOL    HW220841   4.713   3.724   2.256  1.2155  0.8078 -1.4761
 3069SOL     OW20842   2.988   4.702   7.728  0.6983 -0.2770 -0.5624
 3069SOL    HW120843   3.047   0.021   7.676 -2.0068  0.7666 -2.5556
 3069SOL    HW220844   3.043   4.676   7.802  0.3335 -0.1011 -0.2301
 3070SOL     OW20845   0.355   1.865   5.368  0.1997  0.1253  0.1185
 3070SOL    HW120846   0.377   1.884   5.459 -3.2656  0.8042  0.8358
 3070SOL    HW220847   0.265   1.897   5.375  0.1444  0.2688 -1.3310
 3071SOL     OW20848   4.314   1.379   0.537 -0.3234  0.4726 -0.2059
 3071SOL    HW120849   4.285   1.413   0.452 -1.3506  0.6960  0.2325
 3071SOL    HW220850   4.331   1.467   0.572  0.8085  0.3529 -0.4671
 3072SOL     OW20851   0.305   1.369   3.118  0.5178  0.5020 -0.4475
 3072SOL    HW120852   0.321   1.350   3.211 -1.8134 -0.3515 -0.2188
 3072SOL    HW220853   0.350   1.453   3.128  0.3086  0.8358 -2.2933
 3073SOL     OW20854   4.385   3.128   3.203  0.8451 -0.2717  0.1858
 3073SOL    HW120855   4.296   3.147   3.230  0.6925 -0.5762 -0.0927
 3073SOL    HW220856   4.394   3.173   3.119 -0.8509 -0.8142 -0.2789
 3074SOL     OW20857   2.170   2.069   3.838  0.0481 -0.1188 -0.5370
 3074SOL    HW120858   2.188   2.146   3.784 -1.4813 -0.0223 -0.9121
 3074SOL    HW220859   2.218   2.003   3.788 -2.4671 -1.2994 -1.3566
 3075SOL     OW20860   2.974   2.762   7.435  0.5743  0.9860  0.3470
 3075SOL    HW120861   2.926   2.754   7.517 -0.1869  2.5175  0.0524
 3075SOL    HW220862   3.019   2.678   7.428  2.3334  1.9280  0.2433
 3076SOL     OW20863   4.525   4.716   8.629 -0.5173  0.0583 -0.4768
 3076SOL    HW120864   4.541   4.675   8.544  1.1723 -1.5073  0.5989
 3076SOL    HW220865   4.606   0.022   8.661  0.5831 -1.9148 -0.7490
 3077SOL     OW20866   1.149   0.468   2.801 -0.4644 -0.2959 -0.5541
 3077SOL    HW120867   1.145   0.405   2.873 -0.0433 -1.2436 -1.3645
 3077SOL    HW220868   1.056   0.481   2.783 -0.2240  1.9803 -0.1358
 3078SOL     OW20869   3.856   2.674  13.658  0.9014  0.1945 -0.0848
 3078SOL    HW120870   3.931   2.614  13.658  1.3579  0.7815 -2.6646
 3078SOL    HW220871   3.826   2.652  13.747  2.3858  0.2378  0.4317
 3079SOL     OW20872   3.541   0.940   2.848  0.3030 -0.0638  0.1028
 3079SOL    HW120873   3.557   0.872   2.914  1.4937 -1.3833 -1.5491
 3079SOL    HW220874   3.449   0.921   2.830  0.2931 -1.4306  1.5598
 3080SOL     OW20875   1.272   4.714   0.915 -0.0005  0.0779  0.1351
 3080SOL    HW120876   1.235   4.627   0.903 -1.7559  0.6928  1.0197
 3080SOL    HW220877   1.334   4.720   0.843 -2.3124 -1.6136 -1.9907
 3081SOL     OW20878   2.690   3.805  11.658 -0.3456  0.0759 -0.3279
 3081SOL    HW120879   2.718   3.889  11.621 -3.2099  0.7517 -0.9211
 3081SOL    HW220880   2.596   3.822  11.652  0.0535  2.8951  0.9719
 3082SOL     OW20881   4.576   2.899   8.583  0.1866  0.0240  0.2288
 3082SOL    HW120882   4.570   2.812   8.543  0.0344  0.3477 -0.4493
 3082SOL    HW220883   4.532   2.952   8.517  0.2867 -0.9311 -0.6127
 3083SOL     OW20884   2.083   3.367   7.590 -0.2194 -0.0138  0.1798
 3083SOL    HW120885   2.003   3.419   7.599 -1.0208 -0.8893 -1.8805
 3083SOL    HW220886   2.120   3.434   7.533  3.4361 -2.0604  0.1329
 3084SOL     OW20887   0.813   2.111   7.667  0.1101  0.3780 -0.7493
 3084SOL    HW120888   0.811   2.106   7.763  1.1123  2.9722 -0.5762
 3084SOL    HW220889   0.798   2.203   7.645  0.4037  0.7577  0.6204
 3085SOL     OW20890   3.294   2.881  13.157  0.2736  0.1174  0.0711
 3085SOL    HW120891   3.345   2.821  13.212  1.4803  0.4449 -0.6685
 3085SOL    HW220892   3.219   2.903  13.211  0.2962 -1.0783  0.5909
 3086SOL     OW20893   1.850   1.547  10.968  0.1962 -0.1976  0.1092
 3086SOL    HW120894   1.785   1.489  11.008 -1.6286  2.5446  1.0779
 3086SOL    HW220895   1.848   1.521  10.876  0.3136  0.2578 -0.0197
 3087SOL     OW20896   3.811   0.636   0.771  0.1649 -0.2108 -0.2661
 3087SOL    HW120897   3.746   0.603   0.833  0.9202 -0.1643  0.5564
 3087SOL    HW220898   3.758   0.631   0.692  2.8565 -1.9412 -1.9528
 3088SOL     OW20899   4.470   0.127   7.269 -0.1652 -0.4264 -0.0417
 3088SOL    HW120900   4.539   0.189   7.247 -1.2760  0.7545 -0.2094
 3088SOL    HW220901   4.392   0.183   7.267  0.6845  0.7320 -0.9276
 3089SOL     OW20902   2.369   4.207  14.953 -0.0357  0.3614  0.5586
 3089SOL    HW120903   2.359   4.270  14.881  0.8786 -1.0649 -0.8161
 3089SOL    HW220904   2.462   4.186  14.955 -0.6194 -2.0358  1.5490
 3090SOL     OW20905   0.887   2.032  12.292 -0.5121 -0.0293 -0.2432
 3090SOL    HW120906   0.955   1.983  12.338 -1.5491  0.7743  2.1579
 3090SOL    HW220907   0.818   2.020  12.357  0.9454  1.2267  1.5121
 3091SOL     OW20908   3.943   4.188   4.062 -1.0123  0.8590 -0.8083
 3091SOL    HW120909   3.869   4.190   4.002 -1.4530  0.3891 -0.2834
 3091SOL    HW220910   3.986   4.111   4.025 -0.9382  0.4770  0.0509
 3092SOL     OW20911   2.668   1.903   3.848  0.2634  0.6269 -0.4007
 3092SOL    HW120912   2.699   1.989   3.819  3.7672 -0.6136 -0.2408
 3092SOL    HW220913   2.605   1.932   3.914 -1.2025 -0.9897 -1.0949
 3093SOL     OW20914   1.795   2.620   0.275 -0.3033  0.1229 -0.1731
 3093SOL    HW120915   1.786   2.606   0.370 -2.3676  3.9004  0.2294
 3093SOL    HW220916   1.728   2.689   0.272  2.1134  2.4703  0.0620
 3094SOL     OW20917   1.889   3.799  14.102  0.2432  0.3399  0.5109
 3094SOL    HW120918   1.828   3.742  14.148  0.0118 -0.0866 -0.3113
 3094SOL    HW220919   1.824   3.845  14.049  0.6346 -0.2529 -0.4894
 3095SOL     OW20920   4.364   2.654  15.990  0.7288  0.2281 -0.0240
 3095SOL    HW120921   4.316   2.583  15.948  2.5008 -1.5505  0.9828
 3095SOL    HW220922   4.412   2.687  15.914  1.7632 -1.4890 -0.1250
 3096SOL     OW20923   1.672   0.459  13.160  0.7579 -0.1726 -0.1122
 3096SOL    HW120924   1.589   0.501  13.138  1.8535  0.2526 -3.3237
 3096SOL    HW220925   1.738   0.517  13.124  1.3729  0.7400  2.4684
 3097SOL     OW20926   1.945   4.331   2.490  0.6115  0.4257 -0.1768
 3097SOL    HW120927   1.961   4.265   2.423 -0.4843  1.3761 -1.3804
 3097SOL    HW220928   1.973   4.407   2.439 -2.0949  2.0579  0.7391
 3098SOL     OW20929   2.507   1.422   1.666  0.3606  0.3340 -0.1295
 3098SOL    HW120930   2.572   1.469   1.613 -1.4390  1.9360 -0.9081
 3098SOL    HW220931   2.552   1.437   1.749  0.0451  1.0797 -0.0911
 3099SOL     OW20932   1.549   4.584   1.629  0.2687  0.2594 -0.1326
 3099SOL    HW120933   1.462   4.572   1.667  1.2247 -1.6535  1.4631
 3099SOL    HW220934   1.514   4.648   1.567  1.6909  0.1857 -1.0097
 3100SOL     OW20935   4.568   3.849   8.921  0.3250  0.2060  0.0704
 3100SOL    HW120936   4.578   3.943   8.906 -1.1226  0.4363  0.5719
 3100SOL    HW220937   4.563   3.839   9.016  0.0450  0.7841  0.1159
 3101SOL     OW20938   2.180   2.663   5.601 -0.0787 -0.2987  0.7967
 3101SOL    HW120939   2.272   2.649   5.578 -0.6387 -0.0315 -1.6162
 3101SOL    HW220940   2.175   2.758   5.612 -1.1595 -0.2993  0.2668
 3102SOL     OW20941   3.141   3.605  14.677  0.5068  0.3209 -0.3884
 3102SOL    HW120942   3.165   3.560  14.758  0.8403  1.2853  0.0569
 3102SOL    HW220943   3.087   3.543  14.630  1.7887 -1.1287  0.0681
 3103SOL     OW20944   3.851   1.432   2.445 -0.6837 -0.0848  0.0216
 3103SOL    HW120945   3.858   1.421   2.539 -1.8434  0.8730  0.2212
 3103SOL    HW220946   3.868   1.346   2.406 -0.4240  0.3629 -0.8617
 3104SOL     OW20947   2.770   3.099  11.798  0.3919 -0.2000  0.0379
 3104SOL    HW120948   2.847   3.121  11.745  0.7208 -1.7953 -0.1433
 3104SOL    HW220949   2.796   3.128  11.886  0.2280  0.2236 -0.0531
 3105SOL     OW20950   3.960   3.018   7.801 -0.5473  0.5757  0.1482
 3105SOL    HW120951   3.970   2.990   7.710 -2.5408  1.0909 -0.2329
 3105SOL    HW220952   3.894   2.959   7.838  0.9948 -1.1129  0.1977
 3106SOL     OW20953   4.472   1.298  10.396  0.6365 -0.7141 -0.3006
 3106SOL    HW120954   4.456   1.231  10.330 -2.2616  0.9823 -1.3007
 3106SOL    HW220955   4.423   1.267  10.473  0.3598 -1.1624 -0.6576
 3107SOL     OW20956   3.928   1.360   8.666 -0.1005  0.4957 -0.2251
 3107SOL    HW120957   3.898   1.374   8.755  1.1892 -2.2806  0.6744
 3107SOL    HW220958   3.912   1.266   8.655 -2.2540  0.9335 -0.7120
 3108SOL     OW20959   2.566   1.059   3.828 -0.2125  0.1340  0.2276
 3108SOL    HW120960   2.662   1.065   3.830 -0.1822 -0.4994  1.0788
 3108SOL    HW220961   2.562   1.123   3.900  1.8911  0.3762  0.1549
 3109SOL     OW20962   3.270   2.233   4.574 -0.5028 -0.3789 -0.5233
 3109SOL    HW120963   3.211   2.189   4.635 -0.4943  0.0869 -0.1812
 3109SOL    HW220964   3.295   2.320   4.606  0.2807 -1.1103  0.8571
 3110SOL     OW20965   1.502   2.088   7.823 -0.3167 -0.5531 -0.0525
 3110SOL    HW120966   1.536   2.175   7.802  2.1885 -1.9618 -1.8323
 3110SOL    HW220967   1.412   2.097   7.790  0.2717  0.3440 -1.4053
 3111SOL     OW20968   0.714   0.031   5.344 -0.1399 -0.5829  0.1826
 3111SOL    HW120969   0.747   0.047   5.256 -2.4862 -1.3450 -0.8433
 3111SOL    HW220970   0.627   0.065   5.322 -0.1420 -0.1190  0.9343
 3112SOL     OW20971   0.839   0.151   2.392  0.0805 -0.2160 -0.0698
 3112SOL    HW120972   0.863   0.232   2.436 -0.1697  0.3656 -0.9828
 3112SOL    HW220973   0.759   0.125   2.438 -0.2460  0.3210 -0.3319
 3113SOL     OW20974   2.404   1.520   2.472  0.5259 -0.2921 -0.1102
 3113SOL    HW120975   2.395   1.495   2.564 -0.5817  0.0485 -0.1265
 3113SOL    HW220976   2.313   1.544   2.454  0.0922 -1.5109  0.4135
 3114SOL     OW20977   0.105   0.083  11.559 -0.2075 -0.6189  0.3583
 3114SOL    HW120978   0.055   0.107  11.480 -1.0544 -0.7177  0.8663
 3114SOL    HW220979   0.073   4.729  11.575 -2.9591  0.4720  0.9928
 3115SOL     OW20980   2.998   3.855   6.130  0.7348 -0.5924  0.5476
 3115SOL    HW120981   3.047   3.773   6.142  0.5571 -0.5822  1.3809
 3115SOL    HW220982   2.979   3.876   6.221 -2.5948 -0.8294 -0.1154
 3116SOL     OW20983   1.310   3.959   9.555  0.1490  0.3168 -0.2103
 3116SOL    HW120984   1.400   3.935   9.532  0.6141  1.7984  0.0580
 3116SOL    HW220985   1.268   3.898   9.494 -2.1619 -0.5380  2.2295
 3117SOL     OW20986   0.927   3.666   4.016  0.4521 -0.4753 -0.2103
 3117SOL    HW120987   1.010   3.698   3.981 -0.0201  0.1164 -0.7753
 3117SOL    HW220988   0.862   3.715   3.966  1.7813  1.0306 -0.4667
 3118SOL     OW20989   4.275   1.765   5.747 -0.1199 -0.7213 -0.2674
 3118SOL    HW120990   4.304   1.676   5.766  0.4929 -0.4871 -0.1161
 3118SOL    HW220991   4.220   1.762   5.669  0.9692  1.6738 -1.1198
 3119SOL     OW20992   4.321   1.516   2.420  0.1929 -0.1812  0.3262
 3119SOL    HW120993   4.359   1.524   2.508  0.3669 -0.7353  0.3005
 3119SOL    HW220994   4.265   1.443   2.444  1.5696 -1.6403 -0.8753
 3120SOL     OW20995   3.616   3.427   7.625 -0.5579 -0.4776  0.2357
 3120SOL    HW120996   3.613   3.423   7.720  1.6194 -2.1402  0.2141
 3120SOL    HW220997   3.641   3.338   7.601  0.3226  0.5445 -2.6224
 3121SOL     OW20998   1.078   4.581  12.280  0.2473  0.4657  0.0139
 3121SOL    HW120999   1.013   4.540  12.222  1.1593  0.0982 -0.7465
 3121SOL    HW221000   1.064   4.674  12.262  2.5347  0.5023 -1.6247
 3122SOL     OW21001   3.330   2.189   1.608  0.2443  0.0737  0.3161
 3122SOL    HW121002   3.345   2.202   1.701 -2.0850  0.8099  0.6010
 3122SOL    HW221003   3.300   2.277   1.583 -2.4085 -0.6088  1.0319
 3123SOL     OW21004   1.180   4.501   6.137 -0.0721  0.7474 -0.0376
 3123SOL    HW121005   1.089   4.494   6.110  0.6344  1.1864 -2.4808
 3123SOL    HW221006   1.226   4.431   6.091 -1.6300 -1.0461  1.1300
 3124SOL     OW21007   0.188   1.783  14.906 -0.2520  0.3384 -0.3921
 3124SOL    HW121008   0.114   1.831  14.871  0.9029  0.1736 -3.0307
 3124SOL    HW221009   0.257   1.843  14.879  1.3373  0.3096  3.5610
 3125SOL     OW21010   1.743   3.503  10.564 -0.1499 -0.4005  0.4562
 3125SOL    HW121011   1.679   3.483  10.496  2.1439  1.9369 -2.3657
 3125SOL    HW221012   1.719   3.588  10.600  0.6942 -1.5278  3.6962
 3126SOL     OW21013   3.396   4.603   0.708  0.0056 -0.1600 -0.4054
 3126SOL    HW121014   3.422   4.695   0.721  1.5492 -0.3773 -1.8858
 3126SOL    HW221015   3.386   4.585   0.802  1.9098  1.5996  0.1609
 3127SOL     OW21016   3.728   2.432   1.670 -0.0765 -0.6532  0.1101
 3127SOL    HW121017   3.779   2.380   1.609 -2.1555 -0.7299 -1.5665
 3127SOL    HW221018   3.657   2.445   1.607 -1.0369 -1.7841  0.9609
 3128SOL     OW21019   2.007   0.258   9.055 -0.0882 -0.0537 -0.7790
 3128SOL    HW121020   1.916   0.243   9.083 -0.0272  0.1331 -0.4801
 3128SOL    HW221021   2.008   0.353   9.055  2.1821 -0.0897 -0.0936
 3129SOL     OW21022   1.127   2.530  10.240  0.2139 -0.2011 -0.3677
 3129SOL    HW121023   1.110   2.445  10.281  1.9298 -1.5293 -2.4134
 3129SOL    HW221024   1.106   2.510  10.149 -0.5867 -0.7840 -0.0493
 3130SOL     OW21025   3.005   2.203  14.164  0.3095  0.0830  0.0417
 3130SOL    HW121026   2.970   2.176  14.079 -2.2883 -1.4911  1.6273
 3130SOL    HW221027   2.925   2.242  14.197 -0.9020 -2.4699  0.1352
 3131SOL     OW21028   4.570   2.852  10.714  0.0086 -0.5747  0.3300
 3131SOL    HW121029   4.481   2.829  10.690  0.1420 -0.8448  0.0964
 3131SOL    HW221030   4.566   2.948  10.719  2.6504 -0.5045  1.1976
 3132SOL     OW21031   3.711   0.189  14.431 -0.6728 -0.1892  0.2641
 3132SOL    HW121032   3.771   0.264  14.427 -2.0960  1.2143  4.4285
 3132SOL    HW221033   3.660   0.194  14.512 -1.5720 -0.2156 -0.3001
 3133SOL     OW21034   2.946   3.986   4.269  0.1199 -0.0993 -0.6171
 3133SOL    HW121035   2.950   4.080   4.289 -1.2248 -0.5142  1.5481
 3133SOL    HW221036   2.857   3.969   4.302  0.7294 -2.6736 -0.3354
 3134SOL     OW21037   0.245   0.777   1.232 -0.2664  0.1023 -0.0279
 3134SOL    HW121038   0.193   0.852   1.259 -1.5798 -1.3384  1.4739
 3134SOL    HW221039   0.232   0.720   1.308 -0.2235 -1.5604 -1.2466
 3135SOL     OW21040   1.507   4.491   4.342  0.1926  0.4445  0.1937
 3135SOL    HW121041   1.447   4.517   4.411  0.1897  3.5274 -0.9607
 3135SOL    HW221042   1.520   4.574   4.297 -2.3406  0.4041 -0.5761
 3136SOL     OW21043   1.937   4.279   3.255 -0.0872 -0.5014 -0.0375
 3136SOL    HW121044   1.957   4.191   3.224  2.0352 -1.0167  2.7450
 3136SOL    HW221045   1.964   4.336   3.183  1.4994 -0.7767  0.3441
 3137SOL     OW21046   0.321   0.998   7.500 -0.7624  0.1696  0.2071
 3137SOL    HW121047   0.239   0.994   7.549  0.7174  0.9587  2.7935
 3137SOL    HW221048   0.331   1.093   7.494 -0.6237 -0.0935 -3.5273
 3138SOL     OW21049   1.875   1.015  13.787  0.2014  0.1729 -0.2593
 3138SOL    HW121050   1.885   1.068  13.707 -0.5596 -0.4387 -0.7588
 3138SOL    HW221051   1.966   0.990  13.802  1.0394  1.2514 -3.4533
 3139SOL     OW21052   4.631   3.213  13.371  0.4197  0.1155 -0.0060
 3139SOL    HW121053   4.692   3.150  13.411 -0.5223 -1.0356 -0.3657
 3139SOL    HW221054   4.657   3.194  13.281 -0.4775 -0.8697 -0.0550
 3140SOL     OW21055   0.508   1.777   3.692  0.0691  0.4278  0.1032
 3140SOL    HW121056   0.543   1.841   3.629 -0.0585  0.3120 -0.0848
 3140SOL    HW221057   0.593   1.757   3.730 -0.0254 -0.1530  0.0099
 3141SOL     OW21058   1.897   3.355   2.182  0.0673 -0.4099  0.1491
 3141SOL    HW121059   1.916   3.448   2.178 -2.1066 -0.0323 -1.0144
 3141SOL    HW221060   1.824   3.342   2.242  0.1284 -0.2040  0.2690
 3142SOL     OW21061   1.663   4.713   2.894 -0.2516 -0.7554  0.3665
 3142SOL    HW121062   1.608   4.653   2.842 -0.0486 -1.9042  1.4789
 3142SOL    HW221063   1.613   4.723   2.974 -1.2050 -3.2981  0.0914
 3143SOL     OW21064   3.485   3.519  11.553 -0.6185 -0.1335  0.1221
 3143SOL    HW121065   3.536   3.596  11.577 -0.1414 -0.3182 -0.3065
 3143SOL    HW221066   3.518   3.494  11.467  0.7877  0.1587  0.5680
 3144SOL     OW21067   2.765   2.983  16.071  0.4173  0.5026 -0.2268
 3144SOL    HW121068   2.747   3.016  15.982  1.9727 -0.5839 -0.9396
 3144SOL    HW221069   2.800   3.065  16.107 -2.1311  0.6901  1.8262
 3145SOL     OW21070   0.998   4.347   6.699  0.1179  0.1356  0.7729
 3145SOL    HW121071   1.017   4.295   6.777  4.5997  1.4895  0.5803
 3145SOL    HW221072   1.082   4.387   6.676  0.3147 -0.5471  0.3177
 3146SOL     OW21073   2.133   2.310  16.931  0.2389 -0.1188  0.3369
 3146SOL    HW121074   2.050   2.308  16.979 -1.0622 -0.6296 -1.9030
 3146SOL    HW221075   2.191   2.313  17.007 -1.5054  2.2300  1.5863
 3147SOL     OW21076   2.563   0.544   5.737 -0.3080 -0.1450 -0.2851
 3147SOL    HW121077   2.572   0.521   5.829  0.9614 -1.3735 -0.7197
 3147SOL    HW221078   2.560   0.640   5.745 -1.9880 -0.0939 -1.4726
 3148SOL     OW21079   1.520   2.198   7.127  0.1438 -0.4520 -0.0480
 3148SOL    HW121080   1.520   2.130   7.194 -1.9624  0.8518  1.2543
 3148SOL    HW221081   1.514   2.145   7.047  0.3828 -0.3203 -0.1556
 3149SOL     OW21082   3.520   1.033   5.341  0.0413  0.0449  0.0198
 3149SOL    HW121083   3.481   1.069   5.421 -1.9206 -0.7510 -0.5990
 3149SOL    HW221084   3.445   0.996   5.295 -0.8509  0.5950  1.0266
 3150SOL     OW21085   3.932   2.424  12.043 -0.3204  0.0703 -0.8632
 3150SOL    HW121086   3.932   2.518  12.057  0.7646 -0.3029  1.6910
 3150SOL    HW221087   3.846   2.398  12.011 -0.5124 -1.1421  0.6427
 3151SOL     OW21088   1.913   3.277   0.950  0.1491 -0.3236 -0.0688
 3151SOL    HW121089   1.862   3.197   0.964 -1.2939  0.3102 -1.7366
 3151SOL    HW221090   1.954   3.262   0.865  0.5844  0.2912  0.0379
 3152SOL     OW21091   0.693   1.343   8.278  0.6196 -0.4702 -0.9241
 3152SOL    HW121092   0.740   1.355   8.195 -1.7443 -2.7004 -2.6047
 3152SOL    HW221093   0.624   1.285   8.245 -0.2985  1.0883 -1.7221
 3153SOL     OW21094   3.914   1.591   8.952 -0.0268  0.1388 -0.2098
 3153SOL    HW121095   3.844   1.655   8.964 -1.0949 -0.9341 -0.6942
 3153SOL    HW221096   3.868   1.507   8.959 -1.5088  0.9072 -0.8382
 3154SOL     OW21097   1.260   1.981   8.639  0.2809  0.1555 -0.1842
 3154SOL    HW121098   1.247   2.017   8.551 -1.5823 -0.8717 -0.3194
 3154SOL    HW221099   1.227   1.892   8.628  1.0625 -0.1974  0.2972
 3155SOL     OW21100   3.956   0.470  17.120  0.3384  0.3626 -0.3974
 3155SOL    HW121101   3.993   0.558  17.128 -2.1897  1.4516 -0.3610
 3155SOL    HW221102   4.014   0.407  17.161  0.2294 -0.0245 -0.8397
 3156SOL     OW21103   2.902   1.895  13.516 -0.3503 -0.3099 -0.0730
 3156SOL    HW121104   2.914   1.960  13.447 -2.3553  0.4757  0.3219
 3156SOL    HW221105   2.989   1.917  13.550 -0.4292 -0.5702  0.2969
 3157SOL     OW21106   0.524   1.725   8.786  0.1920 -0.2944  0.1425
 3157SOL    HW121107   0.601   1.772   8.819 -0.9459  1.4586  0.3137
 3157SOL    HW221108   0.577   1.652   8.754 -0.9248 -1.7820  1.6928
 3158SOL     OW21109   0.635   0.039   4.404 -0.1685  0.1882 -0.2050
 3158SOL    HW121110   0.687   0.110   4.442  0.2582  0.4991 -1.3691
 3158SOL    HW221111   0.706   4.717   4.374 -0.4567  0.1975 -0.9095
 3159SOL     OW21112   2.680   1.128   7.271  0.5960  0.3268  0.1013
 3159SOL    HW121113   2.611   1.062   7.259  1.5773 -0.5184 -0.8970
 3159SOL    HW221114   2.637   1.191   7.328  1.7331  2.0799 -0.9818
 3160SOL     OW21115   4.246   2.035   9.582 -0.2492  0.3041  0.3689
 3160SOL    HW121116   4.232   2.051   9.675  0.3607  0.2330  0.4752
 3160SOL    HW221117   4.265   1.941   9.582  0.1417  0.3934  1.8980
 3161SOL     OW21118   2.585   2.591  14.551 -0.5401  0.2592 -0.4542
 3161SOL    HW121119   2.562   2.504  14.583 -4.8186  1.9551  1.1146
 3161SOL    HW221120   2.527   2.644  14.606 -0.1744 -0.6441  0.7967
 3162SOL     OW21121   1.229   1.934   5.414 -0.3240 -0.0761  0.2685
 3162SOL    HW121122   1.286   2.010   5.404 -0.0795 -0.3052 -0.0681
 3162SOL    HW221123   1.153   1.968   5.368  0.9957  1.1626 -1.0110
 3163SOL     OW21124   2.804   3.006   5.975 -0.2516  0.7218 -0.3454
 3163SOL    HW121125   2.891   3.002   5.936 -0.6507  1.0414 -1.2538
 3163SOL    HW221126   2.760   3.056   5.907 -0.7761  1.4770  0.5431
 3164SOL     OW21127   2.110   3.089  17.198 -0.0884 -0.6009  0.2242
 3164SOL    HW121128   2.030   3.136  17.175  1.3221  1.1763 -1.0344
 3164SOL    HW221129   2.158   3.153  17.252 -0.1289  0.7953 -1.3909
 3165SOL     OW21130   4.423   4.668   5.971  0.2996  0.3658  0.8681
 3165SOL    HW121131   4.431   4.733   6.040  0.8397 -2.6339  3.6547
 3165SOL    HW221132   4.399   4.720   5.894  2.5074 -0.6149 -0.4886
 3166SOL     OW21133   2.125   1.708   0.081 -0.3318  0.2722  0.6277
 3166SOL    HW121134   2.177   1.657   0.144  1.2821  0.2601 -0.7312
 3166SOL    HW221135   2.053   1.738   0.137 -2.8209 -1.0923 -1.8585
 3167SOL     OW21136   0.404   3.928   4.176 -0.5782 -0.4869 -0.2516
 3167SOL    HW121137   0.383   3.981   4.252  0.2560  4.1334 -3.2473
 3167SOL    HW221138   0.463   3.870   4.225 -1.0972 -1.6222 -0.9594
 3168SOL     OW21139   1.390   0.741   6.911  0.4646  0.4719 -0.0868
 3168SOL    HW121140   1.321   0.806   6.920 -0.0569 -0.3535  1.8671
 3168SOL    HW221141   1.464   0.787   6.951 -0.4810 -0.7544  3.1569
 3169SOL     OW21142   1.593   4.024   1.822  0.0901  0.0183 -0.7594
 3169SOL    HW121143   1.655   3.994   1.755  0.9947  0.2895 -0.0369
 3169SOL    HW221144   1.532   4.072   1.766 -0.1637  1.2708  0.5916
 3170SOL     OW21145   2.531   3.198  14.129  0.2251  0.0292 -0.3727
 3170SOL    HW121146   2.467   3.270  14.136 -0.0177 -0.4116  1.9068
 3170SOL    HW221147   2.500   3.141  14.200  1.0826 -0.0881 -0.0958
 3171SOL     OW21148   2.479   2.257   6.306  0.1892 -0.3021  0.3249
 3171SOL    HW121149   2.517   2.284   6.389  1.5909  0.8024 -0.6664
 3171SOL    HW221150   2.537   2.299   6.243  1.1906 -1.6130  0.3670
 3172SOL     OW21151   3.665   0.566   0.512  0.2047  0.1268  0.8095
 3172SOL    HW121152   3.570   0.577   0.510  0.2654  0.5598  0.2010
 3172SOL    HW221153   3.688   0.643   0.460  0.8054 -1.2359 -0.9414
 3173SOL     OW21154   3.302   2.059  10.252  0.1220 -0.3904 -0.3109
 3173SOL    HW121155   3.268   2.128  10.195 -1.8355 -0.8191  0.3234
 3173SOL    HW221156   3.293   1.982  10.197  0.8400 -0.5531 -0.1937
 3174SOL     OW21157   0.714   2.733   2.893 -0.0368 -0.2700  0.4036
 3174SOL    HW121158   0.808   2.736   2.874  0.4235  0.6820  2.7933
 3174SOL    HW221159   0.712   2.667   2.963  0.2271 -0.4962  0.1998
 3175SOL     OW21160   3.512   1.764   7.871 -0.2541  0.4056  0.4994
 3175SOL    HW121161   3.543   1.684   7.828 -1.2519  0.9372 -1.2019
 3175SOL    HW221162   3.539   1.749   7.962 -0.9481  0.4268  0.7117
 3176SOL     OW21163   2.197   0.767   4.657 -0.4470 -0.0088  0.4080
 3176SOL    HW121164   2.249   0.699   4.701  2.7115  1.2745 -1.3325
 3176SOL    HW221165   2.110   0.741   4.687  0.2832 -0.6765  1.9375
 3177SOL     OW21166   0.320   4.425  17.374  0.2158  0.1664  0.3468
 3177SOL    HW121167   0.353   4.340  17.402  0.0605 -0.1762 -0.5070
 3177SOL    HW221168   0.401   4.470  17.352  0.7444 -0.6651  0.6243
 3178SOL     OW21169   2.072   0.095   5.400  0.5016 -0.5486 -0.4760
 3178SOL    HW121170   2.010   0.137   5.460 -0.4618 -0.2577 -1.6712
 3178SOL    HW221171   2.006   0.031   5.371  0.0342 -0.3664  0.1864
 3179SOL     OW21172   1.153   0.513   8.997 -0.1435 -0.1754  0.4457
 3179SOL    HW121173   1.239   0.549   8.975 -0.6103  0.1761 -0.7759
 3179SOL    HW221174   1.176   0.463   9.076 -0.8503 -0.6053  0.3751
 3180SOL     OW21175   1.031   3.645  15.025  0.8159  0.1013 -0.3086
 3180SOL    HW121176   0.993   3.642  14.937 -1.2915  0.5851  0.5794
 3180SOL    HW221177   1.112   3.597  15.007  0.0046 -2.2188  2.2003
 3181SOL     OW21178   0.832   0.521   0.691 -0.2117 -1.1540 -0.5461
 3181SOL    HW121179   0.876   0.455   0.744  1.6074 -0.8133 -1.5974
 3181SOL    HW221180   0.914   0.561   0.662 -1.6997  1.2188 -1.5306
 3182SOL     OW21181   2.323   4.045   3.891 -0.5608  0.0791 -0.0368
 3182SOL    HW121182   2.351   4.123   3.938 -0.7545 -0.4276  0.9216
 3182SOL    HW221183   2.351   4.058   3.801 -0.1556  1.1520  0.2517
 3183SOL     OW21184   4.243   4.025   2.065  0.2113  0.0393  0.1850
 3183SOL    HW121185   4.162   3.974   2.072  0.3161  0.1396  2.2403
 3183SOL    HW221186   4.273   4.045   2.154  1.3943 -1.2899  0.0762
 3184SOL     OW21187   2.696   4.735   3.470  0.4166 -0.1792 -0.6789
 3184SOL    HW121188   2.714   4.706   3.559 -2.1102  2.0890  0.5775
 3184SOL    HW221189   2.601   4.731   3.478  0.3778  1.9670 -0.0803
 3185SOL     OW21190   2.101   2.697   7.403  0.1731 -0.4975 -0.7813
 3185SOL    HW121191   2.012   2.680   7.372 -1.8172  4.8419  2.0034
 3185SOL    HW221192   2.071   2.743   7.481 -0.2178 -0.0667 -1.1805
 3186SOL     OW21193   0.311   2.513   8.370  0.2604 -0.5536 -0.0982
 3186SOL    HW121194   0.383   2.562   8.329 -0.3415  1.6427  1.4521
 3186SOL    HW221195   0.226   2.542   8.338  0.3881 -1.0189 -0.8454
 3187SOL     OW21196   1.097   4.307   7.398  0.0798  0.0520 -0.1200
 3187SOL    HW121197   1.010   4.333   7.369 -0.7359 -0.0951  2.2153
 3187SOL    HW221198   1.086   4.217   7.427  1.6324 -0.8955 -2.4544
 3188SOL     OW21199   1.359   3.040   4.547 -0.6958  0.5662  1.3558
 3188SOL    HW121200   1.452   3.029   4.530 -1.3665 -3.2610  0.2567
 3188SOL    HW221201   1.323   2.983   4.480  1.2825  0.1405  0.6516
 3189SOL     OW21202   2.820   1.220   3.494 -0.2240 -0.1765  0.3912
 3189SOL    HW121203   2.868   1.231   3.412 -1.3489 -4.3745 -0.8649
 3189SOL    HW221204   2.739   1.181   3.460 -0.2685 -0.8338  1.2329
 3190SOL     OW21205   0.304   4.622   3.303  0.1361  0.0981  0.3898
 3190SOL    HW121206   0.371   4.574   3.350 -1.4090 -1.2990  1.1808
 3190SOL    HW221207   0.249   4.658   3.373  0.4871  1.0110  0.1839
 3191SOL     OW21208   0.911   4.651  11.462  0.0375  0.0335 -0.0611
 3191SOL    HW121209   0.871   4.679  11.380  1.6448  0.4250 -0.7220
 3191SOL    HW221210   0.951   4.567  11.440 -1.8364 -1.1196  0.9071
 3192SOL     OW21211   1.381   2.975   4.031  0.0061  0.2263 -0.3246
 3192SOL    HW121212   1.387   2.912   3.959  1.3887  0.4509 -0.4025
 3192SOL    HW221213   1.299   3.022   4.015  0.3763  1.0704  0.2089
 3193SOL     OW21214   4.403   2.114   8.684  0.2847 -0.0020 -0.4019
 3193SOL    HW121215   4.478   2.058   8.665  1.0925 -0.3019  3.5929
 3193SOL    HW221216   4.346   2.073   8.619  1.3532 -0.7246 -0.8935
 3194SOL     OW21217   2.478   1.907   4.891  0.2798  0.2142  0.4337
 3194SOL    HW121218   2.550   1.970   4.891  1.0727 -0.7041  1.3885
 3194SOL    HW221219   2.425   1.934   4.966  0.7479 -0.6479  1.0543
 3195SOL     OW21220   4.728   1.567  12.226 -0.2255  0.1332 -0.2187
 3195SOL    HW121221   0.008   1.660  12.209 -0.9239  0.3722  0.4930
 3195SOL    HW221222   0.079   1.526  12.217  0.7586  2.3264 -0.6936
 3196SOL     OW21223   0.247   2.090  14.657 -0.0056 -0.0248 -0.1356
 3196SOL    HW121224   0.262   2.183  14.643  0.4485 -0.3903 -2.0893
 3196SOL    HW221225   0.306   2.060  14.726  0.6982  2.7674  0.4732
 3197SOL     OW21226   3.248   4.183   5.915 -0.0915 -0.1578  0.2804
 3197SOL    HW121227   3.303   4.123   5.865  1.4622  0.6666  1.0081
 3197SOL    HW221228   3.291   4.267   5.898 -0.6130  0.5750  2.5611
 3198SOL     OW21229   4.544   3.230   9.685  0.0819  0.3628  0.1332
 3198SOL    HW121230   4.563   3.162   9.621 -0.7529 -0.0502  0.3277
 3198SOL    HW221231   4.456   3.254   9.654 -0.2455  1.4089  1.8763
 3199SOL     OW21232   1.967   2.454   2.823 -0.3841 -0.0665  0.4267
 3199SOL    HW121233   2.047   2.420   2.782 -1.1088 -0.3648 -0.7607
 3199SOL    HW221234   2.007   2.482   2.905  2.1155  2.6122 -1.7068
 3200SOL     OW21235   4.167   1.893   1.980 -0.0108  0.5888  0.1136
 3200SOL    HW121236   4.139   1.801   1.985  0.9489  0.2903  0.0188
 3200SOL    HW221237   4.141   1.923   2.067 -4.7878  2.4087 -1.9366
 3201SOL     OW21238   2.615   2.063   9.617 -0.0786  0.0068  0.1983
 3201SOL    HW121239   2.639   1.971   9.607  0.8053  0.2189  0.2811
 3201SOL    HW221240   2.702   2.103   9.610  0.7625 -1.4313  2.2963
 3202SOL     OW21241   3.387   4.522   5.868  0.1139 -0.5253  0.1963
 3202SOL    HW121242   3.412   4.437   5.833  0.6985  0.3883 -1.5907
 3202SOL    HW221243   3.469   4.560   5.837  0.1991 -1.7324 -1.0502
 3203SOL     OW21244   4.514   1.105   6.446 -0.2466  0.0775  0.5235
 3203SOL    HW121245   4.597   1.153   6.438  0.3942 -0.9657  0.9520
 3203SOL    HW221246   4.454   1.156   6.390 -0.1086 -1.1815 -0.7680
 3204SOL     OW21247   1.166   0.872   6.556 -0.3865 -0.0514  0.1040
 3204SOL    HW121248   1.181   0.936   6.487  0.6588 -0.3589  0.0530
 3204SOL    HW221249   1.246   0.821   6.542  0.1820  0.5376  1.2254
 3205SOL     OW21250   3.927   1.507   1.769 -0.4865 -0.2926  0.9271
 3205SOL    HW121251   3.982   1.529   1.695  0.7721 -0.8021  1.7009
 3205SOL    HW221252   3.940   1.412   1.779  1.3205  0.1103  2.3507
 3206SOL     OW21253   0.481   2.177  10.689 -0.4133 -0.5681 -0.1229
 3206SOL    HW121254   0.396   2.135  10.680  0.1370 -1.9175  1.0148
 3206SOL    HW221255   0.542   2.103  10.684 -2.9214 -2.8060  2.6323
 3207SOL     OW21256   2.056   3.524  10.879 -0.1616 -0.0623  0.8651
 3207SOL    HW121257   1.995   3.480  10.938  0.0758 -1.9627 -0.3025
 3207SOL    HW221258   2.043   3.478  10.797  0.2618  2.3083 -0.5440
 3208SOL     OW21259   3.516   1.991   3.480 -0.2724 -0.1034 -0.7421
 3208SOL    HW121260   3.607   1.976   3.455 -0.4166 -2.9846  0.5423
 3208SOL    HW221261   3.467   1.972   3.400  1.5120  0.1825 -1.9214
 3209SOL     OW21262   0.495   2.649   8.237  0.2668  0.3658  0.2606
 3209SOL    HW121263   0.473   2.604   8.155 -1.1325  0.6561  0.4784
 3209SOL    HW221264   0.591   2.647   8.237  0.2855  0.8297 -1.3631
 3210SOL     OW21265   2.736   4.672   0.934  0.3737  0.0731  0.3344
 3210SOL    HW121266   2.792   4.635   0.866 -0.5830 -0.2986 -0.2459
 3210SOL    HW221267   2.728   4.591   0.985 -0.4831  1.2982  2.1414
 3211SOL     OW21268   3.658   0.052   3.044  0.0865 -0.4752 -0.4898
 3211SOL    HW121269   3.721   0.122   3.060  0.5565 -0.8033 -0.8964
 3211SOL    HW221270   3.628   0.071   2.955 -0.4297  1.5817  0.1207
 3212SOL     OW21271   2.756   2.909   4.714 -0.6462 -0.1597  0.1767
 3212SOL    HW121272   2.725   2.987   4.668  1.6731 -0.1372 -1.3073
 3212SOL    HW221273   2.847   2.926   4.737 -0.7593  0.0424  0.4739
 3213SOL     OW21274   2.716   2.867   8.193 -0.1928 -0.5752 -0.0310
 3213SOL    HW121275   2.689   2.917   8.270  0.3611 -1.1292  0.5238
 3213SOL    HW221276   2.640   2.810   8.183  0.3320 -1.4633  0.9933
 3214SOL     OW21277   2.774   4.473   5.301 -0.2266 -0.3886  0.4207
 3214SOL    HW121278   2.868   4.481   5.318 -0.2381 -2.2288  1.3931
 3214SOL    HW221279   2.734   4.542   5.354  1.0262 -1.1048  2.2970
 3215SOL     OW21280   4.212   2.294  10.751  0.4077  0.1283  0.5094
 3215SOL    HW121281   4.302   2.268  10.731  0.0785 -0.0485 -0.7237
 3215SOL    HW221282   4.191   2.248  10.832  1.6188  0.7579  1.1728
 3216SOL     OW21283   3.030   0.314   4.770 -0.3265 -0.0883  0.2860
 3216SOL    HW121284   3.093   0.245   4.789  0.1079  0.3988  0.6404
 3216SOL    HW221285   2.999   0.333   4.859 -1.9869  1.2400 -0.5955
 3217SOL     OW21286   3.080   2.874   6.541 -0.3583 -0.2411  0.2578
 3217SOL    HW121287   3.020   2.818   6.492  1.0452  0.1760 -1.9191
 3217SOL    HW221288   3.014   2.936   6.572  0.3235  0.2909  0.6708
 3218SOL     OW21289   4.465   3.024   1.302 -0.3337 -0.5391 -0.2101
 3218SOL    HW121290   4.459   3.022   1.398 -1.3223 -1.4442 -0.2993
 3218SOL    HW221291   4.375   3.052   1.285  0.2511  2.2783  1.2765
 3219SOL     OW21292   1.418   1.866   2.479  0.2290  0.4549  0.2763
 3219SOL    HW121293   1.365   1.795   2.442  0.1971 -1.6061  4.3044
 3219SOL    HW221294   1.380   1.945   2.438 -1.8528 -0.7713 -0.1644
 3220SOL     OW21295   0.051   1.739  16.920  0.2014  0.7911 -0.2483
 3220SOL    HW121296   0.094   1.672  16.973 -0.4865 -0.2846 -1.0406
 3220SOL    HW221297   0.115   1.748  16.849  0.0697 -0.3403 -0.5134
 3221SOL     OW21298   3.941   0.925   2.974 -1.1796  0.1851  0.0267
 3221SOL    HW121299   3.908   0.910   2.886 -0.4123  0.1325 -0.2498
 3221SOL    HW221300   3.920   0.840   3.013 -0.9949  0.5447  0.9282
 3222SOL     OW21301   3.217   0.782   6.093  0.2925  0.3101  0.2977
 3222SOL    HW121302   3.247   0.692   6.096 -0.8899 -0.0782  0.5618
 3222SOL    HW221303   3.266   0.811   6.016  0.6295 -1.5428 -0.1824
 3223SOL     OW21304   2.171   4.581   3.795  0.5890 -0.1322  1.1398
 3223SOL    HW121305   2.250   4.633   3.780  0.1147 -0.0080 -0.8617
 3223SOL    HW221306   2.207   4.494   3.776  3.2003  1.1295  0.2943
 3224SOL     OW21307   2.253   1.113   5.762 -0.4622 -0.0252 -0.2570
 3224SOL    HW121308   2.221   1.111   5.852 -0.0548  0.1872 -0.1097
 3224SOL    HW221309   2.254   1.208   5.748  1.6222  0.2760  1.8843
 3225SOL     OW21310   1.429   4.239   3.285  0.4650  0.2849 -0.2914
 3225SOL    HW121311   1.427   4.320   3.234  1.5716  0.5966  0.1557
 3225SOL    HW221312   1.472   4.267   3.366  2.0898  0.3544 -1.1766
 3226SOL     OW21313   1.922   2.897   4.151 -0.5061 -0.3008 -0.1927
 3226SOL    HW121314   1.862   2.966   4.180  2.2505  0.9571  2.5987
 3226SOL    HW221315   1.939   2.857   4.237 -2.7969  0.9595  0.8344
 3227SOL     OW21316   2.498   1.130  15.970  0.0809  0.1862  0.5469
 3227SOL    HW121317   2.512   1.099  15.881 -0.3927 -0.8137  0.8236
 3227SOL    HW221318   2.405   1.147  15.955 -0.1108 -0.5972  0.8285
 3228SOL     OW21319   4.560   4.316   4.883  0.3184 -0.4344  0.2608
 3228SOL    HW121320   4.595   4.242   4.933  0.3727  0.0793  0.9916
 3228SOL    HW221321   4.641   4.368   4.881 -0.1257  0.3309  1.8487
 3229SOL     OW21322   0.296   3.373  10.400  0.1694 -0.3846 -0.3662
 3229SOL    HW121323   0.217   3.324  10.377 -1.6865  2.0892  0.6793
 3229SOL    HW221324   0.262   3.459  10.375  2.2521  0.6829  0.4619
 3230SOL     OW21325   3.269   2.686  13.642  0.4683 -0.1184 -0.2878
 3230SOL    HW121326   3.194   2.724  13.596  1.9085  2.3853 -0.6071
 3230SOL    HW221327   3.271   2.764  13.699 -2.1115  0.4422 -0.9622
 3231SOL     OW21328   3.010   0.248  14.431  0.0240  0.2987  0.1184
 3231SOL    HW121329   3.095   0.217  14.462 -0.3520 -0.4507  0.3949
 3231SOL    HW221330   3.003   0.343  14.436 -2.0133 -0.0155  3.2658
 3232SOL     OW21331   2.804   3.849  17.381  0.1604  0.3526 -0.3398
 3232SOL    HW121332   2.732   3.819  17.437 -0.0421 -0.3556 -0.9908
 3232SOL    HW221333   2.774   3.817  17.296  1.5836 -0.5901 -0.4808
 3233SOL     OW21334   2.517   2.701   3.983  0.2283  0.3313 -0.5527
 3233SOL    HW121335   2.516   2.648   3.903  3.4731  2.0927 -1.7511
 3233SOL    HW221336   2.552   2.782   3.947  1.8939  1.0057  2.6805
 3234SOL     OW21337   4.478   2.602   3.827  0.1857  0.7060 -0.4164
 3234SOL    HW121338   4.410   2.578   3.890  2.7579 -1.3617  1.5441
 3234SOL    HW221339   4.520   2.675   3.873  0.1207 -0.0363  0.8138
 3235SOL     OW21340   3.529   3.789  11.264  0.2242 -0.2450 -0.3397
 3235SOL    HW121341   3.530   3.830  11.350 -0.8430 -1.7362  0.3781
 3235SOL    HW221342   3.502   3.865  11.212 -1.8895 -1.2509 -0.7150
 3236SOL     OW21343   0.794   1.779  15.708  0.2562  0.0658 -0.1504
 3236SOL    HW121344   0.790   1.758  15.801  0.3416 -2.1084 -0.6487
 3236SOL    HW221345   0.857   1.715  15.677 -1.0743 -0.7103 -1.2481
 3237SOL     OW21346   1.626   2.316   7.806  0.2512  0.3770 -0.5659
 3237SOL    HW121347   1.678   2.366   7.869 -1.4397 -0.2891  1.3701
 3237SOL    HW221348   1.674   2.339   7.727  0.8080  0.6887 -0.1325
 3238SOL     OW21349   2.614   0.479   9.488  0.2256  0.3066 -0.0666
 3238SOL    HW121350   2.689   0.536   9.468 -0.3311  1.3428  0.8162
 3238SOL    HW221351   2.536   0.533   9.477 -0.5950 -0.9989 -0.6769
 3239SOL     OW21352   3.641   2.997   2.207  0.4059  0.0128  0.6858
 3239SOL    HW121353   3.556   2.992   2.250 -0.0348 -0.5546 -0.2506
 3239SOL    HW221354   3.629   2.968   2.116 -0.2705 -1.4879  1.2536
 3240SOL     OW21355   0.169   3.907   0.987  0.0471 -0.5294 -0.3035
 3240SOL    HW121356   0.240   3.967   1.010  1.2000 -2.0134  0.0526
 3240SOL    HW221357   0.210   3.824   1.013 -1.5239 -0.7850  1.3245
 3241SOL     OW21358   0.947   1.693  12.433 -0.3751  0.5029 -0.3004
 3241SOL    HW121359   0.929   1.702  12.340 -3.8147 -0.0123  0.3090
 3241SOL    HW221360   1.042   1.696  12.435 -0.4233  1.7990 -0.0832
 3242SOL     OW21361   1.353   2.897   4.315  0.1784  0.0141 -0.1404
 3242SOL    HW121362   1.358   2.919   4.222 -0.9379  1.4715  0.1288
 3242SOL    HW221363   1.336   2.803   4.310  1.0211 -0.0972 -0.8531
 3243SOL     OW21364   3.206   0.587   9.038 -0.6798 -0.1857 -0.2322
 3243SOL    HW121365   3.118   0.583   9.075 -1.0013  2.0958 -0.7524
 3243SOL    HW221366   3.230   0.494   9.033  2.4571  0.6709 -1.1517
 3244SOL     OW21367   0.831   3.380  15.000  0.4331 -0.1917  0.4914
 3244SOL    HW121368   0.831   3.458  14.943 -0.2616  0.3393  1.2168
 3244SOL    HW221369   0.889   3.327  14.945 -0.6459  0.1635 -0.9854
 3245SOL     OW21370   3.851   4.084  17.109 -0.0849 -0.0218  0.0235
 3245SOL    HW121371   3.835   4.011  17.169  0.6382 -0.5573 -0.4308
 3245SOL    HW221372   3.909   4.141  17.160  0.5033 -1.5697  1.0838
 3246SOL     OW21373   1.764   1.449   6.411 -0.0131 -0.6513  0.4307
 3246SOL    HW121374   1.809   1.529   6.384  0.6700 -1.1845 -0.0329
 3246SOL    HW221375   1.829   1.382   6.388  0.3161 -0.1505 -0.1117
 3247SOL     OW21376   3.432   1.988  17.621  0.0578 -0.5160  0.1964
 3247SOL    HW121377   3.349   2.015  17.581  2.1915  2.5205 -2.1189
 3247SOL    HW221378   3.456   2.069  17.667  1.9441 -0.8504 -0.2223
 3248SOL     OW21379   2.418   4.686  12.981  0.4644  0.0194 -0.3188
 3248SOL    HW121380   2.404   0.002  13.060 -3.4518 -1.0510 -0.2906
 3248SOL    HW221381   2.464   4.605  13.006 -0.9245 -0.9212 -0.8097
 3249SOL     OW21382   3.923   2.375   8.380  0.0143 -0.5959 -0.1731
 3249SOL    HW121383   3.953   2.338   8.463  2.0685  1.3034 -0.0697
 3249SOL    HW221384   4.013   2.384   8.348  0.0556 -2.9111 -0.6830
 3250SOL     OW21385   1.751   1.551   2.387 -0.3561 -0.1609  0.3622
 3250SOL    HW121386   1.675   1.591   2.344 -2.0042 -1.8303  1.7129
 3250SOL    HW221387   1.722   1.530   2.476 -1.3221 -0.3077  0.0190
 3251SOL     OW21388   0.703   1.314   1.565 -0.9041  0.4296 -0.5219
 3251SOL    HW121389   0.798   1.323   1.566 -0.7310 -1.3415 -0.6510
 3251SOL    HW221390   0.692   1.219   1.575 -1.9036  0.8006  1.9207
 3252SOL     OW21391   2.988   3.193   6.792  0.0232 -0.2031  0.0550
 3252SOL    HW121392   2.902   3.215   6.827  0.1059  0.7365 -0.3451
 3252SOL    HW221393   2.958   3.144   6.715 -0.0760  0.9225 -0.6254
 3253SOL     OW21394   0.556   3.105   7.697 -0.0768 -0.0201 -0.1992
 3253SOL    HW121395   0.620   3.148   7.640 -2.5908  3.7836 -0.1304
 3253SOL    HW221396   0.609   3.035   7.736 -0.5583 -0.4851 -0.3826
 3254SOL     OW21397   1.109   0.388   1.559 -0.5648 -0.0285 -0.2602
 3254SOL    HW121398   1.066   0.367   1.477 -0.5963  0.8093 -0.4627
 3254SOL    HW221399   1.200   0.361   1.547 -0.7353 -0.9544  0.4786
 3255SOL     OW21400   0.734   0.628   4.982  0.6879  0.0988 -0.2788
 3255SOL    HW121401   0.830   0.624   4.985  0.7410  2.1185  0.8958
 3255SOL    HW221402   0.714   0.720   4.998 -2.9408 -0.8181  0.4528
 3256SOL     OW21403   1.741   2.760  14.778 -0.0853 -0.1712  0.4000
 3256SOL    HW121404   1.668   2.767  14.839  1.0545  3.1920  1.3612
 3256SOL    HW221405   1.700   2.713  14.705 -0.6227  0.7595  0.1101
 3257SOL     OW21406   1.163   4.368   3.890 -0.5666 -0.2154 -0.1554
 3257SOL    HW121407   1.141   4.409   3.973 -0.5331  1.8431 -1.1801
 3257SOL    HW221408   1.166   4.275   3.913 -1.0916 -0.7114 -2.1006
 3258SOL     OW21409   1.500   2.924  15.289  0.1402  0.7594 -0.1605
 3258SOL    HW121410   1.531   2.841  15.253  1.1252  1.4868 -0.9764
 3258SOL    HW221411   1.406   2.907  15.285  0.2089  0.7378 -1.7825
 3259SOL     OW21412   0.814   0.376  10.168  0.3627  0.3508  0.0173
 3259SOL    HW121413   0.778   0.423  10.244 -1.2535  1.6372 -1.5378
 3259SOL    HW221414   0.905   0.403  10.166 -0.0687  1.7784 -0.4454
 3260SOL     OW21415   4.137   0.772   4.878  0.0481 -0.2661 -0.3794
 3260SOL    HW121416   4.144   0.861   4.912 -1.0532 -0.3489  0.0609
 3260SOL    HW221417   4.042   0.762   4.880  0.2774 -2.2602  0.5091
 3261SOL     OW21418   3.735   0.344  10.146 -0.0179 -0.4497 -0.1395
 3261SOL    HW121419   3.822   0.308  10.133  0.4317 -0.5719  3.0526
 3261SOL    HW221420   3.776   0.413  10.199  1.1422 -1.7065  0.6007
 3262SOL     OW21421   4.671   0.888   8.854 -0.1097  0.2235  0.2850
 3262SOL    HW121422   4.588   0.858   8.892 -0.1745 -2.4919 -1.9781
 3262SOL    HW221423   4.733   0.859   8.921 -0.8310 -1.2904  0.3011
 3263SOL     OW21424   1.601   0.764   8.049  0.3568 -0.0846 -0.0656
 3263SOL    HW121425   1.558   0.840   8.089  0.2570 -0.1443 -0.0593
 3263SOL    HW221426   1.659   0.746   8.123  2.3995 -0.0733 -1.6576
 3264SOL     OW21427   2.430   2.999   1.108 -0.5823  0.5290  0.2043
 3264SOL    HW121428   2.417   3.011   1.202  0.9657  0.9021  0.3552
 3264SOL    HW221429   2.350   3.039   1.073 -2.1596 -2.0714  0.7637
 3265SOL     OW21430   1.179   4.447   3.641  0.6400  0.6519  0.4818
 3265SOL    HW121431   1.178   4.367   3.588  1.4518  0.8096  0.2289
 3265SOL    HW221432   1.162   4.415   3.729  0.5917 -0.8320 -0.0608
 3266SOL     OW21433   2.016   2.104   2.599  0.5737 -0.2072 -0.2339
 3266SOL    HW121434   1.924   2.080   2.602 -0.2141  2.6742 -2.1360
 3266SOL    HW221435   2.052   2.015   2.601  1.6501  0.2326 -0.0577
 3267SOL     OW21436   3.521   0.520  13.264 -0.0229 -0.1896 -0.1843
 3267SOL    HW121437   3.454   0.458  13.237 -1.8574  0.0660  3.8382
 3267SOL    HW221438   3.486   0.601  13.227  2.9422  1.5994  0.9888
 3268SOL     OW21439   2.613   2.563   7.441  0.4537  0.0740 -0.4291
 3268SOL    HW121440   2.601   2.651   7.475  0.2771  0.7191 -2.1491
 3268SOL    HW221441   2.544   2.513   7.484  0.7395 -1.2823 -1.5389
 3269SOL     OW21442   4.447   2.276   0.984 -0.1911 -0.2614  0.0046
 3269SOL    HW121443   4.380   2.208   0.991 -0.6974  0.4343  1.8385
 3269SOL    HW221444   4.514   2.212   1.010  3.1807  3.5571  0.6402
 3270SOL     OW21445   0.366   2.290  11.832 -0.0187 -0.3056 -0.5281
 3270SOL    HW121446   0.300   2.358  11.846 -0.2865 -0.7200  0.2001
 3270SOL    HW221447   0.440   2.311  11.889 -0.8384  0.6930  0.1646
 3271SOL     OW21448   1.097   1.596   7.772  0.3084  0.5282 -0.0720
 3271SOL    HW121449   1.027   1.659   7.790  0.0282  0.5515 -1.2446
 3271SOL    HW221450   1.056   1.512   7.789 -1.3520  1.9195  2.7095
 3272SOL     OW21451   0.317   0.307   5.405  0.6538  0.5223 -0.1763
 3272SOL    HW121452   0.364   0.285   5.325  0.2331 -1.4391  0.1086
 3272SOL    HW221453   0.379   0.280   5.472  1.8211 -0.0721 -1.4880
 3273SOL     OW21454   2.424   0.450   9.190  0.4017  0.3191  0.0727
 3273SOL    HW121455   2.368   0.413   9.122  1.7984 -1.1293 -0.2949
 3273SOL    HW221456   2.502   0.463   9.136  0.7771 -1.2695  0.2021
 3274SOL     OW21457   4.183   3.751   7.422 -0.4475  0.2874  0.1886
 3274SOL    HW121458   4.200   3.657   7.416  0.9650  0.4383  1.8686
 3274SOL    HW221459   4.122   3.758   7.495  0.3750 -0.5942  0.9611
 3275SOL     OW21460   2.117   3.545  17.593  0.8516  0.0527 -0.1166
 3275SOL    HW121461   2.053   3.560  17.523  2.7463 -0.7029 -2.0294
 3275SOL    HW221462   2.153   3.633  17.601 -1.6476  1.2912 -2.6387
 3276SOL     OW21463   2.291   2.470  16.572 -0.6126  0.3125 -0.1155
 3276SOL    HW121464   2.361   2.493  16.633  0.9118 -4.5482 -0.0701
 3276SOL    HW221465   2.311   2.520  16.493  1.7434 -0.4887 -0.0295
 3277SOL     OW21466   1.706   1.763   0.465 -0.2459 -0.2009 -0.2197
 3277SOL    HW121467   1.623   1.807   0.486  0.2688  0.8158 -0.3180
 3277SOL    HW221468   1.712   1.782   0.372 -2.8241 -1.6893 -0.6853
 3278SOL     OW21469   2.495   0.670   6.584  0.1532  0.6320 -0.5174
 3278SOL    HW121470   2.542   0.753   6.578 -1.5525  1.5226 -1.5308
 3278SOL    HW221471   2.565   0.618   6.544  0.8536  2.1588 -1.2777
 3279SOL     OW21472   4.551   0.790   2.461  0.0595  0.3875  0.0292
 3279SOL    HW121473   4.591   0.818   2.544  1.0045  1.2345 -0.7014
 3279SOL    HW221474   4.592   0.705   2.447 -0.5345 -0.0109  0.7128
 3280SOL     OW21475   0.571   0.560   6.128  0.3087 -0.3182 -0.3316
 3280SOL    HW121476   0.479   0.580   6.147  0.2171 -1.7673  0.6945
 3280SOL    HW221477   0.552   0.475   6.087  0.2908 -0.5589  0.1855
 3281SOL     OW21478   4.520   1.210  11.998 -0.1616 -0.0947  0.0382
 3281SOL    HW121479   4.478   1.262  12.066  2.3445 -0.1375  1.6192
 3281SOL    HW221480   4.595   1.266  11.978  0.6921 -1.3518 -0.3209
 3282SOL     OW21481   3.349   2.254   0.336 -0.2578  0.3552 -0.0022
 3282SOL    HW121482   3.289   2.227   0.267  0.7608 -0.1503 -0.6873
 3282SOL    HW221483   3.295   2.320   0.380 -0.4498  0.6073 -0.6192
 3283SOL     OW21484   2.656   2.645   7.094 -0.2556 -0.3004  0.2977
 3283SOL    HW121485   2.597   2.718   7.074  0.0903 -0.9681 -3.1072
 3283SOL    HW221486   2.678   2.627   7.003  0.0942  1.1974  0.0910
 3284SOL     OW21487   3.990   4.275   7.962  0.2337 -0.5505 -0.5269
 3284SOL    HW121488   4.070   4.245   8.004 -0.9186 -2.0690  0.5677
 3284SOL    HW221489   3.964   4.352   8.013  1.8583 -0.9799  0.9346
 3285SOL     OW21490   3.035   3.967  17.430  0.1778  0.2745 -0.4095
 3285SOL    HW121491   2.958   3.914  17.409  1.6562 -0.9204 -2.8106
 3285SOL    HW221492   3.048   4.001  17.342  4.0870 -1.8790 -0.6732
 3286SOL     OW21493   0.785   0.149   3.298 -0.0282 -0.2745 -0.5176
 3286SOL    HW121494   0.829   0.190   3.373 -0.8769  2.4527 -1.5066
 3286SOL    HW221495   0.821   0.209   3.233  0.8295  0.0292  0.2368
 3287SOL     OW21496   4.195   3.047  15.323 -0.2088 -0.3342  0.0084
 3287SOL    HW121497   4.217   2.976  15.383 -0.2060 -1.9037 -1.8496
 3287SOL    HW221498   4.208   3.004  15.239  1.5610  0.4323 -0.1057
 3288SOL     OW21499   0.540   4.437   8.746  0.2214 -0.0810  0.5093
 3288SOL    HW121500   0.613   4.426   8.807  2.0213 -0.4539 -1.7115
 3288SOL    HW221501   0.587   4.464   8.667  1.3127  0.6700  1.4104
 3289SOL     OW21502   2.890   1.150  11.948  0.4730  0.2599 -0.5109
 3289SOL    HW121503   2.950   1.154  12.022  1.0265 -2.2379 -0.8391
 3289SOL    HW221504   2.808   1.122  11.990 -0.8386  2.4241 -1.6500
 3290SOL     OW21505   3.743   1.344   8.941  0.2151 -0.7604 -0.2489
 3290SOL    HW121506   3.659   1.378   8.911  0.0265 -1.4141 -0.4659
 3290SOL    HW221507   3.740   1.249   8.933 -2.6128 -0.6077 -0.9471
 3291SOL     OW21508   3.934   4.005  11.234 -1.1319  0.1179  0.1547
 3291SOL    HW121509   3.916   4.095  11.207  0.2137 -0.2057 -1.8453
 3291SOL    HW221510   3.919   4.020  11.327 -2.6128 -1.8935  0.2381
 3292SOL     OW21511   3.528   0.876  15.016  0.2067 -0.2005  0.4533
 3292SOL    HW121512   3.600   0.870  14.953  0.9540  0.4335  1.2403
 3292SOL    HW221513   3.558   0.823  15.090  0.4990 -1.8129 -0.8216
 3293SOL     OW21514   0.458   0.558  16.377 -0.2061  0.6041 -0.1891
 3293SOL    HW121515   0.390   0.600  16.429  0.2765  1.1100  0.0291
 3293SOL    HW221516   0.525   0.527  16.438  0.5695 -0.3469 -1.5320
 3294SOL     OW21517   4.725   0.582   2.382 -0.2768 -0.1430 -0.2048
 3294SOL    HW121518   4.713   0.491   2.353  3.0944 -1.5799  2.9708
 3294SOL    HW221519   0.077   0.575   2.422  0.1972 -0.5160 -1.2963
 3295SOL     OW21520   2.259   1.389   3.757  0.1122 -0.0652 -0.1875
 3295SOL    HW121521   2.347   1.407   3.723 -0.9056  1.0449 -2.2098
 3295SOL    HW221522   2.244   1.474   3.797  1.4063 -0.3636  0.9310
 3296SOL     OW21523   2.667   0.338   8.957 -0.1020  0.1568 -0.3695
 3296SOL    HW121524   2.607   0.406   8.925  0.8118  1.7198  1.2112
 3296SOL    HW221525   2.705   0.313   8.874  0.7907 -0.8053  0.3320
 3297SOL     OW21526   3.055   2.859   1.266  0.0234 -0.0663  0.3584
 3297SOL    HW121527   2.969   2.900   1.257  0.0085 -0.3576 -0.8984
 3297SOL    HW221528   3.117   2.931   1.258 -0.0952  0.1992  1.9344
 3298SOL     OW21529   0.812   0.350   6.989  0.6752 -0.0032  0.3208
 3298SOL    HW121530   0.788   0.292   7.061 -1.6580 -1.2163 -1.4170
 3298SOL    HW221531   0.894   0.385   7.021 -0.7035  0.7204  3.0341
 3299SOL     OW21532   2.216   2.658  14.854 -0.0279 -0.1399  0.0402
 3299SOL    HW121533   2.229   2.668  14.949  0.5813 -0.8184  0.0242
 3299SOL    HW221534   2.134   2.704  14.834 -0.8219 -1.3407  0.5275
 3300SOL     OW21535   3.867   3.450  13.301  0.4124 -0.2709  0.5599
 3300SOL    HW121536   3.871   3.398  13.382 -0.1509  0.9980  1.4045
 3300SOL    HW221537   3.777   3.483  13.298  0.1213 -0.9416  1.9756
 3301SOL     OW21538   3.066   1.393  10.926  0.2295  0.2118  0.5119
 3301SOL    HW121539   3.034   1.308  10.894 -1.6903  1.1650 -0.1259
 3301SOL    HW221540   3.118   1.359  10.999 -1.0883  0.8837  1.7713
 3302SOL     OW21541   3.015   3.995   3.727 -0.0860  0.2546  0.8277
 3302SOL    HW121542   3.014   4.068   3.789 -0.8120 -0.3350  1.5112
 3302SOL    HW221543   3.109   3.996   3.709 -0.2171  1.1262  0.1551
 3303SOL     OW21544   0.443   0.643   5.162 -0.3815 -0.4116  0.4463
 3303SOL    HW121545   0.424   0.552   5.139  1.3587 -0.7866  0.4457
 3303SOL    HW221546   0.493   0.633   5.243 -0.4378 -0.3192  0.4917
 3304SOL     OW21547   2.210   4.370  17.482  0.1776  0.3635 -0.5765
 3304SOL    HW121548   2.196   4.423  17.404 -2.8986  0.9228  0.3645
 3304SOL    HW221549   2.299   4.390  17.511  0.1326  1.1399 -0.9960
 3305SOL     OW21550   0.213   1.667   6.518 -0.2244 -0.1523 -0.4255
 3305SOL    HW121551   0.200   1.713   6.435 -0.4696 -0.3545 -0.4997
 3305SOL    HW221552   0.306   1.684   6.532 -0.2760 -0.2243 -0.0105
 3306SOL     OW21553   4.687   3.424   5.231 -0.2718  0.1939  0.4525
 3306SOL    HW121554   4.637   3.504   5.214  1.8261  0.8828 -2.5232
 3306SOL    HW221555   0.010   3.456   5.300  1.8281 -3.2305  0.2307
 3307SOL     OW21556   1.000   2.899   3.810  0.0965 -0.3181  0.4046
 3307SOL    HW121557   1.026   2.852   3.889 -0.8532  1.2547  1.6486
 3307SOL    HW221558   0.924   2.853   3.774 -0.5767 -0.3407  1.8636
 3308SOL     OW21559   3.214   3.970   4.872  0.0791 -0.2598 -0.2583
 3308SOL    HW121560   3.224   3.967   4.777 -0.3712 -4.3133 -0.1541
 3308SOL    HW221561   3.299   3.945   4.907 -0.3609 -1.1999  0.1362
 3309SOL     OW21562   1.347   3.864   7.359  0.0835  0.1974  0.6606
 3309SOL    HW121563   1.424   3.913   7.331  0.9719 -0.7177  1.5315
 3309SOL    HW221564   1.280   3.881   7.292 -0.6556  2.4511  1.9788
 3310SOL     OW21565   1.615   0.930   6.432 -0.4090 -0.1257 -0.5154
 3310SOL    HW121566   1.674   0.961   6.501 -0.7697  0.1621 -0.3320
 3310SOL    HW221567   1.675   0.864   6.397 -0.1522 -0.0105 -0.2971
 3311SOL     OW21568   0.548   3.829   6.642 -0.8261 -0.3405  0.2651
 3311SOL    HW121569   0.454   3.815   6.654 -1.2946 -0.3310 -3.5298
 3311SOL    HW221570   0.538   3.921   6.666  0.5325 -0.5269  1.5270
 3312SOL     OW21571   3.474   4.311   5.403  0.3140 -0.0816  0.4417
 3312SOL    HW121572   3.550   4.274   5.448 -0.5426 -1.3634  0.8466
 3312SOL    HW221573   3.514   4.338   5.320 -0.1008 -0.9416 -0.0352
 3313SOL     OW21574   0.075   0.166   3.846 -0.0165  0.4699  0.3731
 3313SOL    HW121575   0.107   0.230   3.782 -0.0442 -0.6415 -0.7568
 3313SOL    HW221576   0.117   0.194   3.928  1.5755 -0.8937  0.0191
 3314SOL     OW21577   2.071   4.267   3.822 -0.5166  0.3204  0.2764
 3314SOL    HW121578   2.050   4.295   3.733 -0.2641 -1.2808 -0.2802
 3314SOL    HW221579   2.167   4.272   3.822 -0.5485  0.9310 -1.4098
 3315SOL     OW21580   3.604   3.704   3.874  0.2632 -0.0313 -0.4187
 3315SOL    HW121581   3.661   3.762   3.824  1.0732  0.3428  0.9487
 3315SOL    HW221582   3.608   3.744   3.961  0.0727  0.1481 -0.4925
 3316SOL     OW21583   0.104   2.801   8.432  0.5979  0.2682  0.7054
 3316SOL    HW121584   0.050   2.843   8.499 -0.0092 -0.3287  0.5916
 3316SOL    HW221585   0.187   2.795   8.480  0.6823 -1.5235  0.3332
 3317SOL     OW21586   1.018   0.602   5.704 -0.5774 -0.1131  0.0797
 3317SOL    HW121587   1.008   0.627   5.795  1.3597 -1.5949  0.7150
 3317SOL    HW221588   0.986   0.673   5.649 -1.2871 -0.5074 -0.0122
 3318SOL     OW21589   1.655   2.935  11.800 -0.1927  0.5746 -0.4140
 3318SOL    HW121590   1.673   2.965  11.711 -0.9447  0.2286 -0.6808
 3318SOL    HW221591   1.567   2.898  11.797  0.1635 -0.1528 -1.6096
 3319SOL     OW21592   4.099   3.767   3.418  0.1149  0.0981 -0.4265
 3319SOL    HW121593   4.115   3.708   3.491 -0.3951 -0.1729 -0.5314
 3319SOL    HW221594   4.088   3.700   3.351  2.5851  0.7062 -1.4642
 3320SOL     OW21595   2.598   3.191   4.291  0.4365 -0.4730  0.3268
 3320SOL    HW121596   2.541   3.268   4.292  0.2618 -0.6070  0.8662
 3320SOL    HW221597   2.573   3.145   4.211  0.1816 -0.5266  0.4373
 3321SOL     OW21598   1.167   1.742  13.024 -0.1451 -0.0102  0.0189
 3321SOL    HW121599   1.203   1.674  12.966 -1.0433  1.1457 -1.8787
 3321SOL    HW221600   1.074   1.740  13.003 -1.4214  0.9127  5.4239
 3322SOL     OW21601   0.865   4.293   4.296 -0.3669 -0.4196  0.1158
 3322SOL    HW121602   0.779   4.250   4.294 -0.3727 -0.3876 -0.2406
 3322SOL    HW221603   0.869   4.321   4.205  1.9716 -1.7184 -0.1713
 3323SOL     OW21604   0.051   1.427   1.455 -0.0342 -0.2630 -0.0120
 3323SOL    HW121605   0.020   1.514   1.480  0.3474 -0.4823  1.2618
 3323SOL    HW221606   4.702   1.383   1.443  1.6614 -4.6924  3.8590
 3324SOL     OW21607   3.238   1.736   5.432  0.6928  0.0916 -0.0071
 3324SOL    HW121608   3.314   1.782   5.467  0.8911  0.8029 -1.3668
 3324SOL    HW221609   3.171   1.802   5.448  0.9534  0.2234  0.5218
 3325SOL     OW21610   1.575   2.738   2.860 -0.3143  0.2085  0.1237
 3325SOL    HW121611   1.553   2.650   2.831 -0.4485 -0.1198  1.1959
 3325SOL    HW221612   1.540   2.790   2.788  0.5660  1.3497  0.5219
 3326SOL     OW21613   1.842   2.120   1.778 -0.2783  0.7144 -0.0478
 3326SOL    HW121614   1.783   2.170   1.723 -1.9587 -1.4619 -0.2220
 3326SOL    HW221615   1.782   2.061   1.823  0.3810  0.8773  1.0414
 3327SOL     OW21616   0.605   0.738   3.574  0.2941 -0.2863  0.4222
 3327SOL    HW121617   0.519   0.747   3.615 -1.6000 -1.3584 -3.3304
 3327SOL    HW221618   0.580   0.736   3.482  2.8907  1.8945 -0.3515
 3328SOL     OW21619   4.531   1.235   4.766  0.2439 -0.2447 -0.2809
 3328SOL    HW121620   4.475   1.311   4.782  0.0129 -0.3747 -0.4722
 3328SOL    HW221621   4.612   1.250   4.815 -0.4242  1.6584  0.2490
 3329SOL     OW21622   4.207   3.246   2.772 -0.3186 -0.2914  0.2368
 3329SOL    HW121623   4.226   3.273   2.682 -1.3793  0.0035  0.1044
 3329SOL    HW221624   4.157   3.165   2.764  0.1327 -0.6967  1.5441
 3330SOL     OW21625   4.336   1.669   3.629 -0.1475  0.0584 -0.0942
 3330SOL    HW121626   4.305   1.746   3.677 -2.8671 -1.5407  0.7323
 3330SOL    HW221627   4.312   1.594   3.684  0.3042 -0.1191 -0.1383
 3331SOL     OW21628   4.598   2.816   2.402 -0.3543  0.3620 -0.7468
 3331SOL    HW121629   4.647   2.846   2.325  2.8530  0.5581  1.3584
 3331SOL    HW221630   4.668   2.776   2.454 -1.0960 -1.4574 -1.1563
 3332SOL     OW21631   3.152   3.753  17.640 -0.6220  0.1662  1.0685
 3332SOL    HW121632   3.104   3.831  17.667  2.2790  1.2093  3.1015
 3332SOL    HW221633   3.216   3.744  17.710  1.2786  1.1195 -0.5512
 3333SOL     OW21634   4.608   2.319   8.764  0.0727 -0.2221 -0.2114
 3333SOL    HW121635   4.551   2.374   8.817 -0.3049  0.3525 -1.2090
 3333SOL    HW221636   4.537   2.266   8.728  1.0146 -1.8540  0.3611
 3334SOL     OW21637   4.003   2.878  15.654 -0.2034 -0.1887 -0.2418
 3334SOL    HW121638   4.001   2.902  15.747  0.4360  2.1435 -0.8354
 3334SOL    HW221639   3.913   2.897  15.625 -0.0394  1.7664  0.5222
 3335SOL     OW21640   0.836   4.627   4.304 -0.1376 -0.2182 -0.4829
 3335SOL    HW121641   0.850   4.556   4.242 -0.9446 -0.1273 -0.7658
 3335SOL    HW221642   0.882   4.699   4.261 -2.0918  2.1538  1.3959
 3336SOL     OW21643   0.361   1.565   9.175  0.2116 -0.6335 -0.8016
 3336SOL    HW121644   0.415   1.599   9.104 -0.4107 -1.6709 -1.7869
 3336SOL    HW221645   0.329   1.646   9.213 -0.6263 -0.4870 -1.8261
 3337SOL     OW21646   3.926   3.720   5.990  0.5380 -0.2703 -0.1533
 3337SOL    HW121647   3.895   3.646   5.937  0.9264  0.4647 -1.4156
 3337SOL    HW221648   3.856   3.716   6.055  0.3052 -2.1669 -0.5163
 3338SOL     OW21649   4.142   3.031   4.484  0.5385 -0.0967 -0.0418
 3338SOL    HW121650   4.215   3.088   4.459 -1.6964  2.9079  0.1998
 3338SOL    HW221651   4.084   3.091   4.531  1.4843  0.4103  0.4645
 3339SOL     OW21652   3.760   3.158   8.674  0.5068  0.0257 -0.4411
 3339SOL    HW121653   3.724   3.121   8.593 -0.0653 -2.5166  0.9589
 3339SOL    HW221654   3.845   3.116   8.687  1.1326  2.2431  2.5482
 3340SOL     OW21655   1.065   1.572   6.405  0.9739  0.4228 -0.8742
 3340SOL    HW121656   0.970   1.564   6.411  0.6721  4.4360 -0.1876
 3340SOL    HW221657   1.095   1.486   6.375  0.6575 -0.1896  0.5683
 3341SOL     OW21658   3.405   0.352   4.920 -0.0336  0.4756 -0.3952
 3341SOL    HW121659   3.368   0.267   4.897 -0.2408  0.3233  0.5160
 3341SOL    HW221660   3.428   0.389   4.835 -1.9589 -0.4801 -1.3288
 3342SOL     OW21661   2.778   0.474  13.660 -0.4677 -0.3062  1.0843
 3342SOL    HW121662   2.801   0.518  13.741  1.6915 -1.2901  0.9961
 3342SOL    HW221663   2.865   0.466  13.620 -0.9754 -1.4234  0.2091
 3343SOL     OW21664   3.605   2.821  13.014  0.5489  0.1633  0.6448
 3343SOL    HW121665   3.550   2.804  13.091 -0.2419 -0.7746 -0.1349
 3343SOL    HW221666   3.635   2.909  13.039 -0.2362  0.7728 -0.5592
 3344SOL     OW21667   3.054   4.452   9.158 -0.5888  0.0783  0.5106
 3344SOL    HW121668   3.064   4.359   9.138 -0.4621  0.3470 -0.6642
 3344SOL    HW221669   3.128   4.476   9.103 -0.8572  1.5826  0.8090
 3345SOL     OW21670   3.801   2.328   1.404  0.7292 -0.2297  0.6202
 3345SOL    HW121671   3.837   2.417   1.408  0.5528 -0.1245 -0.1069
 3345SOL    HW221672   3.706   2.332   1.391  0.8505 -0.2986 -0.2711
 3346SOL     OW21673   4.722   1.964  14.860 -0.1574 -0.0061  0.0441
 3346SOL    HW121674   4.655   1.956  14.927 -1.3852 -2.5757 -1.4905
 3346SOL    HW221675   4.684   2.033  14.805 -1.1670  0.6774  1.5960
 3347SOL     OW21676   2.162   1.680   9.192  0.4069 -0.3214 -0.2867
 3347SOL    HW121677   2.212   1.610   9.150  1.4030  0.3801 -0.2657
 3347SOL    HW221678   2.126   1.720   9.113  0.3273  0.1951  0.0096
 3348SOL     OW21679   2.272   0.814   3.172  0.0649 -0.8630  0.4543
 3348SOL    HW121680   2.194   0.782   3.218 -1.4623  1.8720 -0.2205
 3348SOL    HW221681   2.340   0.758   3.210  1.6409 -0.8949 -2.4416
 3349SOL     OW21682   4.451   0.915   2.791  0.4421 -0.8608 -0.1329
 3349SOL    HW121683   4.525   0.854   2.787  1.5568  0.4769  0.0749
 3349SOL    HW221684   4.500   0.995   2.808 -0.5317 -0.0653 -1.0305
 3350SOL     OW21685   4.176   4.020   4.439  0.2158  0.1026 -0.0981
 3350SOL    HW121686   4.224   4.090   4.396 -0.0814  0.1375 -0.3649
 3350SOL    HW221687   4.199   3.941   4.389 -0.3172 -2.0112  2.9740
 3351SOL     OW21688   4.243   1.740   6.897 -0.1172 -0.0195 -0.7783
 3351SOL    HW121689   4.296   1.661   6.908  0.2636  0.6581  2.3796
 3351SOL    HW221690   4.170   1.706   6.949  1.0549  0.4355  1.1758
 3352SOL     OW21691   1.018   1.321   1.473 -0.3068 -0.0925  0.3061
 3352SOL    HW121692   1.092   1.311   1.533  0.2699 -0.9183 -0.5345
 3352SOL    HW221693   0.978   1.234   1.479 -0.9413  0.1960  0.2600
 3353SOL     OW21694   2.825   1.769   1.065 -0.0962 -0.4943 -0.2218
 3353SOL    HW121695   2.846   1.805   0.979 -2.1170  2.4270  0.5399
 3353SOL    HW221696   2.733   1.749   1.051 -0.5909  0.1341  2.1071
 3354SOL     OW21697   1.828   4.698  16.296 -0.3996 -0.2154  0.5017
 3354SOL    HW121698   1.761   4.725  16.234  0.3326 -0.0371 -0.2114
 3354SOL    HW221699   1.777   4.713  16.376 -1.3868  0.4433 -0.2595
 3355SOL     OW21700   4.506   0.720   3.636 -0.0838  0.1634  0.2752
 3355SOL    HW121701   4.526   0.707   3.543 -0.7252  4.4718 -0.4545
 3355SOL    HW221702   4.426   0.772   3.631 -0.3757 -0.0699  2.6473
 3356SOL     OW21703   2.703   4.691  12.695  0.0063  0.1197 -0.2281
 3356SOL    HW121704   2.661   4.700  12.610 -0.7894 -2.7730 -0.1416
 3356SOL    HW221705   2.797   4.689  12.676  0.1090  1.1712  0.1723
 3357SOL     OW21706   2.838   1.078   5.876  0.9457  0.5029 -0.1105
 3357SOL    HW121707   2.820   1.162   5.834 -0.8167 -0.0662 -0.4879
 3357SOL    HW221708   2.934   1.083   5.882  0.9455 -0.4361  0.6511
 3358SOL     OW21709   3.764   2.808   5.117 -0.0477  0.3780  0.1365
 3358SOL    HW121710   3.769   2.900   5.142 -1.5909  1.2465 -2.7371
 3358SOL    HW221711   3.797   2.807   5.027 -1.2466 -0.9330 -0.2917
 3359SOL     OW21712   3.291   1.807   7.141 -0.1752 -0.6968 -0.0672
 3359SOL    HW121713   3.256   1.880   7.090  2.2232 -0.1828 -0.9611
 3359SOL    HW221714   3.210   1.781   7.184  1.0210 -2.5053  1.0837
 3360SOL     OW21715   4.010   3.183   1.896  0.3961 -0.3339 -0.3642
 3360SOL    HW121716   4.014   3.278   1.884 -4.0712 -0.0408  0.4817
 3360SOL    HW221717   3.945   3.192   1.965 -0.6022  0.9330 -1.4723
 3361SOL     OW21718   1.041   0.733   8.375 -0.0189 -0.5768  0.4897
 3361SOL    HW121719   0.968   0.686   8.334 -0.9906 -0.4475  2.0667
 3361SOL    HW221720   0.998   0.765   8.454  1.4281  0.9172  0.6530
 3362SOL     OW21721   3.046   0.535   5.666 -0.4345  1.1252  0.4542
 3362SOL    HW121722   3.038   0.442   5.646  1.9070  0.7996  0.9827
 3362SOL    HW221723   3.136   0.542   5.699 -0.2676  1.3713 -0.0699
 3363SOL     OW21724   2.059   0.716  13.805  0.3859 -0.2219  0.3078
 3363SOL    HW121725   2.026   0.708  13.894 -0.9647 -0.5467 -0.2224
 3363SOL    HW221726   2.092   0.805  13.811 -0.4381  0.1939 -1.5361
 3364SOL     OW21727   3.929   4.064   2.603 -0.4841  0.0472 -0.5436
 3364SOL    HW121728   3.845   4.105   2.586  0.9307  2.9557 -0.4787
 3364SOL    HW221729   3.893   4.005   2.669 -0.2826  0.0346 -0.4444
 3365SOL     OW21730   2.229   3.276   2.193 -0.5379 -0.2322  0.7603
 3365SOL    HW121731   2.197   3.270   2.102  2.0901  1.5752 -0.2894
 3365SOL    HW221732   2.156   3.311   2.243  0.9699 -0.7186  3.2943
 3366SOL     OW21733   3.873   0.672  14.363 -0.1674  0.5956  0.1090
 3366SOL    HW121734   3.781   0.673  14.337 -1.0814 -0.2454  3.2081
 3366SOL    HW221735   3.910   0.742  14.311  1.0094  2.5782  3.6148
 3367SOL     OW21736   2.337   0.308   2.843  0.1716 -0.3651 -0.2324
 3367SOL    HW121737   2.264   0.267   2.890  0.9199 -1.1971  0.2006
 3367SOL    HW221738   2.399   0.236   2.833 -0.1792 -0.2026 -3.5781
 3368SOL     OW21739   2.843   3.372   1.974  0.0864  0.1569 -0.1032
 3368SOL    HW121740   2.856   3.438   1.905 -0.1302 -1.1157 -1.3582
 3368SOL    HW221741   2.830   3.424   2.053  2.9947  1.3565 -0.4123
 3369SOL     OW21742   3.098   0.463   4.507  0.5798 -0.0672  0.7367
 3369SOL    HW121743   3.096   0.401   4.580  1.1900  0.0298  0.8405
 3369SOL    HW221744   3.182   0.509   4.515  1.7320 -1.8083 -1.5692
 3370SOL     OW21745   3.499   0.949   6.029 -1.0549  0.3494  0.2316
 3370SOL    HW121746   3.587   0.986   6.039 -1.2719  1.2344 -1.1093
 3370SOL    HW221747   3.507   0.861   5.992  1.6257  1.7843 -2.5909
 3371SOL     OW21748   3.566   3.574   5.912 -0.3839  0.1783 -0.0532
 3371SOL    HW121749   3.518   3.523   5.847 -1.8032 -0.0790  1.1945
 3371SOL    HW221750   3.652   3.547   5.882 -0.5233 -0.0703 -0.2286
 3372SOL     OW21751   4.199   0.771  14.378  0.0440 -0.0056 -0.6153
 3372SOL    HW121752   4.191   0.859  14.342 -1.1609 -1.0363 -2.9169
 3372SOL    HW221753   4.189   0.793  14.470 -1.4177  3.7424 -1.6973
 3373SOL     OW21754   0.233   4.600   9.568 -0.0658 -0.4444 -0.0967
 3373SOL    HW121755   0.302   4.539   9.540 -0.7135 -0.1944 -2.2467
 3373SOL    HW221756   0.282   4.681   9.577 -1.9979  0.9369 -2.0464
 3374SOL     OW21757   2.220   1.119   8.604 -0.8097 -0.3677  0.0571
 3374SOL    HW121758   2.286   1.052   8.624  0.9674  0.3298 -3.4937
 3374SOL    HW221759   2.200   1.106   8.512  0.7429 -3.8110  0.1878
 3375SOL     OW21760   1.774   0.265   3.675 -0.2537 -0.3323  0.1897
 3375SOL    HW121761   1.754   0.226   3.760 -1.3488 -1.3903 -0.5405
 3375SOL    HW221762   1.810   0.347   3.708  1.1360 -0.7478 -0.3002
 3376SOL     OW21763   2.280   1.437   2.704 -0.0813  0.2242  0.1625
 3376SOL    HW121764   2.209   1.457   2.764 -1.5179 -2.8892 -0.4964
 3376SOL    HW221765   2.244   1.353   2.675  1.4943 -0.9810  1.6938
 3377SOL     OW21766   3.162   3.698   9.588  0.2390  0.1941  0.2592
 3377SOL    HW121767   3.133   3.758   9.656 -0.9881  0.2833 -0.3281
 3377SOL    HW221768   3.083   3.694   9.533 -0.8987  0.7696  1.8695
 3378SOL     OW21769   0.345   2.883   5.447 -0.4218 -0.5383 -0.1170
 3378SOL    HW121770   0.366   2.870   5.540  3.8045 -3.6891 -1.4903
 3378SOL    HW221771   0.420   2.833   5.416  0.3571  1.2623 -1.0739
 3379SOL     OW21772   1.706   2.618   0.876 -0.3218 -0.2917  0.7947
 3379SOL    HW121773   1.727   2.710   0.859 -1.9171 -0.4740 -2.1788
 3379SOL    HW221774   1.795   2.582   0.874 -0.2255 -0.0485  0.6705
 3380SOL     OW21775   2.568   1.265   9.231  0.3150  0.3051  0.4239
 3380SOL    HW121776   2.636   1.242   9.294  1.4128 -1.2172 -1.3216
 3380SOL    HW221777   2.615   1.294   9.153  0.6076 -0.3462  0.3595
 3381SOL     OW21778   4.217   2.287  15.959 -0.0235  0.4351 -0.7182
 3381SOL    HW121779   4.310   2.268  15.969 -0.6750 -1.1674  2.1340
 3381SOL    HW221780   4.185   2.197  15.963  1.6430 -0.1303 -0.0698
 3382SOL     OW21781   2.990   0.557  13.826 -0.0847  0.0514 -0.6340
 3382SOL    HW121782   3.069   0.514  13.856 -0.8352 -2.2614 -1.9698
 3382SOL    HW221783   3.025   0.615  13.759 -0.8234 -0.7214 -1.6909
 3383SOL     OW21784   4.040   3.583   3.676 -0.2785 -0.1024 -0.3419
 3383SOL    HW121785   4.061   3.614   3.764 -0.5292 -1.9836  0.3783
 3383SOL    HW221786   4.059   3.490   3.687  3.1462  0.8734  1.7451
 3384SOL     OW21787   2.428   1.398   6.512  0.4902 -0.7131 -0.4972
 3384SOL    HW121788   2.482   1.455   6.567  0.2922 -0.0739 -0.9518
 3384SOL    HW221789   2.493   1.362   6.452 -0.6485 -2.1563 -0.8530
 3385SOL     OW21790   2.747   2.311   4.042  0.6003 -0.1946 -0.1095
 3385SOL    HW121791   2.715   2.372   4.109  0.6247  1.2650 -1.4259
 3385SOL    HW221792   2.824   2.275   4.086  0.0780 -1.5050 -0.2616
 3386SOL     OW21793   2.202   0.160  16.934 -0.0271 -0.3280  0.2835
 3386SOL    HW121794   2.228   0.252  16.941  1.0829 -0.4839 -1.9580
 3386SOL    HW221795   2.273   0.124  16.882  1.4551 -1.5927  3.1547
 3387SOL     OW21796   2.042   4.345   3.541 -0.6353  0.1199 -0.0147
 3387SOL    HW121797   1.950   4.357   3.520 -1.3070 -1.6118  1.8615
 3387SOL    HW221798   2.051   4.273   3.478 -0.1872  0.0473  0.1294
 3388SOL     OW21799   0.262   2.594  11.339  0.4061 -0.1797  0.0987
 3388SOL    HW121800   0.267   2.509  11.384  2.2225  0.1250  0.4889
 3388SOL    HW221801   0.330   2.647  11.380 -0.3584  1.4404 -0.7580
 3389SOL     OW21802   4.515   2.305   1.483 -0.2143 -0.4325  0.3391
 3389SOL    HW121803   4.429   2.329   1.517 -0.1797 -0.0142  0.1216
 3389SOL    HW221804   4.559   2.263   1.557  0.6205 -1.2523 -0.6145
 3390SOL     OW21805   1.365   1.077  16.656  0.1506 -0.0291 -0.2828
 3390SOL    HW121806   1.319   1.039  16.580  0.4704 -3.0886  1.0303
 3390SOL    HW221807   1.421   1.002  16.677 -0.3173 -0.5764 -0.9752
 3391SOL     OW21808   0.996   0.618   8.800 -0.2381 -0.0155 -0.4220
 3391SOL    HW121809   1.046   0.589   8.877  0.6227  1.3573 -0.4798
 3391SOL    HW221810   0.909   0.630   8.840  1.2177 -0.8786  3.0059
 3392SOL     OW21811   2.876   1.911  13.798  0.3373 -0.5444  0.4854
 3392SOL    HW121812   2.878   1.877  13.709 -0.3874  0.6518  0.0162
 3392SOL    HW221813   2.830   1.995  13.792  0.0154 -0.8093 -0.7236
 3393SOL     OW21814   1.788   2.421  11.063 -0.6551 -0.4649 -0.1479
 3393SOL    HW121815   1.768   2.352  11.000  0.9217 -1.5629  0.5338
 3393SOL    HW221816   1.725   2.406  11.134  0.6814 -0.3530  1.0780
 3394SOL     OW21817   2.642   1.445   1.936 -0.5432  0.2969 -0.7050
 3394SOL    HW121818   2.735   1.430   1.950 -0.9054 -0.4115  0.9771
 3394SOL    HW221819   2.590   1.408   2.008  0.2478  0.4622 -0.0496
 3395SOL     OW21820   2.119   2.968  12.265  0.0502 -0.9382 -0.1649
 3395SOL    HW121821   2.116   2.927  12.351 -0.1199  0.9662  0.7384
 3395SOL    HW221822   2.159   2.900  12.212 -0.7652 -0.6508 -1.1540
 3396SOL     OW21823   3.475   1.859   8.740  0.0538  0.1135 -0.4003
 3396SOL    HW121824   3.414   1.910   8.687  0.0576  0.5504  0.0101
 3396SOL    HW221825   3.523   1.810   8.673  0.1085 -1.8956  1.1321
 3397SOL     OW21826   1.706   3.987   8.821 -0.2541 -0.5182 -0.0089
 3397SOL    HW121827   1.631   3.929   8.807 -1.0788  0.6200 -0.2595
 3397SOL    HW221828   1.671   4.061   8.870  2.2374  1.3542 -1.1005
 3398SOL     OW21829   1.973   3.256   2.976  0.1442  0.6014  0.3763
 3398SOL    HW121830   1.980   3.276   3.069 -2.4763 -2.1435  1.1383
 3398SOL    HW221831   1.968   3.161   2.973 -0.6040  0.6725 -0.9434
 3399SOL     OW21832   3.594   0.183   5.625  0.3506 -0.3777 -0.0768
 3399SOL    HW121833   3.656   0.255   5.613  0.9255 -0.6233  1.3425
 3399SOL    HW221834   3.530   0.200   5.556  0.6903 -0.2050 -0.3480
 3400SOL     OW21835   4.269   4.011   7.772 -0.3135 -0.0453 -0.1563
 3400SOL    HW121836   4.275   4.106   7.766  0.5825  0.0159  1.5548
 3400SOL    HW221837   4.346   3.990   7.719  0.8239 -0.6072  1.6950
 3401SOL     OW21838   1.975   0.601  11.518  0.2641  0.1725 -0.2499
 3401SOL    HW121839   1.889   0.640  11.534 -0.7469 -1.2367 -2.2546
 3401SOL    HW221840   2.023   0.671  11.474 -0.8306  0.6490 -0.6997
 3402SOL     OW21841   2.520   2.609   1.964 -0.4731  0.8404 -0.5244
 3402SOL    HW121842   2.450   2.555   2.002  0.7607 -0.0799  0.4168
 3402SOL    HW221843   2.572   2.550   1.910 -0.2651  1.8613 -1.4389
 3403SOL     OW21844   4.033   2.428  13.183 -0.0268  0.1337  0.9160
 3403SOL    HW121845   3.961   2.463  13.236 -0.2981  0.3888  0.3795
 3403SOL    HW221846   4.052   2.347  13.230 -0.1398 -0.6465 -0.3816
 3404SOL     OW21847   1.242   3.564  17.261 -0.7686  0.1848  0.0807
 3404SOL    HW121848   1.274   3.646  17.225 -1.9402  0.4660 -0.3182
 3404SOL    HW221849   1.153   3.560  17.228 -0.6437 -0.2329 -0.2094
 3405SOL     OW21850   1.585   3.264   7.078  0.1062  0.2137  0.3163
 3405SOL    HW121851   1.535   3.273   6.997  2.4142 -1.1659 -1.2589
 3405SOL    HW221852   1.663   3.218   7.047 -0.8765 -0.1697 -1.5772
 3406SOL     OW21853   2.348   3.236   0.678 -0.0202  0.0398  0.3842
 3406SOL    HW121854   2.329   3.273   0.765  0.9034  2.0922 -0.2885
 3406SOL    HW221855   2.347   3.142   0.696  0.0340 -0.4965 -2.4117
 3407SOL     OW21856   0.761   0.803   3.175  0.0633 -0.6606 -0.6385
 3407SOL    HW121857   0.699   0.825   3.104  1.1966  1.4924 -0.9674
 3407SOL    HW221858   0.833   0.864   3.162 -0.1083 -0.4484 -0.6071
 3408SOL     OW21859   4.254   4.164   6.299  0.6519 -0.0335 -0.5663
 3408SOL    HW121860   4.337   4.124   6.273  1.1659 -0.1737  1.2743
 3408SOL    HW221861   4.240   4.233   6.234  1.0747  1.6623  1.1664
 3409SOL     OW21862   1.494   1.444   7.767 -0.2809 -0.4813  0.3836
 3409SOL    HW121863   1.473   1.359   7.728  0.7668 -1.1224  1.2060
 3409SOL    HW221864   1.530   1.410   7.849 -0.6195 -0.3370  0.5941
 3410SOL     OW21865   3.051   4.725   4.244  0.2027  0.1123  0.0004
 3410SOL    HW121866   3.086   0.048   4.312  1.6981 -1.4648  0.5698
 3410SOL    HW221867   3.012   4.658   4.300  1.7239  0.9587  2.1202
 3411SOL     OW21868   4.090   1.210   1.107  0.0552 -0.4362  0.5863
 3411SOL    HW121869   4.115   1.226   1.016 -2.8829 -1.4955 -0.4175
 3411SOL    HW221870   4.006   1.169   1.088  0.8965 -1.2750 -1.3005
 3412SOL     OW21871   4.365   0.250  11.950  0.2411  0.0211 -0.1205
 3412SOL    HW121872   4.399   0.170  11.988 -1.6079 -0.4988  0.4506
 3412SOL    HW221873   4.270   0.251  11.964  0.0580  0.5363 -1.4131
 3413SOL     OW21874   0.735   2.282  10.924  0.4653 -0.2761  0.0060
 3413SOL    HW121875   0.695   2.203  10.962  2.7719 -1.1021  0.6834
 3413SOL    HW221876   0.661   2.343  10.915  0.5286  0.2837  3.3362
 3414SOL     OW21877   3.131   2.434   2.115  0.2005 -0.3494  0.1597
 3414SOL    HW121878   3.149   2.363   2.053  0.4146  1.9976 -2.4415
 3414SOL    HW221879   3.212   2.415   2.163  0.6703 -1.3872 -1.0445
 3415SOL     OW21880   3.943   2.070   9.313 -0.2152 -0.4803 -0.0929
 3415SOL    HW121881   3.942   2.138   9.380  1.8160 -0.6084  0.0791
 3415SOL    HW221882   4.002   2.111   9.250  0.7127  0.9141  1.6926
 3416SOL     OW21883   4.569   3.843   4.725 -0.1014 -0.2502 -0.7820
 3416SOL    HW121884   4.619   3.764   4.704  0.4828 -0.3561  0.9731
 3416SOL    HW221885   4.551   3.858   4.632  1.4539 -0.5004 -1.1190
 3417SOL     OW21886   3.690   4.347   9.710  0.7355 -0.5280  0.0501
 3417SOL    HW121887   3.612   4.403   9.703  1.3861  0.4588  0.6171
 3417SOL    HW221888   3.699   4.313   9.621  2.2490 -1.4504  0.5696
 3418SOL     OW21889   0.343   2.719   5.030  0.2207 -0.1666 -0.4352
 3418SOL    HW121890   0.414   2.782   5.036 -1.4856  1.4827  2.3507
 3418SOL    HW221891   0.390   2.638   5.008 -1.0774 -1.3842  1.2083
 3419SOL     OW21892   1.953   2.847   1.490  0.1477 -0.4051 -0.4979
 3419SOL    HW121893   1.963   2.922   1.431  1.2783 -0.1275  0.0494
 3419SOL    HW221894   1.994   2.871   1.573  0.3169 -2.9836  0.1521
 3420SOL     OW21895   0.401   1.958  14.873  0.0489 -0.8131  0.1472
 3420SOL    HW121896   0.407   1.995  14.961 -0.2465  3.0954 -1.5046
 3420SOL    HW221897   0.487   1.916  14.874  0.9468  1.0499  0.6118
 3421SOL     OW21898   0.856   0.118   1.708  0.3427 -0.1319  0.5145
 3421SOL    HW121899   0.778   0.169   1.732  0.5049 -0.1489  1.0714
 3421SOL    HW221900   0.824   0.095   1.621  0.7937  0.2354  0.2528
 3422SOL     OW21901   1.437   1.726   6.375  0.4464  0.0181 -0.2759
 3422SOL    HW121902   1.510   1.762   6.326  0.1173 -0.7587 -1.3360
 3422SOL    HW221903   1.360   1.731   6.318  1.4654  0.7531 -1.5730
 3423SOL     OW21904   2.090   1.053   9.179 -0.0253 -0.0239 -0.4889
 3423SOL    HW121905   2.186   1.055   9.181  0.0120 -0.8481 -1.3580
 3423SOL    HW221906   2.089   1.029   9.086  0.0460 -1.8387 -0.0245
 3424SOL     OW21907   1.161   4.622   4.355 -0.5551 -0.1842  0.0826
 3424SOL    HW121908   1.136   4.610   4.263 -0.2349  3.6062 -0.5100
 3424SOL    HW221909   1.078   4.600   4.396 -1.4131  0.5235 -1.3075
 3425SOL     OW21910   2.954   4.019  15.259 -0.1960  0.0108  0.0148
 3425SOL    HW121911   2.973   4.112  15.243  2.9712 -0.0555  3.6129
 3425SOL    HW221912   3.045   3.989  15.265 -0.1656  0.5925  2.4654
 3426SOL     OW21913   4.582   4.510   9.080 -0.0207 -0.2372 -0.7517
 3426SOL    HW121914   4.549   4.509   8.990 -2.1412  2.0907 -0.0095
 3426SOL    HW221915   4.603   4.419   9.101 -1.3237 -0.2293  0.6273
 3427SOL     OW21916   4.368   2.093   3.936  0.5919  0.1129 -0.6898
 3427SOL    HW121917   4.362   2.096   4.032  0.2773 -1.3613 -0.6676
 3427SOL    HW221918   4.278   2.079   3.908  0.7279 -1.6253 -0.2380
 3428SOL     OW21919   0.331   4.216   7.405 -0.7424 -0.6083 -0.2049
 3428SOL    HW121920   0.312   4.279   7.335 -2.5387 -0.3908  0.4757
 3428SOL    HW221921   0.271   4.234   7.478 -0.0663  0.7556  0.0183
 3429SOL     OW21922   4.036   4.617  15.987 -1.0637 -0.0748  0.0029
 3429SOL    HW121923   4.041   4.557  15.912 -1.3884 -3.1910  2.4488
 3429SOL    HW221924   4.023   4.701  15.944  0.3372 -0.3750 -1.0177
 3430SOL     OW21925   1.802   4.631   0.844  0.4244 -0.4943 -0.1013
 3430SOL    HW121926   1.734   4.643   0.910 -0.1984  2.3860 -1.2383
 3430SOL    HW221927   1.880   4.624   0.900  2.8924  1.0274 -3.3416
 3431SOL     OW21928   0.530   1.737   7.482  0.0198  0.3383  0.1604
 3431SOL    HW121929   0.556   1.820   7.523 -0.2726  0.4950  0.0273
 3431SOL    HW221930   0.606   1.705   7.433 -0.3805 -0.2330 -0.0826
 3432SOL     OW21931   4.024   0.008   4.024 -0.1686 -0.2206 -0.8644
 3432SOL    HW121932   3.968   4.666   4.027 -1.5422  0.7161 -2.3640
 3432SOL    HW221933   4.095   4.719   4.083 -1.1128 -0.0711  0.3229
 3433SOL     OW21934   2.752   0.454  12.958 -0.4132 -0.0339 -0.1749
 3433SOL    HW121935   2.716   0.422  13.041  1.2837  0.6060  0.8070
 3433SOL    HW221936   2.780   0.376  12.910 -1.5364 -0.0967 -0.7246
 3434SOL     OW21937   2.792   3.855   2.675  0.1684  0.2028  0.5730
 3434SOL    HW121938   2.877   3.853   2.718  1.0076 -0.7264 -1.1390
 3434SOL    HW221939   2.737   3.805   2.736 -0.1945  1.3561  1.1782
 3435SOL     OW21940   2.678   4.550  15.081 -0.4088  0.2221 -0.0840
 3435SOL    HW121941   2.623   4.623  15.055  1.8221  0.9625 -2.7640
 3435SOL    HW221942   2.704   4.507  14.999 -1.5060  0.1112 -0.3660
 3436SOL     OW21943   3.234   2.829   0.410 -0.0977 -0.5019 -0.4998
 3436SOL    HW121944   3.218   2.882   0.332  3.0867  0.9285 -0.1767
 3436SOL    HW221945   3.161   2.770   0.392  0.1129 -1.1378  0.6943
 3437SOL     OW21946   2.089   3.737  14.822 -0.0704  0.0323  0.0363
 3437SOL    HW121947   2.165   3.680  14.836 -0.0057  0.1937  0.3482
 3437SOL    HW221948   2.135   3.817  14.797 -0.3959  0.9257  2.3295
 3438SOL     OW21949   1.629   1.024  13.892 -0.3116 -0.3375 -0.5313
 3438SOL    HW121950   1.721   1.010  13.868 -0.0843  0.0978  0.0881
 3438SOL    HW221951   1.591   0.937  13.885 -1.5245  0.4793 -3.7187
 3439SOL     OW21952   2.177   4.500  16.475  0.3927  0.0513 -0.0167
 3439SOL    HW121953   2.136   4.570  16.524  2.7325  0.0173  1.9447
 3439SOL    HW221954   2.135   4.521  16.391 -0.1757  1.0154  0.5251
 3440SOL     OW21955   3.072   0.209  17.575 -0.4680 -0.0726  0.8354
 3440SOL    HW121956   3.006   0.178  17.513  2.1456 -1.7012 -1.1222
 3440SOL    HW221957   3.149   0.174  17.530 -2.4981 -1.7795 -1.2898
 3441SOL     OW21958   3.386   1.990   5.891 -0.0826  0.1158  0.1680
 3441SOL    HW121959   3.470   1.947   5.903  0.7617  1.9892  1.0287
 3441SOL    HW221960   3.327   1.928   5.933 -0.0154 -0.8119 -1.1255
 3442SOL     OW21961   1.427   0.488  16.485  0.0925  0.2198  0.1846
 3442SOL    HW121962   1.470   0.467  16.402  0.1408  1.0325 -0.0014
 3442SOL    HW221963   1.498   0.509  16.546 -0.2980  0.7715  0.4464
 3443SOL     OW21964   2.230   3.299  15.964  0.7361 -0.4896  0.4353
 3443SOL    HW121965   2.183   3.275  16.043 -0.8940  0.0763 -0.3616
 3443SOL    HW221966   2.283   3.372  15.995 -0.3668  0.6284 -0.3066
 3444SOL     OW21967   3.557   0.941  16.484 -0.5147  0.0366 -0.0269
 3444SOL    HW121968   3.619   1.000  16.526 -1.7112 -0.2023  2.0794
 3444SOL    HW221969   3.603   0.934  16.401 -1.6796  1.1914 -0.7721
 3445SOL     OW21970   3.294   0.869   2.753 -0.1521 -0.5955  0.0861
 3445SOL    HW121971   3.220   0.812   2.776  0.8345 -0.8087  2.6501
 3445SOL    HW221972   3.308   0.832   2.666 -2.3821  0.8035 -0.8808
 3446SOL     OW21973   0.314   2.516   1.986  0.2589  0.3319 -0.2321
 3446SOL    HW121974   0.279   2.479   2.067 -0.9616 -0.3399 -1.0785
 3446SOL    HW221975   0.306   2.448   1.919 -1.2158 -1.0271  1.3191
 3447SOL     OW21976   3.533   4.483   6.543  0.3022  0.1466  0.1519
 3447SOL    HW121977   3.523   4.430   6.622 -1.8914  1.4644  0.7503
 3447SOL    HW221978   3.623   4.517   6.546 -0.6363  2.8133 -1.9564
 3448SOL     OW21979   2.679   1.139  12.382 -0.5742  0.4891 -0.4094
 3448SOL    HW121980   2.723   1.095  12.310  2.7632  1.0982  1.2361
 3448SOL    HW221981   2.644   1.215  12.336  0.7795  0.6316 -1.1754
 3449SOL     OW21982   3.090   1.204   7.409  0.3486 -0.0555  0.3673
 3449SOL    HW121983   3.170   1.181   7.361 -0.3858 -1.7547 -0.0280
 3449SOL    HW221984   3.046   1.251   7.338  0.1141  0.3244  0.7680
 3450SOL     OW21985   1.405   2.128  16.696  0.1423 -0.0423 -0.2104
 3450SOL    HW121986   1.422   2.148  16.604  1.2499 -2.6327 -0.5914
 3450SOL    HW221987   1.329   2.184  16.710 -0.4529 -0.3906 -2.0462
 3451SOL     OW21988   1.032   0.583   1.742 -0.0466  0.1474  0.2954
 3451SOL    HW121989   0.979   0.549   1.814  0.2848 -1.6312 -0.2956
 3451SOL    HW221990   1.066   0.505   1.697 -0.4443  0.2987 -0.2732
 3452SOL     OW21991   2.321   1.265  17.505  0.1225  0.4896  0.0706
 3452SOL    HW121992   2.376   1.224  17.438  1.1649  0.0792  1.1816
 3452SOL    HW221993   2.319   1.351  17.464  0.4407 -0.2701 -1.5483
 3453SOL     OW21994   3.400   3.699   2.028 -0.1056 -0.2088 -0.4241
 3453SOL    HW121995   3.327   3.757   2.007 -0.0184 -0.1385 -0.5409
 3453SOL    HW221996   3.351   3.637   2.081  0.2913  0.4577  0.7390
 3454SOL     OW21997   1.456   1.222   5.030 -0.3756  0.2434  0.6877
 3454SOL    HW121998   1.395   1.278   4.982 -1.9090 -1.4952  0.5760
 3454SOL    HW221999   1.382   1.174   5.070 -0.3216 -1.2160 -0.9670
 3455SOL     OW22000   3.534   1.757   0.403 -0.2553  0.4474 -0.1044
 3455SOL    HW122001   3.458   1.800   0.442 -0.8987  0.4231 -1.3234
 3455SOL    HW222002   3.590   1.834   0.390  2.5297 -1.4840  0.4862
 3456SOL     OW22003   1.189   4.552   7.055  0.1636  0.4362 -0.1579
 3456SOL    HW122004   1.185   4.589   6.967 -0.6837  0.2420 -0.1964
 3456SOL    HW222005   1.124   4.606   7.100 -0.0185 -0.5456  0.7519
 3457SOL     OW22006   4.622   3.941   2.648  0.0572  0.1393 -0.1611
 3457SOL    HW122007   4.605   4.011   2.584  0.7125  0.2158 -0.2509
 3457SOL    HW222008   4.687   3.973   2.710 -1.5963 -0.8619  2.1135
 3458SOL     OW22009   1.705   3.788   4.720  0.5247 -0.7562 -0.0334
 3458SOL    HW122010   1.702   3.858   4.785  1.0847 -0.2275 -0.5726
 3458SOL    HW222011   1.787   3.810   4.675  0.7147  0.8029  1.0724
 3459SOL     OW22012   0.356   2.120   5.499 -0.0954  0.4743 -0.1006
 3459SOL    HW122013   0.274   2.144   5.458 -0.7096 -0.2791  0.6791
 3459SOL    HW222014   0.346   2.161   5.585 -0.2087  0.6047 -0.1757
 3460SOL     OW22015   2.711   1.487   4.441 -0.4068 -0.0431  0.6622
 3460SOL    HW122016   2.662   1.543   4.500 -1.8107  0.7683 -1.2933
 3460SOL    HW222017   2.662   1.407   4.459  0.3400 -0.6627 -0.0352
 3461SOL     OW22018   0.417   3.523   4.514  0.1535  0.2165 -0.3069
 3461SOL    HW122019   0.337   3.576   4.502  0.9667  1.5994  0.3379
 3461SOL    HW222020   0.436   3.524   4.608  0.9104  1.9414 -0.4757
 3462SOL     OW22021   0.096   0.472   6.030  0.2788 -0.1959 -0.1145
 3462SOL    HW122022   0.088   0.376   6.030  2.1418 -0.3468  1.7113
 3462SOL    HW222023   0.007   0.501   6.049 -0.6475 -0.8273 -3.4648
 3463SOL     OW22024   4.645   2.133   7.797  0.4380  0.7640  0.0575
 3463SOL    HW122025   0.000   2.103   7.794 -0.7183 -2.6184 -1.3334
 3463SOL    HW222026   4.624   2.155   7.706 -0.1676 -0.7177 -0.1670
 3464SOL     OW22027   3.464   0.399   0.751 -0.3608 -0.3902 -0.2994
 3464SOL    HW122028   3.420   0.474   0.712  1.4104  0.8720  0.1284
 3464SOL    HW222029   3.518   0.444   0.816 -0.8987 -1.1429  0.6770
 3465SOL     OW22030   4.066   2.930   4.226  1.1383 -0.0422 -0.1619
 3465SOL    HW122031   4.081   2.949   4.319 -0.1542 -0.2252  0.0850
 3465SOL    HW222032   4.142   2.972   4.186  1.9887  0.1132  1.6073
 3466SOL     OW22033   2.713   0.902   8.673 -0.3899  0.0412 -0.3432
 3466SOL    HW122034   2.737   0.809   8.682  0.8731  0.5173  1.1368
 3466SOL    HW222035   2.800   0.941   8.668 -0.6557  0.3760 -2.1632
 3467SOL     OW22036   0.730   0.580  14.646 -0.3341 -0.3083  0.5388
 3467SOL    HW122037   0.741   0.612  14.557 -0.0514 -3.8288 -0.6910
 3467SOL    HW222038   0.783   0.501  14.652 -1.1840 -0.9699 -0.8043
 3468SOL     OW22039   2.535   3.873   5.411  0.0145  0.6719 -0.4029
 3468SOL    HW122040   2.461   3.834   5.458  0.7826 -1.6453 -1.0805
 3468SOL    HW222041   2.566   3.938   5.473 -0.4792 -0.7971  1.3907
 3469SOL     OW22042   0.352   4.196  11.978  0.9425 -0.2925  0.4209
 3469SOL    HW122043   0.316   4.176  12.064 -2.3659  0.7963 -0.6939
 3469SOL    HW222044   0.379   4.114  11.936 -1.6158 -1.7354  1.5705
 3470SOL     OW22045   4.733   2.681   6.385 -0.3257  0.0868 -0.1348
 3470SOL    HW122046   4.718   2.738   6.461 -0.7626  1.8111 -1.5354
 3470SOL    HW222047   0.090   2.660   6.400 -0.6261  1.0535  3.0727
 3471SOL     OW22048   1.534   4.542   8.510 -0.2020  0.6026  0.1516
 3471SOL    HW122049   1.557   4.489   8.586 -1.4929  1.2671  0.9986
 3471SOL    HW222050   1.513   4.480   8.440  0.9752  1.8219 -1.2842
 3472SOL     OW22051   2.942   3.114   7.512  0.0448  0.0616 -0.2899
 3472SOL    HW122052   2.930   3.068   7.430 -0.6703  1.8789 -1.2030
 3472SOL    HW222053   2.854   3.115   7.550  0.6793 -0.4787  1.2167
 3473SOL     OW22054   2.572   1.498   3.776 -0.0633  0.0553  0.0169
 3473SOL    HW122055   2.562   1.431   3.709 -0.2812  0.1311 -0.0277
 3473SOL    HW222056   2.607   1.571   3.724 -1.3404 -0.2340 -1.2553
 3474SOL     OW22057   1.177   2.110  11.204  0.0693  0.8813  0.1009
 3474SOL    HW122058   1.185   2.020  11.234 -2.2293  0.9877  0.9883
 3474SOL    HW222059   1.083   2.116  11.218  0.2654  3.4971  0.3206
 3475SOL     OW22060   1.800   4.124  16.520  0.3804  0.5414  0.1953
 3475SOL    HW122061   1.874   4.081  16.477  1.0810 -0.2837  2.2626
 3475SOL    HW222062   1.779   4.193  16.456 -0.0037 -0.4889 -0.7963
 3476SOL     OW22063   4.436   3.124   5.523  0.0401  0.2766 -0.2108
 3476SOL    HW122064   4.451   3.078   5.606  0.3464 -1.6455 -1.3320
 3476SOL    HW222065   4.421   3.055   5.458  1.6198  1.0416 -1.3734
 3477SOL     OW22066   0.054   1.750  10.366 -0.6301  0.2102  0.8699
 3477SOL    HW122067   4.708   1.799  10.349 -0.6609  0.0547  0.5739
 3477SOL    HW222068   0.023   1.689  10.434 -0.4264 -1.0045 -0.1411
 3478SOL     OW22069   1.709   0.901   4.942 -0.1366 -0.7198  0.2692
 3478SOL    HW122070   1.776   0.960   4.906 -0.8670 -0.5308 -0.7863
 3478SOL    HW222071   1.629   0.937   4.904  1.0678  1.5766 -0.1095
 3479SOL     OW22072   3.339   3.889   3.054  0.4283 -0.3651  0.2026
 3479SOL    HW122073   3.266   3.881   3.115  1.7803  1.6022  2.1013
 3479SOL    HW222074   3.345   3.985   3.052  1.0361 -0.4280 -0.9498
 3480SOL     OW22075   3.937   3.329  16.897  0.5080 -0.2203  0.0415
 3480SOL    HW122076   3.986   3.314  16.816  1.2957  3.5174 -0.1877
 3480SOL    HW222077   3.905   3.243  16.925 -2.7270  1.2674  0.8978
 3481SOL     OW22078   0.723   4.098   2.422 -0.0477  0.1032 -0.1863
 3481SOL    HW122079   0.727   4.193   2.412 -0.9637  0.1308 -0.2956
 3481SOL    HW222080   0.657   4.089   2.490  0.2020  0.7033  0.1315
 3482SOL     OW22081   3.470   0.194  15.367 -0.2938  0.0112  0.0378
 3482SOL    HW122082   3.518   0.258  15.315 -0.2825  1.2823  1.6063
 3482SOL    HW222083   3.456   0.128  15.300 -3.2026 -0.1701  0.8362
 3483SOL     OW22084   3.513   1.869   5.007 -0.4404  0.4192 -0.3893
 3483SOL    HW122085   3.540   1.795   4.953  1.1277 -0.1228  1.1235
 3483SOL    HW222086   3.517   1.825   5.092 -1.1473  0.6235 -0.2509
 3484SOL     OW22087   0.781   2.581   1.835 -0.4116 -0.2373 -0.0681
 3484SOL    HW122088   0.823   2.667   1.839 -1.8235  0.4914 -0.8139
 3484SOL    HW222089   0.697   2.611   1.870 -1.0520  0.1894 -1.9956
 3485SOL     OW22090   1.781   0.564  10.494 -0.0196 -0.7347  0.1068
 3485SOL    HW122091   1.692   0.598  10.504  0.0764 -0.7317  0.9814
 3485SOL    HW222092   1.779   0.530  10.583  0.5288  1.2006  0.8601
 3486SOL     OW22093   2.574   3.928   6.423  0.2057  0.1708 -0.3971
 3486SOL    HW122094   2.568   3.861   6.491 -1.3640 -0.1605 -0.8532
 3486SOL    HW222095   2.497   3.984   6.437  0.8907  0.8483  0.6887
 3487SOL     OW22096   2.909   2.542   4.408 -0.4432  0.0873 -0.1448
 3487SOL    HW122097   2.822   2.544   4.448  0.0632 -1.5264  1.0173
 3487SOL    HW222098   2.950   2.588   4.481  0.8519 -0.5506 -0.4684
 3488SOL     OW22099   3.424   0.133   7.423  0.2024  0.3540  0.0658
 3488SOL    HW122100   3.351   0.122   7.362 -1.5885  0.0790  2.2909
 3488SOL    HW222101   3.399   0.211   7.472 -1.8236 -1.2317  1.5172
 3489SOL     OW22102   4.557   3.314   6.183 -0.7536  0.3993  0.0672
 3489SOL    HW122103   4.645   3.349   6.200 -1.4935  2.0356  0.4921
 3489SOL    HW222104   4.548   3.252   6.254 -1.2904  2.1250  1.5127
 3490SOL     OW22105   4.416   4.320   8.482  0.2304 -0.0225  0.0868
 3490SOL    HW122106   4.348   4.281   8.427  0.7698  0.3777 -0.8710
 3490SOL    HW222107   4.461   4.247   8.524  2.0761 -0.3215 -2.4123
 3491SOL     OW22108   3.198   2.399   3.890  0.0037 -0.0289 -0.3099
 3491SOL    HW122109   3.177   2.308   3.906 -0.1084  0.3740  1.8261
 3491SOL    HW222110   3.125   2.454   3.917 -0.1935 -1.1975  1.5322
 3492SOL     OW22111   1.066   2.470   9.976 -0.3940 -0.3851 -0.4351
 3492SOL    HW122112   1.041   2.378   9.990 -1.1489 -0.3141 -1.2750
 3492SOL    HW222113   0.978   2.504   9.962 -0.8440 -0.5649  1.9524
 3493SOL     OW22114   4.244   1.155   5.661  0.0630 -0.2154  0.5111
 3493SOL    HW122115   4.198   1.168   5.578  3.0036  0.5903 -0.9835
 3493SOL    HW222116   4.321   1.110   5.627  1.7627  1.1482  2.5530
 3494SOL     OW22117   3.647   4.641   1.419  0.1607 -0.3152  0.0791
 3494SOL    HW122118   3.579   4.596   1.369  0.5366  0.2999 -0.9799
 3494SOL    HW222119   3.703   4.569   1.450 -0.8081 -0.5199  1.3600
 3495SOL     OW22120   0.080   2.921   4.314  0.3728  0.2528  0.0370
 3495SOL    HW122121   0.152   2.973   4.278  0.5962  0.8724  1.3889
 3495SOL    HW222122   0.006   2.954   4.264  0.4654 -0.5986 -0.6709
 3496SOL     OW22123   2.981   2.675  12.160 -0.0415 -0.0936 -0.6611
 3496SOL    HW122124   3.064   2.721  12.174 -0.8533  1.1417  0.1386
 3496SOL    HW222125   2.960   2.712  12.074  1.2441 -1.0676 -1.3924
 3497SOL     OW22126   4.219   4.150   8.280  0.4471  0.0176 -0.1510
 3497SOL    HW122127   4.240   4.213   8.211 -0.7675  0.8915  0.2758
 3497SOL    HW222128   4.128   4.175   8.296  1.2813  3.2865 -0.5714
 3498SOL     OW22129   3.697   1.560  17.580  0.4389  0.7463 -0.2239
 3498SOL    HW122130   3.762   1.590  17.517  0.2356  1.3489 -0.1541
 3498SOL    HW222131   3.633   1.631  17.565 -0.6642  0.1398  1.5672
 3499SOL     OW22132   0.037   2.878   6.581 -0.2568  0.9599 -0.2873
 3499SOL    HW122133   0.105   2.940   6.608  0.8619  0.1580 -1.2928
 3499SOL    HW222134   4.722   2.849   6.657  1.6138 -0.3943  0.4177
 3500SOL     OW22135   3.150   0.024   0.713  0.0724  0.2452 -0.7310
 3500SOL    HW122136   3.202   4.679   0.708  0.1854  0.3062 -0.5245
 3500SOL    HW222137   3.227   0.079   0.702 -0.5172  1.2777  0.3155
 3501SOL     OW22138   1.501   1.991   8.781 -0.0464 -0.2855  0.4548
 3501SOL    HW122139   1.429   1.980   8.843  0.1160 -1.8517  0.3866
 3501SOL    HW222140   1.446   2.006   8.704  1.9013 -0.4075 -0.9484
 3502SOL     OW22141   1.355   0.930   8.321  0.0406  0.2280  0.6504
 3502SOL    HW122142   1.416   0.953   8.251 -0.5235 -0.9971 -0.2368
 3502SOL    HW222143   1.340   1.018   8.356 -0.9621  0.0033  0.7718
 3503SOL     OW22144   0.815   3.080   0.636 -0.8322 -0.5802  0.0418
 3503SOL    HW122145   0.763   3.159   0.649  0.6431  0.1132  1.6882
 3503SOL    HW222146   0.784   3.050   0.550  0.1501  0.4283 -0.6614
 3504SOL     OW22147   4.626   2.515  10.954 -0.1432 -0.1888 -0.3899
 3504SOL    HW122148   4.669   2.522  11.039 -0.7712 -1.3898  0.0229
 3504SOL    HW222149   4.556   2.579  10.965  0.0196  0.0627 -0.7900
 3505SOL     OW22150   3.632   2.852   0.764 -0.1449 -0.4211 -0.3071
 3505SOL    HW122151   3.593   2.804   0.838 -0.6396 -0.4803 -0.6072
 3505SOL    HW222152   3.561   2.913   0.741 -2.4994 -3.7495 -1.8331
 3506SOL     OW22153   1.753   3.333  17.603 -0.2492  0.1681  0.5491
 3506SOL    HW122154   1.669   3.311  17.645 -1.1863  1.2579 -0.7362
 3506SOL    HW222155   1.784   3.246  17.580  0.4086  0.2960  0.9443
 3507SOL     OW22156   4.305   3.418   6.853  0.4643 -0.1220 -0.2295
 3507SOL    HW122157   4.225   3.470   6.863  0.8821  0.5962 -0.5537
 3507SOL    HW222158   4.308   3.405   6.758  1.7247 -1.2118 -0.0335
 3508SOL     OW22159   1.037   4.663   1.760 -0.4667  0.5884 -0.9696
 3508SOL    HW122160   1.043   4.668   1.855  1.6573  0.5252 -1.0807
 3508SOL    HW222161   0.974   4.731   1.741  0.1504  0.6832 -2.7510
 3509SOL     OW22162   1.304   3.991   3.378 -0.6208  0.1695 -0.0287
 3509SOL    HW122163   1.378   3.951   3.423 -0.7052  0.5154  0.4155
 3509SOL    HW222164   1.353   4.057   3.328  0.8992  1.1229  2.7452
 3510SOL     OW22165   3.445   2.513   8.892  0.0370  0.1968  0.3276
 3510SOL    HW122166   3.482   2.601   8.883  1.4426 -0.6594 -2.2076
 3510SOL    HW222167   3.359   2.526   8.931  0.2674  2.1943  0.1682
 3511SOL     OW22168   3.904   0.482   4.810 -0.3235  0.4008  0.9577
 3511SOL    HW122169   3.868   0.454   4.726  1.3255  0.4767  0.2281
 3511SOL    HW222170   3.994   0.505   4.787 -0.3433  0.6911  1.1688
 3512SOL     OW22171   3.545   3.463   4.762  0.1320 -0.4515 -0.1311
 3512SOL    HW122172   3.493   3.518   4.703  0.2933 -1.2849 -1.0387
 3512SOL    HW222173   3.580   3.535   4.816  0.2900  0.4897 -1.4954
 3513SOL     OW22174   2.400   0.758   2.447 -0.7455 -0.9004  0.2713
 3513SOL    HW122175   2.338   0.777   2.377 -0.4021  2.5975  0.9399
 3513SOL    HW222176   2.466   0.701   2.406  1.6672  0.5368  2.1235
 3514SOL     OW22177   3.704   0.750   7.021  0.0717 -0.1379  0.2517
 3514SOL    HW122178   3.769   0.694   7.064  1.7306  0.9732 -0.8207
 3514SOL    HW222179   3.769   0.799   6.971 -0.9987 -1.1839 -2.1956
 3515SOL     OW22180   2.250   0.354   1.460 -0.2223 -0.1240  0.7878
 3515SOL    HW122181   2.169   0.316   1.426  1.3758 -0.2837 -2.8063
 3515SOL    HW222182   2.302   0.382   1.385 -0.4537 -2.0698 -0.1044
 3516SOL     OW22183   1.986   4.169   4.067 -0.2696 -0.2017  0.7152
 3516SOL    HW122184   1.895   4.197   4.059 -0.3961 -0.3145  1.7478
 3516SOL    HW222185   2.022   4.190   3.980 -0.6236 -1.7331  0.2034
 3517SOL     OW22186   1.727   3.465   8.041  0.3932 -0.1320  0.0128
 3517SOL    HW122187   1.667   3.447   7.969  3.1649 -2.1666 -1.7651
 3517SOL    HW222188   1.799   3.411   8.008 -0.8363 -1.1573 -0.9954
 3518SOL     OW22189   2.041   0.573   2.416  0.4679 -0.0465 -0.3626
 3518SOL    HW122190   1.976   0.504   2.409  1.3530 -0.6935 -2.2403
 3518SOL    HW222191   2.094   0.548   2.491  1.8906  0.3397 -1.2236
 3519SOL     OW22192   0.745   3.476  10.520 -0.3198 -0.4350  0.4215
 3519SOL    HW122193   0.689   3.526  10.460 -1.4147 -0.4395  1.4272
 3519SOL    HW222194   0.792   3.542  10.570  1.8172 -0.8187 -1.0866
 3520SOL     OW22195   0.011   2.791  13.721  0.2117  0.1436 -0.4603
 3520SOL    HW122196   4.700   2.707  13.720 -1.0346  0.8389 -1.5595
 3520SOL    HW222197   4.703   2.849  13.658  1.3468  0.9428 -0.4909
 3521SOL     OW22198   0.472   0.584   6.712  0.0967  0.2430 -0.0741
 3521SOL    HW122199   0.412   0.628   6.772  0.7175  0.5273  0.3370
 3521SOL    HW222200   0.483   0.503   6.762  2.3085  1.7285  1.8288
 3522SOL     OW22201   0.724   0.231  14.370  0.1111 -0.2282 -0.3248
 3522SOL    HW122202   0.808   0.191  14.390  0.6650  0.6527 -0.8602
 3522SOL    HW222203   0.672   0.201  14.445 -0.1759 -0.9681 -0.8244
 3523SOL     OW22204   3.028   1.830   7.181 -0.3196 -0.4039  0.0935
 3523SOL    HW122205   3.008   1.786   7.099 -0.6719  1.6144 -0.9157
 3523SOL    HW222206   2.984   1.789   7.255 -0.2239  0.9594  0.9154
 3524SOL     OW22207   1.824   2.864   0.813  0.3548 -0.0629  0.1786
 3524SOL    HW122208   1.768   2.934   0.778 -2.1936 -1.3733  1.6329
 3524SOL    HW222209   1.913   2.898   0.811 -0.0230  0.8183 -1.3011
 3525SOL     OW22210   0.367   4.394  15.958  0.4891 -0.2541 -0.4135
 3525SOL    HW122211   0.384   4.354  15.873  0.4678  0.3672 -0.7134
 3525SOL    HW222212   0.355   4.483  15.923 -1.0389  0.0781  1.0121
 3526SOL     OW22213   3.067   2.405   3.526  0.0285 -0.0259 -0.2176
 3526SOL    HW122214   3.153   2.426   3.561 -0.0561 -0.2085  0.1028
 3526SOL    HW222215   3.006   2.470   3.560 -0.9400 -0.7926 -0.4643
 3527SOL     OW22216   2.454   2.032   1.915 -0.5420 -0.1611  0.1390
 3527SOL    HW122217   2.387   1.966   1.897 -0.7760  0.0622  0.1915
 3527SOL    HW222218   2.397   2.102   1.947 -0.0065 -0.4553  1.7618
 3528SOL     OW22219   1.790   1.525   8.965  0.0283  0.1751 -0.6499
 3528SOL    HW122220   1.823   1.611   8.940  0.6015 -0.4218 -1.9975
 3528SOL    HW222221   1.710   1.542   9.015  0.2525  2.2835 -1.0171
 3529SOL     OW22222   3.914   2.954  16.803  0.1949  0.0505  0.0669
 3529SOL    HW122223   3.845   2.958  16.869  0.7984 -1.5607  0.8092
 3529SOL    HW222224   3.899   2.869  16.763  0.7975 -0.5647  1.1557
 3530SOL     OW22225   1.234   0.952   2.283  0.2967 -0.6813  0.1529
 3530SOL    HW122226   1.295   0.911   2.345 -0.2521 -2.6838 -0.6227
 3530SOL    HW222227   1.227   0.886   2.214 -0.8495  0.2531 -0.6136
 3531SOL     OW22228   3.444   3.745   3.539 -0.3850 -0.0157 -0.3529
 3531SOL    HW122229   3.497   3.727   3.616 -0.4005 -2.6755 -0.9563
 3531SOL    HW222230   3.425   3.658   3.503  1.9889 -0.0059 -1.6318
 3532SOL     OW22231   3.825   2.314   5.383  0.0002 -0.2434  0.5486
 3532SOL    HW122232   3.768   2.240   5.362 -1.7167  1.7720 -1.8645
 3532SOL    HW222233   3.792   2.379   5.322 -1.6515  0.1365  1.8518
 3533SOL     OW22234   1.341   3.022   3.490 -0.0957  0.4432 -0.0852
 3533SOL    HW122235   1.253   3.002   3.523  0.8824 -2.5564  0.7406
 3533SOL    HW222236   1.328   3.114   3.470  0.0671  0.4617 -0.1016
 3534SOL     OW22237   0.480   2.063   9.300  0.6087 -0.7304 -0.2451
 3534SOL    HW122238   0.551   2.007   9.266  1.2775 -1.1312  1.7938
 3534SOL    HW222239   0.443   2.097   9.218  0.3327 -1.4952 -0.4375
 3535SOL     OW22240   2.327   1.659   2.013  0.4775 -0.3511  0.7379
 3535SOL    HW122241   2.393   1.609   1.965  1.2786  0.6193  0.8548
 3535SOL    HW222242   2.299   1.726   1.951 -0.4733 -0.8390  0.6362
 3536SOL     OW22243   4.039   4.678   5.065 -0.2138  0.7631 -0.8031
 3536SOL    HW122244   4.077   4.636   5.142 -2.7402 -0.5604 -0.2555
 3536SOL    HW222245   4.112   4.703   5.008  0.9795 -0.2815  0.2718
 3537SOL     OW22246   2.503   3.148   0.120  0.4101  0.3047 -0.3797
 3537SOL    HW122247   2.418   3.175   0.154  0.0302 -1.1554 -0.1916
 3537SOL    HW222248   2.480   3.160   0.027  0.6787  0.1128 -0.4722
 3538SOL     OW22249   4.448   3.076  13.891 -0.1132  0.2081 -0.0962
 3538SOL    HW122250   4.493   2.996  13.917  1.2118  1.1376  0.4805
 3538SOL    HW222251   4.425   3.115  13.975 -0.2334  0.1634 -0.1096
 3539SOL     OW22252   0.381   2.163   7.615  0.0238  0.1106  0.1048
 3539SOL    HW122253   0.338   2.242   7.646 -1.6592  0.1238 -2.2455
 3539SOL    HW222254   0.374   2.191   7.523 -1.0277  0.1438  0.1918
 3540SOL     OW22255   1.765   3.146  10.159 -0.7436  0.3691 -0.3437
 3540SOL    HW122256   1.812   3.096  10.225 -0.4510 -0.1219 -0.9281
 3540SOL    HW222257   1.685   3.095  10.144  0.9800 -1.8409 -1.9725
 3541SOL     OW22258   3.988   3.198  17.398 -0.3149 -0.7239  0.1474
 3541SOL    HW122259   3.975   3.103  17.404  2.6136 -1.0409  1.2024
 3541SOL    HW222260   3.936   3.226  17.474  0.0708 -2.5232  1.0773
 3542SOL     OW22261   1.468   1.472  15.251  0.2932  0.1627 -0.2922
 3542SOL    HW122262   1.496   1.498  15.164  0.2318  0.0697 -0.3408
 3542SOL    HW222263   1.432   1.386  15.229  0.5380  0.0180 -0.1255
 3543SOL     OW22264   3.155   0.425  15.623 -0.0453  0.0455 -0.7720
 3543SOL    HW122265   3.231   0.474  15.593 -0.4956  2.5136  2.1422
 3543SOL    HW222266   3.080   0.479  15.599 -0.4365  0.7330  1.9369
 3544SOL     OW22267   0.866   1.381  15.492 -0.1077  0.0610  0.2727
 3544SOL    HW122268   0.826   1.412  15.411 -0.3739  0.6134  0.6150
 3544SOL    HW222269   0.901   1.296  15.467 -0.8588  0.5879 -2.4925
 3545SOL     OW22270   0.961   4.274  12.319  0.3043 -0.3286 -0.6435
 3545SOL    HW122271   0.917   4.351  12.283 -0.0896 -1.2698 -2.1840
 3545SOL    HW222272   1.021   4.259  12.245  1.4240 -0.0946  0.2192
 3546SOL     OW22273   3.893   4.228   4.768  0.6844 -0.2785  0.2798
 3546SOL    HW122274   3.951   4.175   4.822 -0.3099  0.5003  2.1474
 3546SOL    HW222275   3.907   4.308   4.818 -0.8693 -0.4024  0.9234
 3547SOL     OW22276   2.564   4.704   6.914 -0.4302  0.0162  0.1146
 3547SOL    HW122277   2.514   4.683   6.836 -0.3197 -0.6649  0.2300
 3547SOL    HW222278   2.634   0.021   6.874  1.3737 -2.6379 -0.1511
 3548SOL     OW22279   2.955   0.898   4.994 -0.4634 -0.6252  0.4859
 3548SOL    HW122280   2.982   0.962   5.060 -3.2189  2.0911 -1.0545
 3548SOL    HW222281   2.888   0.847   5.040 -1.0600  2.0986  2.7029
 3549SOL     OW22282   1.274   2.057  12.781  0.3963 -0.4896  0.2176
 3549SOL    HW122283   1.194   2.043  12.731  0.4621 -2.5165  0.6602
 3549SOL    HW222284   1.230   2.047  12.865  0.1425  1.4560  0.3051
 3550SOL     OW22285   4.384   0.064  12.912  0.3564 -0.1065  0.6175
 3550SOL    HW122286   4.379   0.045  13.006  0.9949  0.5817  0.7948
 3550SOL    HW222287   4.458   0.016  12.874 -0.1900  1.7033 -2.6400
 3551SOL     OW22288   4.686   3.164  13.128 -0.5779  0.2371 -0.2488
 3551SOL    HW122289   4.647   3.142  13.043 -1.5694 -0.2141  0.3173
 3551SOL    HW222290   4.727   3.241  13.088  1.2452 -1.8043 -2.3308
 3552SOL     OW22291   1.207   0.434   5.777  0.3755  0.0923  0.4331
 3552SOL    HW122292   1.143   0.489   5.733  1.2891  0.1787 -0.7826
 3552SOL    HW222293   1.165   0.347   5.774  0.6850 -0.0569  0.4343
 3553SOL     OW22294   2.533   1.560   9.269  0.1318  0.3289 -0.0750
 3553SOL    HW122295   2.606   1.574   9.329  1.4866  1.0387 -1.8789
 3553SOL    HW222296   2.552   1.469   9.246 -1.0265  0.2091 -0.5640
 3554SOL     OW22297   1.611   2.682   7.474  0.5279 -0.0753 -0.4242
 3554SOL    HW122298   1.604   2.697   7.568 -0.5699  0.2165 -0.5519
 3554SOL    HW222299   1.577   2.594   7.457  0.1617  0.2108 -1.1845
 3555SOL     OW22300   2.013   4.302   6.243 -0.4605  0.5070 -0.2023
 3555SOL    HW122301   2.085   4.279   6.184  0.8020  0.2247  1.4150
 3555SOL    HW222302   1.967   4.226   6.278 -2.2161  0.8169 -1.8769
 3556SOL     OW22303   3.608   3.469  11.287  0.1077  0.5826  0.2883
 3556SOL    HW122304   3.552   3.529  11.237 -0.9018 -1.3350 -0.8977
 3556SOL    HW222305   3.599   3.386  11.239  0.4477  0.6715  0.0703
 3557SOL     OW22306   3.086   3.489   7.010  0.5606  0.7692  0.3848
 3557SOL    HW122307   3.009   3.500   6.954  0.6297  1.1607  0.3695
 3557SOL    HW222308   3.152   3.445   6.957  0.7293  0.3436  0.9422
 3558SOL     OW22309   3.224   2.478  15.814  0.6659 -0.1094  0.1222
 3558SOL    HW122310   3.289   2.516  15.755  1.9297 -0.7626  1.0853
 3558SOL    HW222311   3.263   2.502  15.898 -1.3252  1.2635  0.6581
 3559SOL     OW22312   2.838   1.265   4.711  0.2899  0.1760 -0.2025
 3559SOL    HW122313   2.883   1.232   4.632 -2.0220  0.3699 -1.5886
 3559SOL    HW222314   2.761   1.294   4.662  0.1973 -3.1891 -2.1041
 3560SOL     OW22315   1.632   2.127   5.095  0.0390  0.7885  0.2708
 3560SOL    HW122316   1.628   2.213   5.137  0.5708  1.1443 -0.4194
 3560SOL    HW222317   1.724   2.104   5.105 -0.5031 -0.8757  1.5444
 3561SOL     OW22318   2.412   3.880   4.288  0.0117 -0.2863  0.4252
 3561SOL    HW122319   2.378   3.848   4.204 -0.3262 -0.7493  0.7371
 3561SOL    HW222320   2.375   3.968   4.292 -0.8695 -0.6587  0.6184
 3562SOL     OW22321   4.501   0.492  10.940  0.1749 -0.0918  0.2288
 3562SOL    HW122322   4.522   0.400  10.958 -1.1631 -0.9839 -2.7201
 3562SOL    HW222323   4.558   0.540  10.999 -0.6868 -0.3287  1.2624
 3563SOL     OW22324   4.239   1.147   0.636  0.0870  0.0620  0.0583
 3563SOL    HW122325   4.158   1.149   0.688 -1.3825 -0.3033 -2.2255
 3563SOL    HW222326   4.244   1.238   0.605  1.7636  0.2732  0.9471
 3564SOL     OW22327   2.266   4.713   8.777  0.0634 -0.3144  0.0059
 3564SOL    HW122328   2.222   4.728   8.861  0.3771  0.2342  0.0697
 3564SOL    HW222329   2.351   0.017   8.795  0.3969 -1.0202 -0.0139
 3565SOL     OW22330   0.235   0.695  16.490 -0.3307 -0.0941  0.5854
 3565SOL    HW122331   0.190   0.663  16.569 -2.3022 -1.1500 -0.9710
 3565SOL    HW222332   0.286   0.764  16.532  0.1531 -0.4750  0.6173
 3566SOL     OW22333   2.233   1.461  10.801 -0.2554 -0.2943  0.0742
 3566SOL    HW122334   2.232   1.386  10.860  0.5141  0.0577  0.5336
 3566SOL    HW222335   2.192   1.524  10.860  0.5571  0.8978 -0.6261
 3567SOL     OW22336   4.027   0.638   1.833 -0.8655  0.3188 -0.0538
 3567SOL    HW122337   4.006   0.606   1.921  0.6133  0.6627  0.4293
 3567SOL    HW222338   4.120   0.621   1.819 -1.3576 -2.8685  0.4317
 3568SOL     OW22339   0.645   4.425   5.020 -0.6323 -0.3590 -0.2689
 3568SOL    HW122340   0.654   4.357   5.086 -1.3366  0.5709  0.7828
 3568SOL    HW222341   0.713   4.394   4.961  2.1467 -0.7403  3.1560
 3569SOL     OW22342   2.718   2.152   5.253 -0.5801  0.3029 -0.2522
 3569SOL    HW122343   2.723   2.247   5.267 -0.5519 -0.1054  2.3935
 3569SOL    HW222344   2.698   2.157   5.159 -0.2301  1.3129 -0.2738
 3570SOL     OW22345   3.004   1.566   4.770  0.1166  0.2772 -0.6786
 3570SOL    HW122346   3.064   1.641   4.758 -1.5393  1.9253  1.2319
 3570SOL    HW222347   2.928   1.610   4.808  1.2354  2.0903 -0.4853
 3571SOL     OW22348   1.872   1.163  13.551 -1.1110  0.2053 -0.6850
 3571SOL    HW122349   1.925   1.172  13.471  0.5325 -1.6747  0.1892
 3571SOL    HW222350   1.803   1.226  13.533  0.2637  2.1042  0.6925
 3572SOL     OW22351   2.255   4.345   2.959  0.1571  0.3036 -0.6779
 3572SOL    HW122352   2.163   4.365   2.979  0.7419  1.1231  1.1755
 3572SOL    HW222353   2.283   4.429   2.923  1.8188  0.6408  1.3923
 3573SOL     OW22354   0.010   3.256   5.056  0.8045 -0.0026  0.0452
 3573SOL    HW122355   0.096   3.222   5.080 -0.7551 -1.3720  3.6317
 3573SOL    HW222356   4.720   3.312   5.129  0.2100 -0.1615 -0.0335
 3574SOL     OW22357   2.088   0.037  17.184  0.0072  0.2610 -0.3059
 3574SOL    HW122358   2.127   0.065  17.101 -1.5486  0.6957 -0.8775
 3574SOL    HW222359   2.116   0.106  17.244  1.0945 -0.5193  0.0964
 3575SOL     OW22360   3.622   4.555   4.675  0.1347  0.4188 -0.3162
 3575SOL    HW122361   3.535   4.575   4.709 -0.4906  1.5995 -2.5799
 3575SOL    HW222362   3.669   4.637   4.688  0.6808 -0.1161  1.0635
 3576SOL     OW22363   1.515   1.580  10.038 -0.1541 -0.2462 -0.6249
 3576SOL    HW122364   1.472   1.501  10.071  1.5936 -1.0682 -0.2953
 3576SOL    HW222365   1.607   1.569  10.061 -0.1132 -3.4448 -2.2412
 3577SOL     OW22366   0.340   4.235   7.999 -0.0308  0.1917 -0.0758
 3577SOL    HW122367   0.285   4.293   8.053  0.8706 -0.1526  1.2040
 3577SOL    HW222368   0.425   4.234   8.043 -0.7303 -1.7878  1.2294
 3578SOL     OW22369   0.996   3.131   2.484 -0.3079  0.1130 -0.1592
 3578SOL    HW122370   0.909   3.107   2.514  0.2978 -0.3932  1.1747
 3578SOL    HW222371   0.997   3.081   2.402  1.8575  0.5759 -0.4204
 3579SOL     OW22372   0.147   0.291   4.302 -0.5828  0.6823 -0.3636
 3579SOL    HW122373   0.215   0.226   4.320 -1.0922  0.0198 -0.7917
 3579SOL    HW222374   0.123   0.263   4.213  0.7937  0.8307 -0.7774
 3580SOL     OW22375   1.747   1.543   3.910 -0.0880  0.6120 -0.3347
 3580SOL    HW122376   1.777   1.505   3.827  2.1936 -3.6795  2.4270
 3580SOL    HW222377   1.655   1.516   3.910  0.1475 -0.2096 -0.7548
 3581SOL     OW22378   3.525   4.141   6.426 -0.0894 -0.1086  0.3794
 3581SOL    HW122379   3.468   4.066   6.408  0.9004 -0.1728 -2.5151
 3581SOL    HW222380   3.451   4.184   6.468  1.2577  1.9425  0.6133
 3582SOL     OW22381   3.832   0.442   9.034 -0.5223  0.1646 -0.4035
 3582SOL    HW122382   3.819   0.514   9.095 -2.2720  0.0864 -0.6889
 3582SOL    HW222383   3.911   0.405   9.074 -1.2192 -0.3910  0.4380
 3583SOL     OW22384   3.696   2.724   1.378 -0.2328 -0.3054  0.1651
 3583SOL    HW122385   3.707   2.782   1.454  1.6094 -0.6518  0.1542
 3583SOL    HW222386   3.600   2.726   1.377 -0.2173  1.7700  2.6505
 3584SOL     OW22387   3.630   4.107   9.816  0.4029  0.3899 -0.0862
 3584SOL    HW122388   3.542   4.100   9.779 -0.3128  1.4639  1.4119
 3584SOL    HW222389   3.664   4.192   9.788  0.7164 -0.3117 -1.8097
 3585SOL     OW22390   3.192   2.891   6.827  0.1072 -0.4193 -0.3068
 3585SOL    HW122391   3.160   2.883   6.737  2.7444  1.2730 -1.3957
 3585SOL    HW222392   3.286   2.880   6.814  0.1077 -1.0266  0.1833
 3586SOL     OW22393   0.270   3.247  15.418  0.4667  0.3045 -0.8412
 3586SOL    HW122394   0.239   3.329  15.455 -0.0550  0.1536 -0.9366
 3586SOL    HW222395   0.335   3.204  15.474  1.4903 -0.9096 -2.9553
 3587SOL     OW22396   0.883   1.477  14.229 -0.2028 -0.4805 -0.2106
 3587SOL    HW122397   0.840   1.453  14.311 -1.8026  1.4265 -0.5064
 3587SOL    HW222398   0.975   1.473  14.255 -0.2748  2.8070  0.5572
 3588SOL     OW22399   4.140   4.564   5.352  0.0751  0.5066 -0.0907
 3588SOL    HW122400   4.065   4.579   5.409  2.5441  1.2807  2.9418
 3588SOL    HW222401   4.213   4.609   5.393  1.1455  1.0875 -2.5945
 3589SOL     OW22402   3.327   0.412  13.580  0.4084 -0.3214  0.2624
 3589SOL    HW122403   3.381   0.355  13.525  0.6110  0.2844 -0.1680
 3589SOL    HW222404   3.354   0.494  13.540  1.3860 -0.6880  0.1667
 3590SOL     OW22405   4.522   4.309  13.408  0.4179 -0.2447 -0.0670
 3590SOL    HW122406   4.514   4.404  13.401  1.1766 -0.3800 -2.9338
 3590SOL    HW222407   4.434   4.274  13.419 -0.1402  0.3856 -2.4798
 3591SOL     OW22408   3.043   1.577   8.854 -0.5379 -0.0305 -0.3614
 3591SOL    HW122409   3.116   1.616   8.902  0.0002 -2.0227  0.4303
 3591SOL    HW222410   3.079   1.573   8.766  1.4858 -4.0077  0.6397
 3592SOL     OW22411   2.684   1.680   5.652  0.1591 -0.4247  0.6500
 3592SOL    HW122412   2.686   1.591   5.616  0.0733 -1.4606  3.1248
 3592SOL    HW222413   2.743   1.728   5.595  1.7789 -2.0295  0.9776
 3593SOL     OW22414   1.497   0.710   4.650  0.3658 -0.1858  0.2756
 3593SOL    HW122415   1.501   0.681   4.559  0.2624  0.9646 -0.0911
 3593SOL    HW222416   1.490   0.805   4.639 -1.3001  0.0707  3.2821
 3594SOL     OW22417   3.379   1.236   2.895  0.0980  0.1856 -0.4221
 3594SOL    HW122418   3.437   1.208   2.823  0.2260  0.3555 -0.3840
 3594SOL    HW222419   3.435   1.299   2.941  1.2426 -2.2093  1.4731
 3595SOL     OW22420   2.648   3.134   7.544  0.2184 -0.2268 -0.4862
 3595SOL    HW122421   2.623   3.050   7.506  1.8450 -1.3389  0.9216
 3595SOL    HW222422   2.613   3.134   7.633 -0.7282 -2.4225 -0.8586
 3596SOL     OW22423   0.836   1.506   5.254 -0.5319 -0.2899 -0.7157
 3596SOL    HW122424   0.748   1.524   5.221 -0.6220 -0.4215 -0.5507
 3596SOL    HW222425   0.817   1.423   5.299 -1.8743  0.3271 -0.1503
 3597SOL     OW22426   1.316   0.449   3.318 -0.2089  0.3526 -0.1485
 3597SOL    HW122427   1.408   0.447   3.342  0.1344 -0.1215 -1.4854
 3597SOL    HW222428   1.316   0.456   3.223 -0.5491 -0.6172 -0.2276
 3598SOL     OW22429   1.156   1.236  16.435  0.0053  0.1243  0.5882
 3598SOL    HW122430   1.067   1.241  16.469 -0.7901  0.5746 -1.5829
 3598SOL    HW222431   1.174   1.142  16.434  0.0166  0.1367 -0.5566
 3599SOL     OW22432   4.144   4.287  17.540 -0.2531 -0.4028 -0.1583
 3599SOL    HW122433   4.225   4.236  17.532 -1.9541 -3.3088  1.3237
 3599SOL    HW222434   4.075   4.221  17.545 -0.0701 -0.6343 -0.6219
 3600SOL     OW22435   1.079   2.184   1.861 -0.3536  0.3112  0.0219
 3600SOL    HW122436   0.993   2.144   1.872 -0.1932  0.1625  0.7376
 3600SOL    HW222437   1.062   2.269   1.901 -0.8877 -0.3481  1.2111
 3601SOL     OW22438   3.351   1.132   9.078  0.0066  0.0366  0.0536
 3601SOL    HW122439   3.321   1.042   9.064 -0.3124  0.1161  0.2217
 3601SOL    HW222440   3.328   1.158   9.167 -3.7469  0.3275 -1.0249
 3602SOL     OW22441   3.647   2.045   1.998 -0.2049 -0.2755 -0.1350
 3602SOL    HW122442   3.710   2.069   1.930  1.3433  1.1409  1.8177
 3602SOL    HW222443   3.570   2.077   1.952  0.0260  0.8368  0.2518
 3603SOL     OW22444   2.702   1.599   6.479 -0.8654 -0.6431  0.3536
 3603SOL    HW122445   2.695   1.505   6.498 -0.1660 -0.6344  0.6835
 3603SOL    HW222446   2.775   1.597   6.417 -3.1513 -0.3012 -2.3537
 3604SOL     OW22447   1.455   3.737   4.910  0.4485  0.2053 -0.4304
 3604SOL    HW122448   1.500   3.738   4.826 -1.0757  2.4758 -1.1918
 3604SOL    HW222449   1.366   3.759   4.885  0.1949  1.1473  1.3121
 3605SOL     OW22450   1.887   3.224  14.794  0.5769 -0.0765 -0.4680
 3605SOL    HW122451   1.963   3.273  14.825  0.5456  0.2302 -0.8751
 3605SOL    HW222452   1.928   3.173  14.724  2.5542 -0.3007  0.8666
 3606SOL     OW22453   0.269   4.271   9.229  0.2008  0.3713 -0.0332
 3606SOL    HW122454   0.218   4.351   9.224  1.4561  1.1862  0.1359
 3606SOL    HW222455   0.209   4.214   9.182  2.3189 -0.7111 -1.4563
 3607SOL     OW22456   1.319   3.955   6.626  0.0212 -0.3434  0.4670
 3607SOL    HW122457   1.303   3.868   6.591 -2.8493  0.0053  0.9783
 3607SOL    HW222458   1.241   3.999   6.592 -0.0204 -2.2134 -1.8955
 3608SOL     OW22459   4.439   4.540  12.185 -0.2185 -0.5067 -0.1372
 3608SOL    HW122460   4.346   4.521  12.195 -0.3934  0.4640  0.0979
 3608SOL    HW222461   4.483   4.522  12.269 -0.6995  1.1140  0.4655
 3609SOL     OW22462   1.079   1.113   1.184 -0.2475  0.4478 -0.0293
 3609SOL    HW122463   1.042   1.101   1.096 -1.2605 -1.4045  0.6306
 3609SOL    HW222464   1.007   1.083   1.241  0.3391 -0.9069  0.0035
 3610SOL     OW22465   2.160   0.952   0.083  1.0764 -0.4182 -0.1935
 3610SOL    HW122466   2.251   0.957   0.113  0.1278  1.8747  2.2800
 3610SOL    HW222467   2.161   1.001   0.001  0.7490 -1.9547 -1.1321
 3611SOL     OW22468   3.806   1.251   2.128  0.3152 -0.3454 -0.3033
 3611SOL    HW122469   3.806   1.336   2.084  0.2407  1.1082  2.4986
 3611SOL    HW222470   3.747   1.205   2.069  0.8627 -1.3877 -0.0267
 3612SOL     OW22471   0.628   1.663   8.108 -0.2132 -0.3575 -0.4088
 3612SOL    HW122472   0.592   1.625   8.189 -0.1471  3.3736  1.3911
 3612SOL    HW222473   0.711   1.694   8.144 -0.7151 -1.3724  1.6197
 3613SOL     OW22474   0.415   4.132   5.552 -0.2027 -1.0751  0.0277
 3613SOL    HW122475   0.349   4.145   5.483  0.3173 -1.1386 -0.4868
 3613SOL    HW222476   0.367   4.141   5.634 -1.3083  1.0347 -0.8421
 3614SOL     OW22477   3.617   1.086   2.467  0.2761  0.2217  0.6015
 3614SOL    HW122478   3.605   1.106   2.560 -0.0907  0.4972  0.4967
 3614SOL    HW222479   3.549   1.137   2.424  1.0877 -0.5097 -1.5513
 3615SOL     OW22480   3.127   1.848   3.055  0.3154  0.1846 -0.3485
 3615SOL    HW122481   3.151   1.757   3.037 -0.8387 -0.1955  0.0223
 3615SOL    HW222482   3.053   1.850   2.994 -0.7922  2.0267  1.0534
 3616SOL     OW22483   1.749   2.114   7.361 -0.2062 -0.1661  0.5498
 3616SOL    HW122484   1.768   2.027   7.324 -1.3400  0.4790 -1.5202
 3616SOL    HW222485   1.719   2.090   7.449  1.9557  2.5804  2.0213
 3617SOL     OW22486   3.129   0.694   4.923 -0.2345  0.4323 -0.3221
 3617SOL    HW122487   3.081   0.774   4.945  0.2689  0.4918  0.5738
 3617SOL    HW222488   3.112   0.630   4.993  2.0069 -1.8195 -1.8551
 3618SOL     OW22489   3.667   3.979   7.282 -0.0655 -0.7299  0.2908
 3618SOL    HW122490   3.643   4.033   7.207  0.5005 -0.1701  0.5037
 3618SOL    HW222491   3.592   3.920   7.287  0.8729 -1.8774  0.5410
 3619SOL     OW22492   1.024   3.218   6.821 -0.1190 -0.0364  0.2980
 3619SOL    HW122493   1.037   3.216   6.916  0.7504  0.8495  0.2001
 3619SOL    HW222494   0.943   3.267   6.811 -0.2289  0.1060  1.8352
 3620SOL     OW22495   0.383   3.696  14.135  0.1900 -0.3222  0.4383
 3620SOL    HW122496   0.416   3.782  14.107 -0.0993 -0.1516  0.6215
 3620SOL    HW222497   0.462   3.650  14.164  0.7196  0.3150 -0.0025
 3621SOL     OW22498   1.114   3.362   1.399 -0.0904 -0.3141 -0.8698
 3621SOL    HW122499   1.118   3.394   1.309  0.4943  0.1046 -0.7007
 3621SOL    HW222500   1.168   3.421   1.452  0.8836 -0.6873 -1.4367
 3622SOL     OW22501   1.800   4.401   3.545  0.2023 -0.4386  0.0127
 3622SOL    HW122502   1.753   4.321   3.524  0.6051 -1.0203  1.3303
 3622SOL    HW222503   1.731   4.458   3.579  1.2424  1.6885 -1.4516
 3623SOL     OW22504   4.214   1.746   6.179  0.8873 -0.1615  0.1593
 3623SOL    HW122505   4.206   1.840   6.167 -0.9229 -0.3728 -0.1812
 3623SOL    HW222506   4.298   1.747   6.226  0.0024  0.4455  1.7133
 3624SOL     OW22507   0.616   0.879   5.112  0.5535 -0.2769 -0.5168
 3624SOL    HW122508   0.525   0.851   5.124  0.5548  0.1264  0.4126
 3624SOL    HW222509   0.610   0.973   5.123 -1.8558 -0.5002  0.0858
 3625SOL     OW22510   3.324   1.332   8.199 -0.2566 -0.4333 -0.7529
 3625SOL    HW122511   3.342   1.247   8.159 -0.8281  0.1336 -2.1995
 3625SOL    HW222512   3.340   1.378   8.117 -0.2205 -0.0131 -0.5111
 3626SOL     OW22513   3.322   3.877   2.773  0.1648 -0.5791  0.0139
 3626SOL    HW122514   3.319   3.889   2.868 -0.0301 -2.3306  0.2252
 3626SOL    HW222515   3.237   3.915   2.751  0.7963  0.0737 -1.3339
 3627SOL     OW22516   4.697   0.300   7.342  0.3080  0.0178 -0.2078
 3627SOL    HW122517   0.022   0.273   7.411  2.5783  0.1685 -2.0909
 3627SOL    HW222518   4.701   0.394   7.364 -1.5995 -0.1227  0.7112
 3628SOL     OW22519   4.159   4.153   2.478  0.0114  0.3252 -0.0291
 3628SOL    HW122520   4.106   4.093   2.530 -0.2675 -0.0012 -0.6776
 3628SOL    HW222521   4.108   4.233   2.465 -1.4350 -0.6476 -0.4472
 3629SOL     OW22522   4.029   0.136   9.034 -0.4404  0.3032  0.3088
 3629SOL    HW122523   4.045   0.212   9.090 -0.3002  1.6356 -1.5103
 3629SOL    HW222524   4.120   0.107   9.036  0.5180  3.1647 -1.1776
 3630SOL     OW22525   3.395   1.342   2.030 -0.2615 -1.0817  0.1746
 3630SOL    HW122526   3.454   1.404   1.988 -2.9275  0.7040 -0.9639
 3630SOL    HW222527   3.448   1.263   2.019  3.2129  1.2673  0.1967
 3631SOL     OW22528   2.881   3.070   5.486 -0.1876 -0.1624  0.2560
 3631SOL    HW122529   2.947   3.030   5.429 -2.7568  1.1556 -3.5817
 3631SOL    HW222530   2.810   3.006   5.492  1.5404 -1.7534  3.7318
 3632SOL     OW22531   3.070   2.325   2.502  0.7088  0.0981  0.2362
 3632SOL    HW122532   3.122   2.401   2.475  0.1578 -0.4265 -2.3334
 3632SOL    HW222533   3.115   2.253   2.459 -0.4828  0.1574 -1.1259
 3633SOL     OW22534   3.237   0.157   4.807 -0.3510  0.2669  0.0080
 3633SOL    HW122535   3.304   0.173   4.741 -0.4533 -2.9344 -0.8694
 3633SOL    HW222536   3.244   0.062   4.809 -0.6374  0.2564  0.3978
 3634SOL     OW22537   4.569   2.245  15.026  0.5839  0.4179  0.1631
 3634SOL    HW122538   4.538   2.251  14.935 -0.2889  1.0890  0.4964
 3634SOL    HW222539   4.565   2.151  15.040 -1.4146  0.1651 -2.0148
 3635SOL     OW22540   4.687   1.666   6.332 -0.3209 -0.2775 -0.3343
 3635SOL    HW122541   0.012   1.626   6.394 -3.3608 -1.3506  1.9218
 3635SOL    HW222542   4.731   1.650   6.248  3.0189 -1.4664  1.6598
 3636SOL     OW22543   3.455   2.213   2.334 -0.1246 -0.3241  0.3245
 3636SOL    HW122544   3.550   2.221   2.329  0.0642 -2.4449  0.7123
 3636SOL    HW222545   3.434   2.306   2.324  0.9752 -0.3826 -2.4535
 3637SOL     OW22546   2.358   3.435  17.563  0.0470  0.1726  0.2306
 3637SOL    HW122547   2.406   3.496  17.618  0.3174  0.9239 -0.8556
 3637SOL    HW222548   2.266   3.460  17.553 -0.1594 -0.4599  0.5490
 3638SOL     OW22549   2.960   0.257   3.894  0.5745 -0.0751  0.3060
 3638SOL    HW122550   3.024   0.282   3.828  2.1925  0.7310  2.1677
 3638SOL    HW222551   2.887   0.210   3.854 -0.1025  0.8009  0.5151
 3639SOL     OW22552   2.485   3.335   6.834  0.3013 -0.5056  0.1033
 3639SOL    HW122553   2.402   3.361   6.795 -0.1175 -2.4463 -0.2614
 3639SOL    HW222554   2.472   3.362   6.925 -0.4601  0.1854 -0.2136
 3640SOL     OW22555   4.032   2.247   5.912  0.3229 -0.1724 -0.4933
 3640SOL    HW122556   4.102   2.309   5.893  1.5093 -1.0437  1.0112
 3640SOL    HW222557   4.082   2.171   5.882  1.0021  0.2165 -0.3391
 3641SOL     OW22558   1.879   4.650   3.801  0.4249  0.6075 -0.0157
 3641SOL    HW122559   1.970   4.622   3.795 -0.2947 -1.4047 -1.1812
 3641SOL    HW222560   1.902   4.734   3.841 -0.2975  1.0624 -0.5679
 3642SOL     OW22561   2.141   4.253  16.699  0.7612  0.0188  0.1884
 3642SOL    HW122562   2.185   4.223  16.620 -1.6775  0.2385 -1.2598
 3642SOL    HW222563   2.125   4.346  16.683  1.3743  0.0749 -0.0831
 3643SOL     OW22564   0.651   2.659  12.512  0.5322 -0.5025 -0.6806
 3643SOL    HW122565   0.705   2.631  12.439  0.1052 -0.2001 -1.1135
 3643SOL    HW222566   0.668   2.753  12.510  1.1651 -0.6289 -1.1567
 3644SOL     OW22567   3.106   1.324  11.257  0.7688  0.4517  0.4465
 3644SOL    HW122568   3.104   1.292  11.347  1.3705  0.4902  0.4678
 3644SOL    HW222569   3.043   1.396  11.270 -1.2239 -1.3805  1.0026
 3645SOL     OW22570   2.625   2.357   3.011  0.3824  0.1058 -0.0606
 3645SOL    HW122571   2.624   2.452   3.020 -1.1334  0.1898 -1.2286
 3645SOL    HW222572   2.665   2.345   2.924 -0.0147  0.1395 -0.2461
 3646SOL     OW22573   4.573   4.275   3.506  0.6349  0.7586  0.1402
 3646SOL    HW122574   4.494   4.236   3.545  0.6124 -0.2843 -0.9429
 3646SOL    HW222575   4.543   4.289   3.415  0.6001  1.0106  0.1894
 3647SOL     OW22576   1.617   3.111   2.845 -0.1766 -0.3906 -1.0636
 3647SOL    HW122577   1.678   3.154   2.906  0.2340 -0.1239 -1.6573
 3647SOL    HW222578   1.541   3.108   2.903  1.0208  0.8969  0.5655
 3648SOL     OW22579   3.773   4.177   3.011  0.3286  0.0519 -0.1917
 3648SOL    HW122580   3.711   4.247   3.033 -1.6525 -1.0242 -2.2694
 3648SOL    HW222581   3.713   4.110   2.978 -0.5028  0.3690  0.6767
 3649SOL     OW22582   0.328   0.440  10.092 -0.6965  0.5033 -0.1893
 3649SOL    HW122583   0.249   0.420  10.042  0.8020 -0.3687 -2.1593
 3649SOL    HW222584   0.309   0.446  10.186 -0.6437 -0.2133 -0.1334
 3650SOL     OW22585   0.092   3.843   6.421 -0.1483  0.7060 -0.1034
 3650SOL    HW122586   0.120   3.934   6.416 -1.5096  1.2295  1.8154
 3650SOL    HW222587   0.157   3.811   6.483 -2.2619  0.3998  1.9674
 3651SOL     OW22588   0.382   2.249   3.017 -0.3846  0.6119 -0.4605
 3651SOL    HW122589   0.386   2.154   3.028 -1.3935  0.6342  0.0633
 3651SOL    HW222590   0.401   2.256   2.923 -0.1646  2.3180 -0.2810
 3652SOL     OW22591   0.387   3.213   8.340  0.1111  0.1967 -0.5440
 3652SOL    HW122592   0.329   3.213   8.416  0.9946  2.9732  0.1111
 3652SOL    HW222593   0.426   3.125   8.339 -0.0727  0.1224 -1.1034
 3653SOL     OW22594   2.275   3.808   5.548  0.2167  1.0155  0.0601
 3653SOL    HW122595   2.227   3.801   5.466  0.0907  1.1006  0.1259
 3653SOL    HW222596   2.215   3.865   5.598  0.2824  0.9604  0.2020
 3654SOL     OW22597   0.889   2.770   5.544  0.0520 -0.0882 -0.1049
 3654SOL    HW122598   0.936   2.830   5.486 -0.3260  1.0940  0.8281
 3654SOL    HW222599   0.877   2.697   5.482 -1.5466  0.7377 -0.7586
 3655SOL     OW22600   2.547   3.776   8.434  0.4486  0.3367 -0.3789
 3655SOL    HW122601   2.496   3.857   8.429  2.1845  1.5445  1.4590
 3655SOL    HW222602   2.486   3.713   8.395 -0.7120 -0.2176  2.3259
 3656SOL     OW22603   0.264   1.908  17.174 -0.1477  0.3787 -0.1674
 3656SOL    HW122604   0.249   1.945  17.087  1.6353  2.8552  0.5732
 3656SOL    HW222605   0.321   1.835  17.148  1.0929  0.4979  2.2543
 3657SOL     OW22606   0.543   3.044   7.352 -0.1963  0.0086  0.5216
 3657SOL    HW122607   0.623   3.059   7.303  0.7141 -3.3040  0.9695
 3657SOL    HW222608   0.478   3.109   7.326  0.5529  0.9983  1.1049
 3658SOL     OW22609   2.589   0.396   5.060 -0.7171 -0.5973  0.0271
 3658SOL    HW122610   2.683   0.382   5.052 -1.0558 -1.5119 -2.3392
 3658SOL    HW222611   2.562   0.304   5.060 -0.5503 -0.6411 -1.1877
 3659SOL     OW22612   3.127   0.817   5.209  0.1154 -0.4330  0.3433
 3659SOL    HW122613   3.082   0.901   5.201 -2.4670 -1.7533  0.6949
 3659SOL    HW222614   3.210   0.821   5.163  0.5085 -1.2313  0.9868
 3660SOL     OW22615   0.496   2.009   1.704  0.3270  0.7834  0.1415
 3660SOL    HW122616   0.482   1.936   1.764  1.1732  0.6859  0.2148
 3660SOL    HW222617   0.511   2.081   1.766  2.2611 -0.2959  0.9048
 3661SOL     OW22618   3.513   3.796   8.578  0.4485  0.3892 -0.1708
 3661SOL    HW122619   3.578   3.743   8.532  1.9303  0.5622  1.7196
 3661SOL    HW222620   3.570   3.863   8.616 -1.8690  1.6784  1.0087
 3662SOL     OW22621   1.780   3.124   7.356 -0.4723  0.1996 -0.2194
 3662SOL    HW122622   1.723   3.048   7.348  0.1585  0.1987 -4.3601
 3662SOL    HW222623   1.743   3.204   7.319  1.0430  1.1792  0.3989
 3663SOL     OW22624   1.610   2.443   3.604  0.0143 -0.0378  0.1043
 3663SOL    HW122625   1.550   2.412   3.672 -2.3013  0.2714 -1.7983
 3663SOL    HW222626   1.693   2.409   3.638 -0.7548 -0.0740  1.9078
 3664SOL     OW22627   1.944   0.399   8.077 -0.5751  0.1487  0.6531
 3664SOL    HW122628   1.912   0.392   8.167 -3.2180  0.8827 -0.2327
 3664SOL    HW222629   1.923   0.314   8.040  0.2861  0.5306 -0.7107
 3665SOL     OW22630   1.373   0.970   5.223  0.2076 -0.1977 -0.4050
 3665SOL    HW122631   1.298   0.929   5.179 -0.4856 -0.0143  0.6084
 3665SOL    HW222632   1.402   0.897   5.277 -1.2211  1.2107  2.2834
 3666SOL     OW22633   4.034   2.632  15.507  0.4435  0.0291  0.0355
 3666SOL    HW122634   4.083   2.638  15.589  1.9445  2.4953 -1.0859
 3666SOL    HW222635   4.045   2.718  15.468 -0.0120  0.1521  0.1703
 3667SOL     OW22636   4.607   0.310   2.191  0.2221  0.4646 -0.4031
 3667SOL    HW122637   4.612   0.230   2.244  0.7871  1.2983  0.7983
 3667SOL    HW222638   4.665   0.303   2.115  1.4385  0.3795  0.5296
 3668SOL     OW22639   1.787   1.667   9.286 -0.5374  0.5280  0.5207
 3668SOL    HW122640   1.722   1.664   9.356 -1.9009  1.0967 -0.7195
 3668SOL    HW222641   1.833   1.587   9.308 -1.4638 -0.1294  0.0954
 3669SOL     OW22642   3.306   3.656   4.144  0.2022 -0.2179 -0.0660
 3669SOL    HW122643   3.344   3.600   4.213 -1.5063  0.8029  1.7223
 3669SOL    HW222644   3.366   3.730   4.151  0.2100 -0.4309  2.3822
 3670SOL     OW22645   3.621   0.947   7.407 -0.0468  0.0181  0.1865
 3670SOL    HW122646   3.644   0.964   7.498  1.0380 -1.6505  0.2143
 3670SOL    HW222647   3.671   1.012   7.357 -1.0797 -1.7217 -3.1223
 3671SOL     OW22648   1.424   4.283   9.555  0.2942 -0.1148  0.1235
 3671SOL    HW122649   1.393   4.202   9.595 -2.5789  0.2927 -1.2987
 3671SOL    HW222650   1.394   4.273   9.464 -1.6856  0.2118  0.7400
 3672SOL     OW22651   3.692   1.147   5.612  0.3948 -0.1522 -0.2683
 3672SOL    HW122652   3.680   1.127   5.519 -2.1375  1.6477 -0.3112
 3672SOL    HW222653   3.608   1.173   5.650  0.6404  0.6825 -0.2779
 3673SOL     OW22654   2.309   0.939   8.311 -1.0152 -0.3401  0.0495
 3673SOL    HW122655   2.346   0.889   8.238 -1.6856 -0.2512 -0.3547
 3673SOL    HW222656   2.340   1.027   8.291 -0.7251 -0.7353 -1.2648
 3674SOL     OW22657   0.888   3.690   6.256  0.6611 -0.0298  0.3402
 3674SOL    HW122658   0.932   3.774   6.246 -4.2396  2.2707 -2.3939
 3674SOL    HW222659   0.816   3.708   6.316  0.4222 -0.3514  0.1505
 3675SOL     OW22660   0.420   4.425   9.411  0.4014 -0.0065 -0.0562
 3675SOL    HW122661   0.484   4.450   9.344 -0.7725  0.6173 -0.9549
 3675SOL    HW222662   0.354   4.388   9.353 -0.1442  2.1407 -0.8120
 3676SOL     OW22663   2.489   3.418   3.901  0.6676 -0.2405  0.3116
 3676SOL    HW122664   2.426   3.351   3.927 -1.1458  0.7737 -1.4917
 3676SOL    HW222665   2.568   3.365   3.905 -0.1542 -1.6925 -3.0241
 3677SOL     OW22666   3.843   4.178  14.438  0.5418  0.1396 -0.4478
 3677SOL    HW122667   3.829   4.087  14.412 -0.6089 -0.3706  1.9483
 3677SOL    HW222668   3.814   4.225  14.360 -2.6040 -1.6391 -0.3482
 3678SOL     OW22669   0.957   1.818   1.314 -0.6426  0.2437 -0.0526
 3678SOL    HW122670   0.914   1.763   1.248  1.4180 -1.6329  0.1928
 3678SOL    HW222671   1.046   1.817   1.278 -0.0454  1.7252  1.3795
 3679SOL     OW22672   4.599   0.520   7.054 -0.0820 -0.2574  0.3540
 3679SOL    HW122673   4.535   0.504   7.123 -1.0234  1.7734 -0.0491
 3679SOL    HW222674   4.667   0.562   7.107 -1.1218  0.3092  1.2320
 3680SOL     OW22675   1.703   0.865   4.154 -0.3773  0.0767 -0.1080
 3680SOL    HW122676   1.647   0.942   4.147  0.9834  1.0906  0.0203
 3680SOL    HW222677   1.691   0.834   4.064 -0.5819  0.8308 -0.3432
 3681SOL     OW22678   1.112   0.779  10.997  0.2337  0.0879  0.2025
 3681SOL    HW122679   1.088   0.845  10.932  2.0536  0.6680  0.1001
 3681SOL    HW222680   1.024   0.761  11.029 -0.4531  2.5077 -0.3166
 3682SOL     OW22681   2.764   3.595  11.153  0.1282 -0.1021 -0.2828
 3682SOL    HW122682   2.740   3.550  11.235  1.6233  0.2613  0.3601
 3682SOL    HW222683   2.698   3.565  11.091 -0.1747 -1.5571  0.7470
 3683SOL     OW22684   1.991   4.569   5.763 -0.2258 -0.4836 -0.2858
 3683SOL    HW122685   1.947   4.525   5.836 -0.2505 -1.6249 -0.9860
 3683SOL    HW222686   2.051   4.497   5.745 -2.0170 -3.0471  3.8849
 3684SOL     OW22687   2.886   0.995  13.227 -0.2111  0.0739  0.0994
 3684SOL    HW122688   2.866   1.009  13.134  0.2266 -1.5384 -0.2342
 3684SOL    HW222689   2.867   1.079  13.268 -0.8463 -1.8388  3.6895
 3685SOL     OW22690   1.501   3.053  10.223  0.4101 -0.2853 -0.7077
 3685SOL    HW122691   1.470   2.975  10.177 -2.6302  0.0998  0.7246
 3685SOL    HW222692   1.446   3.045  10.300 -0.2803  0.9903 -1.0684
 3686SOL     OW22693   3.992   2.247  13.646  0.2284 -0.2711  0.0990
 3686SOL    HW122694   4.010   2.331  13.690  2.3800 -0.4690 -0.4272
 3686SOL    HW222695   3.996   2.260  13.551 -0.0408  0.1410  0.1445
 3687SOL     OW22696   1.302   0.667   4.211  0.1789  0.1202 -0.5111
 3687SOL    HW122697   1.239   0.739   4.207  0.9574  0.7702 -1.0883
 3687SOL    HW222698   1.319   0.654   4.117  1.7347 -3.4300  0.2426
 3688SOL     OW22699   4.141   1.978   5.847  0.2539 -0.5793  0.1176
 3688SOL    HW122700   4.076   1.913   5.875  1.9454 -2.6128 -0.7720
 3688SOL    HW222701   4.210   1.921   5.814  3.3994  1.0175  3.8971
 3689SOL     OW22702   2.162   0.470   7.172  0.1261  0.1907  0.4398
 3689SOL    HW122703   2.250   0.460   7.136  1.1805 -0.8484  3.2999
 3689SOL    HW222704   2.168   0.560   7.204 -0.9689  1.0948 -1.9425
 3690SOL     OW22705   3.163   2.032  11.022 -0.5236  0.2797 -0.0602
 3690SOL    HW122706   3.163   2.128  11.013  0.7556  0.1283 -1.4684
 3690SOL    HW222707   3.162   2.015  10.928  0.1259  1.0119 -0.1963
 3691SOL     OW22708   2.382   2.922   8.016 -0.3229 -0.0099 -0.4519
 3691SOL    HW122709   2.289   2.946   8.021 -0.4777 -0.6647 -0.2483
 3691SOL    HW222710   2.398   2.863   8.089 -0.4829 -1.9120 -1.9653
 3692SOL     OW22711   4.510   0.487   2.654  0.3229 -0.2062 -0.2370
 3692SOL    HW122712   4.485   0.423   2.721 -1.6465 -0.1837 -0.9507
 3692SOL    HW222713   4.562   0.429   2.598  1.1373  0.9221 -0.6251
 3693SOL     OW22714   2.953   1.505   4.326  0.2315  0.3578 -0.7900
 3693SOL    HW122715   2.954   1.592   4.286  2.1921 -0.2744 -2.0908
 3693SOL    HW222716   2.877   1.512   4.384  1.3871  0.3470  0.7278
 3694SOL     OW22717   3.244   0.397   4.164  0.1257  0.3358  0.1158
 3694SOL    HW122718   3.202   0.476   4.196  0.7320  0.7568 -0.1271
 3694SOL    HW222719   3.169   0.350   4.127  2.4977 -2.6881 -0.8711
 3695SOL     OW22720   4.079   4.544   8.548  0.4149 -0.4421 -0.2374
 3695SOL    HW122721   4.096   4.612   8.613 -0.5697  0.3339 -0.8066
 3695SOL    HW222722   4.152   4.545   8.486  0.3813  0.8924 -0.2465
 3696SOL     OW22723   3.271   1.268   7.175 -0.2265 -0.2183  0.1727
 3696SOL    HW122724   3.353   1.309   7.147 -0.1581 -0.4385  0.0542
 3696SOL    HW222725   3.213   1.342   7.160  0.6291 -0.0554 -2.3349
 3697SOL     OW22726   4.596   0.777   7.882  0.0012 -0.3351  0.6397
 3697SOL    HW122727   4.576   0.736   7.966  1.9154  1.4709  1.9746
 3697SOL    HW222728   4.549   0.858   7.899 -0.7844 -0.8696  1.0074
 3698SOL     OW22729   0.579   1.798  13.135 -0.1929  0.8836 -0.0182
 3698SOL    HW122730   0.651   1.740  13.158  0.5359  0.3017 -3.8249
 3698SOL    HW222731   0.611   1.888  13.143  0.7410  0.4417  1.0717
 3699SOL     OW22732   4.251   0.085   5.505  0.5056 -0.0512 -0.4547
 3699SOL    HW122733   4.284   0.115   5.420  0.6584  1.3024  0.0766
 3699SOL    HW222734   4.210   0.168   5.532 -0.5855 -0.8996  0.4816
 3700SOL     OW22735   3.914   1.807   7.966  0.1970  0.3396 -0.8002
 3700SOL    HW122736   3.881   1.801   8.056 -2.2461  2.2334 -1.5608
 3700SOL    HW222737   3.880   1.896   7.951  2.4283  0.6840 -3.6779
 3701SOL     OW22738   0.663   3.588  13.839  0.0674 -0.6696  0.2951
 3701SOL    HW122739   0.747   3.566  13.878  0.0170 -1.3222  0.0267
 3701SOL    HW222740   0.617   3.507  13.816  0.2729 -0.6540 -0.1722
 3702SOL     OW22741   2.594   4.590   5.591 -0.6671  0.0078 -0.1918
 3702SOL    HW122742   2.686   4.585   5.615 -0.3786 -0.4227 -1.3556
 3702SOL    HW222743   2.590   4.675   5.549  1.4522  0.4538  0.5349
 3703SOL     OW22744   0.775   1.943   8.168 -0.1921  0.2759  0.0825
 3703SOL    HW122745   0.815   1.981   8.246 -0.5160 -1.3205  1.0364
 3703SOL    HW222746   0.840   1.878   8.141 -0.0285  0.6050 -0.3197
 3704SOL     OW22747   1.103   1.365  15.114 -0.0261 -0.2304  0.1610
 3704SOL    HW122748   1.054   1.337  15.191 -0.6073  0.6089  0.1042
 3704SOL    HW222749   1.193   1.334  15.126  0.2683  1.0266  1.2780
 3705SOL     OW22750   4.493   3.408  14.792  0.3717 -0.9582  0.3087
 3705SOL    HW122751   4.440   3.336  14.757  0.0394 -0.8061  0.4970
 3705SOL    HW222752   4.554   3.373  14.857  0.4124 -2.1899 -0.3878
 3706SOL     OW22753   4.679   4.473   4.460  0.2671 -0.3479 -0.1129
 3706SOL    HW122754   4.644   4.506   4.542 -2.3166 -1.8522 -0.5930
 3706SOL    HW222755   4.677   4.553   4.408 -1.4438 -1.2914 -1.5234
 3707SOL     OW22756   0.915   1.361   6.776  0.2804 -0.0000 -0.4396
 3707SOL    HW122757   0.881   1.387   6.861  1.5356  0.5187 -0.0947
 3707SOL    HW222758   0.876   1.432   6.725  0.0514 -1.2658 -2.0266
 3708SOL     OW22759   2.271   0.341   0.389  0.2548 -0.4700  1.0456
 3708SOL    HW122760   2.239   0.257   0.423 -0.2706 -0.5569  0.3456
 3708SOL    HW222761   2.194   0.394   0.410  0.1711  0.3124 -1.2556
 3709SOL     OW22762   1.377   3.964   2.379 -0.3538  0.3346 -0.2030
 3709SOL    HW122763   1.414   3.990   2.463 -0.6209 -0.0927  0.0427
 3709SOL    HW222764   1.457   3.955   2.327  0.7789 -0.1629  1.6169
 3710SOL     OW22765   0.926   1.949   8.861  0.2986 -0.2501  0.1340
 3710SOL    HW122766   0.949   1.867   8.905 -0.9144 -0.2518  0.7787
 3710SOL    HW222767   0.893   1.913   8.778  0.7804 -2.2618  0.8211
 3711SOL     OW22768   2.778   1.769   4.648  0.6614 -0.1333  0.5514
 3711SOL    HW122769   2.764   1.833   4.718 -1.5343 -0.7052  0.6199
 3711SOL    HW222770   2.742   1.691   4.690 -0.1343  1.2381  2.4170
 3712SOL     OW22771   2.132   1.672   7.305  0.4566 -0.1045  0.3295
 3712SOL    HW122772   2.225   1.688   7.290  0.9492 -2.3888  0.9269
 3712SOL    HW222773   2.114   1.587   7.263  1.3849 -0.8732  1.4775
 3713SOL     OW22774   3.817   2.466   8.893  0.2472  0.0950  0.2585
 3713SOL    HW122775   3.838   2.526   8.965  0.9413  0.1965 -0.0283
 3713SOL    HW222776   3.728   2.449   8.922 -0.3657  0.8342 -1.1721
 3714SOL     OW22777   4.702   3.666   6.037 -0.1339  0.5598 -0.1500
 3714SOL    HW122778   0.001   3.742   6.084 -0.5175 -0.3438  1.6219
 3714SOL    HW222779   4.611   3.668   6.067 -0.5394 -1.5447 -1.1806
 3715SOL     OW22780   2.865   4.640   5.612  0.1685 -0.4082 -0.1534
 3715SOL    HW122781   2.878   4.731   5.636 -0.5315 -0.3484  0.0026
 3715SOL    HW222782   2.894   4.642   5.521  0.5469 -1.3348 -0.0533
 3716SOL     OW22783   0.371   1.949  11.911 -0.0401  0.0428  0.0347
 3716SOL    HW122784   0.414   2.032  11.932 -0.0030  0.2271 -0.7946
 3716SOL    HW222785   0.311   1.933  11.983  2.0067 -1.1175  1.4922
 3717SOL     OW22786   3.601   2.997   4.938  0.6374 -0.1002 -0.1292
 3717SOL    HW122787   3.584   3.091   4.940  1.6866  0.0707  1.0455
 3717SOL    HW222788   3.548   2.981   5.016  2.0682 -1.1957  0.6408
 3718SOL     OW22789   0.500   3.441   7.382 -0.0147 -0.4078 -0.6066
 3718SOL    HW122790   0.496   3.423   7.288  1.3663  0.7548 -0.8874
 3718SOL    HW222791   0.594   3.454   7.390  0.1057 -1.4736 -0.2978
 3719SOL     OW22792   3.240   0.552   7.213 -0.5141  0.4002 -0.8801
 3719SOL    HW122793   3.325   0.581   7.179  0.5377  1.3126  2.5498
 3719SOL    HW222794   3.197   0.635   7.231  1.4743  1.3371 -0.4583
 3720SOL     OW22795   4.339   4.227   7.619  0.9418 -0.4637  0.5382
 3720SOL    HW122796   4.275   4.263   7.558  1.1954  2.2674  1.8910
 3720SOL    HW222797   4.415   4.217   7.561  1.0731  0.4575  0.5506
 3721SOL     OW22798   4.199   2.278   6.302  0.2139 -0.4553  0.1421
 3721SOL    HW122799   4.255   2.254   6.375  0.2880 -0.8679 -0.0492
 3721SOL    HW222800   4.122   2.228   6.329 -1.4953  1.6778 -0.7064
 3722SOL     OW22801   3.156   3.123  12.875 -0.2686 -0.0402  0.0074
 3722SOL    HW122802   3.157   3.132  12.779  1.3781 -0.3386 -0.0117
 3722SOL    HW222803   3.121   3.206  12.907 -2.3484 -1.3804  1.1575
 3723SOL     OW22804   0.839   1.032   8.391 -0.6164 -0.3141 -0.4566
 3723SOL    HW122805   0.909   1.060   8.332  1.6381 -1.0549  1.8421
 3723SOL    HW222806   0.812   0.961   8.333  2.7931 -1.6722 -0.3595
 3724SOL     OW22807   0.170   0.951   4.444 -0.0835  0.0655 -0.2911
 3724SOL    HW122808   0.187   0.953   4.349  0.6934 -1.3715 -0.1916
 3724SOL    HW222809   0.258   0.937   4.478  0.1242  0.1902 -0.7814
 3725SOL     OW22810   2.980   3.076   8.210  0.2653 -0.5143  0.6614
 3725SOL    HW122811   2.943   2.993   8.181  0.0907 -0.4462  0.6882
 3725SOL    HW222812   3.024   3.111   8.132  3.3682 -1.1651  2.1076
 3726SOL     OW22813   3.511   2.105   2.999  0.3724 -0.4455 -0.1351
 3726SOL    HW122814   3.502   2.010   2.990  1.1596 -0.6560  1.3118
 3726SOL    HW222815   3.559   2.118   3.081 -2.7726 -0.2915  1.6676
 3727SOL     OW22816   3.526   0.083  13.761  0.5168  0.2523 -0.0632
 3727SOL    HW122817   3.606   0.067  13.811 -1.0472 -2.1914  1.6247
 3727SOL    HW222818   3.520   0.176  13.783 -1.3277  0.7302 -2.5932
 3728SOL     OW22819   2.603   0.031   4.207  0.6786  0.1033 -0.1231
 3728SOL    HW122820   2.511   0.030   4.233  0.4205 -0.4065 -1.0620
 3728SOL    HW222821   2.633   0.095   4.272  0.3495  1.2400 -1.1101
 3729SOL     OW22822   3.412   2.894   7.317 -0.4079  0.1869 -0.1971
 3729SOL    HW122823   3.454   2.979   7.322  0.4901 -0.2232 -0.9499
 3729SOL    HW222824   3.487   2.835   7.314 -0.1161  0.5297  0.3435
 3730SOL     OW22825   0.396   0.858   6.679 -0.1923  0.4304 -0.4240
 3730SOL    HW122826   0.485   0.825   6.678 -0.8353 -1.2877 -0.6061
 3730SOL    HW222827   0.383   0.883   6.770  0.3504 -0.5531 -0.0776
 3731SOL     OW22828   1.963   1.463   1.248 -0.2551 -0.4947 -0.2702
 3731SOL    HW122829   2.056   1.475   1.230 -0.8347  2.5644 -1.3588
 3731SOL    HW222830   1.961   1.455   1.343  0.1833 -2.2373 -0.4180
 3732SOL     OW22831   4.725   2.004  11.565  0.0541  0.4379 -0.0584
 3732SOL    HW122832   0.007   2.022  11.473 -0.1211  2.1373  0.2379
 3732SOL    HW222833   0.069   1.952  11.583 -1.1787 -1.4301  0.0138
 3733SOL     OW22834   0.213   1.281   0.795 -0.0401  0.4130  0.3626
 3733SOL    HW122835   0.294   1.269   0.744 -0.9750 -1.0908 -0.7434
 3733SOL    HW222836   0.149   1.266   0.726  0.6251 -1.8354  0.2377
 3734SOL     OW22837   3.477   1.832   3.025 -0.9092  0.0664 -0.0287
 3734SOL    HW122838   3.428   1.827   3.107  0.1393  1.2533  0.6753
 3734SOL    HW222839   3.518   1.746   3.018  0.7790  0.8381  0.4736
 3735SOL     OW22840   0.187   3.597   3.998  0.2102  0.0837  0.0159
 3735SOL    HW122841   0.112   3.624   3.944  0.9412  0.1547 -0.9620
 3735SOL    HW222842   0.138   3.572   4.076  1.5954 -1.7100  0.3073
 3736SOL     OW22843   1.553   1.053  15.760  0.0649  0.0068  0.1749
 3736SOL    HW122844   1.591   1.123  15.813  0.7008 -1.3734  1.5755
 3736SOL    HW222845   1.493   1.090  15.696  0.7145 -0.0942 -0.5005
 3737SOL     OW22846   0.210   2.292   3.415 -0.3429 -0.0366  0.4708
 3737SOL    HW122847   0.172   2.309   3.329 -1.2034 -0.5832  0.7399
 3737SOL    HW222848   0.165   2.211   3.440  2.3019 -2.1287 -1.4916
 3738SOL     OW22849   1.783   3.391  10.260  0.5656 -0.2330  0.3610
 3738SOL    HW122850   1.699   3.401  10.304  1.2180  1.6780  1.1558
 3738SOL    HW222851   1.774   3.303  10.223 -0.9610  0.2365 -0.3859
 3739SOL     OW22852   2.764   0.434   2.226  0.5145 -0.3418 -0.0242
 3739SOL    HW122853   2.752   0.476   2.141 -0.2347 -0.4113  0.0433
 3739SOL    HW222854   2.856   0.408   2.230  0.5969  0.1663  1.6191
 3740SOL     OW22855   4.549   0.099   3.705 -0.3478 -0.7867 -0.2485
 3740SOL    HW122856   4.642   0.112   3.723 -0.7463  4.1481 -1.8623
 3740SOL    HW222857   4.513   0.179   3.742  1.2320 -1.1190  2.0404
 3741SOL     OW22858   0.057   3.094   8.046  0.0226 -0.2036  0.2696
 3741SOL    HW122859   0.146   3.125   8.063  0.0125 -0.2645  0.4309
 3741SOL    HW222860   0.038   3.166   7.985  2.9710  0.3671  0.0182
 3742SOL     OW22861   2.362   2.133   5.332  0.4661 -0.5020 -0.1787
 3742SOL    HW122862   2.348   2.207   5.273  1.9877 -1.1303 -1.3235
 3742SOL    HW222863   2.323   2.167   5.412  1.2426  0.6933 -0.3134
 3743SOL     OW22864   2.517   3.071  12.937  0.7254  0.2088 -0.2773
 3743SOL    HW122865   2.542   3.070  12.845  2.7295 -1.6521  0.2967
 3743SOL    HW222866   2.476   3.158  12.944  0.0230 -0.1288 -0.2086
 3744SOL     OW22867   1.109   2.698   1.858  0.3229  0.1359  0.1675
 3744SOL    HW122868   1.178   2.754   1.821 -0.4098  0.2304 -1.0289
 3744SOL    HW222869   1.035   2.755   1.879  0.1483 -0.0877  0.1526
 3745SOL     OW22870   0.480   1.502   5.672 -0.6187  0.3530  0.3208
 3745SOL    HW122871   0.414   1.563   5.638 -3.4569 -1.7120  2.1384
 3745SOL    HW222872   0.419   1.447   5.721  0.1383 -1.1726 -0.4656
 3746SOL     OW22873   0.102   2.059   6.742 -0.4900 -0.0442  0.3772
 3746SOL    HW122874   0.060   1.997   6.682  2.2781  1.2469 -2.8902
 3746SOL    HW222875   0.063   2.143   6.719 -2.1424 -0.4702  1.6014
 3747SOL     OW22876   3.832   3.466   5.828  0.0501  0.1923 -0.2891
 3747SOL    HW122877   3.884   3.454   5.748 -1.5296 -1.3848 -1.0772
 3747SOL    HW222878   3.870   3.400   5.886  0.5971  0.9580  0.2163
 3748SOL     OW22879   1.646   4.075   7.369  0.6631 -0.5866  0.6746
 3748SOL    HW122880   1.593   4.041   7.297 -0.2815  0.6818  0.7784
 3748SOL    HW222881   1.579   4.115   7.424 -0.0445 -1.1556  0.2227
 3749SOL     OW22882   2.001   1.313   3.942 -0.0811 -0.3216 -0.2389
 3749SOL    HW122883   2.017   1.397   3.986  1.2644  0.0602 -1.4599
 3749SOL    HW222884   1.930   1.337   3.883 -0.0806  0.9022  0.2446
 3750SOL     OW22885   0.094   3.106   2.396 -0.1233  0.2338  0.2501
 3750SOL    HW122886   0.051   3.041   2.342 -0.3981  0.4768  0.1759
 3750SOL    HW222887   0.043   3.187   2.388  0.9601  0.8407 -0.5991
 3751SOL     OW22888   3.177   2.313  11.015  0.3095  0.1584  0.5245
 3751SOL    HW122889   3.262   2.356  11.011  0.8225 -0.8507  0.7402
 3751SOL    HW222890   3.116   2.385  10.996 -0.8857 -0.5327  1.6817
 3752SOL     OW22891   1.925   0.192   6.315 -0.3570  0.1310 -0.7238
 3752SOL    HW122892   2.005   0.146   6.340 -0.9509 -1.6602 -2.0966
 3752SOL    HW222893   1.932   0.274   6.364 -0.3518 -1.7050  2.3046
 3753SOL     OW22894   0.895   3.759   0.279 -0.5792  0.3328  0.2062
 3753SOL    HW122895   0.880   3.671   0.315  1.4343 -0.8816 -1.8946
 3753SOL    HW222896   0.965   3.777   0.341  0.8907 -0.3034 -1.2647
 3754SOL     OW22897   2.231   2.255   8.479 -0.6291 -0.1847  0.3214
 3754SOL    HW122898   2.292   2.197   8.523 -1.3051 -1.4673 -0.4325
 3754SOL    HW222899   2.147   2.232   8.519 -0.8341 -0.2782 -0.1546
 3755SOL     OW22900   3.368   2.239   1.876 -0.4710  0.0252  0.2186
 3755SOL    HW122901   3.286   2.229   1.925 -1.5215  3.5372 -0.8452
 3755SOL    HW222902   3.403   2.320   1.912  0.4264 -0.4788  0.4650
 3756SOL     OW22903   4.286   3.218   4.713  0.6482  0.4419 -0.0825
 3756SOL    HW122904   4.366   3.200   4.762 -1.6565 -2.8153  2.4746
 3756SOL    HW222905   4.316   3.190   4.627  0.4820 -1.4640  0.4851
 3757SOL     OW22906   0.463   1.961   5.985 -0.1147 -0.0619  0.3652
 3757SOL    HW122907   0.549   1.967   6.026  0.0750  0.5132 -0.1210
 3757SOL    HW222908   0.472   2.003   5.899  1.3263 -0.1665  0.4534
 3758SOL     OW22909   2.029   3.455   0.106 -0.4664 -0.1961  0.2167
 3758SOL    HW122910   1.942   3.490   0.120 -0.6030 -0.0058 -1.0372
 3758SOL    HW222911   2.058   3.499   0.025  2.5087 -1.3205  0.6712
 3759SOL     OW22912   4.668   1.661   9.751 -0.4223  0.4961 -0.0007
 3759SOL    HW122913   4.712   1.684   9.833 -1.2929  0.1978  0.5516
 3759SOL    HW222914   0.003   1.686   9.692 -0.0806 -0.7176 -0.1150
 3760SOL     OW22915   0.199   3.052  13.188 -0.3852 -0.2447 -0.0210
 3760SOL    HW122916   0.118   3.092  13.156 -1.0947 -0.6585  1.2533
 3760SOL    HW222917   0.157   3.011  13.263  1.2359 -0.1829  0.9138
 3761SOL     OW22918   4.410   2.985   8.805 -0.8452  0.4692 -0.2565
 3761SOL    HW122919   4.482   2.972   8.743 -2.0922 -0.3987 -1.5178
 3761SOL    HW222920   4.345   3.036   8.755  0.2002  1.5600 -0.5077
 3762SOL     OW22921   3.407   3.914   6.284  0.2041 -0.2126  0.7578
 3762SOL    HW122922   3.333   3.952   6.236  0.1220  0.2542  1.2605
 3762SOL    HW222923   3.444   3.847   6.226 -0.5682  0.4294 -0.4861
 3763SOL     OW22924   4.668   2.706  13.359 -0.2928  0.3953 -0.6554
 3763SOL    HW122925   4.621   2.647  13.301 -0.3794  1.5450 -1.7558
 3763SOL    HW222926   4.688   2.644  13.429  2.3183  2.7684  0.6962
 3764SOL     OW22927   1.057   3.501   6.131 -0.0482  0.3490 -0.3313
 3764SOL    HW122928   1.074   3.462   6.217 -0.3060 -0.2205 -0.5405
 3764SOL    HW222929   0.981   3.549   6.165 -1.1584  0.1175 -2.4674
 3765SOL     OW22930   1.051   4.244   0.464  0.0961 -0.0180 -0.5768
 3765SOL    HW122931   1.053   4.338   0.444  2.0586 -0.1136 -0.8618
 3765SOL    HW222932   1.137   4.231   0.503  0.4086  1.3100 -0.7962
 3766SOL     OW22933   2.788   4.529   2.443  0.0051  0.5230 -0.7292
 3766SOL    HW122934   2.718   4.490   2.495 -0.9728  2.0308 -0.8983
 3766SOL    HW222935   2.869   4.506   2.489 -0.4960 -2.0482 -1.1376
 3767SOL     OW22936   2.588   4.184   4.155  0.3358  0.2745 -0.0299
 3767SOL    HW122937   2.658   4.176   4.220  2.2409 -0.3197 -2.1550
 3767SOL    HW222938   2.612   4.267   4.112 -0.4861 -0.9293 -2.8189
 3768SOL     OW22939   1.945   1.402   2.206 -0.1704  0.0361  0.1094
 3768SOL    HW122940   1.978   1.463   2.141  0.9672  0.9460  1.5294
 3768SOL    HW222941   1.896   1.457   2.267  1.1376  1.9065 -0.5233
 3769SOL     OW22942   3.891   3.885   2.813  0.3283 -0.3324 -0.1424
 3769SOL    HW122943   3.842   3.912   2.890  0.3587 -1.1419  0.1594
 3769SOL    HW222944   3.980   3.911   2.835  0.2979 -0.3125 -0.0456
 3770SOL     OW22945   4.729   3.862  12.790 -0.4891 -0.0434  0.3975
 3770SOL    HW122946   0.026   3.900  12.708 -1.0863  0.8481  0.5849
 3770SOL    HW222947   0.056   3.885  12.859 -1.0541  0.0412  0.8705
 3771SOL     OW22948   3.437   2.679   3.179 -0.0183 -0.1320  0.0094
 3771SOL    HW122949   3.410   2.770   3.162  1.5583  0.3540  0.0933
 3771SOL    HW222950   3.468   2.661   3.090  0.0510 -0.8871  0.1873
 3772SOL     OW22951   0.149   4.264  11.634 -0.4540 -0.6685 -0.0605
 3772SOL    HW122952   0.060   4.232  11.621 -0.9619  0.4695  0.6123
 3772SOL    HW222953   0.201   4.184  11.639 -1.9308 -1.6933 -1.0279
 3773SOL     OW22954   0.816   1.128   8.882  0.1500 -0.0602  0.0738
 3773SOL    HW122955   0.733   1.081   8.876 -0.0430 -0.0050  2.4598
 3773SOL    HW222956   0.787   1.219   8.882 -1.1147 -0.4690  1.6369
 3774SOL     OW22957   0.557   2.292   3.239 -0.0419  0.5802 -0.4108
 3774SOL    HW122958   0.481   2.265   3.188 -0.3867 -0.8116  0.8318
 3774SOL    HW222959   0.525   2.289   3.329 -1.4921  2.3348 -0.8690
 3775SOL     OW22960   3.528   0.092   8.403 -0.1292  0.0343 -0.6240
 3775SOL    HW122961   3.624   0.096   8.403 -0.1756  1.5022  1.7299
 3775SOL    HW222962   3.511   0.000   8.382  0.6996 -0.2900  0.1258
 3776SOL     OW22963   4.288   2.890   9.642  0.6031 -0.4545 -0.1022
 3776SOL    HW122964   4.331   2.902   9.727 -0.7228 -0.8374  0.6165
 3776SOL    HW222965   4.356   2.864   9.580  0.6576 -2.4861  0.8212
 3777SOL     OW22966   0.066   3.147   3.160 -0.2810 -0.2816  0.4060
 3777SOL    HW122967   0.145   3.095   3.175  1.1799  1.8673  0.2022
 3777SOL    HW222968   0.095   3.209   3.093  2.1836 -0.3993  1.3633
 3778SOL     OW22969   1.582   3.841   3.806 -0.2699  0.2975 -0.5436
 3778SOL    HW122970   1.607   3.867   3.894  1.0405  0.1484 -0.8794
 3778SOL    HW222971   1.666   3.854   3.763 -0.1471  0.2524 -0.3149
 3779SOL     OW22972   3.187   2.061   7.414  0.1256 -0.1336 -0.2588
 3779SOL    HW122973   3.275   2.026   7.403 -0.8326 -2.7837  0.4413
 3779SOL    HW222974   3.142   1.981   7.390  1.2589 -0.6933 -0.4985
 3780SOL     OW22975   1.896   3.899   1.006  0.8324 -0.5598 -0.2081
 3780SOL    HW122976   1.811   3.892   1.049  0.1910 -2.5355 -1.7970
 3780SOL    HW222977   1.901   3.994   1.011 -1.7419 -0.4971  1.0349
 3781SOL     OW22978   3.043   1.074   1.016 -0.0159 -0.2393 -0.1244
 3781SOL    HW122979   3.039   1.077   0.920 -2.2984 -0.7189 -0.0411
 3781SOL    HW222980   3.015   0.984   1.036  0.5538  0.0608  2.0577
 3782SOL     OW22981   0.383   1.007   2.397  0.3594 -0.9009  0.0257
 3782SOL    HW122982   0.387   1.035   2.488 -0.8631  0.1216 -0.2501
 3782SOL    HW222983   0.304   0.954   2.400  0.1495 -0.5655  0.3843
 3783SOL     OW22984   0.731   0.108   6.210 -0.4687 -0.5939 -0.6380
 3783SOL    HW122985   0.790   0.158   6.267 -1.7692  1.9468 -1.5050
 3783SOL    HW222986   0.647   0.136   6.247 -1.0479 -2.0609 -0.8772
 3784SOL     OW22987   0.321   0.301   4.618  0.0222 -0.0501  0.0419
 3784SOL    HW122988   0.240   0.340   4.585  0.3969 -0.1488 -0.9665
 3784SOL    HW222989   0.379   0.318   4.544  2.6232  1.3691  2.3742
 3785SOL     OW22990   2.342   2.379   5.243  0.8162 -0.0882 -0.2979
 3785SOL    HW122991   2.431   2.389   5.209  1.5125 -0.3110  1.4582
 3785SOL    HW222992   2.330   2.459   5.294 -0.3426  0.5390 -1.5502
 3786SOL     OW22993   2.708   2.534   8.313  0.1957  0.0917 -0.1727
 3786SOL    HW122994   2.697   2.505   8.223 -0.9800 -0.9436  0.3138
 3786SOL    HW222995   2.619   2.528   8.348 -0.0467 -2.1630 -1.1804
 3787SOL     OW22996   4.244   0.338   0.719  0.1170  0.0996  0.2806
 3787SOL    HW122997   4.223   0.430   0.732 -1.3434 -0.2298  0.2882
 3787SOL    HW222998   4.154   0.310   0.701  0.1560  0.4498 -0.4875
 3788SOL     OW22999   0.435   4.392   2.847 -0.4992 -0.5265 -0.3105
 3788SOL    HW123000   0.497   4.340   2.899  2.1098  3.4118  0.4838
 3788SOL    HW223001   0.432   4.466   2.907 -2.4686 -0.7627 -0.1204
 3789SOL     OW23002   3.446   3.102   8.900  0.0741  0.3427 -0.0418
 3789SOL    HW123003   3.371   3.159   8.886 -0.6973 -0.8857 -0.8591
 3789SOL    HW223004   3.520   3.161   8.916 -0.3459  1.3284 -1.8154
 3790SOL     OW23005   2.746   0.697  15.747  1.0548 -0.1814 -0.6231
 3790SOL    HW123006   2.789   0.767  15.699 -2.0173  0.2917 -2.6806
 3790SOL    HW223007   2.795   0.703  15.830  0.0122 -2.3926  0.1481
 3791SOL     OW23008   0.817   2.296   5.262 -0.0545  0.4014 -0.2606
 3791SOL    HW123009   0.783   2.312   5.174 -1.1206  1.3910  0.3427
 3791SOL    HW223010   0.737   2.276   5.310  0.1716  0.4027  0.1206
 3792SOL     OW23011   4.343   3.518  11.412 -0.1586 -0.4173 -0.4891
 3792SOL    HW123012   4.354   3.441  11.356  0.2007 -0.4018 -0.4398
 3792SOL    HW223013   4.366   3.587  11.350  0.8235 -0.0560  0.2735
 3793SOL     OW23014   1.012   2.250  10.944  0.5009  0.1980  0.4589
 3793SOL    HW123015   0.921   2.271  10.925 -0.2573 -1.3162  2.4295
 3793SOL    HW223016   1.006   2.163  10.982 -1.5404  0.2007  0.1394
 3794SOL     OW23017   3.535   2.516  16.325  0.5528  0.2932 -0.1962
 3794SOL    HW123018   3.561   2.591  16.378 -0.6643 -1.1791  2.5146
 3794SOL    HW223019   3.565   2.439  16.374 -0.4521  0.1324  0.1620
 3795SOL     OW23020   2.943   2.056  15.197 -0.2523  0.7879 -0.2090
 3795SOL    HW123021   3.024   2.106  15.213  0.2081  0.9125 -2.9194
 3795SOL    HW223022   2.884   2.126  15.225  1.0369  0.8659  2.3135
 3796SOL     OW23023   2.397   3.028  13.470 -0.1849 -0.3315 -0.0984
 3796SOL    HW123024   2.371   3.115  13.499  2.4317  0.4007 -0.0257
 3796SOL    HW223025   2.492   3.033  13.476 -0.0828 -1.5751 -0.7644
 3797SOL     OW23026   1.739   1.733   8.469  0.0042 -0.0136 -0.1238
 3797SOL    HW123027   1.745   1.763   8.560  1.1822 -0.3276 -0.0964
 3797SOL    HW223028   1.830   1.721   8.442  0.1130  3.0694 -1.0729
 3798SOL     OW23029   0.009   2.700   6.029 -0.3119 -0.1584 -0.1489
 3798SOL    HW123030   4.670   2.723   6.086 -1.4891 -0.9064 -1.4092
 3798SOL    HW223031   0.025   2.612   6.061 -0.8678 -1.1145 -2.5462
 3799SOL     OW23032   0.689   1.449   5.500  0.0852 -0.4001  0.9742
 3799SOL    HW123033   0.598   1.449   5.531 -0.4921  0.5957 -0.7405
 3799SOL    HW223034   0.715   1.533   5.539  0.7657 -1.1784  2.1930
 3800SOL     OW23035   1.848   0.961   8.894 -0.6561  0.4427 -0.0710
 3800SOL    HW123036   1.880   0.883   8.849  0.1741  0.1073  1.1037
 3800SOL    HW223037   1.835   0.931   8.984 -0.0372  0.5732  0.0592
 3801SOL     OW23038   0.602   2.250   4.698  0.0692 -0.2577 -0.2897
 3801SOL    HW123039   0.520   2.293   4.720 -0.1552 -0.0191 -1.5657
 3801SOL    HW223040   0.673   2.314   4.705 -0.9733  0.8740 -0.1358
 3802SOL     OW23041   1.980   1.471   9.411  0.3215 -0.1831  0.3493
 3802SOL    HW123042   1.938   1.385   9.407 -0.6787  0.4328 -1.9333
 3802SOL    HW223043   2.046   1.455   9.344 -1.1262  2.6197 -1.7731
 3803SOL     OW23044   0.708   4.716   0.526  0.2039  0.1906 -0.3166
 3803SOL    HW123045   0.710   4.645   0.462  0.9309  0.5235 -0.6655
 3803SOL    HW223046   0.744   4.684   0.608 -0.0542  1.2562  0.2132
 3804SOL     OW23047   0.113   4.486   9.182  0.5633  0.6600 -0.6783
 3804SOL    HW123048   0.117   4.556   9.247  0.5119  0.9326 -0.9704
 3804SOL    HW223049   0.032   4.443   9.210  0.0683  0.9064 -1.7516
 3805SOL     OW23050   0.055   3.540   6.383 -0.1614 -0.1518 -0.4745
 3805SOL    HW123051   0.059   3.630   6.414  1.6494 -0.8139  1.2553
 3805SOL    HW223052   4.696   3.526   6.383 -0.2004  0.1219 -0.7968
 3806SOL     OW23053   2.252   1.278   2.097 -0.0746 -0.2276 -0.1296
 3806SOL    HW123054   2.221   1.188   2.109 -0.0865 -0.1176  0.6914
 3806SOL    HW223055   2.172   1.328   2.084  0.8367  1.0477 -0.8756
 3807SOL     OW23056   1.910   2.058   5.378  0.1389  0.2583  0.7969
 3807SOL    HW123057   1.913   2.144   5.419 -0.4125  0.2408  0.8660
 3807SOL    HW223058   1.894   2.083   5.287 -0.7414 -1.3852  0.5006
 3808SOL     OW23059   2.785   0.071   8.249 -0.2418 -0.2676  0.2826
 3808SOL    HW123060   2.771   0.056   8.155  0.5714 -0.2293  0.1518
 3808SOL    HW223061   2.881   0.074   8.249 -0.2219 -0.4210 -1.6382
 3809SOL     OW23062   0.935   1.992   3.952 -0.6156  0.2244 -0.5229
 3809SOL    HW123063   0.851   2.032   3.930  0.4105  3.7267  1.9276
 3809SOL    HW223064   0.994   2.042   3.896  1.8605 -3.9562 -1.6299
 3810SOL     OW23065   3.976   1.130   9.730 -0.7190 -0.4813 -0.0138
 3810SOL    HW123066   4.060   1.177   9.732 -1.3817  0.7488 -1.7917
 3810SOL    HW223067   3.990   1.039   9.757  0.0947 -0.1141  0.8512
 3811SOL     OW23068   2.444   0.612   7.154  0.1568 -0.2089  0.0615
 3811SOL    HW123069   2.431   0.662   7.074 -0.7627  0.8811  0.8897
 3811SOL    HW223070   2.538   0.593   7.149  0.2472  1.1303 -3.1086
 3812SOL     OW23071   3.217   3.904  15.280  0.1468 -0.1596 -0.1535
 3812SOL    HW123072   3.235   3.858  15.198  2.3224 -3.2726  2.0288
 3812SOL    HW223073   3.308   3.934  15.279 -0.0149  0.4091  1.8806
 3813SOL     OW23074   4.035   1.625   8.692 -0.6182 -0.1575 -0.2575
 3813SOL    HW123075   3.975   1.636   8.766 -1.3578 -0.5569 -0.7919
 3813SOL    HW223076   4.011   1.537   8.664  0.7069  0.4511 -3.2482
 3814SOL     OW23077   3.544   1.174   4.519 -0.3779  0.6488  0.6232
 3814SOL    HW123078   3.573   1.235   4.451 -2.2878  1.5568  0.6408
 3814SOL    HW223079   3.472   1.226   4.554  0.3765  3.4055 -1.9952
 3815SOL     OW23080   0.997   3.687   1.394  0.2035  0.3075  0.5075
 3815SOL    HW123081   1.050   3.722   1.323  0.2606 -2.4693 -0.8348
 3815SOL    HW223082   1.066   3.694   1.460 -1.2396  2.6922  1.7707
 3816SOL     OW23083   1.493   1.901   3.154 -0.1994 -0.4905  0.4060
 3816SOL    HW123084   1.469   1.968   3.090 -0.7984 -1.2352 -0.1479
 3816SOL    HW223085   1.479   1.939   3.241 -0.1189  0.4520  0.0142
 3817SOL     OW23086   2.961   0.097  10.760  0.3620  0.2207 -0.3030
 3817SOL    HW123087   3.042   0.109  10.810  0.6609 -2.5482 -0.0887
 3817SOL    HW223088   2.982   0.015  10.714 -1.1961 -0.3962  0.0840
 3818SOL     OW23089   3.647   0.503  13.803  0.2886 -0.4885  0.2155
 3818SOL    HW123090   3.609   0.576  13.754  0.1728 -0.3091  0.5725
 3818SOL    HW223091   3.631   0.430  13.742 -0.3575  1.2603 -1.7092
 3819SOL     OW23092   2.754   2.462   6.497  0.5698 -0.3669  0.2005
 3819SOL    HW123093   2.686   2.489   6.558 -0.2244 -0.6752 -0.5582
 3819SOL    HW223094   2.786   2.385   6.545 -1.9299 -1.1295  0.6317
 3820SOL     OW23095   3.474   3.444   5.475  0.3188  0.1012  0.2558
 3820SOL    HW123096   3.469   3.407   5.563 -3.1010 -0.6107 -0.2212
 3820SOL    HW223097   3.420   3.522   5.484  0.1873  0.1579 -1.0118
 3821SOL     OW23098   1.314   1.868   0.983 -0.0558 -0.0982  0.8087
 3821SOL    HW123099   1.296   1.822   1.065  2.1871  0.5491  1.6711
 3821SOL    HW223100   1.262   1.948   0.989  1.1334  0.6409  1.2621
 3822SOL     OW23101   4.540   3.253   9.247 -0.1749 -0.4485 -0.4583
 3822SOL    HW123102   4.521   3.207   9.165  1.8372  0.8376 -1.6564
 3822SOL    HW223103   4.634   3.232   9.254  0.5043  2.7089 -0.3127
 3823SOL     OW23104   3.312   1.840   2.244 -0.0992 -1.1370  0.4306
 3823SOL    HW123105   3.331   1.749   2.268 -1.3485 -2.1928 -2.6716
 3823SOL    HW223106   3.310   1.841   2.149  1.6303 -0.1013  0.4087
 3824SOL     OW23107   0.425   2.490  16.993  0.2661 -0.0693  0.4711
 3824SOL    HW123108   0.428   2.575  17.038 -1.7008  0.5388 -0.5387
 3824SOL    HW223109   0.414   2.521  16.903 -0.8798 -0.9335  0.3086
 3825SOL     OW23110   4.174   0.516   4.750  0.0907  0.0928  0.0485
 3825SOL    HW123111   4.238   0.516   4.679 -3.1218 -1.2947 -2.8314
 3825SOL    HW223112   4.208   0.585   4.806 -0.7661  0.0328  0.6520
 3826SOL     OW23113   4.044   1.663   8.336  0.1523  0.2611 -0.4098
 3826SOL    HW123114   4.073   1.658   8.245  1.9023 -1.7811  0.2570
 3826SOL    HW223115   4.123   1.630   8.379  1.1293  0.7974 -1.7774
 3827SOL     OW23116   2.715   0.388   5.567 -0.1193  0.0689 -0.2947
 3827SOL    HW123117   2.732   0.456   5.502  0.8927  0.5664  0.5018
 3827SOL    HW223118   2.666   0.438   5.633  0.1613 -0.4728  0.3266
 3828SOL     OW23119   3.137   2.992   5.686  0.0899 -0.0570  0.0792
 3828SOL    HW123120   3.066   2.932   5.663  0.8650 -1.9452  2.7475
 3828SOL    HW223121   3.143   2.985   5.781  0.6687  0.9295  0.1234
 3829SOL     OW23122   1.800   2.903  16.959 -0.5204  0.2244 -0.3461
 3829SOL    HW123123   1.799   2.846  17.036 -1.3653  1.7884  0.8044
 3829SOL    HW223124   1.839   2.840  16.899  3.3899  2.2052  0.0954
 3830SOL     OW23125   4.509   2.074   4.972 -0.4889  0.1697  0.3721
 3830SOL    HW123126   4.456   2.112   5.042 -0.0315  2.0117 -0.2749
 3830SOL    HW223127   4.580   2.138   4.965  1.0072 -1.3559  1.5397
 3831SOL     OW23128   0.884   4.320  11.670 -0.0341 -0.1405  0.3050
 3831SOL    HW123129   0.962   4.352  11.716 -0.5808  1.9242 -0.2473
 3831SOL    HW223130   0.892   4.379  11.596 -0.0177 -1.7354 -0.9598
 3832SOL     OW23131   1.282   0.276   7.512  0.1512 -0.6319 -0.3033
 3832SOL    HW123132   1.261   0.322   7.431 -3.7034 -0.2478  0.9128
 3832SOL    HW223133   1.198   0.230   7.520 -0.2477  0.1101 -0.2550
 3833SOL     OW23134   4.723   0.085  14.887 -0.2988 -0.1662 -0.5026
 3833SOL    HW123135   4.716   0.039  14.971  0.7698  1.4014  0.4682
 3833SOL    HW223136   0.038   0.022  14.835 -0.8649 -1.5725  0.6463
 3834SOL     OW23137   3.682   1.298   4.317 -0.3582  0.1592 -0.4550
 3834SOL    HW123138   3.727   1.235   4.261  0.5815 -0.8046  1.3936
 3834SOL    HW223139   3.750   1.361   4.338  0.9945 -1.0121 -1.3586
 3835SOL     OW23140   2.442   0.358   6.961 -0.0895 -0.5227 -0.8096
 3835SOL    HW123141   2.528   0.357   7.002 -1.5049  0.3373  2.1502
 3835SOL    HW223142   2.470   0.361   6.869  1.1890 -2.3051 -0.4778
 3836SOL     OW23143   4.623   2.286   1.236  0.1038  0.2277  0.0516
 3836SOL    HW123144   4.579   2.341   1.171  1.2066  1.6246  0.4747
 3836SOL    HW223145   4.571   2.298   1.315  1.2565 -2.0611  1.1687
 3837SOL     OW23146   2.370   3.037  12.410 -0.1714 -0.4664 -0.1309
 3837SOL    HW123147   2.386   2.960  12.466  0.0362  0.7242  1.4551
 3837SOL    HW223148   2.279   3.027  12.384  0.1874 -1.9583 -0.8401
 3838SOL     OW23149   3.709   3.142   9.201  0.2051  0.3738  0.6248
 3838SOL    HW123150   3.763   3.105   9.131  0.2538  3.0881 -0.7776
 3838SOL    HW223151   3.753   3.227   9.212  0.0137  0.5459  0.0590
 3839SOL     OW23152   1.356   0.726   5.351  0.1183  0.4379 -0.6534
 3839SOL    HW123153   1.331   0.638   5.379  0.9541  0.1839 -0.7133
 3839SOL    HW223154   1.267   0.749   5.323 -0.4015  0.5885  1.1154
 3840SOL     OW23155   2.194   0.151   3.025 -1.0192 -0.4701 -0.5096
 3840SOL    HW123156   2.255   0.081   3.047  1.1250  1.3549 -0.6259
 3840SOL    HW223157   2.108   0.110   3.018 -0.8749 -0.7034 -0.9406
 3841SOL     OW23158   2.728   0.462   7.765 -0.4425  0.2779  0.2263
 3841SOL    HW123159   2.720   0.383   7.712 -2.3685  0.7548 -0.2156
 3841SOL    HW223160   2.794   0.426   7.824 -0.0632 -0.5000 -0.6755
 3842SOL     OW23161   4.016   3.448   7.711 -0.0333  0.1220 -0.1958
 3842SOL    HW123162   3.984   3.417   7.627 -0.7325 -2.5241  1.0502
 3842SOL    HW223163   4.030   3.364   7.754 -2.6567 -0.2369 -0.0534
 3843SOL     OW23164   1.743   1.277   5.107  0.3624 -0.1998  0.6690
 3843SOL    HW123165   1.737   1.303   5.198  2.8824 -2.0438  1.3744
 3843SOL    HW223166   1.651   1.271   5.084  0.5023 -0.1647  0.0790
 3844SOL     OW23167   2.060   0.761  11.265  0.0307 -0.1994 -0.1916
 3844SOL    HW123168   2.141   0.741  11.219  1.8966 -0.3917  3.1998
 3844SOL    HW223169   2.073   0.849  11.300  0.1446 -0.3980  0.2646
 3845SOL     OW23170   2.411   3.572   7.301 -0.0592 -0.4840  0.1711
 3845SOL    HW123171   2.477   3.522   7.349 -0.4716  0.2955  1.5904
 3845SOL    HW223172   2.460   3.646   7.264 -0.6730 -0.0835  0.1527
 3846SOL     OW23173   1.334   1.754   2.085 -0.0565 -1.0692  0.0966
 3846SOL    HW123174   1.287   1.705   2.017 -2.5357  2.0858 -0.4800
 3846SOL    HW223175   1.322   1.844   2.055 -0.5636 -2.3287 -3.5219
 3847SOL     OW23176   4.011   1.962   6.809  0.1343  0.3268  0.0970
 3847SOL    HW123177   3.967   1.996   6.731  0.2838 -1.3000 -0.6848
 3847SOL    HW223178   4.091   2.015   6.805 -0.6172  1.3487 -1.2535
 3848SOL     OW23179   3.261   1.064   3.412  0.8045  0.1372  0.1920
 3848SOL    HW123180   3.206   1.044   3.488  2.7271  1.4850  1.9423
 3848SOL    HW223181   3.342   1.099   3.449  0.5021  0.3041  0.7023
 3849SOL     OW23182   1.095   3.928   6.835  0.4516  0.5034 -0.6993
 3849SOL    HW123183   1.077   3.924   6.741 -2.7393 -1.0540 -0.0092
 3849SOL    HW223184   1.189   3.944   6.835  0.3759  0.9199  0.9480
 3850SOL     OW23185   0.359   1.991   0.232  0.6532  0.2719 -0.0017
 3850SOL    HW123186   0.394   1.986   0.321  0.2931 -0.4769  0.0967
 3850SOL    HW223187   0.366   2.085   0.216  0.1768  0.2769 -0.1826
 3851SOL     OW23188   2.073   4.245   5.707 -0.5066 -0.1051  0.1770
 3851SOL    HW123189   2.083   4.186   5.632  0.3393 -0.7879  0.8206
 3851SOL    HW223190   1.992   4.215   5.748 -0.0642  0.4167  1.4251
 3852SOL     OW23191   1.513   2.787   2.273  0.0978 -0.2016 -0.0530
 3852SOL    HW123192   1.492   2.802   2.365 -2.0048 -0.6794 -0.4355
 3852SOL    HW223193   1.427   2.767   2.235 -0.4427  3.0578 -0.5600
 3853SOL     OW23194   4.359   2.438   7.537  0.0031 -0.1613  0.8396
 3853SOL    HW123195   4.271   2.442   7.575 -0.5957 -0.3544 -0.5104
 3853SOL    HW223196   4.381   2.531   7.525 -1.4132  0.0816  0.1103
 3854SOL     OW23197   0.782   0.464   8.152 -0.2786 -0.5071 -0.1153
 3854SOL    HW123198   0.784   0.530   8.221 -1.1832  0.3117 -0.8721
 3854SOL    HW223199   0.811   0.509   8.072 -0.6184  0.8112  0.5040
 3855SOL     OW23200   2.186   2.939   6.646 -0.6766  0.3430  0.3482
 3855SOL    HW123201   2.174   3.032   6.669 -0.8894 -0.0889  1.9783
 3855SOL    HW223202   2.126   2.901   6.711 -1.5439  0.8921 -0.1255
 3856SOL     OW23203   3.523   4.482   7.765  0.4555  0.0222  0.3142
 3856SOL    HW123204   3.439   4.438   7.775  1.2582 -0.8372  3.1258
 3856SOL    HW223205   3.492   4.564   7.726 -2.0410 -1.0905 -0.0491
 3857SOL     OW23206   4.406   2.184   3.006  1.1473 -0.7449  0.7637
 3857SOL    HW123207   4.444   2.099   3.028  0.8872 -0.9554  0.4069
 3857SOL    HW223208   4.432   2.195   2.915 -1.4266  0.7959  0.2255
 3858SOL     OW23209   0.013   0.504  11.069  0.2959  0.7753 -0.6344
 3858SOL    HW123210   0.063   0.464  11.140  0.4236 -0.2060 -1.2876
 3858SOL    HW223211   0.059   0.476  10.990 -0.4982 -3.3698  0.4072
 3859SOL     OW23212   4.387   1.421   6.223 -0.0645 -0.0416  0.2996
 3859SOL    HW123213   4.402   1.418   6.318  1.2985 -0.6624  0.0609
 3859SOL    HW223214   4.294   1.397   6.228 -0.2938  1.2708  2.3438
 3860SOL     OW23215   1.250   0.532  11.279  0.0839 -0.1355 -0.1237
 3860SOL    HW123216   1.329   0.492  11.317 -0.6555 -0.6194  0.9137
 3860SOL    HW223217   1.292   0.582  11.209  0.0095  1.3238  0.8682
 3861SOL     OW23218   1.898   4.144   0.972  0.1193 -0.2520 -0.3320
 3861SOL    HW123219   1.920   4.231   1.003 -1.3112 -0.4016  1.1247
 3861SOL    HW223220   1.931   4.151   0.882 -1.0502 -1.9654 -0.9013
 3862SOL     OW23221   3.773   4.457   5.813  0.4114 -0.5457  1.1437
 3862SOL    HW123222   3.743   4.478   5.901 -0.8661 -0.0757  0.6147
 3862SOL    HW223223   3.710   4.517   5.772  0.2584  0.0435  2.2509
 3863SOL     OW23224   2.661   4.325   3.035  0.9691 -0.1089 -0.0402
 3863SOL    HW123225   2.718   4.384   2.986  1.6993  0.8184  1.9247
 3863SOL    HW223226   2.615   4.398   3.075 -0.5759 -0.6813 -0.7894
 3864SOL     OW23227   3.970   3.010   2.956 -0.1953 -0.2134  0.2913
 3864SOL    HW123228   3.910   3.011   3.031  0.5025 -1.2804  0.8615
 3864SOL    HW223229   3.979   3.105   2.951 -0.4153 -0.2907 -1.4924
 3865SOL     OW23230   2.196   1.402   8.578 -0.2023  0.3186  0.0272
 3865SOL    HW123231   2.271   1.422   8.634  0.9135  1.9122 -2.0458
 3865SOL    HW223232   2.212   1.308   8.586 -0.7320  0.1083 -1.5169
 3866SOL     OW23233   1.383   4.150   2.926 -0.2298 -0.4450 -0.2344
 3866SOL    HW123234   1.382   4.074   2.985  1.8620 -0.3543 -0.0855
 3866SOL    HW223235   1.473   4.179   2.936 -0.4522  0.1104  0.1649
 3867SOL     OW23236   3.744   3.594   5.561 -0.1352  0.0825 -0.0849
 3867SOL    HW123237   3.808   3.585   5.632 -1.6853  0.5545  1.3842
 3867SOL    HW223238   3.655   3.574   5.593  0.8627 -4.2851  0.0470
 3868SOL     OW23239   2.735   2.958   3.182 -0.1092  0.2622 -0.3531
 3868SOL    HW123240   2.757   2.887   3.122  0.5461 -0.5663  0.8634
 3868SOL    HW223241   2.644   2.942   3.205  0.5933 -3.0673  0.0436
 3869SOL     OW23242   4.380   3.883   9.728 -0.1634  0.1853 -0.3286
 3869SOL    HW123243   4.330   3.818   9.778  0.0455 -0.2541 -0.6887
 3869SOL    HW223244   4.463   3.872   9.774 -0.0852 -0.1097 -0.5344
 3870SOL     OW23245   0.790   2.118   3.207  0.2962  0.1628 -0.3303
 3870SOL    HW123246   0.707   2.161   3.228 -0.4253 -1.8590  0.8764
 3870SOL    HW223247   0.851   2.148   3.275  1.7433  0.8937 -1.9449
 3871SOL     OW23248   3.649   2.447  17.636 -0.1276 -0.6047  0.0386
 3871SOL    HW123249   3.671   2.533  17.602 -0.8077 -1.1912 -1.9362
 3871SOL    HW223250   3.735   2.408  17.651 -0.6277 -0.6923  2.6499
 3872SOL     OW23251   3.517   1.316  15.969  0.1744  0.5662 -0.0719
 3872SOL    HW123252   3.501   1.407  15.995  0.2191  0.8801 -1.1257
 3872SOL    HW223253   3.512   1.324  15.874 -0.4505 -2.0671 -0.2552
 3873SOL     OW23254   3.958   0.559   2.090  0.6051  0.1698  0.1478
 3873SOL    HW123255   4.022   0.526   2.154  1.7000 -1.8451 -2.0021
 3873SOL    HW223256   3.929   0.640   2.131  1.1064  0.1528  0.5367
 3874SOL     OW23257   4.358   1.406  16.790  0.2480 -0.2238  0.0892
 3874SOL    HW123258   4.308   1.478  16.828 -1.0257 -0.1144 -1.7829
 3874SOL    HW223259   4.440   1.441  16.825  0.8277 -0.2730 -1.2053
 3875SOL     OW23260   1.712   0.665   3.593 -0.1946 -0.3415  0.5931
 3875SOL    HW123261   1.753   0.586   3.628 -0.8284 -1.2286 -0.6670
 3875SOL    HW223262   1.791   0.706   3.558 -2.3521  1.7081 -1.9319
 3876SOL     OW23263   2.084   2.856   0.562 -0.6540 -0.8415 -0.4590
 3876SOL    HW123264   2.091   2.857   0.657 -0.8909 -1.0676 -0.4402
 3876SOL    HW223265   2.023   2.930   0.553 -0.4667 -0.9279 -2.4319
 3877SOL     OW23266   1.079   0.173   4.548 -0.2927 -0.5239  0.2635
 3877SOL    HW123267   1.175   0.171   4.556 -0.0774  2.7347 -1.5890
 3877SOL    HW223268   1.063   0.096   4.603 -0.5865 -1.5873 -1.2848
 3878SOL     OW23269   3.229   2.442   7.932 -0.0071  0.2785 -0.2415
 3878SOL    HW123270   3.148   2.449   7.881  0.4232 -0.0747 -0.9718
 3878SOL    HW223271   3.192   2.443   8.020  0.1044  1.2536 -0.2064
 3879SOL     OW23272   2.432   2.074   0.897 -0.4927 -0.0413 -0.7620
 3879SOL    HW123273   2.356   2.130   0.879  1.0377  1.4936 -2.3147
 3879SOL    HW223274   2.392   2.018   0.964 -0.5584 -0.2941 -1.0116
 3880SOL     OW23275   4.477   4.630   7.666 -0.0810  0.6140 -0.6329
 3880SOL    HW123276   4.509   4.699   7.724  0.6208 -0.5644  0.3957
 3880SOL    HW223277   4.382   4.646   7.670 -0.1602  0.0324 -0.2140
 3881SOL     OW23278   2.493   4.134  10.640  0.4954  0.6683 -0.1806
 3881SOL    HW123279   2.481   4.039  10.646  0.0654  0.6239 -1.6843
 3881SOL    HW223280   2.542   4.141  10.722 -1.8836  0.2723  1.2549
 3882SOL     OW23281   3.888   3.333  10.674  0.0528 -0.3763 -0.5879
 3882SOL    HW123282   3.811   3.386  10.652  0.1062  0.0034  0.1415
 3882SOL    HW223283   3.889   3.330  10.770  0.8224  0.4496 -0.5791
 3883SOL     OW23284   4.533   3.553   7.577  0.6946 -0.0497 -0.0659
 3883SOL    HW123285   4.570   3.562   7.490  1.6082  0.0368  0.3318
 3883SOL    HW223286   4.608   3.535   7.633  0.3003  2.2189  1.1792
 3884SOL     OW23287   3.109   3.086  13.515  0.0693 -0.5033  0.1106
 3884SOL    HW123288   3.033   3.066  13.460  1.3225 -0.3971 -1.6355
 3884SOL    HW223289   3.118   3.004  13.564  1.1085  0.2821  1.2377
 3885SOL     OW23290   1.048   4.626   5.087 -0.0764 -0.2858 -0.1920
 3885SOL    HW123291   1.013   4.542   5.118 -1.5854 -0.5481 -2.6091
 3885SOL    HW223292   0.977   4.654   5.030  1.3583  1.6795 -1.0053
 3886SOL     OW23293   2.758   3.286  16.964  0.4814  0.3007 -0.6023
 3886SOL    HW123294   2.842   3.241  16.963  0.6334  0.5628  0.1568
 3886SOL    HW223295   2.722   3.274  17.052  0.8781 -3.0726 -0.9269
 3887SOL     OW23296   3.926   2.660   0.836  0.0552  0.2189 -0.5071
 3887SOL    HW123297   3.901   2.715   0.910 -0.1616  0.0778 -0.4788
 3887SOL    HW223298   3.989   2.604   0.881  1.7086  1.7010 -0.9815
 3888SOL     OW23299   1.997   2.595   5.165  0.3484  0.0710 -0.3255
 3888SOL    HW123300   1.914   2.553   5.140 -0.3731  1.4729 -0.2846
 3888SOL    HW223301   1.962   2.677   5.200 -0.2085 -0.0889 -0.5056
 3889SOL     OW23302   4.472   4.447   6.382 -0.3932 -0.0905  0.5260
 3889SOL    HW123303   4.547   4.476   6.433 -0.9543 -2.0210  2.4493
 3889SOL    HW223304   4.406   4.502   6.423 -1.8041 -0.1647 -1.6143
 3890SOL     OW23305   4.617   4.069   9.336  0.0551  0.4725  0.4088
 3890SOL    HW123306   4.585   4.120   9.411 -1.7334  1.6462 -1.1544
 3890SOL    HW223307   4.660   3.993   9.376 -1.0185 -1.1386 -1.4873
 3891SOL     OW23308   3.409   1.574   3.883  0.8485 -0.5433 -0.2082
 3891SOL    HW123309   3.356   1.634   3.831 -0.6358 -0.7886  1.0434
 3891SOL    HW223310   3.415   1.623   3.965  1.2418  0.0942 -0.6171
 3892SOL     OW23311   0.931   2.102   5.514 -0.5614  0.8531  0.3105
 3892SOL    HW123312   0.969   2.163   5.451  0.3589  2.3550  2.2862
 3892SOL    HW223313   0.900   2.036   5.453 -0.4906  0.9705  0.1493
 3893SOL     OW23314   0.020   0.873   7.451 -0.4514  0.2661 -0.9325
 3893SOL    HW123315   4.728   0.842   7.365  0.0888 -0.1501 -0.9513
 3893SOL    HW223316   4.728   0.800   7.507 -0.7094  2.4126  1.7465
 3894SOL     OW23317   0.563   1.406   9.125  0.0610  0.2231  0.9675
 3894SOL    HW123318   0.548   1.322   9.168  0.8717 -0.7987 -0.7419
 3894SOL    HW223319   0.481   1.445   9.157 -0.1894  1.3156 -0.9834
 3895SOL     OW23320   1.189   2.248  16.832  0.5098 -0.1084 -0.3941
 3895SOL    HW123321   1.209   2.336  16.863  1.4529 -0.2792 -0.5328
 3895SOL    HW223322   1.093   2.243  16.837  0.4137  2.4574  0.4895
 3896SOL     OW23323   3.711   1.773   1.862 -0.1420  0.2870 -0.2213
 3896SOL    HW123324   3.702   1.848   1.920 -1.9600 -0.1376  0.0169
 3896SOL    HW223325   3.749   1.815   1.784 -0.1154  1.3525  0.3679
 3897SOL     OW23326   1.399   4.133   5.268 -0.1261 -0.1083 -0.0119
 3897SOL    HW123327   1.467   4.080   5.227 -0.4372 -0.2427 -0.3538
 3897SOL    HW223328   1.370   4.082   5.344  0.3803 -0.5322 -0.1030
 3898SOL     OW23329   4.275   0.673   5.808  0.4064 -0.5553  0.0958
 3898SOL    HW123330   4.339   0.714   5.750 -0.9968  0.9234 -0.4032
 3898SOL    HW223331   4.199   0.731   5.798  1.3394  0.1220 -3.1013
 3899SOL     OW23332   3.177   1.356   8.422 -0.2681  0.9013  0.5591
 3899SOL    HW123333   3.203   1.358   8.330 -0.5907  0.9066  0.4665
 3899SOL    HW223334   3.098   1.302   8.410  1.2065 -0.2905 -3.5746
 3900SOL     OW23335   3.139   1.728   2.545  0.0364  0.1767 -0.4714
 3900SOL    HW123336   3.182   1.813   2.562  0.4555  0.2014 -1.6814
 3900SOL    HW223337   3.046   1.748   2.556 -0.4706 -2.7532  0.4075
 3901SOL     OW23338   1.986   3.539   6.756 -0.0314  0.0842  0.0741
 3901SOL    HW123339   1.986   3.619   6.703  0.5230  0.3658  0.5016
 3901SOL    HW223340   1.908   3.504   6.713  0.9856  0.4903 -2.1498
 3902SOL     OW23341   3.039   2.037   8.362 -0.3692 -0.6382  0.3721
 3902SOL    HW123342   2.978   2.012   8.293 -0.9323  2.2897 -0.2244
 3902SOL    HW223343   3.120   2.016   8.315 -1.2945  1.1629 -2.0689
 3903SOL     OW23344   3.864   0.691   4.581  0.3354 -0.2667 -0.6062
 3903SOL    HW123345   3.840   0.780   4.557  1.2645  0.8043  2.5047
 3903SOL    HW223346   3.957   0.697   4.600  0.1016  0.5092  0.3111
 3904SOL     OW23347   2.803   0.713  13.006 -0.1012 -0.2673  0.0328
 3904SOL    HW123348   2.777   0.622  12.988  1.3242 -0.7355  0.3582
 3904SOL    HW223349   2.752   0.723  13.087  2.2614  1.7798  1.2573
 3905SOL     OW23350   1.002   3.322  17.544  0.8986  0.1283 -0.5960
 3905SOL    HW123351   0.971   3.407  17.512 -1.6132 -1.2131 -1.7033
 3905SOL    HW223352   0.969   3.253  17.487  1.2537  0.5944 -1.3732
 3906SOL     OW23353   2.287   1.839   1.813 -0.2569 -0.0645  0.3416
 3906SOL    HW123354   2.199   1.833   1.775 -1.0242  2.2961  1.7056
 3906SOL    HW223355   2.341   1.835   1.734  1.2839  0.4684  1.3747
 3907SOL     OW23356   2.017   4.068   6.421 -0.1199 -0.5564 -0.2471
 3907SOL    HW123357   2.011   4.058   6.516 -0.5610  0.3346 -0.1847
 3907SOL    HW223358   1.988   3.981   6.391 -1.8057 -0.2187  0.4512
 3908SOL     OW23359   4.043   0.306   6.912 -0.2552  0.9455 -0.0656
 3908SOL    HW123360   4.130   0.289   6.878  0.1288 -1.4100  2.0389
 3908SOL    HW223361   4.067   0.381   6.966  1.8349 -0.0776  0.4273
 3909SOL     OW23362   4.367   0.022   4.978  0.0039 -0.1269  0.3460
 3909SOL    HW123363   4.324   0.107   4.963 -0.7038 -0.7750 -1.2441
 3909SOL    HW223364   4.461   0.039   4.971 -0.0803  0.6574  1.0043
 3910SOL     OW23365   0.164   3.049   6.232 -0.0947 -0.3286 -0.2699
 3910SOL    HW123366   0.147   3.143   6.232  1.5948 -0.0399 -2.7073
 3910SOL    HW223367   0.172   3.028   6.139  0.0172 -2.2179  0.1530
 3911SOL     OW23368   4.399   3.677  12.227 -0.0673 -0.3627  0.0718
 3911SOL    HW123369   4.318   3.645  12.268 -1.3507  3.9016  0.9176
 3911SOL    HW223370   4.424   3.611  12.162 -2.1283 -2.1700  1.0982
 3912SOL     OW23371   1.470   2.501   2.698 -0.6056 -0.0024  0.6787
 3912SOL    HW123372   1.439   2.412   2.679 -0.0646 -0.3314  1.3276
 3912SOL    HW223373   1.559   2.464   2.703 -1.1489 -1.4131 -0.0009
 3913SOL     OW23374   1.336   3.138   0.373 -0.0737  0.6758 -0.3852
 3913SOL    HW123375   1.306   3.132   0.282 -2.6999 -1.6312  0.6234
 3913SOL    HW223376   1.266   3.089   0.417  0.2263 -0.2009 -0.8853
 3914SOL     OW23377   2.865   1.751   1.721 -0.0990 -0.0878  0.6934
 3914SOL    HW123378   2.934   1.806   1.686 -0.6547  0.7220  0.8552
 3914SOL    HW223379   2.896   1.761   1.811 -0.0026  1.0575  0.5266
 3915SOL     OW23380   1.091   3.161   1.943  0.1548  0.3777  0.1668
 3915SOL    HW123381   1.094   3.248   1.903  1.2693  1.2967  2.2827
 3915SOL    HW223382   1.021   3.174   2.006  1.7943  0.2654  2.0278
 3916SOL     OW23383   3.723   2.881  13.521 -0.6566  0.0042  0.4574
 3916SOL    HW123384   3.731   2.788  13.542  0.8978  0.0822  0.2108
 3916SOL    HW223385   3.811   2.917  13.527 -0.5951  0.1205 -1.3170
 3917SOL     OW23386   3.770   2.827   1.148 -0.1048 -0.0285  0.3789
 3917SOL    HW123387   3.694   2.874   1.114  0.4724 -0.9221 -2.0926
 3917SOL    HW223388   3.733   2.787   1.227  2.0137 -0.1811  1.3154
 3918SOL     OW23389   0.636   4.258  16.904  0.4127 -0.1017  0.2581
 3918SOL    HW123390   0.637   4.336  16.960  1.2600 -0.1636  0.3277
 3918SOL    HW223391   0.625   4.193  16.973 -0.7556  1.7919  1.8665
 3919SOL     OW23392   0.764   4.250   5.480 -0.1740 -0.4868 -0.4978
 3919SOL    HW123393   0.751   4.344   5.488 -2.3941 -1.0130  2.3550
 3919SOL    HW223394   0.680   4.223   5.518 -0.3995 -1.2669 -1.5413
 3920SOL     OW23395   2.412   1.575   6.079 -0.2893  0.0457 -0.1174
 3920SOL    HW123396   2.455   1.600   5.998 -2.2631  1.9640 -0.5919
 3920SOL    HW223397   2.463   1.637   6.132  1.9091 -1.2483 -0.7588
 3921SOL     OW23398   3.379   3.273   4.002  0.4983  0.1960  0.3665
 3921SOL    HW123399   3.332   3.241   4.079  1.6072 -1.2076  0.4698
 3921SOL    HW223400   3.334   3.223   3.934 -0.3265  1.8410 -0.2985
 3922SOL     OW23401   1.643   2.400   7.364  0.1733  0.0930 -0.0211
 3922SOL    HW123402   1.645   2.313   7.324  1.2757  0.1294 -0.0651
 3922SOL    HW223403   1.647   2.459   7.288  0.2011 -0.6297 -0.5805
 3923SOL     OW23404   2.391   1.244   4.347 -0.5096  0.0058  0.2794
 3923SOL    HW123405   2.336   1.187   4.292 -0.2289 -0.8860  0.9231
 3923SOL    HW223406   2.360   1.334   4.347  0.8630  0.4891  0.0722
 3924SOL     OW23407   1.906   1.044   4.561 -0.1311  0.1188 -0.2401
 3924SOL    HW123408   1.944   1.132   4.554 -0.9013  0.2984 -2.2748
 3924SOL    HW223409   1.963   1.009   4.493 -0.3131  0.7190 -0.7043
 3925SOL     OW23410   0.374   3.290   2.771 -0.1070 -0.4004  0.4354
 3925SOL    HW123411   0.337   3.373   2.741  2.2089  0.2235 -0.7076
 3925SOL    HW223412   0.464   3.318   2.791 -1.3494  0.7872  4.2833
 3926SOL     OW23413   1.220   1.677   4.312 -0.0850 -0.7683  0.3134
 3926SOL    HW123414   1.165   1.606   4.344 -2.6383  0.7813 -0.6551
 3926SOL    HW223415   1.171   1.721   4.243  0.0683  0.9912  1.3372
 3927SOL     OW23416   3.016   3.961   9.412 -0.1467 -0.6965 -0.1916
 3927SOL    HW123417   2.979   3.934   9.328 -0.0891  1.5009 -0.9355
 3927SOL    HW223418   2.933   4.003   9.437  0.6576 -0.6499  2.4234
 3928SOL     OW23419   3.104   3.127   7.980 -0.3074 -0.1356 -0.1640
 3928SOL    HW123420   3.094   3.152   7.888  0.5586 -0.8302 -0.4465
 3928SOL    HW223421   3.171   3.192   7.996 -0.2381  0.4279 -2.6528
 3929SOL     OW23422   2.771   0.501   6.520  0.0250 -0.3740 -0.1284
 3929SOL    HW123423   2.701   0.447   6.484  0.7182 -1.8902  0.7901
 3929SOL    HW223424   2.851   0.456   6.492  0.2870 -0.7532  1.2429
 3930SOL     OW23425   2.249   1.960   0.630 -1.2659 -0.3584 -0.2063
 3930SOL    HW123426   2.311   2.031   0.645 -0.2044 -1.0522 -1.3254
 3930SOL    HW223427   2.200   1.986   0.553  2.0622  1.4264 -1.7308
 3931SOL     OW23428   0.838   1.838   5.746  0.1087 -0.0877  0.2092
 3931SOL    HW123429   0.817   1.932   5.746 -1.2580 -0.3951 -0.0252
 3931SOL    HW223430   0.751   1.805   5.767  0.3906 -0.4502  0.7855
 3932SOL     OW23431   1.912   3.425   5.401  0.2203 -0.3343 -0.0210
 3932SOL    HW123432   1.972   3.478   5.454  1.5992 -0.9359 -0.9603
 3932SOL    HW223433   1.918   3.472   5.317  0.8009  0.2679  0.3608
 3933SOL     OW23434   2.819   3.211   3.266  0.1970 -0.1291 -0.3339
 3933SOL    HW123435   2.798   3.119   3.278  1.8263 -0.2315  1.5527
 3933SOL    HW223436   2.866   3.230   3.347  0.3699 -0.7032 -0.3046
 3934SOL     OW23437   3.929   2.305  14.806  0.1964  1.0646 -0.8573
 3934SOL    HW123438   3.880   2.264  14.877  1.7690  1.5321  0.5046
 3934SOL    HW223439   3.990   2.358  14.858  1.0155  0.3513 -1.0775
 3935SOL     OW23440   1.976   3.515  14.650  0.2041  0.1737 -0.1858
 3935SOL    HW123441   1.961   3.437  14.598  0.7785  0.6268 -1.0270
 3935SOL    HW223442   2.047   3.491  14.709  0.8524 -1.3457 -1.5937
 3936SOL     OW23443   2.543   2.129  13.292 -0.0390 -0.1263 -0.2073
 3936SOL    HW123444   2.593   2.096  13.366  0.5558 -0.1078 -0.6063
 3936SOL    HW223445   2.537   2.217  13.329  1.5513 -0.1148 -0.0031
 3937SOL     OW23446   3.719   3.980   3.459 -0.4272 -0.7671 -0.3112
 3937SOL    HW123447   3.638   3.952   3.415 -0.2441  0.1426 -1.2282
 3937SOL    HW223448   3.749   4.049   3.399 -0.4063 -1.9009 -1.6160
 3938SOL     OW23449   0.636   2.365   7.763 -0.9791 -0.2020  0.2671
 3938SOL    HW123450   0.571   2.418   7.809 -0.7883  0.7887 -0.5976
 3938SOL    HW223451   0.645   2.287   7.818 -0.5218 -1.4009 -1.5084
 3939SOL     OW23452   0.851   1.846  15.275  0.2852 -0.0426  0.5884
 3939SOL    HW123453   0.765   1.814  15.299  0.5940 -0.4507  1.1454
 3939SOL    HW223454   0.863   1.783  15.203 -2.3133 -1.3987  1.3343
 3940SOL     OW23455   0.424   0.623   2.726 -0.5894 -0.1614  0.8014
 3940SOL    HW123456   0.425   0.603   2.820  1.0272 -0.6761  0.6665
 3940SOL    HW223457   0.460   0.711   2.738 -0.2278 -0.3769  1.3147
 3941SOL     OW23458   2.053   3.747   8.762  0.2772 -0.1417 -0.2901
 3941SOL    HW123459   1.992   3.678   8.789  0.5014 -0.2136  0.0349
 3941SOL    HW223460   2.135   3.698   8.769  0.5814  0.2958 -0.7745
 3942SOL     OW23461   4.182   1.524   9.027  0.0587  0.1271 -0.3584
 3942SOL    HW123462   4.088   1.542   9.015  0.2818  1.6696  0.2203
 3942SOL    HW223463   4.200   1.615   9.051 -0.8938  0.3923 -0.6518
 3943SOL     OW23464   4.250   0.332   2.676  0.5110  0.7128 -0.4878
 3943SOL    HW123465   4.178   0.392   2.692 -0.6615 -0.6691 -0.6157
 3943SOL    HW223466   4.293   0.371   2.600  1.8606 -0.4719 -0.3558
 3944SOL     OW23467   1.576   1.165   3.908  0.0373 -0.3893  0.1164
 3944SOL    HW123468   1.606   1.158   3.999 -0.0513 -1.6378  0.0424
 3944SOL    HW223469   1.547   1.256   3.903  0.4390 -0.2057  0.9286
 3945SOL     OW23470   1.395   0.764  15.340  0.1560 -0.8209 -0.0761
 3945SOL    HW123471   1.470   0.822  15.327  0.2941 -0.6202  1.6105
 3945SOL    HW223472   1.318   0.819  15.328  0.6500  0.1187  1.0085
 3946SOL     OW23473   2.384   4.706  13.814 -0.1885  0.4287  0.2614
 3946SOL    HW123474   2.299   4.708  13.860  0.1768  0.8927  0.9218
 3946SOL    HW223475   2.369   4.648  13.740 -1.3814  2.3892 -1.0309
 3947SOL     OW23476   0.800   2.462   2.126  0.1487  0.1086  0.4576
 3947SOL    HW123477   0.771   2.513   2.051  0.0071 -2.4662 -1.2282
 3947SOL    HW223478   0.802   2.373   2.089 -0.4303  0.1882  0.2302
 3948SOL     OW23479   1.345   2.182   1.451  0.2852  0.4767  0.5110
 3948SOL    HW123480   1.324   2.271   1.478  1.2125  0.1025  2.4271
 3948SOL    HW223481   1.438   2.177   1.474  1.1478  1.2797 -2.7491
 3949SOL     OW23482   0.611   2.766   2.176  0.1836  0.0446 -0.5127
 3949SOL    HW123483   0.693   2.813   2.163 -0.5170  1.4657  0.1559
 3949SOL    HW223484   0.582   2.807   2.258  0.4560 -0.0539 -0.3700
 3950SOL     OW23485   3.516   4.625   5.469  0.4689  0.2825 -0.1597
 3950SOL    HW123486   3.546   4.537   5.448 -1.2405 -0.2081 -0.5650
 3950SOL    HW223487   3.549   4.679   5.396 -0.4871  0.9802 -0.0824
 3951SOL     OW23488   3.935   4.656   5.518  0.5942 -0.4139  0.0219
 3951SOL    HW123489   3.954   4.679   5.608  1.6223  3.4405 -1.1817
 3951SOL    HW223490   3.911   0.005   5.479 -0.6067 -1.3312 -1.2636
 3952SOL     OW23491   3.612   2.530  16.659 -0.0331  0.3414 -0.2273
 3952SOL    HW123492   3.523   2.516  16.692  0.2054 -3.2903 -1.0965
 3952SOL    HW223493   3.621   2.456  16.598 -0.3643  1.6702 -1.9020
 3953SOL     OW23494   0.698   0.941   3.834 -0.1152  0.5194  0.2889
 3953SOL    HW123495   0.698   0.923   3.740 -0.7199  0.4026  0.3090
 3953SOL    HW223496   0.716   1.035   3.841 -3.3526  1.0522  1.6065
 3954SOL     OW23497   3.803   3.805   4.316  0.3022 -0.0319  0.6896
 3954SOL    HW123498   3.799   3.891   4.358 -2.1376 -0.3955  1.2172
 3954SOL    HW223499   3.898   3.800   4.308  0.4055  2.7386  0.1979
 3955SOL     OW23500   2.389   4.622   6.701  0.7456  0.1856  0.2189
 3955SOL    HW123501   2.323   4.692   6.703 -0.0890 -0.5374 -1.7679
 3955SOL    HW223502   2.428   4.633   6.614  1.3650 -1.3253  0.3133
 3956SOL     OW23503   0.051   4.150  15.021  0.1652 -0.2649  0.0709
 3956SOL    HW123504   0.110   4.216  14.985 -1.0086  0.2386 -0.9067
 3956SOL    HW223505   0.019   4.200  15.096  2.3081 -0.0836  0.8711
 3957SOL     OW23506   0.769   3.009   5.210 -0.0519 -0.3396  0.1631
 3957SOL    HW123507   0.768   3.077   5.277 -0.6797 -1.1449  0.9616
 3957SOL    HW223508   0.863   3.015   5.190  0.2237 -0.3968  1.4173
 3958SOL     OW23509   2.959   0.476  11.940  0.0857 -0.5190  0.0322
 3958SOL    HW123510   2.886   0.416  11.927 -0.8599  0.3920  1.1061
 3958SOL    HW223511   3.011   0.435  11.871  0.5973  0.7764 -0.3495
 3959SOL     OW23512   3.465   1.971   2.458 -0.3067  0.1178 -1.1894
 3959SOL    HW123513   3.463   2.063   2.435 -0.6863 -0.0128 -1.6809
 3959SOL    HW223514   3.407   1.929   2.394  0.1376 -1.3951 -0.6193
 3960SOL     OW23515   1.339   0.500   3.062 -0.6730 -0.2691 -0.5365
 3960SOL    HW123516   1.364   0.532   2.975  1.5952  1.8177  0.8800
 3960SOL    HW223517   1.290   0.420   3.043 -1.6602  0.0406  0.6866
 3961SOL     OW23518   2.052   1.767   4.336 -0.4927  0.4067 -0.1985
 3961SOL    HW123519   2.114   1.746   4.405 -0.2716  0.6191 -0.3308
 3961SOL    HW223520   2.010   1.840   4.382 -0.7807 -1.1123  1.9388
 3962SOL     OW23521   4.432   1.840  10.991 -0.1962 -0.1307 -0.2177
 3962SOL    HW123522   4.382   1.818  11.070  0.9525  0.3092  0.6330
 3962SOL    HW223523   4.365   1.879  10.934 -0.1458  1.1791  0.6013
 3963SOL     OW23524   0.916   1.977   7.465  0.1010  0.2491 -0.2629
 3963SOL    HW123525   0.886   1.902   7.515 -1.1919  1.0326  0.1383
 3963SOL    HW223526   0.882   2.043   7.526 -1.5239 -0.0528 -0.8456
 3964SOL     OW23527   4.434   1.337   7.311 -0.6838  0.4040  0.0069
 3964SOL    HW123528   4.421   1.320   7.218 -3.2714  0.1790  0.3980
 3964SOL    HW223529   4.492   1.267   7.340 -1.9707 -0.2888  0.9035
 3965SOL     OW23530   4.334   1.782  13.767  0.1003  0.7488  0.3862
 3965SOL    HW123531   4.284   1.828  13.700  1.0469  0.1499 -0.7334
 3965SOL    HW223532   4.310   1.840  13.839 -0.8693  1.7574 -0.7407
 3966SOL     OW23533   3.150   2.688   1.451  0.2570  0.3381 -0.1326
 3966SOL    HW123534   3.104   2.749   1.509  0.0949 -2.2988  2.5483
 3966SOL    HW223535   3.119   2.713   1.365  1.5072  1.1085 -0.3556
 3967SOL     OW23536   4.350   0.667  11.886 -0.3478  0.4117  0.4365
 3967SOL    HW123537   4.285   0.724  11.845  0.9012  3.0001  2.0660
 3967SOL    HW223538   4.426   0.720  11.862 -1.4770  0.1501 -3.7209
 3968SOL     OW23539   0.053   1.948  14.514  0.2115  0.2590 -0.5488
 3968SOL    HW123540   0.111   1.990  14.577 -1.1763 -0.9957  1.5480
 3968SOL    HW223541   0.061   2.005  14.438  4.1860  1.2296  0.5504
 3969SOL     OW23542   2.874   2.199  14.545 -0.1497  0.5276 -0.0441
 3969SOL    HW123543   2.946   2.247  14.505 -0.6356  0.7499 -0.6575
 3969SOL    HW223544   2.895   2.106  14.544 -0.0552  0.5870 -2.6782
 3970SOL     OW23545   1.785   0.411  13.422 -0.2896 -0.2304  0.0119
 3970SOL    HW123546   1.745   0.414  13.335  0.9296 -1.8099 -0.6199
 3970SOL    HW223547   1.871   0.453  13.411 -0.5111  0.3758  0.5962
 3971SOL     OW23548   1.700   3.962  13.977  0.7133  0.0050  0.3699
 3971SOL    HW123549   1.647   4.011  13.915 -2.2278  0.0314  2.8605
 3971SOL    HW223550   1.656   4.002  14.052  0.4647 -1.0093  0.7784
 3972SOL     OW23551   2.681   3.973   6.753 -0.2129 -0.3510 -0.0713
 3972SOL    HW123552   2.621   4.028   6.804  1.0773  2.9594 -2.1429
 3972SOL    HW223553   2.769   4.009   6.761 -0.6546  1.1634 -2.0762
 3973SOL     OW23554   0.191   4.388   3.119 -0.3494 -0.0927  0.0206
 3973SOL    HW123555   0.240   4.469   3.133 -0.1305 -0.2775  0.3314
 3973SOL    HW223556   0.260   4.328   3.146  0.9014  1.0682 -0.6373
 3974SOL     OW23557   3.813   0.520  14.940 -0.1191  0.2326  0.4948
 3974SOL    HW123558   3.901   0.530  14.974 -0.3070  0.3608  0.9346
 3974SOL    HW223559   3.803   0.426  14.925  1.1781  0.1997 -0.1247
 3975SOL     OW23560   3.412   2.875   8.781  0.3447 -0.6668 -0.0810
 3975SOL    HW123561   3.427   2.963   8.814  0.1049 -0.6041 -0.1336
 3975SOL    HW223562   3.471   2.827   8.839 -0.0277 -1.7080 -0.5596
 3976SOL     OW23563   4.723   1.576   1.910 -0.1664  0.1745 -0.2975
 3976SOL    HW123564   0.008   1.617   1.826  1.3057  2.2634  1.0985
 3976SOL    HW223565   4.644   1.527   1.886 -0.3660  0.0903  0.5194
 3977SOL     OW23566   3.500   4.693  15.496  0.0935 -0.4651 -0.3694
 3977SOL    HW123567   3.554   4.646  15.433  0.4211  2.2795 -2.1343
 3977SOL    HW223568   3.505   0.047  15.462  2.3084 -0.4217  0.0752
 3978SOL     OW23569   2.838   4.252   8.988  0.1518 -0.3797  0.0910
 3978SOL    HW123570   2.786   4.180   8.951 -0.8532 -0.5301  1.8084
 3978SOL    HW223571   2.927   4.218   8.998  1.5910  2.6160 -2.3762
 3979SOL     OW23572   2.852   0.905  15.585  0.1775  0.8093 -0.6749
 3979SOL    HW123573   2.859   0.982  15.529  0.6805  0.4580 -1.0991
 3979SOL    HW223574   2.920   0.848  15.549  1.6332  1.7554  0.5703
 3980SOL     OW23575   4.416   3.303   1.556  0.2437 -0.3587  0.0011
 3980SOL    HW123576   4.333   3.254   1.556  0.1223 -0.1586 -2.0889
 3980SOL    HW223577   4.443   3.284   1.646 -0.8229  0.7476  0.5441
 3981SOL     OW23578   2.631   2.319   9.054  0.0528 -0.7129  0.5872
 3981SOL    HW123579   2.650   2.229   9.080  1.8181 -0.7969 -1.0282
 3981SOL    HW223580   2.540   2.337   9.078  0.3899  0.3728  1.0524
 3982SOL     OW23581   3.537   1.531   8.850  0.4406  0.6598  0.3724
 3982SOL    HW123582   3.590   1.597   8.895  0.3621  0.0058  1.4207
 3982SOL    HW223583   3.475   1.592   8.810  0.1553  0.1652  0.0462
 3983SOL     OW23584   2.166   0.184   5.764 -0.1811  0.2706 -0.1388
 3983SOL    HW123585   2.160   0.230   5.848  1.8116 -0.5984  0.4783
 3983SOL    HW223586   2.090   0.210   5.713 -3.2955 -1.7452  3.5421
 3984SOL     OW23587   2.772   4.638  14.321  0.1589  0.1975 -0.0117
 3984SOL    HW123588   2.790   4.619  14.229 -0.6443  1.2896 -0.3859
 3984SOL    HW223589   2.772   4.733  14.314  1.8895  0.2673  0.8085
 3985SOL     OW23590   2.053   4.549  16.874  0.3727  0.0922  0.0084
 3985SOL    HW123591   2.142   4.532  16.843  0.6218 -0.9028  1.2576
 3985SOL    HW223592   2.044   4.475  16.934  1.7534 -0.9738 -1.1127
 3986SOL     OW23593   4.480   1.445  12.998 -0.0205  0.1554 -0.9437
 3986SOL    HW123594   4.518   1.463  12.913  0.8846 -3.7006 -1.3708
 3986SOL    HW223595   4.499   1.351  13.006 -1.1281 -0.0269 -0.3303
 3987SOL     OW23596   1.225   3.652   9.189  0.2768 -0.0997  0.2061
 3987SOL    HW123597   1.192   3.702   9.264 -1.7960 -2.6144  0.9942
 3987SOL    HW223598   1.273   3.579   9.228  0.8942  1.3383  2.1125
 3988SOL     OW23599   3.306   2.938   8.182 -0.3384 -0.0693  0.0053
 3988SOL    HW123600   3.284   3.031   8.194  0.6382  0.0224  1.1717
 3988SOL    HW223601   3.354   2.938   8.099 -1.4578  0.2779 -0.6398
 3989SOL     OW23602   0.901   2.966   6.840 -0.6029  0.5596 -0.4644
 3989SOL    HW123603   0.972   2.923   6.888 -0.1374 -0.5143 -2.1114
 3989SOL    HW223604   0.938   3.037   6.788  0.0415  0.4597 -0.1428
 3990SOL     OW23605   2.017   4.441   0.127  0.0345 -0.3601 -0.3188
 3990SOL    HW123606   1.973   4.472   0.048  1.3514  0.0952 -0.8856
 3990SOL    HW223607   2.035   4.354   0.094 -0.2367 -0.7590  0.5700
 3991SOL     OW23608   0.542   2.037  11.059  0.2363  0.3480  0.0503
 3991SOL    HW123609   0.467   2.090  11.085 -0.3331  0.7099 -2.3278
 3991SOL    HW223610   0.506   1.992  10.983  0.9437 -1.4289  0.7768
 3992SOL     OW23611   3.975   2.632   8.588  0.5473 -0.0236 -0.1662
 3992SOL    HW123612   3.937   2.697   8.647 -0.8582 -1.2082  0.2551
 3992SOL    HW223613   3.896   2.595   8.548 -0.3287 -1.3449  2.8362
 3993SOL     OW23614   1.654   2.227   3.383  0.4217 -0.1983  0.0885
 3993SOL    HW123615   1.667   2.240   3.289  0.1457  2.9642  0.4837
 3993SOL    HW223616   1.663   2.317   3.414 -1.1163 -1.2665  3.6433
 3994SOL     OW23617   2.083   2.461  11.234  0.3494  0.5092  0.1870
 3994SOL    HW123618   2.033   2.380  11.225  0.8023  0.1135  1.2480
 3994SOL    HW223619   2.127   2.438  11.316  0.5293  1.2410  0.2968
 3995SOL     OW23620   0.772   3.675   3.597 -0.2813 -0.2246  0.0904
 3995SOL    HW123621   0.747   3.589   3.565  1.4373 -1.1005  1.0650
 3995SOL    HW223622   0.701   3.688   3.660 -1.8467 -2.7769 -1.1605
 3996SOL     OW23623   3.774   2.540   5.228 -0.3623  0.2897  0.0060
 3996SOL    HW123624   3.855   2.541   5.177 -1.4875 -1.1699 -1.8097
 3996SOL    HW223625   3.741   2.622   5.191  1.5267  1.5596  1.1333
 3997SOL     OW23626   2.454   0.133   6.216 -0.1547 -0.3539  0.0105
 3997SOL    HW123627   2.453   0.045   6.178  0.4352 -0.3042 -0.1166
 3997SOL    HW223628   2.393   0.188   6.167 -0.8200 -1.0250  0.0985
 3998SOL     OW23629   4.280   1.398   6.692  0.0522 -0.0952  0.1413
 3998SOL    HW123630   4.300   1.405   6.785  1.0425  1.3536 -0.1873
 3998SOL    HW223631   4.227   1.318   6.687  1.0135 -0.7340 -0.0253
 3999SOL     OW23632   1.459   2.087   2.169  0.3180 -0.0096  0.4699
 3999SOL    HW123633   1.397   2.090   2.096 -1.3399  0.8207  1.9176
 3999SOL    HW223634   1.505   2.170   2.153 -1.7735  1.1059  0.1208
 4000SOL     OW23635   0.436   0.238   5.626 -0.2171  0.6845  0.3193
 4000SOL    HW123636   0.403   0.256   5.714 -3.0839  0.9840 -0.8113
 4000SOL    HW223637   0.453   0.144   5.623 -1.3346  0.4897  0.0097
 4001SOL     OW23638   0.297   1.714  16.494 -0.1731  0.1878  0.4875
 4001SOL    HW123639   0.272   1.763  16.572  1.6085 -1.5114  2.0931
 4001SOL    HW223640   0.373   1.668  16.527  0.0047  1.1557  1.4199
 4002SOL     OW23641   0.098   0.388  12.182 -0.2169 -0.4349  0.2527
 4002SOL    HW123642   0.143   0.373  12.099  2.5036  1.4078  1.3671
 4002SOL    HW223643   0.015   0.426  12.154 -0.1463  0.2191  0.9148
 4003SOL     OW23644   2.007   3.996   1.841  0.2018 -0.4605 -0.6146
 4003SOL    HW123645   2.088   3.944   1.837 -1.1423 -2.6267 -0.0018
 4003SOL    HW223646   1.972   3.977   1.755  0.4979 -1.8023 -0.4442
 4004SOL     OW23647   3.892   3.649   2.034 -0.2871  0.5628  0.0528
 4004SOL    HW123648   3.806   3.666   1.997 -0.5112 -0.9696 -0.1493
 4004SOL    HW223649   3.863   3.598   2.110 -0.3887  0.4267 -0.0787
 4005SOL     OW23650   3.623   4.037  10.447  0.0609  0.4336  0.1960
 4005SOL    HW123651   3.580   3.983  10.381  1.2836 -1.9217  1.3125
 4005SOL    HW223652   3.568   4.024  10.525 -1.8469 -1.5381 -1.4752
 4006SOL     OW23653   4.228   3.863   1.820  0.5620 -0.3827 -0.2424
 4006SOL    HW123654   4.243   3.797   1.887 -1.0872  0.4973  0.9768
 4006SOL    HW223655   4.193   3.935   1.872 -1.0600  0.6262 -2.7010
 4007SOL     OW23656   3.452   2.683   1.684  0.0152 -0.1247  0.1072
 4007SOL    HW123657   3.519   2.654   1.746 -1.0273 -1.1324  0.7371
 4007SOL    HW223658   3.407   2.605   1.653  0.6645 -1.1601  1.7684
 4008SOL     OW23659   2.881   4.407   3.701 -0.9700 -0.2436 -0.0794
 4008SOL    HW123660   2.813   4.362   3.651 -0.1699 -1.0599 -0.4318
 4008SOL    HW223661   2.851   4.402   3.792 -1.2486  1.1027 -0.0918
 4009SOL     OW23662   4.003   3.505   0.775  0.1414 -0.3154  0.2058
 4009SOL    HW123663   3.963   3.486   0.860  0.8914  2.1144  1.1015
 4009SOL    HW223664   3.981   3.424   0.728 -0.9627 -0.0289  0.2305
 4010SOL     OW23665   4.182   2.184   2.725  0.3879 -0.5753 -0.0753
 4010SOL    HW123666   4.140   2.231   2.798  0.1057 -0.3618 -0.3743
 4010SOL    HW223667   4.269   2.223   2.729  0.4402 -0.6212 -0.7739
 4011SOL     OW23668   3.985   2.702  11.346 -0.2600 -0.2202 -0.4861
 4011SOL    HW123669   4.039   2.681  11.270 -1.5588  1.6007 -1.9284
 4011SOL    HW223670   4.014   2.652  11.422 -0.2344 -2.4570 -1.9690
 4012SOL     OW23671   4.037   1.555   4.741  0.0806  0.4302 -0.0256
 4012SOL    HW123672   4.045   1.643   4.705  0.9604 -0.0729 -1.0490
 4012SOL    HW223673   3.949   1.526   4.720 -0.0821  0.2298  0.9071
 4013SOL     OW23674   3.567   4.317   9.476 -0.4448  0.3358 -0.6283
 4013SOL    HW123675   3.538   4.256   9.409  1.6521  0.3307 -1.5275
 4013SOL    HW223676   3.624   4.368   9.420 -1.8478  0.6143 -1.8135
 4014SOL     OW23677   3.569   0.972   3.335  0.0086 -0.1331  0.2599
 4014SOL    HW123678   3.518   1.041   3.377 -2.1343 -2.3563  1.2982
 4014SOL    HW223679   3.655   1.000   3.366  0.7151 -1.4186 -0.5133
 4015SOL     OW23680   4.280   1.936   2.620  0.4295  0.0580  0.3962
 4015SOL    HW123681   4.236   1.962   2.539 -1.1243  0.1194  1.2455
 4015SOL    HW223682   4.236   1.994   2.683  1.9169  0.5026  1.0156
 4016SOL     OW23683   3.847   3.405  17.264 -0.2880 -0.2571 -0.3400
 4016SOL    HW123684   3.916   3.343  17.286 -0.7010 -1.0671 -1.3036
 4016SOL    HW223685   3.772   3.346  17.254 -0.2359 -0.3764 -0.0133
 4017SOL     OW23686   4.079   0.381   9.166  0.2070  0.1782  0.0440
 4017SOL    HW123687   4.079   0.353   9.257  0.0376 -1.7775 -0.5474
 4017SOL    HW223688   4.134   0.459   9.161  0.7971 -0.1953  0.6829
 4018SOL     OW23689   2.696   1.105   9.657  0.0105 -0.8947  0.2167
 4018SOL    HW123690   2.605   1.132   9.649 -0.4792 -2.8478 -0.7494
 4018SOL    HW223691   2.737   1.153   9.585 -0.9350 -0.7318 -0.2165
 4019SOL     OW23692   0.806   1.392   4.709 -0.7976  0.2537  0.1987
 4019SOL    HW123693   0.752   1.329   4.757 -0.2765 -2.1088 -2.3093
 4019SOL    HW223694   0.779   1.373   4.620 -2.2617 -1.6834  1.0560
 4020SOL     OW23695   1.182   1.940  10.349  0.0375  0.6264 -0.5943
 4020SOL    HW123696   1.264   1.928  10.302  0.9377 -0.0637  1.1867
 4020SOL    HW223697   1.163   1.848  10.366 -2.4819  1.2021 -0.2045
 4021SOL     OW23698   3.350   0.480   9.471 -0.1379  0.0078  0.0385
 4021SOL    HW123699   3.422   0.465   9.532  2.3242  0.6357 -2.7153
 4021SOL    HW223700   3.311   0.393   9.470 -2.0569  0.8855 -1.1049
 4022SOL     OW23701   0.575   1.303   6.424  0.1334 -0.5983  0.2142
 4022SOL    HW123702   0.506   1.347   6.473  0.6464 -0.9271  1.2304
 4022SOL    HW223703   0.528   1.257   6.355 -2.1562 -0.7375  1.8861
 4023SOL     OW23704   1.917   3.609   7.009 -0.0102 -1.5021  0.1070
 4023SOL    HW123705   1.840   3.565   7.045  0.6354 -2.1216  0.7248
 4023SOL    HW223706   1.928   3.564   6.926 -0.0057 -0.2300 -0.5785
 4024SOL     OW23707   1.546   1.217   9.786  0.3279  0.0467 -0.2996
 4024SOL    HW123708   1.532   1.287   9.722 -2.1163 -0.6502 -0.5016
 4024SOL    HW223709   1.455   1.193   9.803  0.3816  0.4715  0.5519
 4025SOL     OW23710   4.567   2.050   3.727  0.5105 -0.7763 -0.6187
 4025SOL    HW123711   4.502   2.052   3.797  1.3089  0.6114  0.0984
 4025SOL    HW223712   4.629   2.122   3.741  1.7136 -2.1292  1.0412
 4026SOL     OW23713   3.971   1.105   7.116  0.1762 -0.1499  0.0649
 4026SOL    HW123714   3.897   1.158   7.145 -1.4541 -2.0303 -0.6121
 4026SOL    HW223715   4.026   1.115   7.193  1.3905 -0.6626 -0.7225
 4027SOL     OW23716   0.400   3.656   2.769 -0.1904  0.0782 -0.4073
 4027SOL    HW123717   0.341   3.705   2.826  1.6395  0.4334  1.1603
 4027SOL    HW223718   0.436   3.727   2.715  1.5225  0.1477  0.8175
 4028SOL     OW23719   2.159   4.491  15.601 -0.3673  0.2383  0.3961
 4028SOL    HW123720   2.224   4.471  15.668  1.1312  2.0324 -0.5492
 4028SOL    HW223721   2.216   4.497  15.524 -1.8201  3.6831 -0.4121
 4029SOL     OW23722   1.846   0.527  17.057  0.1887  0.3855 -0.2047
 4029SOL    HW123723   1.878   0.458  17.114 -0.5288  1.6664  1.7297
 4029SOL    HW223724   1.918   0.589  17.067  1.0769 -0.4768 -1.1989
 4030SOL     OW23725   1.327   0.428  16.001  0.3880  0.4181  0.2513
 4030SOL    HW123726   1.329   0.501  15.938 -0.6564  0.3219  0.0919
 4030SOL    HW223727   1.336   0.351  15.945 -2.0078  1.8863 -2.1738
 4031SOL     OW23728   2.434   2.500   7.903  0.2779  0.1835  0.5261
 4031SOL    HW123729   2.484   2.572   7.864  0.0523  2.0962  3.7761
 4031SOL    HW223730   2.350   2.546   7.911 -0.0684 -0.4557  0.5462
 4032SOL     OW23731   2.022   3.889   4.091 -0.3243  0.1164 -0.6519
 4032SOL    HW123732   2.117   3.880   4.077 -0.2880 -2.2651  1.1525
 4032SOL    HW223733   2.012   3.978   4.056  1.4529  1.3115  1.8846
 4033SOL     OW23734   0.878   2.596  15.629  0.1511  0.1911  0.1470
 4033SOL    HW123735   0.842   2.652  15.560 -0.2908 -1.7001 -1.1621
 4033SOL    HW223736   0.940   2.655  15.670 -2.3326  1.7321  1.6278
 4034SOL     OW23737   4.452   1.471  16.446  0.1287 -0.1560  0.0324
 4034SOL    HW123738   4.541   1.492  16.475  0.0899 -0.7909  0.6334
 4034SOL    HW223739   4.434   1.398  16.505 -1.0360  0.6815  0.7032
 4035SOL     OW23740   2.262   0.957   2.617  0.1545  0.2559 -0.1088
 4035SOL    HW123741   2.302   0.943   2.703 -1.0025  1.2140  0.5835
 4035SOL    HW223742   2.302   0.888   2.565 -1.9231 -0.0469 -1.2856
 4036SOL     OW23743   0.249   0.510   5.583 -0.5968 -0.1741 -0.4962
 4036SOL    HW123744   0.261   0.578   5.516  0.0180  2.2080  2.0490
 4036SOL    HW223745   0.263   0.435   5.525 -0.6432  0.1062 -0.8768
 4037SOL     OW23746   3.671   3.994   6.796 -0.3446 -0.4307 -0.4768
 4037SOL    HW123747   3.710   4.034   6.874 -2.5383  0.1224  0.3254
 4037SOL    HW223748   3.590   3.960   6.833 -1.8215  2.0542 -1.4622
 4038SOL     OW23749   2.218   2.372   6.924  0.7195 -0.0258 -0.1908
 4038SOL    HW123750   2.171   2.413   6.852 -0.8345 -1.0848  0.2217
 4038SOL    HW223751   2.241   2.453   6.968 -0.6080 -0.0306  0.5144
 4039SOL     OW23752   1.737   4.446   9.314  0.3763 -0.3904 -0.0370
 4039SOL    HW123753   1.649   4.426   9.283  0.8642 -2.6700  0.0507
 4039SOL    HW223754   1.778   4.479   9.234  1.3425  0.8045  0.9507
 4040SOL     OW23755   2.797   3.965   7.403  0.2494 -0.1308 -0.6499
 4040SOL    HW123756   2.709   3.931   7.393  0.1744  0.5246 -2.1581
 4040SOL    HW223757   2.834   3.910   7.472  0.1057  0.3344 -0.2026
 4041SOL     OW23758   1.913   1.949  12.944 -1.0335  0.1413 -0.1527
 4041SOL    HW123759   1.867   1.865  12.956  0.1730 -0.2035  1.9258
 4041SOL    HW223760   1.999   1.916  12.968 -1.3520  1.0672  2.2579
 4042SOL     OW23761   0.925   3.572   7.660  0.2458  0.3524  0.2835
 4042SOL    HW123762   0.849   3.523   7.693  0.7317 -1.7487 -1.7547
 4042SOL    HW223763   0.937   3.529   7.576  0.0833  0.3790  0.2460
 4043SOL     OW23764   2.608   1.163   8.844 -0.0257  0.5227 -0.0622
 4043SOL    HW123765   2.625   1.157   8.751  0.5742  0.7279  0.0338
 4043SOL    HW223766   2.669   1.099   8.880 -0.8033 -0.3623 -0.3389
 4044SOL     OW23767   0.255   1.502   4.122  0.2762 -0.0412 -0.7905
 4044SOL    HW123768   0.290   1.414   4.106  1.3536 -0.0657  1.6887
 4044SOL    HW223769   0.320   1.554   4.074 -1.1354  1.0669 -1.4988
 4045SOL     OW23770   0.914   0.376   3.812 -0.1788 -0.3400  0.1095
 4045SOL    HW123771   0.856   0.433   3.763 -1.0505 -1.1086  0.2338
 4045SOL    HW223772   0.951   0.446   3.867  0.6348 -0.2007 -0.6127
 4046SOL     OW23773   3.771   2.535   6.969  0.4249 -0.7181 -0.3588
 4046SOL    HW123774   3.791   2.621   7.007  0.7791  0.0148 -2.1935
 4046SOL    HW223775   3.676   2.543   6.970  0.5132  0.2961  0.6650
 4047SOL     OW23776   4.466   0.289   4.265 -0.0423  0.1338  0.4482
 4047SOL    HW123777   4.386   0.341   4.267  1.1556  1.9792  0.8073
 4047SOL    HW223778   4.528   0.362   4.252  1.4482 -1.8085 -3.3005
 4048SOL     OW23779   3.964   1.718   5.907  0.5963  0.6475 -0.0796
 4048SOL    HW123780   3.908   1.662   5.853  0.5883  1.3570 -0.8152
 4048SOL    HW223781   4.044   1.670   5.887  0.0561 -0.4994  0.4911
 4049SOL     OW23782   4.267   2.955   5.956  0.6134 -0.6731 -0.1217
 4049SOL    HW123783   4.328   3.012   6.003  0.9075  0.6834 -2.2042
 4049SOL    HW223784   4.203   2.932   6.023  0.1226  1.0032 -0.0311
 4050SOL     OW23785   1.732   1.118  11.109 -0.0618 -0.2164  0.0641
 4050SOL    HW123786   1.691   1.052  11.165  0.9179 -2.4495 -1.8682
 4050SOL    HW223787   1.773   1.070  11.037 -4.3392  0.4312 -2.8083
 4051SOL     OW23788   0.810   4.695   6.550  0.5697  0.0199 -0.4736
 4051SOL    HW123789   0.837   4.733   6.633  1.4326 -2.3813  0.3460
 4051SOL    HW223790   0.882   4.716   6.490  2.2318 -0.1978  1.4348
 4052SOL     OW23791   2.423   1.569  17.726  0.0874  0.7505  0.1990
 4052SOL    HW123792   2.467   1.570   0.072 -1.9972  0.5978  1.2663
 4052SOL    HW223793   2.332   1.565   0.015  0.4081 -1.0128  1.0217
 4053SOL     OW23794   2.849   2.510  12.332  0.4752  0.2985  0.2356
 4053SOL    HW123795   2.929   2.517  12.384  1.3481 -0.1104 -1.0696
 4053SOL    HW223796   2.868   2.551  12.248  1.2823  0.3795  0.4609
 4054SOL     OW23797   3.843   3.662   7.918 -0.6598  0.6615  0.3688
 4054SOL    HW123798   3.828   3.706   7.834 -4.9196 -0.0117  0.7926
 4054SOL    HW223799   3.939   3.668   7.920 -0.5994 -0.0310 -0.5600
 4055SOL     OW23800   2.170   3.710   2.481  0.3550 -0.1914 -0.4406
 4055SOL    HW123801   2.231   3.782   2.464 -1.0998  1.0252 -0.4565
 4055SOL    HW223802   2.198   3.679   2.568  0.6879  1.4060  0.0094
 4056SOL     OW23803   1.623   0.323   2.704 -0.6073  0.7094  0.1860
 4056SOL    HW123804   1.634   0.348   2.612 -2.7326 -0.0442 -0.2806
 4056SOL    HW223805   1.693   0.260   2.723 -2.9666 -1.8318  0.4947
 4057SOL     OW23806   0.891   1.286  14.449  0.1312 -0.3580  0.3632
 4057SOL    HW123807   0.967   1.282  14.506  0.5056  0.4765 -0.0710
 4057SOL    HW223808   0.914   1.242  14.367  1.7648 -2.1003  1.7489
 4058SOL     OW23809   3.834   4.498  10.868  0.0792  0.3322 -0.0230
 4058SOL    HW123810   3.752   4.452  10.848  0.6433 -0.9824  0.6573
 4058SOL    HW223811   3.788   4.559  10.925 -0.7247  0.7631 -1.1407
 4059SOL     OW23812   4.199   2.160  14.665 -0.2136 -0.6020  0.2328
 4059SOL    HW123813   4.159   2.228  14.720  1.4445 -0.6080  1.4477
 4059SOL    HW223814   4.199   2.087  14.727  0.0653 -0.5852  0.2514
 4060SOL     OW23815   2.359   2.677  17.002  0.2784  0.2455  0.6734
 4060SOL    HW123816   2.429   2.676  16.936 -0.0372  1.3449  0.3192
 4060SOL    HW223817   2.407   2.645  17.079 -0.3966 -1.4343  0.3884
 4061SOL     OW23818   0.040   4.331   2.043 -0.0844 -0.1414  0.3251
 4061SOL    HW123819   4.709   4.289   1.988  1.1011 -1.4085 -0.1373
 4061SOL    HW223820   0.056   4.259   2.104 -1.5426 -0.2841  0.5307
 4062SOL     OW23821   2.358   2.514   1.305 -0.5094  0.0386 -0.2192
 4062SOL    HW123822   2.437   2.467   1.333 -0.1813  0.4665 -0.4235
 4062SOL    HW223823   2.341   2.569   1.382 -0.3577 -2.7149  1.7977
 4063SOL     OW23824   1.795   3.960  16.224  0.1657  0.3747  0.0893
 4063SOL    HW123825   1.856   3.916  16.284 -1.6556 -0.9156  0.9988
 4063SOL    HW223826   1.715   3.968  16.276 -0.4032 -0.2291 -0.6840
 4064SOL     OW23827   3.380   4.070   1.066 -0.5633 -0.3743 -0.9753
 4064SOL    HW123828   3.437   4.050   1.140  0.8961  1.5660 -1.5682
 4064SOL    HW223829   3.439   4.084   0.991 -0.9417  0.0778 -1.1883
 4065SOL     OW23830   0.071   0.009   0.866 -0.0335 -0.0716 -0.2146
 4065SOL    HW123831   0.140   0.064   0.826 -2.3257  0.5666 -3.2857
 4065SOL    HW223832   0.129   4.698   0.927 -0.4809 -1.4264 -0.8209
 4066SOL     OW23833   1.312   3.758   8.942 -0.1083  0.5081 -0.1054
 4066SOL    HW123834   1.240   3.707   8.904  0.1146 -0.4456  0.7446
 4066SOL    HW223835   1.304   3.748   9.037  1.5187  2.6878  0.2596
 4067SOL     OW23836   2.777   2.800  10.680  0.0045  0.3821  0.4071
 4067SOL    HW123837   2.724   2.794  10.601  0.5100 -0.9119  0.1708
 4067SOL    HW223838   2.720   2.766  10.748  1.1251  0.2064  1.2644
 4068SOL     OW23839   0.442   2.977  13.181 -0.5420 -0.1945 -0.3559
 4068SOL    HW123840   0.473   3.060  13.218  4.5962 -1.2997 -2.1689
 4068SOL    HW223841   0.354   3.012  13.170  0.5854  2.7793  0.0613
 4069SOL     OW23842   4.280   3.408   0.810  0.0952  0.1344 -0.1343
 4069SOL    HW123843   4.193   3.444   0.826  0.4128  0.7366  0.2607
 4069SOL    HW223844   4.299   3.461   0.733 -0.2202  0.1449 -0.2024
 4070SOL     OW23845   0.610   0.214   7.633 -0.3312  0.2307  0.4569
 4070SOL    HW123846   0.648   0.283   7.579 -1.6206 -0.7515 -1.6729
 4070SOL    HW223847   0.682   0.151   7.642 -2.3906 -1.8605  2.5353
 4071SOL     OW23848   0.232   1.725   4.333  0.1189  0.6165  0.1144
 4071SOL    HW123849   0.172   1.784   4.288 -1.3525 -0.2804  0.8683
 4071SOL    HW223850   0.191   1.643   4.304 -1.7135  1.9053 -0.9008
 4072SOL     OW23851   1.680   2.821   4.470  0.5743 -0.1431 -0.6523
 4072SOL    HW123852   1.750   2.882   4.492  0.6054 -0.1906 -0.6193
 4072SOL    HW223853   1.613   2.877   4.432 -0.9342 -1.9436 -0.6532
 4073SOL     OW23854   2.051   3.076   1.354 -0.0279 -0.2247  0.7423
 4073SOL    HW123855   1.978   3.088   1.293 -0.1937  0.5358  1.0861
 4073SOL    HW223856   2.007   3.119   1.428 -0.1347  0.4736  0.2722
 4074SOL     OW23857   0.975   0.089  12.197  0.1626  0.3867  0.4555
 4074SOL    HW123858   0.922   0.168  12.191  2.4068  1.7565 -1.6242
 4074SOL    HW223859   1.049   0.122  12.146 -0.3402 -0.1988 -0.6349
 4075SOL     OW23860   3.798   3.377   4.947  0.1001  0.1341  0.0324
 4075SOL    HW123861   3.844   3.410   4.870 -0.3174  2.0895  0.6201
 4075SOL    HW223862   3.777   3.288   4.920  0.2486  1.2520 -3.7801
 4076SOL     OW23863   0.402   1.877   4.739 -0.3432 -0.0222  0.6005
 4076SOL    HW123864   0.353   1.896   4.659 -3.0714 -0.5659  2.1407
 4076SOL    HW223865   0.493   1.876   4.711 -0.9106  0.5266 -1.2231
 4077SOL     OW23866   0.935   2.474   3.504 -0.4030  0.1062 -0.9448
 4077SOL    HW123867   1.005   2.539   3.513  0.0928 -0.3283 -1.6149
 4077SOL    HW223868   0.858   2.528   3.518  0.0910  0.5788 -0.1026
 4078SOL     OW23869   2.220   1.206  10.656  0.3054 -0.7080  0.1359
 4078SOL    HW123870   2.314   1.223  10.649  0.0272  0.5644 -0.3712
 4078SOL    HW223871   2.227   1.110  10.650  0.2766 -0.7429  0.6143
 4079SOL     OW23872   2.339   1.665   9.908  0.0227  0.1681  0.2888
 4079SOL    HW123873   2.351   1.609   9.985 -2.5076 -1.2579 -0.3270
 4079SOL    HW223874   2.400   1.623   9.846 -1.2108 -0.6575 -0.3660
 4080SOL     OW23875   3.631   3.668   1.937  0.7438 -0.0911  0.7255
 4080SOL    HW123876   3.544   3.697   1.966  0.9535 -0.5477  1.8107
 4080SOL    HW223877   3.617   3.631   1.850  0.3712 -0.1242  0.7965
 4081SOL     OW23878   4.418   1.096   8.695  0.1738  0.1063  0.3868
 4081SOL    HW123879   4.459   1.017   8.659  0.1661  0.2909 -0.0271
 4081SOL    HW223880   4.398   1.067   8.784 -0.7511  0.3251  0.2446
 4082SOL     OW23881   1.561   3.370   4.698 -0.3520  0.2150  0.4940
 4082SOL    HW123882   1.624   3.346   4.767 -0.8678  0.2589  0.9784
 4082SOL    HW223883   1.619   3.441   4.669  0.0512  0.4416  1.8542
 4083SOL     OW23884   3.808   3.426   7.300  0.4403  0.5581 -0.2256
 4083SOL    HW123885   3.838   3.354   7.356 -1.1940  0.3404  0.3576
 4083SOL    HW223886   3.851   3.407   7.216 -0.5233  0.3352 -0.6685
 4084SOL     OW23887   3.661   2.746   4.787  0.0053 -0.7574 -0.0672
 4084SOL    HW123888   3.588   2.764   4.846  2.7151  1.0204  2.7566
 4084SOL    HW223889   3.709   2.828   4.794 -1.0296 -0.2831  1.4478
 4085SOL     OW23890   1.063   4.698   4.729 -0.0131 -0.2438 -0.2299
 4085SOL    HW123891   0.998   4.671   4.795 -0.5567  0.4503 -0.4734
 4085SOL    HW223892   1.073   4.618   4.678 -1.4798  0.2536 -1.2935
 4086SOL     OW23893   1.660   4.623   4.582  0.1198  0.3936 -0.9792
 4086SOL    HW123894   1.643   4.552   4.521  0.0083  0.3718 -0.9224
 4086SOL    HW223895   1.611   4.600   4.661 -0.6262  1.8375 -1.0332
 4087SOL     OW23896   2.435   0.486   2.216  0.2100  0.1844  0.3451
 4087SOL    HW123897   2.523   0.455   2.234  0.6836  1.2921 -0.0461
 4087SOL    HW223898   2.443   0.564   2.160  1.6922 -0.2951 -0.0871
 4088SOL     OW23899   3.390   0.550  15.553 -0.7593 -0.2767  0.0890
 4088SOL    HW123900   3.425   0.591  15.474 -1.2108 -0.9479 -0.4572
 4088SOL    HW223901   3.469   0.521  15.599  0.5028  1.7193 -0.8500
 4089SOL     OW23902   3.310   3.200   6.557 -0.3146  0.1696 -0.3632
 4089SOL    HW123903   3.294   3.122   6.504  1.2421 -0.3346 -0.1134
 4089SOL    HW223904   3.359   3.145   6.618 -0.4589 -0.5001 -0.8459
 4090SOL     OW23905   4.408   3.357  13.323  0.3940  0.0177  0.1168
 4090SOL    HW123906   4.449   3.407  13.394  1.2815 -1.8423  0.9066
 4090SOL    HW223907   4.461   3.278  13.315 -0.3133 -0.6079  1.7671
 4091SOL     OW23908   2.486   1.371   7.202 -0.0843  0.0889 -0.4866
 4091SOL    HW123909   2.464   1.330   7.118  1.9622  2.2509 -2.0759
 4091SOL    HW223910   2.472   1.462   7.178  0.3635  0.3906  0.3852
 4092SOL     OW23911   0.572   3.916   5.535 -0.3622 -1.0684  1.1449
 4092SOL    HW123912   0.651   3.933   5.484 -1.4435  0.4495  0.0146
 4092SOL    HW223913   0.525   3.999   5.540  0.8108 -0.4447  1.6971
 4093SOL     OW23914   1.528   3.191   2.022 -0.3665 -0.0214 -0.1119
 4093SOL    HW123915   1.491   3.209   2.108  0.5268  0.0569  0.2539
 4093SOL    HW223916   1.604   3.137   2.045 -0.2739 -1.2425 -3.2838
 4094SOL     OW23917   1.384   2.474   2.310 -0.0219  0.7631  0.0765
 4094SOL    HW123918   1.313   2.524   2.270 -1.3782 -1.7706 -0.7043
 4094SOL    HW223919   1.467   2.508   2.276  0.2260  2.4901  2.3656
 4095SOL     OW23920   1.145   0.259   8.265 -0.2522 -0.2161 -0.0021
 4095SOL    HW123921   1.073   0.243   8.326 -1.2830  0.6198 -1.0057
 4095SOL    HW223922   1.108   0.215   8.188  1.1129 -1.7217  0.1788
 4096SOL     OW23923   1.890   1.301   4.209  0.2245  0.0680 -0.2171
 4096SOL    HW123924   1.920   1.370   4.150  0.9830 -0.4642 -0.4490
 4096SOL    HW223925   1.858   1.352   4.283 -1.3304 -0.1292 -0.7547
 4097SOL     OW23926   2.666   3.997   6.140 -0.5563  0.0247 -0.0357
 4097SOL    HW123927   2.632   3.944   6.213  1.6834  0.4650  1.3371
 4097SOL    HW223928   2.617   3.968   6.064  1.9266 -0.8881 -1.2955
 4098SOL     OW23929   1.572   4.325   6.248  0.2013 -0.9591 -0.6017
 4098SOL    HW123930   1.648   4.377   6.220  1.2976 -1.5718  1.2233
 4098SOL    HW223931   1.538   4.388   6.311  2.1458 -0.4724 -0.0274
 4099SOL     OW23932   3.253   0.903   3.716 -0.3418 -0.5993  0.9387
 4099SOL    HW123933   3.347   0.920   3.718 -0.4681  0.4624 -1.1923
 4099SOL    HW223934   3.251   0.813   3.747 -0.3080 -1.3916 -1.3520
 4100SOL     OW23935   2.335   1.235   5.360  0.2866 -0.0277 -0.5025
 4100SOL    HW123936   2.346   1.158   5.416  1.3075 -0.3098 -1.1020
 4100SOL    HW223937   2.250   1.260   5.397 -0.4434 -3.4507  0.1850
 4101SOL     OW23938   1.543   3.539  10.057 -0.0165  0.1812 -0.4446
 4101SOL    HW123939   1.523   3.569  10.146 -2.1914  1.4308 -1.3499
 4101SOL    HW223940   1.537   3.445  10.076  0.3273 -0.3249 -2.7661
 4102SOL     OW23941   2.513   1.329   3.581  0.5312 -0.6270 -0.3158
 4102SOL    HW123942   2.575   1.331   3.508  1.8745 -0.6907  0.8363
 4102SOL    HW223943   2.483   1.238   3.578  0.7806 -0.6585 -2.1669
 4103SOL     OW23944   3.750   2.547   9.315 -0.0747  0.2832 -0.1746
 4103SOL    HW123945   3.795   2.465   9.294 -0.4660  0.4382 -1.6094
 4103SOL    HW223946   3.664   2.517   9.287 -0.0501  1.5670 -1.6012
 4104SOL     OW23947   1.329   3.489   2.592 -0.0653  0.5712 -0.0806
 4104SOL    HW123948   1.278   3.552   2.540 -1.1919 -0.0065  0.3191
 4104SOL    HW223949   1.257   3.428   2.609 -0.8956  1.8224  0.9207
 4105SOL     OW23950   4.053   1.886   8.587 -0.6997 -0.2121 -0.8215
 4105SOL    HW123951   4.049   1.794   8.561 -0.4747 -0.3218 -0.4606
 4105SOL    HW223952   3.962   1.907   8.608  0.3316  2.4784  0.9836
 4106SOL     OW23953   3.830   1.944   3.489 -0.0351 -0.4808 -0.2206
 4106SOL    HW123954   3.845   1.901   3.574  1.4818 -0.2569 -0.3743
 4106SOL    HW223955   3.781   1.872   3.449  0.2842 -1.5077  1.2087
 4107SOL     OW23956   0.561   0.918   8.837  0.3794  0.1943 -0.6433
 4107SOL    HW123957   0.523   1.002   8.862 -0.4323  0.0976 -1.5321
 4107SOL    HW223958   0.509   0.859   8.891  0.0863  0.6940 -0.3809
 4108SOL     OW23959   1.602   1.767   4.004  0.4349 -0.5102  0.0566
 4108SOL    HW123960   1.611   1.861   3.989 -2.4563 -0.0838  0.9627
 4108SOL    HW223961   1.646   1.755   4.088 -0.1026 -2.0786  0.1028
 4109SOL     OW23962   4.255   3.321   8.248 -0.1789  0.3445  0.2194
 4109SOL    HW123963   4.189   3.296   8.312 -0.6016  0.1312 -0.2992
 4109SOL    HW223964   4.196   3.359   8.183  2.3889 -1.1835 -3.0668
 4110SOL     OW23965   1.274   0.391   2.577  1.1602  0.1071  0.0551
 4110SOL    HW123966   1.286   0.297   2.589  0.5758  0.2844  2.1388
 4110SOL    HW223967   1.224   0.415   2.656  0.3178  0.5168 -0.6005
 4111SOL     OW23968   0.877   0.592  12.106  0.4311  0.0891 -0.1218
 4111SOL    HW123969   0.782   0.598  12.115  0.4414 -0.2631  0.2285
 4111SOL    HW223970   0.893   0.636  12.189  1.8291 -1.1625  0.2859
 4112SOL     OW23971   3.405   0.604   7.780 -0.4867 -0.5330 -0.3126
 4112SOL    HW123972   3.456   0.549   7.720  1.7649  0.0953  1.0286
 4112SOL    HW223973   3.469   0.647   7.837  2.1434 -3.2308 -1.2290
 4113SOL     OW23974   2.756   1.548  10.779  0.6694 -0.7220 -0.2784
 4113SOL    HW123975   2.761   1.454  10.794  0.0272 -0.3862  2.0551
 4113SOL    HW223976   2.660   1.553  10.781  0.6063 -2.5187  2.3468
 4114SOL     OW23977   0.929   2.519   5.302 -0.0430  0.3024  0.2433
 4114SOL    HW123978   0.986   2.501   5.227 -1.6161 -0.5360 -0.7553
 4114SOL    HW223979   0.884   2.435   5.307 -1.3806  0.8964 -1.8400
 4115SOL     OW23980   3.440   3.285   1.850  0.4580 -0.3231  0.2098
 4115SOL    HW123981   3.506   3.227   1.811 -0.0475 -0.6634 -0.1474
 4115SOL    HW223982   3.405   3.212   1.902 -0.2410  0.1918  0.4685
 4116SOL     OW23983   3.924   3.051   5.113  0.2678 -0.2495 -0.0963
 4116SOL    HW123984   4.008   3.097   5.118  0.2248 -0.2861  0.9872
 4116SOL    HW223985   3.893   3.074   5.200 -0.8790  0.8184 -0.7817
 4117SOL     OW23986   0.977   0.702   7.012 -0.2962 -0.3599  0.0056
 4117SOL    HW123987   1.002   0.764   6.944  0.5615  0.8713  1.4192
 4117SOL    HW223988   1.016   0.624   6.972  1.2297 -0.5402  1.8580
 4118SOL     OW23989   0.505   1.811   4.317  0.3158  0.3151  0.0922
 4118SOL    HW123990   0.426   1.761   4.335  1.4675 -0.8535  1.8140
 4118SOL    HW223991   0.465   1.898   4.316  0.7266  0.5114  1.0362
 4119SOL     OW23992   2.309   3.267  11.919  0.2284 -0.2914  0.5193
 4119SOL    HW123993   2.353   3.208  11.858 -0.5951  0.9223 -1.2455
 4119SOL    HW223994   2.257   3.321  11.860  2.0159  1.8883  0.9380
 4120SOL     OW23995   4.701   2.476  13.552 -0.3338 -0.2788  0.1173
 4120SOL    HW123996   4.691   2.382  13.559  2.2956 -0.6913 -1.4441
 4120SOL    HW223997   0.057   2.501  13.567 -1.2366  3.3330 -0.3383
 4121SOL     OW23998   0.784   3.320   8.915 -0.7187 -0.1047 -0.7668
 4121SOL    HW123999   0.820   3.389   8.972 -0.5082  1.5889 -2.9337
 4121SOL    HW224000   0.861   3.264   8.915 -0.5911  0.0719  0.8674
 4122SOL     OW24001   1.286   0.095  11.311 -0.0597 -0.0366 -0.2294
 4122SOL    HW124002   1.199   0.129  11.334  0.0221  0.1164 -0.1524
 4122SOL    HW224003   1.340   0.149  11.368 -0.0119 -1.2376  0.8636
 4123SOL     OW24004   4.397   2.011   9.134  0.1030  0.3506 -0.2607
 4123SOL    HW124005   4.480   2.018   9.086  0.3377  1.2295  0.2908
 4123SOL    HW224006   4.422   1.995   9.225 -1.0011 -1.4901 -0.2642
 4124SOL     OW24007   3.543   2.052   1.319  0.0243 -0.4016  0.1646
 4124SOL    HW124008   3.546   1.969   1.270  0.5240 -0.4935  0.3552
 4124SOL    HW224009   3.512   2.023   1.405  2.3988 -2.5174  0.3118
 4125SOL     OW24010   2.178   3.349   1.413 -0.3915  0.1963  0.0848
 4125SOL    HW124011   2.122   3.300   1.353 -1.2277  1.8213 -0.4344
 4125SOL    HW224012   2.106   3.398   1.453 -0.2417  1.2403 -0.9486
 4126SOL     OW24013   1.668   4.537   6.650  0.6400  0.1588 -0.4717
 4126SOL    HW124014   1.758   4.521   6.620  0.6929 -0.1192 -0.1591
 4126SOL    HW224015   1.681   4.575   6.737  0.7713 -2.4350  0.6254
 4127SOL     OW24016   1.931   2.705  11.596  0.8531  0.0663  0.1928
 4127SOL    HW124017   2.012   2.663  11.566 -1.0311 -1.3220 -2.9981
 4127SOL    HW224018   1.890   2.710  11.510 -0.1377  0.7324  0.7018
 4128SOL     OW24019   2.841   0.781   3.379  0.1966 -0.4642  0.7226
 4128SOL    HW124020   2.885   0.825   3.451 -0.7033 -0.5924  1.3570
 4128SOL    HW224021   2.805   0.854   3.328 -1.0253 -0.0072  2.2496
 4129SOL     OW24022   3.046   4.411   2.537  0.4106 -0.0100  0.6764
 4129SOL    HW124023   3.077   4.495   2.569  1.1259 -0.2362  0.5657
 4129SOL    HW224024   3.096   4.350   2.591  0.7541  0.6800  1.1248
 4130SOL     OW24025   2.158   3.697   8.087  0.5445  0.1244 -0.2420
 4130SOL    HW124026   2.094   3.639   8.130  0.2470  1.4894  1.1565
 4130SOL    HW224027   2.157   3.772   8.146 -2.6849  0.2572 -0.4525
 4131SOL     OW24028   0.654   1.975  10.641 -0.2968  0.0222 -0.1319
 4131SOL    HW124029   0.651   1.972  10.545 -1.3194 -0.3290 -0.0890
 4131SOL    HW224030   0.745   1.950  10.658 -0.2887 -0.6577 -1.1288
 4132SOL     OW24031   4.665   3.479   3.118 -0.0792  0.4934 -0.5040
 4132SOL    HW124032   4.678   3.426   3.040 -0.9568 -1.6058  0.7862
 4132SOL    HW224033   4.666   3.566   3.078 -2.0568  0.4175 -0.7204
 4133SOL     OW24034   3.721   0.718  13.127 -0.3760  0.8924  0.2645
 4133SOL    HW124035   3.676   0.636  13.148  0.5931 -0.0332 -1.2937
 4133SOL    HW224036   3.669   0.749  13.053 -2.6321 -1.5707  0.8206
 4134SOL     OW24037   0.987   1.674   0.812 -0.0733  0.0673 -0.0476
 4134SOL    HW124038   0.975   1.693   0.905  5.2798 -1.3176  0.9574
 4134SOL    HW224039   1.067   1.716   0.780 -0.2453 -1.0093 -1.8441
 4135SOL     OW24040   4.650   1.429   8.207  0.6895 -0.3953  0.3641
 4135SOL    HW124041   4.671   1.500   8.267 -3.2248 -1.0035  2.3941
 4135SOL    HW224042   4.575   1.450   8.152  0.2262 -1.8530  0.4319
 4136SOL     OW24043   2.103   3.712  16.918  0.2202  0.0766  0.3242
 4136SOL    HW124044   2.181   3.672  16.880 -0.8745 -0.4847 -1.3171
 4136SOL    HW224045   2.082   3.791  16.868 -0.9325  0.3067  1.1580
 4137SOL     OW24046   0.159   0.313   8.953 -0.3626 -0.3786  0.6177
 4137SOL    HW124047   0.169   0.342   9.044  1.0515 -1.4402  0.7952
 4137SOL    HW224048   0.121   0.229   8.977  1.8707 -1.6504 -0.2735
 4138SOL     OW24049   1.593   0.623   5.235 -0.4385 -0.0970 -0.3707
 4138SOL    HW124050   1.516   0.672   5.264 -0.4813 -0.7251  0.5939
 4138SOL    HW224051   1.573   0.531   5.252  2.2869 -0.8034 -1.0269
 4139SOL     OW24052   3.710   4.039   7.560  0.1048 -0.2897  0.3477
 4139SOL    HW124053   3.724   4.005   7.471  0.4574 -1.2355  0.7707
 4139SOL    HW224054   3.661   4.116   7.532  1.1109  0.5191  0.8172
 4140SOL     OW24055   2.459   1.047   7.671 -0.0624  0.4111 -0.5251
 4140SOL    HW124056   2.393   0.978   7.677  0.0547  0.1858 -1.8900
 4140SOL    HW224057   2.412   1.127   7.693  0.0185  0.5626 -0.9144
 4141SOL     OW24058   4.730   2.911   2.187  0.0151  0.3486  0.1748
 4141SOL    HW124059   0.018   2.842   2.125 -0.2075 -0.2383  0.7400
 4141SOL    HW224060   4.684   2.973   2.130 -0.6584  0.3706  0.7298
 4142SOL     OW24061   4.238   0.867  14.663  0.9578 -0.2732 -0.4982
 4142SOL    HW124062   4.239   0.779  14.700 -0.6974 -0.0963 -0.0462
 4142SOL    HW224063   4.327   0.897  14.683  1.1333 -0.7640 -0.5498
 4143SOL     OW24064   1.291   1.720   0.358  0.0817  0.9409  0.3756
 4143SOL    HW124065   1.233   1.701   0.432 -1.4831  0.1298 -1.0818
 4143SOL    HW224066   1.283   1.816   0.354  3.8176  1.2316 -0.2400
 4144SOL     OW24067   4.466   0.246   8.573 -0.6728  0.1956  0.1294
 4144SOL    HW124068   4.442   0.232   8.482  1.8959  0.4345 -0.5814
 4144SOL    HW224069   4.447   0.160   8.611 -1.2769  0.6590  0.8635
 4145SOL     OW24070   2.049   3.940  13.883  0.4301 -0.1628 -0.2383
 4145SOL    HW124071   1.978   3.876  13.885  0.5184 -0.4246 -5.4922
 4145SOL    HW224072   2.107   3.906  13.815  2.5379 -0.2699  1.6240
 4146SOL     OW24073   3.209   3.451   9.684  0.0084 -0.4707 -0.9327
 4146SOL    HW124074   3.150   3.411   9.620 -2.5884  0.0544  1.1288
 4146SOL    HW224075   3.210   3.538   9.643  0.2944 -0.0879 -0.1269
 4147SOL     OW24076   1.926   3.998  15.593 -0.3829  0.3367 -0.5929
 4147SOL    HW124077   1.939   4.089  15.621 -0.0866 -0.2936  1.3173
 4147SOL    HW224078   1.883   3.971  15.674  0.1304 -2.2451 -1.1635
 4148SOL     OW24079   2.934   3.955   2.263 -0.1743  0.2757 -0.5000
 4148SOL    HW124080   2.922   4.003   2.345  1.0877  0.6133 -0.5085
 4148SOL    HW224081   2.848   3.943   2.224  0.6678  0.1762 -2.3560
 4149SOL     OW24082   1.158   0.362   6.348 -1.1996 -0.0224 -0.2079
 4149SOL    HW124083   1.082   0.316   6.385 -0.5730  1.1564  2.5842
 4149SOL    HW224084   1.163   0.326   6.260  1.1660 -2.0974  0.7696
 4150SOL     OW24085   4.111   4.010  11.919  0.7503 -0.5693 -0.0246
 4150SOL    HW124086   4.195   3.963  11.913  2.1163  2.0395 -1.1968
 4150SOL    HW224087   4.099   4.047  11.832 -0.6219  0.5026  0.6098
 4151SOL     OW24088   3.267   0.315   9.042  0.4801  0.4721  0.3088
 4151SOL    HW124089   3.338   0.328   9.105 -0.0613  0.9617  0.8236
 4151SOL    HW224090   3.206   0.290   9.112 -1.2839 -1.1312 -1.8106
 4152SOL     OW24091   0.334   2.138   6.486 -1.0243 -0.4060  0.5191
 4152SOL    HW124092   0.259   2.078   6.481 -0.7257 -0.6983 -0.3350
 4152SOL    HW224093   0.290   2.221   6.468 -1.0556 -0.6333 -0.4775
 4153SOL     OW24094   1.261   3.297   4.409  0.4741 -0.2369  0.0496
 4153SOL    HW124095   1.333   3.259   4.459 -0.4642  0.0412  1.6101
 4153SOL    HW224096   1.313   3.361   4.361  0.1775  0.9479  1.3314
 4154SOL     OW24097   3.513   2.361   6.314  0.1084  0.4432 -0.0989
 4154SOL    HW124098   3.569   2.321   6.380  2.4079  2.8469 -0.5630
 4154SOL    HW224099   3.463   2.281   6.298  1.2249 -0.8123  2.6587
 4155SOL     OW24100   1.349   3.391   8.327  0.3646  0.5219  0.6292
 4155SOL    HW124101   1.377   3.351   8.245  1.0204 -1.0211  1.6150
 4155SOL    HW224102   1.431   3.370   8.371  0.8643  0.1805 -0.4562
 4156SOL     OW24103   1.401   0.179   5.080  0.1469 -0.0985  0.2589
 4156SOL    HW124104   1.317   0.145   5.048 -0.1840  0.7886  0.1711
 4156SOL    HW224105   1.465   0.152   5.015 -0.8260  0.0523 -0.7645
 4157SOL     OW24106   4.577   1.777  16.516  0.5848 -0.0464 -0.1026
 4157SOL    HW124107   4.521   1.825  16.577 -1.7203 -3.3852  0.4247
 4157SOL    HW224108   4.602   1.850  16.459  1.0819 -0.0321  0.1303
 4158SOL     OW24109   1.553   2.180   0.440 -0.0881 -0.0981 -0.1325
 4158SOL    HW124110   1.614   2.246   0.407  1.2161  0.1567  2.8206
 4158SOL    HW224111   1.475   2.206   0.392 -0.6277 -1.6094 -0.0782
 4159SOL     OW24112   1.182   3.405   3.257  0.4498 -0.0901  0.3939
 4159SOL    HW124113   1.193   3.382   3.349  1.4525 -0.2039  0.2512
 4159SOL    HW224114   1.199   3.325   3.207 -0.0341  2.4223 -3.7659
 4160SOL     OW24115   0.182   0.529  16.969 -0.2692 -0.2395 -0.1123
 4160SOL    HW124116   0.101   0.485  16.993 -0.1209 -0.6598 -0.3930
 4160SOL    HW224117   0.195   0.600  17.032  1.5197 -0.3917 -0.3179
 4161SOL     OW24118   4.731   2.413   6.036 -0.1956  0.3763 -0.0243
 4161SOL    HW124119   0.089   2.435   6.035  0.2007 -1.2451  0.0566
 4161SOL    HW224120   4.722   2.357   6.113  2.1569 -1.2153 -0.9130
 4162SOL     OW24121   4.606   1.428  11.398 -0.2558  0.0991  0.8937
 4162SOL    HW124122   4.633   1.380  11.320 -0.8058  0.9118  0.2192
 4162SOL    HW224123   4.618   1.514  11.358 -0.9921 -0.3516 -0.2793
 4163SOL     OW24124   2.411   0.643   9.631 -0.3422  0.1186 -0.2732
 4163SOL    HW124125   2.335   0.700   9.616 -0.6723 -0.2806 -0.1165
 4163SOL    HW224126   2.377   0.556   9.613  2.2044 -0.3630 -2.7992
 4164SOL     OW24127   1.123   4.013   2.290 -0.0301 -0.4737 -0.1841
 4164SOL    HW124128   1.073   3.958   2.351 -1.1122  0.2714 -0.3999
 4164SOL    HW224129   1.211   3.993   2.320  0.3214 -1.0057 -1.6134
 4165SOL     OW24130   1.302   2.640   3.660 -0.0952  0.0226 -0.1138
 4165SOL    HW124131   1.321   2.600   3.576  1.5376  1.0686 -0.2352
 4165SOL    HW224132   1.237   2.700   3.623 -1.2708  1.1349  3.6691
 4166SOL     OW24133   3.454   4.466  14.935  0.2418 -0.0454  0.0546
 4166SOL    HW124134   3.545   4.492  14.945  0.0446  1.4059 -1.9217
 4166SOL    HW224135   3.420   4.529  14.872  1.4191 -0.0746 -0.6084
 4167SOL     OW24136   4.598   4.153   0.355  0.3423  0.4816 -0.5479
 4167SOL    HW124137   4.619   4.246   0.343  0.2730  0.5829  0.1180
 4167SOL    HW224138   4.645   4.130   0.435  0.0222  0.3143 -0.4100
 4168SOL     OW24139   0.200   1.587   5.756 -0.5966 -0.2802  0.0738
 4168SOL    HW124140   0.172   1.606   5.667  0.0651  2.5049  0.4790
 4168SOL    HW224141   0.122   1.558   5.805 -1.0553 -1.5577 -1.4132
 4169SOL     OW24142   4.252   4.601   3.687  0.1421 -0.3685 -0.3077
 4169SOL    HW124143   4.274   4.648   3.607  1.9528 -0.7964 -0.0542
 4169SOL    HW224144   4.336   4.590   3.730  0.7726 -1.5927 -1.8757
 4170SOL     OW24145   3.599   0.963   7.678  0.2177  0.6272 -0.7583
 4170SOL    HW124146   3.533   1.012   7.728  1.7539  0.6238  1.2790
 4170SOL    HW224147   3.551   0.880   7.677  1.6167 -0.1991 -0.1211
 4171SOL     OW24148   3.840   1.171   5.167  0.0537 -0.4890 -0.2740
 4171SOL    HW124149   3.836   1.159   5.262 -1.5549  1.4836 -0.0913
 4171SOL    HW224150   3.831   1.080   5.141  0.0913 -0.7653  0.6772
 4172SOL     OW24151   3.771   3.320   3.244  0.1185 -0.1651  0.3542
 4172SOL    HW124152   3.768   3.335   3.339 -2.6568  0.9509  0.0843
 4172SOL    HW224153   3.780   3.411   3.217 -0.8238 -0.0245  0.5458
 4173SOL     OW24154   1.908   0.699  12.733 -0.2189  0.2915 -0.2722
 4173SOL    HW124155   1.844   0.672  12.668 -1.9796  0.0096  1.5747
 4173SOL    HW224156   1.969   0.625  12.733 -1.2275 -0.5271  0.5561
 4174SOL     OW24157   2.962   2.606   3.909 -0.3924 -0.1494 -0.1067
 4174SOL    HW124158   2.957   2.624   4.003  1.1452 -0.4880  0.0505
 4174SOL    HW224159   2.964   2.690   3.865  0.4092 -0.5545 -0.8412
 4175SOL     OW24160   3.840   3.307   6.198  0.4260  0.5318  0.1334
 4175SOL    HW124161   3.754   3.285   6.160  0.8020  0.4954 -0.7006
 4175SOL    HW224162   3.830   3.402   6.202 -1.1250  0.3200  1.5145
 4176SOL     OW24163   2.798   1.212   9.410 -0.9643  0.3007  0.2306
 4176SOL    HW124164   2.827   1.133   9.365  0.1853  1.0893 -0.4172
 4176SOL    HW224165   2.844   1.274   9.354  0.7542  0.1698  1.4908
 4177SOL     OW24166   3.209   0.077   2.395  0.1926  0.6003 -0.5718
 4177SOL    HW124167   3.231   0.143   2.329  2.7298 -0.4043 -0.7346
 4177SOL    HW224168   3.121   0.063   2.361  0.9819  0.1379 -2.3876
 4178SOL     OW24169   1.048   4.493   5.508 -0.1709  0.0456  0.1590
 4178SOL    HW124170   1.004   4.556   5.452 -1.3336 -1.0324 -0.1546
 4178SOL    HW224171   1.077   4.552   5.578  2.1403 -1.5823  0.5794
 4179SOL     OW24172   4.528   0.979   4.815 -0.2033 -0.1671 -0.2898
 4179SOL    HW124173   4.492   1.065   4.794 -1.4715 -0.1863  1.7726
 4179SOL    HW224174   4.586   0.967   4.740 -0.2030 -3.7394  0.2915
 4180SOL     OW24175   1.973   3.571  15.923  0.0829  0.4537 -0.0350
 4180SOL    HW124176   2.056   3.572  15.874 -0.6609 -1.9942 -1.3189
 4180SOL    HW224177   1.932   3.639  15.869  1.3723  1.3807  0.1309
 4181SOL     OW24178   0.795   1.419   0.138  0.3871 -0.0632  0.2411
 4181SOL    HW124179   0.852   1.381   0.205 -2.2954 -0.3547  2.3327
 4181SOL    HW224180   0.735   1.477   0.185  1.2162  1.3866 -0.5008
 4182SOL     OW24181   0.818   2.155  12.036  0.7585 -0.0438  0.0721
 4182SOL    HW124182   0.907   2.158  11.999  1.1377  1.2855  1.1225
 4182SOL    HW224183   0.839   2.112  12.119  2.2685  1.4680  0.4834
 4183SOL     OW24184   4.324   0.961  12.548 -0.3064 -0.2048  0.2298
 4183SOL    HW124185   4.294   0.892  12.607  2.5838  0.5190  2.5585
 4183SOL    HW224186   4.244   0.997  12.510  0.1558  0.0463 -0.5082
 4184SOL     OW24187   1.295   4.042   8.614 -0.5784  0.2037 -0.4945
 4184SOL    HW124188   1.232   4.089   8.559  0.2192  1.2487 -0.5262
 4184SOL    HW224189   1.372   4.094   8.589 -0.2435 -0.1769 -0.2538
 4185SOL     OW24190   2.171   3.326   4.892  0.0940 -0.0919  0.5262
 4185SOL    HW124191   2.167   3.257   4.958 -1.7531 -1.0065 -0.5597
 4185SOL    HW224192   2.134   3.405   4.932  0.1106 -0.2945  0.9379
 4186SOL     OW24193   2.240   1.001   7.445  0.1270  0.1860  0.4542
 4186SOL    HW124194   2.240   0.950   7.525  1.0410  1.2241  1.1184
 4186SOL    HW224195   2.281   0.933   7.392 -2.0734 -1.3395  0.7126
 4187SOL     OW24196   3.367   2.650  15.644 -0.3228  0.4266  0.6031
 4187SOL    HW124197   3.457   2.639  15.616  0.2822  1.5602  2.0681
 4187SOL    HW224198   3.338   2.702  15.569 -0.6319 -0.2468  0.2616
 4188SOL     OW24199   2.757   4.589   7.386  0.0039 -0.8668  0.2373
 4188SOL    HW124200   2.674   4.574   7.431 -1.5373  0.8441 -1.9872
 4188SOL    HW224201   2.805   4.646   7.446  0.2947  0.7212 -1.4971
 4189SOL     OW24202   3.282   3.297   6.122 -0.0120 -0.1566  0.5235
 4189SOL    HW124203   3.368   3.257   6.113  0.0758  0.2451 -0.4260
 4189SOL    HW224204   3.250   3.313   6.033  1.3264 -1.6372 -0.2122
 4190SOL     OW24205   1.310   1.007   4.126  0.0782 -0.0023  0.0618
 4190SOL    HW124206   1.300   1.090   4.079  1.7730  0.1409 -0.0579
 4190SOL    HW224207   1.312   1.030   4.219 -1.4095  2.1728 -0.4397
 4191SOL     OW24208   4.661   1.880   5.633  0.1728 -0.2274  0.1914
 4191SOL    HW124209   4.578   1.925   5.621  0.4710 -0.0632 -1.3010
 4191SOL    HW224210   4.638   1.813   5.696 -1.3189 -2.0812 -2.3327
 4192SOL     OW24211   3.361   1.261  11.191  0.3640  0.1915 -0.4803
 4192SOL    HW124212   3.268   1.280  11.204  0.2928  0.0679 -0.8139
 4192SOL    HW224213   3.371   1.260  11.096  2.5336 -2.5100 -0.2158
 4193SOL     OW24214   1.051   3.159   9.705 -0.0189  0.0409 -0.0913
 4193SOL    HW124215   1.019   3.231   9.651  1.9449  0.6416 -0.4406
 4193SOL    HW224216   1.064   3.197   9.791  0.2564  0.3526 -0.2695
 4194SOL     OW24217   2.006   0.682  14.537  0.5550 -0.2532 -0.1856
 4194SOL    HW124218   2.003   0.636  14.620  2.1776 -0.0296 -0.0071
 4194SOL    HW224219   1.913   0.688  14.515  0.4057 -2.1072 -0.0268
 4195SOL     OW24220   2.989   0.845   3.574  0.1099 -0.2076  0.1012
 4195SOL    HW124221   3.081   0.871   3.577 -0.1580  0.6153  1.4780
 4195SOL    HW224222   2.952   0.896   3.646 -0.4837  0.6863 -0.8502
 4196SOL     OW24223   4.461   1.497   9.735 -0.0684 -0.1722  0.4220
 4196SOL    HW124224   4.438   1.514   9.827  0.3202  3.6350 -0.2144
 4196SOL    HW224225   4.536   1.555   9.721 -1.9162  2.6587  2.2867
 4197SOL     OW24226   1.915   1.222   1.552  0.3790 -0.9233 -0.5549
 4197SOL    HW124227   1.932   1.192   1.463  0.4903 -0.4166 -0.7044
 4197SOL    HW224228   1.861   1.299   1.540  0.3730 -0.9332 -0.5920
 4198SOL     OW24229   0.607   3.177   3.540  0.3792 -0.4133  0.4681
 4198SOL    HW124230   0.548   3.130   3.600 -0.7334  1.8308  1.1391
 4198SOL    HW224231   0.651   3.235   3.603  0.4408  1.2220 -1.0660
 4199SOL     OW24232   2.038   3.999   4.943 -0.5213 -0.5576 -0.6191
 4199SOL    HW124233   2.101   4.040   4.882 -0.2450 -0.7755 -0.4801
 4199SOL    HW224234   1.959   4.051   4.933 -0.2934 -0.1613 -0.3733
 4200SOL     OW24235   3.301   0.254   3.439 -0.4967  0.5742  0.2034
 4200SOL    HW124236   3.329   0.163   3.426  0.2388  0.3716  3.2422
 4200SOL    HW224237   3.282   0.282   3.350  2.6574 -0.0710 -0.6833
 4201SOL     OW24238   3.155   0.033  16.680 -0.3935 -0.2403 -0.0643
 4201SOL    HW124239   3.212   0.037  16.757 -0.3016 -0.2111 -0.1335
 4201SOL    HW224240   3.158   4.674  16.663  3.4485  0.0747 -1.0775
 4202SOL     OW24241   3.724   2.750  11.055  0.1649 -0.5352  0.2014
 4202SOL    HW124242   3.763   2.670  11.019 -0.0203 -0.5755  0.0910
 4202SOL    HW224243   3.684   2.794  10.980 -2.0636 -1.7326  0.6901
 4203SOL     OW24244   1.546   1.520  14.345 -0.2530 -0.4388 -0.0530
 4203SOL    HW124245   1.501   1.436  14.340 -1.8541  0.4562 -0.9534
 4203SOL    HW224246   1.477   1.573  14.304 -0.0815  0.2109  0.4946
 4204SOL     OW24247   3.428   4.549  13.808  0.0608 -0.1438 -0.6285
 4204SOL    HW124248   3.335   4.537  13.830 -0.1095  3.8978  0.7297
 4204SOL    HW224249   3.431   4.643  13.791 -1.3494  0.1712  0.8107
 4205SOL     OW24250   3.203   2.926   2.538 -0.1925  0.4441  0.1936
 4205SOL    HW124251   3.226   2.871   2.613  3.4577  1.6445 -0.0325
 4205SOL    HW224252   3.129   2.980   2.565 -0.2596 -1.0089  2.8081
 4206SOL     OW24253   4.434   3.038   9.373  0.0510 -0.1611  0.0337
 4206SOL    HW124254   4.468   3.122   9.343  2.2119 -0.7352  0.8928
 4206SOL    HW224255   4.345   3.037   9.337  0.3367 -0.0978 -0.6905
 4207SOL     OW24256   0.632   2.519  15.245  0.2139  0.1948 -0.2335
 4207SOL    HW124257   0.645   2.565  15.163  0.3395  1.9933  0.7910
 4207SOL    HW224258   0.650   2.598  15.296 -3.8866  0.7859  0.3004
 4208SOL     OW24259   2.116   1.605  11.028 -0.2478 -0.1734  0.3587
 4208SOL    HW124260   2.113   1.629  11.120  1.5834 -2.9326  1.1286
 4208SOL    HW224261   2.025   1.582  11.005 -0.3469  2.3027 -1.8315
 4209SOL     OW24262   1.825   3.854   8.542 -0.1437 -0.0421 -0.4862
 4209SOL    HW124263   1.865   3.911   8.607  0.2800 -1.2226  0.2853
 4209SOL    HW224264   1.754   3.898   8.494  0.3740 -0.4176 -1.6090
 4210SOL     OW24265   4.450   3.619   7.957 -0.1822  0.4818  0.3248
 4210SOL    HW124266   4.497   3.695   7.991  1.1501  0.4848 -1.5020
 4210SOL    HW224267   4.434   3.644   7.866  2.4413  0.5440 -0.1044
 4211SOL     OW24268   3.978   1.249   1.815 -0.3126 -0.1101  0.1497
 4211SOL    HW124269   4.061   1.233   1.858 -0.4344  0.4032  0.5789
 4211SOL    HW224270   3.977   1.162   1.775 -0.5809 -0.2539  0.4651
 4212SOL     OW24271   4.342   0.006   1.114 -0.2775  0.2941 -0.3392
 4212SOL    HW124272   4.410   0.067   1.086 -0.8284  0.5620 -1.0882
 4212SOL    HW224273   4.327   4.698   1.029  0.3011  0.1060 -0.3473
 4213SOL     OW24274   2.700   1.275  10.814 -0.3069 -0.1290 -0.1806
 4213SOL    HW124275   2.693   1.262  10.909  0.6612 -0.2560 -0.1342
 4213SOL    HW224276   2.752   1.203  10.779 -2.4717 -2.0998  0.6076
 4214SOL     OW24277   1.882   2.615  17.667 -0.2813  0.5431 -0.2199
 4214SOL    HW124278   1.950   2.612  17.600 -0.3741 -1.4508 -0.2354
 4214SOL    HW224279   1.888   2.522  17.691 -4.2487  0.7674  1.6378
 4215SOL     OW24280   3.178   2.185   0.158 -0.2343 -0.1482 -0.4796
 4215SOL    HW124281   3.132   2.244   0.098 -0.6147  1.2831  1.2250
 4215SOL    HW224282   3.133   2.101   0.153  2.1969 -1.4499 -0.6954
 4216SOL     OW24283   1.017   2.189   2.225 -0.4464 -0.0002  0.4177
 4216SOL    HW124284   0.979   2.153   2.145  0.4621  0.3762 -0.1889
 4216SOL    HW224285   0.950   2.250   2.255  0.0813  0.5658  0.4487
 4217SOL     OW24286   3.940   4.672   3.160  0.1095 -0.1851 -0.3892
 4217SOL    HW124287   3.893   4.655   3.078  1.6353 -0.5885 -1.1884
 4217SOL    HW224288   3.960   4.585   3.194  0.1464 -0.7933 -1.9624
 4218SOL     OW24289   3.082   2.127  17.064  0.0690 -0.3859  0.2208
 4218SOL    HW124290   3.024   2.063  17.024 -2.8476  0.8569  2.4653
 4218SOL    HW224291   3.116   2.182  16.993 -1.5273  1.1336  0.6244
 4219SOL     OW24292   3.309   0.100  11.182  0.0629 -0.2357 -0.1118
 4219SOL    HW124293   3.311   0.005  11.196  0.3616 -0.2611 -0.3298
 4219SOL    HW224294   3.404   0.111  11.181 -0.1679  1.7321  0.1775
 4220SOL     OW24295   3.159   2.070  10.741  0.3024 -0.3330 -0.6383
 4220SOL    HW124296   3.215   2.039  10.669  1.0655 -0.3975 -0.0194
 4220SOL    HW224297   3.130   2.152  10.701 -1.7134 -0.0709  1.3973
 4221SOL     OW24298   1.816   1.658   6.913  0.5121  0.2563  0.2147
 4221SOL    HW124299   1.767   1.691   6.838  2.4664 -1.7076 -1.9195
 4221SOL    HW224300   1.779   1.721   6.974  0.2403  1.9364 -1.6951
 4222SOL     OW24301   4.184   3.063   6.925 -0.4708 -0.3293  0.2533
 4222SOL    HW124302   4.255   3.115   6.965  0.4461 -0.3701 -1.3125
 4222SOL    HW224303   4.178   3.001   6.997  0.7288 -1.7169 -0.8364
 4223SOL     OW24304   1.868   2.667   5.881  0.7094 -0.4809  0.0683
 4223SOL    HW124305   1.867   2.635   5.971 -0.9985 -0.1325  0.1698
 4223SOL    HW224306   1.918   2.600   5.834  0.8557 -0.1106 -0.2993
 4224SOL     OW24307   3.728   0.416   5.498  0.1622  0.6180 -0.1862
 4224SOL    HW124308   3.652   0.474   5.490 -1.3851 -1.1377  1.6950
 4224SOL    HW224309   3.775   0.474   5.559  0.0465 -0.7058  1.1516
 4225SOL     OW24310   0.580   1.712   3.040  0.3079  0.6488  0.3797
 4225SOL    HW124311   0.666   1.673   3.028  0.7308  2.0605 -1.2916
 4225SOL    HW224312   0.538   1.645   3.094 -2.0740 -0.4266 -2.8259
 4226SOL     OW24313   3.228   2.026   8.629 -0.1170 -0.1305  0.4616
 4226SOL    HW124314   3.221   2.121   8.642 -2.0927 -0.5702  2.5600
 4226SOL    HW224315   3.179   2.018   8.547  2.0487  1.6340 -1.0391
 4227SOL     OW24316   1.274   1.403   4.846 -0.3973 -0.2876  0.7289
 4227SOL    HW124317   1.275   1.496   4.826  0.2363 -0.4887 -0.1317
 4227SOL    HW224318   1.196   1.362   4.808  0.1475  0.6548 -1.3753
 4228SOL     OW24319   4.351   3.385  16.806  0.3051 -0.5784  0.2697
 4228SOL    HW124320   4.385   3.312  16.858 -0.5962 -0.4862  0.9777
 4228SOL    HW224321   4.365   3.462  16.860  2.2786 -1.7766  1.4728
 4229SOL     OW24322   2.157   3.412   4.635 -0.0666  0.0530 -0.0705
 4229SOL    HW124323   2.250   3.401   4.614 -0.0641 -0.7191  0.3557
 4229SOL    HW224324   2.153   3.379   4.724  1.6979 -0.0068 -0.0102
 4230SOL     OW24325   0.538   4.523   2.122  0.1904 -0.2823 -0.4954
 4230SOL    HW124326   0.527   4.538   2.215 -1.1278 -0.5769 -0.6010
 4230SOL    HW224327   0.574   4.435   2.117 -2.1043 -1.3395  1.7833
 4231SOL     OW24328   0.121   0.127  17.643  0.2715 -0.4781 -0.1071
 4231SOL    HW124329   0.206   0.171  17.646  0.6011 -0.8619 -3.9425
 4231SOL    HW224330   0.141   0.045  17.598  1.1365  0.2478 -1.0344
 4232SOL     OW24331   0.493   1.418   4.440 -0.1766 -0.3822 -0.2207
 4232SOL    HW124332   0.556   1.453   4.376 -0.6811 -1.1748 -1.1481
 4232SOL    HW224333   0.484   1.328   4.409  0.0349 -0.5587  0.2273
 4233SOL     OW24334   2.534   3.138  16.031 -0.0324 -0.0515 -0.0056
 4233SOL    HW124335   2.549   3.044  16.046 -0.4066  0.0062  0.7385
 4233SOL    HW224336   2.503   3.154  16.121  2.1034  1.6512  0.4229
 4234SOL     OW24337   4.124   0.454   2.288  0.5138  0.3795  0.3759
 4234SOL    HW124338   4.199   0.400   2.265 -1.2606 -1.2028 -1.6879
 4234SOL    HW224339   4.168   0.506   2.355 -1.2189  3.3595 -0.7442
 4235SOL     OW24340   2.976   1.909   1.985  0.4989 -0.1214  0.6958
 4235SOL    HW124341   2.955   1.892   2.077  0.2483 -0.6801  0.5396
 4235SOL    HW224342   2.891   1.932   1.948  1.6184  1.9198 -0.5558
 4236SOL     OW24343   2.973   3.305  13.882 -0.2589  0.1418  0.5156
 4236SOL    HW124344   2.927   3.279  13.962 -1.0475 -1.2171 -0.3881
 4236SOL    HW224345   2.953   3.399  13.885 -0.1363  0.0857  3.1260
 4237SOL     OW24346   1.276   0.069   2.538 -0.4201  0.0830 -0.1514
 4237SOL    HW124347   1.225   4.723   2.534 -0.2090 -0.1105  1.2002
 4237SOL    HW224348   1.365   0.034   2.530  0.2447  1.4986  1.0908
 4238SOL     OW24349   1.010   3.248   0.590 -0.7031  0.1903 -0.1918
 4238SOL    HW124350   1.021   3.211   0.502  1.0536 -0.5393  0.3259
 4238SOL    HW224351   0.949   3.180   0.619 -0.6741  0.0844 -0.3785
 4239SOL     OW24352   0.546   4.149   2.696  0.3622 -0.0297  0.1684
 4239SOL    HW124353   0.637   4.144   2.727 -0.0166 -1.6787  1.0245
 4239SOL    HW224354   0.514   4.215   2.756 -1.7874 -2.5973  1.8380
 4240SOL     OW24355   1.146   4.088   8.864  0.4177  0.1114  0.2483
 4240SOL    HW124356   1.082   4.017   8.856  1.1874 -0.3948 -1.4459
 4240SOL    HW224357   1.213   4.071   8.798  1.0324  0.5675  0.7614
 4241SOL     OW24358   3.971   3.694   9.926  0.3673  0.1657 -0.0453
 4241SOL    HW124359   3.908   3.724   9.991 -0.1001  2.1010 -1.4160
 4241SOL    HW224360   3.959   3.599   9.915  0.3036  0.0890  0.6697
 4242SOL     OW24361   1.298   3.789   0.844 -0.1292  0.0026  0.4785
 4242SOL    HW124362   1.371   3.841   0.809  0.1236  1.5002  3.2861
 4242SOL    HW224363   1.341   3.703   0.843  0.6231  0.3678  1.3578
 4243SOL     OW24364   3.639   1.134  16.259  0.3196  0.1730  0.6091
 4243SOL    HW124365   3.654   1.042  16.238 -2.8296  0.1111 -1.4091
 4243SOL    HW224366   3.730   1.157  16.277  0.4107  1.8098 -1.9173
 4244SOL     OW24367   0.437   3.783   8.653 -0.2260  0.0609 -0.1996
 4244SOL    HW124368   0.526   3.753   8.636 -0.4593 -1.3541  1.1361
 4244SOL    HW224369   0.447   3.857   8.713 -0.9508 -0.3661  0.4574
 4245SOL     OW24370   0.752   0.964  14.342 -0.2497  0.4209 -0.1266
 4245SOL    HW124371   0.837   0.982  14.382 -1.0477 -1.1610  2.2487
 4245SOL    HW224372   0.763   1.025  14.269 -1.6053 -2.1249 -2.4657
 4246SOL     OW24373   1.507   3.015   7.682  0.0659  0.2057  0.4745
 4246SOL    HW124374   1.450   3.092   7.674  2.5008  1.5705 -3.7645
 4246SOL    HW224375   1.460   2.940   7.647  1.6573  0.5085 -2.2469
 4247SOL     OW24376   3.174   2.790  12.632  0.2725  0.1964 -0.0932
 4247SOL    HW124377   3.173   2.780  12.727 -2.0601 -0.3893 -0.1568
 4247SOL    HW224378   3.107   2.857  12.621 -2.4329 -2.8063 -2.1486
 4248SOL     OW24379   3.462   0.376   6.956 -0.1403 -0.2803 -0.5990
 4248SOL    HW124380   3.508   0.393   7.038  1.8146 -0.1750 -1.7387
 4248SOL    HW224381   3.373   0.359   6.989  0.4285 -1.2756  0.4219
 4249SOL     OW24382   1.471   4.621   2.230  0.6456  0.3143  0.5769
 4249SOL    HW124383   1.518   4.629   2.146 -0.9999  0.4162 -0.3288
 4249SOL    HW224384   1.384   4.659   2.217  1.3647  1.9356  0.4875
 4250SOL     OW24385   3.484   3.223   4.854  0.4419  0.2263 -0.2218
 4250SOL    HW124386   3.515   3.305   4.815  0.2527  0.0113 -0.8124
 4250SOL    HW224387   3.414   3.254   4.911  1.0553  2.6869 -0.8243
 4251SOL     OW24388   0.580   2.436  16.293  0.7589 -0.8079  0.8043
 4251SOL    HW124389   0.508   2.399  16.343 -1.1964 -1.4903 -2.4663
 4251SOL    HW224390   0.595   2.362  16.235  0.7924  0.2468 -0.5450
 4252SOL     OW24391   0.416   4.254   3.187 -0.5294  0.1418 -0.0708
 4252SOL    HW124392   0.501   4.279   3.151  1.3049 -3.4008  1.7688
 4252SOL    HW224393   0.402   4.170   3.143 -2.3368  0.7451 -0.6567
 4253SOL     OW24394   0.098   0.702   1.445  0.2564  0.4093  0.5244
 4253SOL    HW124395   0.102   0.756   1.524  0.1946  1.1009  0.0550
 4253SOL    HW224396   0.016   0.654   1.456  0.5407 -0.1334  0.2748
 4254SOL     OW24397   4.721   4.586  11.636 -0.6301  0.3185  0.4666
 4254SOL    HW124398   4.626   4.589  11.631 -0.7740 -2.7538  1.3094
 4254SOL    HW224399   4.728   4.491  11.625  0.5741  0.4555  0.0209
 4255SOL     OW24400   1.615   3.258   3.598 -0.0340  0.8307 -0.1117
 4255SOL    HW124401   1.601   3.240   3.691 -1.3463 -0.7534 -0.6238
 4255SOL    HW224402   1.608   3.353   3.594 -0.3119  0.7713 -1.0477
 4256SOL     OW24403   4.512   3.828   6.836 -0.5523  0.0631 -0.5073
 4256SOL    HW124404   4.429   3.874   6.849  0.3486  1.2899  0.9420
 4256SOL    HW224405   4.497   3.804   6.745  0.3336  0.2759 -0.7126
 4257SOL     OW24406   3.366   1.240  10.928 -0.0035  0.3788 -0.0341
 4257SOL    HW124407   3.292   1.188  10.898  0.9884  0.6871 -2.9959
 4257SOL    HW224408   3.394   1.287  10.849 -3.5027 -1.4357 -2.3622
 4258SOL     OW24409   4.532   4.178   2.517  0.0998  0.1495  0.5850
 4258SOL    HW124410   4.612   4.215   2.553  0.0618  0.6090  0.1992
 4258SOL    HW224411   4.488   4.261   2.497  0.1882  0.1556  0.4138
 4259SOL     OW24412   2.284   0.103   4.358 -0.8885 -0.3977 -0.4477
 4259SOL    HW124413   2.251   0.185   4.320  0.6496  1.2463  1.7707
 4259SOL    HW224414   2.231   0.086   4.436  0.6638 -0.6167  0.5520
 4260SOL     OW24415   1.928   2.020   3.325  0.4860 -0.6456  0.1344
 4260SOL    HW124416   1.987   2.061   3.388  2.2259 -2.1903 -0.4578
 4260SOL    HW224417   1.943   2.061   3.240  1.9318 -2.6714 -0.6028
 4261SOL     OW24418   4.130   2.168   9.160  0.0226 -0.4721  0.1875
 4261SOL    HW124419   4.150   2.211   9.077  0.6252 -1.1936 -0.0393
 4261SOL    HW224420   4.214   2.123   9.174  0.2776 -1.2805 -4.1241
 4262SOL     OW24421   4.682   2.338   8.369  0.1923 -0.1053 -0.0298
 4262SOL    HW124422   0.004   2.291   8.309 -0.7159  0.2898 -1.2098
 4262SOL    HW224423   4.642   2.407   8.315 -1.0946 -1.9305 -1.3977
 4263SOL     OW24424   2.739   4.233   3.489 -0.1263 -0.4383 -0.2164
 4263SOL    HW124425   2.750   4.139   3.502  0.8120  0.1717  3.3410
 4263SOL    HW224426   2.758   4.246   3.396  3.6115 -0.5157  0.5320
 4264SOL     OW24427   3.867   4.457   8.154 -0.1678 -0.5543 -0.3865
 4264SOL    HW124428   3.775   4.465   8.130  0.3211  2.2197 -1.4343
 4264SOL    HW224429   3.898   4.544   8.179  0.6244 -0.8882 -0.2057
 4265SOL     OW24430   2.853   3.900   3.274 -0.0241 -0.2165 -0.0105
 4265SOL    HW124431   2.763   3.868   3.265  0.3551 -1.7786  1.6505
 4265SOL    HW224432   2.842   3.979   3.327 -0.3331  0.6192 -1.3326
 4266SOL     OW24433   1.986   0.858   7.765 -0.0881 -0.2186 -0.2926
 4266SOL    HW124434   1.998   0.937   7.713 -0.2511 -1.2098 -1.8405
 4266SOL    HW224435   2.031   0.890   7.843  0.2071 -4.4097  1.2617
 4267SOL     OW24436   1.582   1.529   9.379  0.2568 -0.9777 -0.1609
 4267SOL    HW124437   1.559   1.563   9.292  0.7086 -0.6693 -0.1540
 4267SOL    HW224438   1.633   1.452   9.353  1.3623  0.1885 -1.4272
 4268SOL     OW24439   2.867   3.283   0.902 -0.1426  0.0725  0.2964
 4268SOL    HW124440   2.924   3.314   0.972  2.5396 -1.9610 -1.0191
 4268SOL    HW224441   2.788   3.330   0.929  0.1562  0.1820  0.9623
 4269SOL     OW24442   1.222   3.794   1.995 -0.2311 -0.8776  0.1470
 4269SOL    HW124443   1.279   3.759   2.064 -0.3944 -1.8916 -0.2252
 4269SOL    HW224444   1.171   3.866   2.032  1.4859  0.9190 -1.0222
 4270SOL     OW24445   2.286   1.376  13.170  0.8440 -0.1848  0.0630
 4270SOL    HW124446   2.271   1.287  13.202 -2.8829 -0.2354 -1.8315
 4270SOL    HW224447   2.360   1.398  13.226  1.5391 -0.9315 -0.5608
 4271SOL     OW24448   3.173   3.006   0.214 -0.1997  0.2101 -0.1244
 4271SOL    HW124449   3.132   3.091   0.231 -0.8552  0.0755 -1.0421
 4271SOL    HW224450   3.093   2.958   0.193  1.1615 -2.6662  1.3144
 4272SOL     OW24451   2.032   2.160   8.639  1.0687  0.4988  0.5075
 4272SOL    HW124452   1.967   2.215   8.595  1.0428  1.1689  1.3891
 4272SOL    HW224453   1.966   2.124   8.698  0.8936  2.7378  1.6747
 4273SOL     OW24454   4.258   3.959   1.375  0.1801  0.4436 -0.9863
 4273SOL    HW124455   4.303   4.018   1.315  2.6342  0.7702  1.1909
 4273SOL    HW224456   4.296   3.977   1.461 -1.3068  1.2067 -0.4823
 4274SOL     OW24457   3.074   3.426   4.751  0.0754  0.1051 -0.2805
 4274SOL    HW124458   3.044   3.484   4.820 -1.4099 -1.7400  0.6314
 4274SOL    HW224459   3.054   3.344   4.797  1.9931 -0.8711 -1.1435
 4275SOL     OW24460   4.350   0.933   3.361 -0.5224 -0.0136 -0.1901
 4275SOL    HW124461   4.315   0.908   3.447 -1.2878  1.0685 -0.1965
 4275SOL    HW224462   4.338   0.847   3.320  2.0956 -0.7754  0.6619
 4276SOL     OW24463   2.746   2.651   5.196 -0.8889  0.6873 -0.1832
 4276SOL    HW124464   2.731   2.704   5.118  0.6566 -1.0491 -1.6366
 4276SOL    HW224465   2.822   2.702   5.225  0.3309 -2.1215  1.6225
 4277SOL     OW24466   0.833   1.893   5.043  0.1648  0.0724 -0.0648
 4277SOL    HW124467   0.911   1.863   4.997 -0.6262 -1.1310 -0.6066
 4277SOL    HW224468   0.794   1.951   4.977 -2.7534 -0.7278  0.9423
 4278SOL     OW24469   0.461   0.230   9.149 -0.0574  0.1004 -0.1806
 4278SOL    HW124470   0.472   0.158   9.087  0.3742 -0.4036  0.4866
 4278SOL    HW224471   0.474   0.182   9.231  1.8495 -0.9656 -1.1098
 4279SOL     OW24472   1.317   4.384   0.591  0.1325 -0.2681  0.2882
 4279SOL    HW124473   1.402   4.353   0.561  0.0082 -0.5352  0.2141
 4279SOL    HW224474   1.307   4.327   0.667  3.3450  0.2658  1.1078
 4280SOL     OW24475   2.979   0.912   4.260 -0.3083 -0.5617  0.2903
 4280SOL    HW124476   2.891   0.904   4.223  0.0567 -4.1667  0.2032
 4280SOL    HW224477   2.957   0.871   4.344  0.8914 -1.3655  0.2069
 4281SOL     OW24478   4.367   2.265   8.361  0.0398 -0.2984 -0.3619
 4281SOL    HW124479   4.301   2.334   8.352  2.2560  1.7917 -0.7079
 4281SOL    HW224480   4.424   2.286   8.287  0.5654 -1.2516 -0.2232
 4282SOL     OW24481   2.153   0.968   6.598 -0.4678 -0.1461  0.1787
 4282SOL    HW124482   2.220   1.036   6.599 -1.5002  0.8950 -0.1526
 4282SOL    HW224483   2.114   0.978   6.510 -0.4233 -0.0996  0.1642
 4283SOL     OW24484   3.317   1.551   2.740 -0.0832 -0.5187  0.0430
 4283SOL    HW124485   3.317   1.594   2.654  2.2671  2.3214  1.4614
 4283SOL    HW224486   3.353   1.466   2.714  0.5160 -0.7372  1.6049
 4284SOL     OW24487   2.457   3.987  11.026 -0.3732  0.4616  0.2642
 4284SOL    HW124488   2.463   4.076  10.993 -0.1781 -0.7080 -2.9000
 4284SOL    HW224489   2.433   3.945  10.943  1.9466  0.9943 -0.6676
 4285SOL     OW24490   3.862   2.670  17.070  0.3223  0.4090 -0.6001
 4285SOL    HW124491   3.805   2.747  17.077  0.8050  0.5597  1.6138
 4285SOL    HW224492   3.947   2.713  17.056 -1.1814  3.4977 -0.1987
 4286SOL     OW24493   0.631   3.548   0.405  0.4713 -0.3752 -0.1751
 4286SOL    HW124494   0.697   3.502   0.353  1.9945  2.0201 -0.3612
 4286SOL    HW224495   0.581   3.472   0.435 -1.9151  0.8070 -1.1222
 4287SOL     OW24496   1.109   1.893   6.737  0.0086  0.1205 -0.7811
 4287SOL    HW124497   1.103   1.948   6.816 -0.9238 -1.4568  0.2365
 4287SOL    HW224498   1.177   1.937   6.686  1.3121  0.2648  1.0776
 4288SOL     OW24499   1.461   4.178   5.802  0.1762  0.6917 -0.1037
 4288SOL    HW124500   1.534   4.220   5.848  0.5750 -1.2787  1.0742
 4288SOL    HW224501   1.501   4.100   5.763 -0.5603  0.2101  0.1152
 4289SOL     OW24502   0.339   3.300  14.699 -0.0348 -0.3767  0.3024
 4289SOL    HW124503   0.323   3.381  14.747  2.1714  1.0755 -1.4671
 4289SOL    HW224504   0.306   3.317  14.611 -0.9399 -0.3181  0.6484
 4290SOL     OW24505   3.798   2.866   8.200 -0.1414 -0.5643 -0.0756
 4290SOL    HW124506   3.836   2.947   8.165  0.6626 -0.6073  0.7068
 4290SOL    HW224507   3.867   2.802   8.182  2.4730  2.1280  0.2317
 4291SOL     OW24508   2.648   2.040  12.249 -0.6553  0.1200 -0.3094
 4291SOL    HW124509   2.676   2.129  12.273 -0.9400  0.1509 -0.0892
 4291SOL    HW224510   2.609   2.005  12.329  0.7906  0.4605  0.5545
 4292SOL     OW24511   3.681   4.201   0.901  0.1356  0.1843  0.5694
 4292SOL    HW124512   3.741   4.198   0.826  0.1644  0.3927  0.5831
 4292SOL    HW224513   3.674   4.107   0.885 -1.6436  0.1292  1.7334
 4293SOL     OW24514   3.352   0.512  16.406  0.0150  0.1543  0.0827
 4293SOL    HW124515   3.263   0.541  16.386 -0.6662 -1.2812  1.0172
 4293SOL    HW224516   3.345   0.482  16.496  0.4054 -2.2770 -0.6809
 4294SOL     OW24517   2.404   1.957   2.951 -0.4395  0.3362  0.2945
 4294SOL    HW124518   2.464   2.020   2.991  0.6237 -0.8647  0.6226
 4294SOL    HW224519   2.454   1.877   2.972 -1.6928 -0.4008  0.5088
 4295SOL     OW24520   0.087   4.217  12.381  0.7288  0.1058  0.4739
 4295SOL    HW124521   0.078   4.293  12.324  2.2658  0.2369  0.3952
 4295SOL    HW224522   0.108   4.152  12.313 -0.6765  0.6936 -0.5206
 4296SOL     OW24523   2.255   1.467   1.281 -0.0494 -0.0169  0.0464
 4296SOL    HW124524   2.319   1.400   1.257  0.8706  1.1350 -0.7261
 4296SOL    HW224525   2.304   1.547   1.261 -0.5227  0.3256  0.2754
 4297SOL     OW24526   4.645   2.087  10.614  0.5009  0.2458 -0.2965
 4297SOL    HW124527   4.598   2.007  10.634  1.6786 -0.3367  0.1159
 4297SOL    HW224528   4.611   2.146  10.681  1.8481  2.2818 -1.3827
 4298SOL     OW24529   0.786   2.742   3.730 -0.5118 -0.0043 -0.4073
 4298SOL    HW124530   0.735   2.728   3.809  0.4902 -0.0475  0.2289
 4298SOL    HW224531   0.738   2.672   3.685  0.3026 -1.4578  0.9734
 4299SOL     OW24532   1.060   3.406   8.729  0.2796  0.3659  0.0739
 4299SOL    HW124533   1.057   3.468   8.802 -1.4932 -2.6260  2.5150
 4299SOL    HW224534   1.029   3.328   8.775  1.8324 -0.5199 -0.3746
 4300SOL     OW24535   0.343   3.048   2.287 -0.0044  0.3443  0.1567
 4300SOL    HW124536   0.249   3.047   2.303 -0.1448 -1.6932 -0.7974
 4300SOL    HW224537   0.363   2.965   2.330  0.0862  0.0253 -0.4986
 4301SOL     OW24538   0.764   0.534   6.324  0.1345  0.5081 -0.4904
 4301SOL    HW124539   0.697   0.556   6.259  0.5313 -0.6465 -1.3022
 4301SOL    HW224540   0.843   0.577   6.290  1.2784 -1.3306 -0.1726
 4302SOL     OW24541   1.241   3.401  15.855  0.3551 -0.0110  0.0037
 4302SOL    HW124542   1.332   3.394  15.829  0.4634 -0.7411  0.5890
 4302SOL    HW224543   1.226   3.489  15.819  1.9217  0.7017  1.0691
 4303SOL     OW24544   3.673   0.914   4.690  0.1013  0.2044  0.1302
 4303SOL    HW124545   3.590   0.919   4.642  1.0745  2.9215 -1.2911
 4303SOL    HW224546   3.737   0.953   4.629 -0.4282  1.9073  0.6633
 4304SOL     OW24547   2.128   1.969  11.656  0.2314 -0.3824  0.1300
 4304SOL    HW124548   2.164   2.043  11.705 -0.5462  0.9978 -1.4026
 4304SOL    HW224549   2.120   2.005  11.568  0.6055 -1.3614 -0.3073
 4305SOL     OW24550   2.766   0.184   6.224  0.3598 -0.2382 -0.0743
 4305SOL    HW124551   2.687   0.145   6.188 -0.2058  1.3690 -0.5939
 4305SOL    HW224552   2.828   0.138   6.169  0.1409  0.2744 -0.7498
 4306SOL     OW24553   4.733   1.230   4.321  0.1353  0.2139  0.2888
 4306SOL    HW124554   0.032   1.319   4.334 -0.0851  0.7233 -2.7318
 4306SOL    HW224555   0.082   1.186   4.317  0.6144  0.9584  2.2865
 4307SOL     OW24556   0.665   0.490  16.933 -1.0450  0.2154  0.1167
 4307SOL    HW124557   0.651   0.525  17.021 -1.5906  1.3886 -0.4402
 4307SOL    HW224558   0.632   0.401  16.943  0.4366 -0.3656 -0.2242
 4308SOL     OW24559   4.639   0.080  11.865 -0.9928  0.4035  0.3988
 4308SOL    HW124560   4.649   0.071  11.770  0.1675  0.0156  0.5626
 4308SOL    HW224561   4.564   0.025  11.887 -1.1659 -0.7243 -3.0138
 4309SOL     OW24562   2.568   3.967  14.942  0.2542  0.2883  0.4612
 4309SOL    HW124563   2.482   3.926  14.952  0.4089 -0.0780  0.2791
 4309SOL    HW224564   2.596   3.942  15.031 -1.6971 -2.9063  0.1752
 4310SOL     OW24565   2.122   1.888   6.760  0.2334 -0.6352  0.1847
 4310SOL    HW124566   2.031   1.912   6.742  0.9259  1.2344 -0.7706
 4310SOL    HW224567   2.149   1.936   6.838  0.5722 -0.4155 -0.0687
 4311SOL     OW24568   2.260   1.378   5.639 -0.2864 -0.6724 -0.2970
 4311SOL    HW124569   2.169   1.400   5.661  0.0149 -0.4536  0.7623
 4311SOL    HW224570   2.285   1.447   5.577  0.5593  0.1619  0.9691
 4312SOL     OW24571   1.840   2.359  17.732  0.0425  0.0881 -0.0236
 4312SOL    HW124572   1.870   2.301  17.661  1.0422  1.3182 -0.6176
 4312SOL    HW224573   1.834   2.285   0.053  0.8735 -0.7284 -0.9359
 4313SOL     OW24574   0.518   0.006   8.941  0.6870 -0.0839  0.0630
 4313SOL    HW124575   0.596   4.686   8.934 -0.2445 -1.3858 -0.1826
 4313SOL    HW224576   0.449   4.675   8.943  2.9707 -2.4295  2.4772
 4314SOL     OW24577   2.509   3.992   7.088  0.1580 -0.2503 -0.3447
 4314SOL    HW124578   2.505   3.977   7.182 -1.4279  0.1270 -0.3488
 4314SOL    HW224579   2.605   3.995   7.085  0.1816 -0.9634 -0.2432
 4315SOL     OW24580   2.570   2.875   1.392 -0.2708  0.4337 -0.2343
 4315SOL    HW124581   2.623   2.941   1.438 -1.3467  0.0502  1.5289
 4315SOL    HW224582   2.480   2.895   1.417 -0.3660  1.2170 -1.2040
 4316SOL     OW24583   4.651   0.444   8.595 -0.0645 -0.5167 -0.4171
 4316SOL    HW124584   4.643   0.464   8.688 -2.3063  1.6719 -1.0762
 4316SOL    HW224585   4.573   0.391   8.582 -1.0688  0.7713  0.3228
 4317SOL     OW24586   1.451   3.838   8.745  0.6213  0.6532  0.4438
 4317SOL    HW124587   1.392   3.821   8.819  1.6993  1.5814  1.5181
 4317SOL    HW224588   1.399   3.903   8.698 -1.4409 -1.6698 -0.5025
 4318SOL     OW24589   0.198   3.620  10.068  0.4223  0.5687 -0.2661
 4318SOL    HW124590   0.110   3.598  10.039  0.2848  1.2200 -0.3408
 4318SOL    HW224591   0.196   3.645  10.160  0.5406 -0.5363  0.0366
 4319SOL     OW24592   0.199   4.293   2.436 -0.1199 -0.3304  0.5966
 4319SOL    HW124593   0.147   4.244   2.372 -0.1165  0.0172  0.3252
 4319SOL    HW224594   0.130   4.308   2.500  1.2847 -1.9376  2.4738
 4320SOL     OW24595   3.931   2.387   4.179 -0.2176  0.3933 -0.1546
 4320SOL    HW124596   3.989   2.354   4.111  1.4673  0.2759  1.3323
 4320SOL    HW224597   3.853   2.337   4.156 -0.7349  0.2581  1.8810
 4321SOL     OW24598   3.826   3.575   6.229  0.0049  0.1699  0.1190
 4321SOL    HW124599   3.763   3.601   6.297 -1.4962 -3.0395 -0.0203
 4321SOL    HW224600   3.905   3.625   6.249  2.2632 -3.0068 -0.8352
 4322SOL     OW24601   2.566   2.595   6.631 -0.0677  0.1950 -0.4501
 4322SOL    HW124602   2.488   2.649   6.617  0.7013  1.4168 -0.0503
 4322SOL    HW224603   2.535   2.537   6.700  0.5387  0.1422 -0.2280
 4323SOL     OW24604   0.922   3.768   6.953  0.1438  0.4237  0.3877
 4323SOL    HW124605   0.986   3.824   6.910  1.2265 -1.0632  0.0620
 4323SOL    HW224606   0.984   3.709   6.996  0.7025 -0.5695 -1.7909
 4324SOL     OW24607   1.924   2.983  14.690 -0.4769 -0.0395 -0.1611
 4324SOL    HW124608   1.866   2.919  14.731  0.6581 -0.4563  0.7864
 4324SOL    HW224609   1.897   2.974  14.599 -0.6014  1.8499 -0.3186
 4325SOL     OW24610   1.935   3.226   1.616 -0.1405 -0.0587 -0.1485
 4325SOL    HW124611   2.017   3.265   1.646  0.5019 -0.4450 -1.3840
 4325SOL    HW224612   1.896   3.301   1.572  1.2742  0.7462 -0.0311
 4326SOL     OW24613   3.691   1.702   4.892 -0.4719  0.1425 -0.2435
 4326SOL    HW124614   3.753   1.682   4.822 -1.0613  0.8186 -0.9507
 4326SOL    HW224615   3.756   1.723   4.959 -0.8986 -0.1634  0.2729
 4327SOL     OW24616   3.263   4.462   9.375 -0.0156  0.1770 -0.2209
 4327SOL    HW124617   3.327   4.391   9.365  0.9848  0.6568  2.9376
 4327SOL    HW224618   3.192   4.413   9.335 -0.6258 -0.9473  2.2907
 4328SOL     OW24619   2.427   3.675   9.685 -0.1971  0.5087 -0.1582
 4328SOL    HW124620   2.433   3.678   9.780 -2.3557  0.0717  0.0041
 4328SOL    HW224621   2.349   3.621   9.671  0.2720  0.4110 -2.4683
 4329SOL     OW24622   2.529   1.996   4.073  1.1127 -0.6794  0.0929
 4329SOL    HW124623   2.434   1.984   4.070  1.2480 -2.0183  1.2148
 4329SOL    HW224624   2.528   2.091   4.063  0.2124 -0.7850 -0.8098
 4330SOL     OW24625   3.531   3.591   9.132  1.0506 -0.0805  0.4713
 4330SOL    HW124626   3.556   3.522   9.193  1.1304 -0.4914 -0.0238
 4330SOL    HW224627   3.599   3.652   9.160  0.5867 -0.0282  1.4705
 4331SOL     OW24628   3.823   2.549  13.929  0.5369  0.1187 -0.0585
 4331SOL    HW124629   3.754   2.615  13.935  0.0688 -0.5527  2.0157
 4331SOL    HW224630   3.777   2.473  13.893 -3.0382  2.5202 -0.5542
 4332SOL     OW24631   1.887   0.768  15.035  0.6124 -0.0699  0.8051
 4332SOL    HW124632   1.888   0.864  15.046  1.9656  0.0307 -0.1981
 4332SOL    HW224633   1.837   0.741  15.112  1.5454  1.2171  1.8770
 4333SOL     OW24634   1.004   3.270  14.855 -0.1567  1.0286  0.3023
 4333SOL    HW124635   1.050   3.206  14.800  1.0709  0.9390  1.4157
 4333SOL    HW224636   1.033   3.348  14.807  0.3064  0.1320 -0.8697
 4334SOL     OW24637   3.711   2.878   3.602  0.2304  0.0089 -0.3278
 4334SOL    HW124638   3.756   2.844   3.679 -1.1703  0.6921  0.7822
 4334SOL    HW224639   3.701   2.793   3.558  1.2513 -2.0440  3.4586
 4335SOL     OW24640   2.611   0.322   2.403  0.5452  0.0416  0.1655
 4335SOL    HW124641   2.644   0.374   2.476  0.5407  1.6256 -0.9424
 4335SOL    HW224642   2.656   0.371   2.333 -1.9467  1.1452 -0.6752
 4336SOL     OW24643   1.576   1.071   5.804 -0.0793 -0.2635 -0.7099
 4336SOL    HW124644   1.515   1.107   5.868  1.0693  0.4234 -0.0119
 4336SOL    HW224645   1.585   0.981   5.836  0.3426 -0.0429 -0.2084
 4337SOL     OW24646   2.419   3.565   2.933  0.4482  0.2523 -0.3149
 4337SOL    HW124647   2.337   3.520   2.954 -0.3227  1.8922  0.2279
 4337SOL    HW224648   2.477   3.489   2.937  0.6039  0.4088  0.5608
 4338SOL     OW24649   1.573   0.918   8.787  0.0721 -0.8224 -0.7196
 4338SOL    HW124650   1.655   0.954   8.822  0.4551 -1.3029 -1.1074
 4338SOL    HW224651   1.562   0.827   8.814  1.0660 -0.5615  0.5564
 4339SOL     OW24652   1.096   3.985   3.808  0.0784  0.0726 -0.5155
 4339SOL    HW124653   1.184   3.948   3.799 -0.3310 -0.8230 -0.8297
 4339SOL    HW224654   1.050   3.963   3.727 -2.2649 -1.0769  1.1372
 4340SOL     OW24655   3.222   1.287   5.172  0.3356  0.2139  0.0271
 4340SOL    HW124656   3.300   1.292   5.118 -0.4364 -2.7802 -1.3576
 4340SOL    HW224657   3.217   1.378   5.201 -1.7344 -0.7293  2.6180
 4341SOL     OW24658   4.544   4.285  15.226 -0.1446  0.4548 -0.2073
 4341SOL    HW124659   4.519   4.361  15.279  3.4571  1.3955  0.1561
 4341SOL    HW224660   4.628   4.318  15.196  0.2449 -0.3438  0.0055
 4342SOL     OW24661   3.639   2.366  10.520 -0.2568 -0.5322 -0.0441
 4342SOL    HW124662   3.630   2.412  10.436 -1.9355  0.9020  0.9301
 4342SOL    HW224663   3.580   2.419  10.574  0.2233  0.4992 -0.5320
 4343SOL     OW24664   3.164   1.552   2.359 -0.2294 -0.0084 -0.6358
 4343SOL    HW124665   3.155   1.624   2.422 -2.3002 -0.0964 -0.8273
 4343SOL    HW224666   3.122   1.480   2.406  3.6652 -0.7942  1.6612
 4344SOL     OW24667   2.090   3.388   6.285 -0.2855  0.2333 -0.5556
 4344SOL    HW124668   2.135   3.472   6.295 -3.0099  1.8205 -1.7344
 4344SOL    HW224669   2.168   3.334   6.269 -0.1206  0.2340  0.2408
 4345SOL     OW24670   1.667   1.795   4.271  0.4167 -0.0144 -0.4976
 4345SOL    HW124671   1.603   1.792   4.343 -1.7599  3.1965 -2.3238
 4345SOL    HW224672   1.703   1.882   4.286 -0.4749  0.3507 -0.4439
 4346SOL     OW24673   4.488   2.728   3.567  0.1933 -0.5629  0.1039
 4346SOL    HW124674   4.477   2.686   3.653 -2.6100 -2.4094 -1.1550
 4346SOL    HW224675   4.502   2.817   3.600  1.4316 -0.1584 -1.5160
 4347SOL     OW24676   4.401   1.240   7.058 -0.3004 -0.2533  0.2725
 4347SOL    HW124677   4.414   1.230   6.964  0.7614  3.1937  0.0365
 4347SOL    HW224678   4.306   1.230   7.049 -0.1854 -2.1502  1.1993
 4348SOL     OW24679   4.233   4.324   2.880  0.3156  0.3767 -0.3116
 4348SOL    HW124680   4.152   4.353   2.922  0.3299 -0.9105  0.6158
 4348SOL    HW224681   4.225   4.369   2.796  0.7435  2.6663  0.8607
 4349SOL     OW24682   2.956   0.314   9.748  0.4535  0.0455  0.3660
 4349SOL    HW124683   2.898   0.283   9.679  1.6903 -4.1832  1.1959
 4349SOL    HW224684   3.022   0.245   9.744 -0.6935 -1.1183  1.2760
 4350SOL     OW24685   3.703   3.535   8.151  0.3555 -0.3948  0.1640
 4350SOL    HW124686   3.772   3.486   8.196  1.2843  1.0243  0.3191
 4350SOL    HW224687   3.741   3.550   8.064 -1.0809  1.1035 -0.2086
 4351SOL     OW24688   1.501   1.361   8.610 -0.1810  0.3017 -0.1295
 4351SOL    HW124689   1.556   1.420   8.662 -0.1082 -1.1180  1.3868
 4351SOL    HW224690   1.549   1.279   8.617  2.8161  1.9745 -1.4354
 4352SOL     OW24691   1.438   3.263   8.085 -0.1171  0.4431  0.1959
 4352SOL    HW124692   1.505   3.201   8.056  0.1614 -0.5322  2.9593
 4352SOL    HW224693   1.420   3.304   8.000 -3.7604  2.6635  2.0360
 4353SOL     OW24694   0.452   1.179   8.911 -0.2698 -0.0487  0.0285
 4353SOL    HW124695   0.393   1.145   8.979 -0.7752 -0.3126 -0.5487
 4353SOL    HW224696   0.404   1.257   8.884  1.0146  0.5858 -0.4439
 4354SOL     OW24697   3.939   2.298   2.296 -0.1378 -0.0909 -0.4465
 4354SOL    HW124698   3.939   2.211   2.255  0.3353  0.4366 -1.5560
 4354SOL    HW224699   3.863   2.337   2.253  0.9007  1.6415 -0.6819
 4355SOL     OW24700   4.396   2.918   3.932 -0.0544  0.1904 -0.1018
 4355SOL    HW124701   4.322   2.877   3.887  0.9245 -0.5111 -1.0756
 4355SOL    HW224702   4.352   2.998   3.962  0.2406 -0.1916  1.3469
 4356SOL     OW24703   4.080   2.863   7.559 -0.1549  0.4410  0.1092
 4356SOL    HW124704   4.050   2.782   7.518  2.6941 -0.8990  0.6585
 4356SOL    HW224705   4.175   2.849   7.561 -0.1149  1.0125  2.9393
 4357SOL     OW24706   1.402   2.376   3.262  0.0122 -0.0880 -0.1168
 4357SOL    HW124707   1.487   2.345   3.230  0.1682 -0.8454  1.0638
 4357SOL    HW224708   1.345   2.349   3.190  0.2422 -0.0528 -0.3132
 4358SOL     OW24709   3.201   4.128   8.123  0.3566  0.1448 -0.2257
 4358SOL    HW124710   3.253   4.196   8.081 -1.4362  0.0722 -2.5229
 4358SOL    HW224711   3.243   4.132   8.210 -0.6830  2.6043  0.1673
 4359SOL     OW24712   4.122   4.186  13.108 -0.5817  0.2857 -0.1425
 4359SOL    HW124713   4.084   4.099  13.097 -0.3485  0.1803 -0.0944
 4359SOL    HW224714   4.095   4.220  13.022  2.4379 -0.1859 -1.2574
 4360SOL     OW24715   0.999   1.723   4.581 -0.1012 -0.3604 -0.5216
 4360SOL    HW124716   0.907   1.717   4.555 -0.0482 -0.9266 -0.5762
 4360SOL    HW224717   1.045   1.663   4.523 -0.8931 -0.2203 -1.2879
 4361SOL     OW24718   3.814   2.270   6.100  0.1501  0.8001 -0.1102
 4361SOL    HW124719   3.894   2.284   6.048 -0.6125  1.1461 -1.1893
 4361SOL    HW224720   3.849   2.210   6.166  0.0998  0.0559 -0.7614
 4362SOL     OW24721   2.020   3.627   8.504 -0.1114  0.1595 -0.2798
 4362SOL    HW124722   2.030   3.595   8.593 -0.0200  1.2786  0.1079
 4362SOL    HW224723   1.978   3.712   8.511  0.8621  0.5505  0.8852
 4363SOL     OW24724   3.648   4.689  17.637 -0.0560  0.2804  0.3584
 4363SOL    HW124725   3.661   4.597  17.659  0.5179  0.0689 -0.9107
 4363SOL    HW224726   3.727   4.706  17.587  0.7009  0.5062  1.6357
 4364SOL     OW24727   3.638   3.275   4.546 -0.4918  0.0525 -0.2492
 4364SOL    HW124728   3.616   3.327   4.623 -2.8723 -0.0451 -0.8417
 4364SOL    HW224729   3.670   3.342   4.486  1.4447 -1.0091 -0.3821
 4365SOL     OW24730   1.594   1.809   0.753 -0.4101 -0.3521  0.4864
 4365SOL    HW124731   1.532   1.759   0.806  0.6514 -2.4021 -0.1971
 4365SOL    HW224732   1.545   1.827   0.673 -1.1156 -1.1944  0.7253
 4366SOL     OW24733   0.889   4.323   1.002 -0.1040  0.5822  0.0249
 4366SOL    HW124734   0.892   4.265   0.925 -1.5246 -1.3345  1.4256
 4366SOL    HW224735   0.852   4.267   1.069  0.3955 -0.1929 -0.3474
 4367SOL     OW24736   2.308   3.619   6.334  0.0734  0.3618  0.1015
 4367SOL    HW124737   2.310   3.653   6.424 -0.7613 -1.4178  0.7772
 4367SOL    HW224738   2.402   3.601   6.327 -0.2747 -1.1011 -0.7726
 4368SOL     OW24739   2.992   0.647   7.754  0.1574  0.0182  0.1171
 4368SOL    HW124740   2.902   0.663   7.782 -0.5648 -0.4159 -1.9555
 4368SOL    HW224741   3.031   0.716   7.808 -2.2252  0.6847  0.9786
 4369SOL     OW24742   1.741   2.719  15.843 -0.2527 -0.7723  0.0045
 4369SOL    HW124743   1.711   2.772  15.769 -0.1443 -0.4408  0.1972
 4369SOL    HW224744   1.760   2.632  15.807  0.8098 -1.3848  2.0539
 4370SOL     OW24745   3.291   1.960   8.245 -0.4538  0.0725 -0.3477
 4370SOL    HW124746   3.365   2.012   8.275  0.8253 -0.9827 -1.7276
 4370SOL    HW224747   3.295   1.976   8.151 -2.3566  1.2484 -0.2167
 4371SOL     OW24748   4.237   0.551   2.043 -0.2794 -0.2777  0.1088
 4371SOL    HW124749   4.211   0.459   2.040  3.4970 -1.3754  1.7832
 4371SOL    HW224750   4.214   0.575   2.133 -3.0287  0.2817 -0.7266
 4372SOL     OW24751   3.416   1.691   6.188  0.0325 -0.1962  0.2854
 4372SOL    HW124752   3.431   1.685   6.282 -1.9220  2.8980  0.7620
 4372SOL    HW224753   3.446   1.781   6.176  2.5469 -0.8733  1.4003
 4373SOL     OW24754   0.206   2.449   0.205 -0.5651 -0.1108  0.0008
 4373SOL    HW124755   0.200   2.450   0.110  1.4865  0.7856 -0.1212
 4373SOL    HW224756   0.113   2.461   0.222  0.1805  1.3479  3.0332
 4374SOL     OW24757   4.397   2.199  12.023  0.1414 -0.0670 -0.0369
 4374SOL    HW124758   4.315   2.223  11.981  0.0223  1.5816  1.1235
 4374SOL    HW224759   4.372   2.125  12.078  1.6280 -2.8711 -3.1479
 4375SOL     OW24760   2.494   2.249   3.954  0.0581  0.4680 -0.4018
 4375SOL    HW124761   2.484   2.310   3.880  0.0791  0.2513 -0.5829
 4375SOL    HW224762   2.588   2.263   3.965  0.0680 -0.1647  0.2635
 4376SOL     OW24763   3.624   0.966   6.769  0.3497 -0.2709  0.4172
 4376SOL    HW124764   3.612   0.882   6.812  2.9000 -0.8080  0.0998
 4376SOL    HW224765   3.692   0.938   6.707  0.7967  1.9100 -0.0742
 4377SOL     OW24766   3.702   2.173  13.608 -0.0161  0.9843 -0.0301
 4377SOL    HW124767   3.796   2.188  13.614  0.0851  0.8089 -1.0777
 4377SOL    HW224768   3.678   2.216  13.690 -2.9086  0.0145 -0.3812
 4378SOL     OW24769   0.621   4.044  15.895  0.4893 -0.4283  0.5503
 4378SOL    HW124770   0.599   3.963  15.848 -1.2290 -0.2269  1.0178
 4378SOL    HW224771   0.534   4.082  15.895  1.1761  1.1578  1.8911
 4379SOL     OW24772   3.043   0.161   5.032 -0.2688 -0.5774 -0.0507
 4379SOL    HW124773   3.090   0.110   4.966 -1.3021  1.4005 -2.3172
 4379SOL    HW224774   3.023   0.091   5.093  0.4846 -0.6798  0.0855
 4380SOL     OW24775   1.654   0.139   6.731  0.0120 -0.3987 -0.2882
 4380SOL    HW124776   1.655   0.105   6.821 -0.8395 -1.4227 -0.6637
 4380SOL    HW224777   1.745   0.153   6.704  0.0685  0.0239  0.1216
 4381SOL     OW24778   0.301   4.485   7.214 -0.3284  0.3518  0.0211
 4381SOL    HW124779   0.376   4.439   7.176  1.4515  2.4220  1.0445
 4381SOL    HW224780   0.342   4.571   7.218 -1.0696  0.7086 -0.0984
 4382SOL     OW24781   2.618   2.777  10.929  0.0612 -0.6709 -0.0772
 4382SOL    HW124782   2.659   2.863  10.941 -2.9603  0.9122 -1.0985
 4382SOL    HW224783   2.612   2.749  11.020 -1.9280 -2.1672 -0.6676
 4383SOL     OW24784   4.157   3.911   2.848  0.2831 -0.2968 -0.7476
 4383SOL    HW124785   4.190   3.822   2.835  2.1890  0.3307 -0.2450
 4383SOL    HW224786   4.211   3.967   2.792  1.2563 -0.8965 -0.4094
 4384SOL     OW24787   3.986   3.149   1.005 -0.5331  0.0191  0.1285
 4384SOL    HW124788   3.966   3.200   0.927  1.6629 -0.9620 -1.0708
 4384SOL    HW224789   3.925   3.080   0.981 -0.9703  0.6207 -0.4808
 4385SOL     OW24790   3.672   2.316  16.005 -0.0820 -0.9257 -0.2815
 4385SOL    HW124791   3.741   2.337  16.068 -0.1267 -2.2376  0.2192
 4385SOL    HW224792   3.684   2.390  15.946  1.0916  0.0047  1.1340
 4386SOL     OW24793   1.539   1.881   5.697 -0.0878 -0.7365 -0.3033
 4386SOL    HW124794   1.487   1.805   5.672 -1.7156  0.3291 -0.2113
 4386SOL    HW224795   1.567   1.904   5.608 -0.0585 -1.2945 -0.4371
 4387SOL     OW24796   3.437   0.416  14.385  0.3747  0.6054 -0.5730
 4387SOL    HW124797   3.368   0.380  14.328 -0.1635  1.5517 -0.5222
 4387SOL    HW224798   3.510   0.417  14.324  0.9968 -0.1054  0.1567
 4388SOL     OW24799   0.946   0.166  15.720  1.2203  0.2968  0.2407
 4388SOL    HW124800   1.039   0.145  15.728  0.7962 -2.5503 -2.3643
 4388SOL    HW224801   0.949   0.246  15.773  0.5073 -0.6769  1.7599
 4389SOL     OW24802   2.325   0.692   9.304 -0.2163  0.0835  0.0923
 4389SOL    HW124803   2.414   0.720   9.280 -0.2731  0.0967 -0.1051
 4389SOL    HW224804   2.328   0.608   9.258  1.8821  1.3841 -2.1378
 4390SOL     OW24805   3.189   0.972   2.097  0.7117 -0.3540  0.4176
 4390SOL    HW124806   3.167   1.059   2.064 -2.3936 -1.3081 -0.0101
 4390SOL    HW224807   3.122   0.916   2.058  0.6961  0.5591 -0.8759
 4391SOL     OW24808   4.192   3.431  13.179 -0.1008  0.0823 -0.3521
 4391SOL    HW124809   4.183   3.380  13.099 -1.0928  0.6349 -0.5982
 4391SOL    HW224810   4.271   3.389  13.212  0.8268  2.2765  0.2713
 4392SOL     OW24811   1.580   3.531   3.600  0.2170  0.2115  0.0906
 4392SOL    HW124812   1.646   3.551   3.666  1.1787  1.7148 -1.3119
 4392SOL    HW224813   1.501   3.574   3.634 -0.1218  0.1216 -0.5837
 4393SOL     OW24814   4.349   0.866   1.363 -0.5061  0.9363 -0.5727
 4393SOL    HW124815   4.354   0.919   1.284 -0.8690  0.2929 -1.0338
 4393SOL    HW224816   4.261   0.883   1.396  0.4611  2.0406  1.3887
 4394SOL     OW24817   2.199   2.453   6.082 -0.0736  0.3248 -0.1217
 4394SOL    HW124818   2.291   2.479   6.079  0.4769 -1.5028  1.0413
 4394SOL    HW224819   2.190   2.385   6.148  0.9499 -0.0518 -0.3808
 4395SOL     OW24820   0.844   2.713  15.375  0.4364 -0.0513  0.0770
 4395SOL    HW124821   0.779   2.784  15.381  1.6749  1.1064 -0.4360
 4395SOL    HW224822   0.890   2.741  15.297 -0.5185  0.5610 -0.2723
 4396SOL     OW24823   2.012   4.676   6.774 -0.4750  0.0497 -0.0184
 4396SOL    HW124824   1.985   4.596   6.729  0.2855 -0.4790  0.4648
 4396SOL    HW224825   2.034   4.634   6.857  1.7403 -1.6958 -1.4717
 4397SOL     OW24826   1.203   3.118   0.094  0.3582  0.0337  0.1499
 4397SOL    HW124827   1.237   3.033   0.065 -2.4476 -0.8899 -0.4536
 4397SOL    HW224828   1.244   3.171   0.025  2.5789  1.3397  2.4975
 4398SOL     OW24829   2.118   4.181   8.317  0.2448  0.0587  0.0704
 4398SOL    HW124830   2.171   4.251   8.354  0.3989 -0.0845  0.1195
 4398SOL    HW224831   2.096   4.223   8.234  0.0285  1.3641  0.7750
 4399SOL     OW24832   4.496   3.785   9.176 -0.6846 -0.3414 -0.0344
 4399SOL    HW124833   4.471   3.825   9.260 -3.2439  1.2817 -1.5776
 4399SOL    HW224834   4.516   3.698   9.209 -2.6036 -1.5800 -2.1530
 4400SOL     OW24835   3.485   3.446   6.288 -0.1482 -0.1601  0.8202
 4400SOL    HW124836   3.435   3.408   6.216 -0.6571  0.6092  0.7677
 4400SOL    HW224837   3.538   3.372   6.318  1.1810  1.6339  2.8694
 4401SOL     OW24838   0.143   1.926   2.090 -0.0937  0.1690 -0.1081
 4401SOL    HW124839   0.118   1.979   2.166 -2.6202  0.1140 -0.9018
 4401SOL    HW224840   0.147   1.837   2.125  1.3690 -0.5103 -2.0347
 4402SOL     OW24841   1.616   2.106   8.082 -0.3808 -0.0376 -0.0738
 4402SOL    HW124842   1.675   2.073   8.014  0.2466  3.0800 -1.0058
 4402SOL    HW224843   1.556   2.152   8.023 -1.9788 -0.7493  0.9808
 4403SOL     OW24844   1.977   2.885   2.095 -0.3802 -0.0093 -0.4488
 4403SOL    HW124845   1.885   2.909   2.100 -0.2619  0.4996 -0.6540
 4403SOL    HW224846   2.009   2.927   2.174  1.1635 -0.3709 -0.8636
 4404SOL     OW24847   2.163   1.821   8.941  0.6868  0.1432 -0.0400
 4404SOL    HW124848   2.226   1.810   8.869 -1.8487 -1.2648 -2.0204
 4404SOL    HW224849   2.076   1.820   8.902  1.7500 -0.1857 -2.4192
 4405SOL     OW24850   1.535   4.570  13.090 -0.3952 -0.1168  0.0068
 4405SOL    HW124851   1.462   4.520  13.127 -0.8713 -0.6056 -1.6151
 4405SOL    HW224852   1.484   4.639  13.047 -1.1078 -1.8607 -1.9635
 4406SOL     OW24853   1.590   4.038   5.106  0.0547  0.9402 -0.7364
 4406SOL    HW124854   1.679   4.003   5.112 -0.9364 -1.3872  0.2334
 4406SOL    HW224855   1.559   4.003   5.023  2.4536 -0.1073 -1.2134
 4407SOL     OW24856   0.196   3.487   8.705 -0.2727  0.1514 -0.0448
 4407SOL    HW124857   0.130   3.554   8.689 -0.9865 -0.4848  0.2417
 4407SOL    HW224858   0.188   3.481   8.801 -1.0676 -1.6972 -0.2197
 4408SOL     OW24859   3.763   2.991  15.644  0.0215  0.2781 -0.1145
 4408SOL    HW124860   3.718   3.000  15.728  1.5346 -0.3063  0.7690
 4408SOL    HW224861   3.803   3.077  15.661  0.1971  0.0306  0.7060
 4409SOL     OW24862   3.095   4.338   2.137  0.0172  0.1190 -0.0168
 4409SOL    HW124863   3.089   4.372   2.048  0.8753 -0.7667 -0.4109
 4409SOL    HW224864   3.184   4.367   2.158 -0.2693  0.3100  0.9258
 4410SOL     OW24865   4.275   1.997  11.824  0.8764 -0.1526  0.1410
 4410SOL    HW124866   4.314   2.057  11.761  0.9465  1.2855  1.5619
 4410SOL    HW224867   4.214   2.053  11.872 -0.1168 -1.4826  0.4307
 4411SOL     OW24868   4.097   2.950   3.425  0.3692 -0.0642  0.2564
 4411SOL    HW124869   4.182   2.924   3.389 -0.1678 -0.0917 -0.9934
 4411SOL    HW224870   4.049   2.868   3.430 -1.0545  0.6548 -1.6630
 4412SOL     OW24871   3.852   4.570   6.572  0.3100 -0.4126 -0.0113
 4412SOL    HW124872   3.824   4.651   6.529  0.2323  0.1920  1.1809
 4412SOL    HW224873   3.888   4.598   6.656  1.5982 -0.6161 -0.4912
 4413SOL     OW24874   2.076   0.709   1.983  0.4231 -0.0015 -0.1544
 4413SOL    HW124875   2.016   0.783   1.984  0.2993 -0.0890 -1.4826
 4413SOL    HW224876   2.048   0.674   1.899  1.5671 -2.0669  0.3018
 4414SOL     OW24877   0.321   2.116   7.033  0.0926 -0.0634 -0.2517
 4414SOL    HW124878   0.331   2.021   7.025  0.4335 -0.1858  1.6242
 4414SOL    HW224879   0.364   2.139   6.950  1.9367 -2.1259  0.1284
 4415SOL     OW24880   3.346   1.119  10.665  0.2066  0.7709 -0.1869
 4415SOL    HW124881   3.414   1.179  10.696  1.4218  0.4655 -2.2356
 4415SOL    HW224882   3.394   1.050  10.620  0.1132 -0.5564  1.7536
 4416SOL     OW24883   1.074   3.043   4.361 -0.1815  0.1594  0.0044
 4416SOL    HW124884   1.100   2.966   4.311 -0.1823  0.8905 -1.1332
 4416SOL    HW224885   1.153   3.095   4.374 -0.5070  0.3013  1.4266
 4417SOL     OW24886   1.350   0.434   4.536 -0.4807  0.0879  0.7643
 4417SOL    HW124887   1.350   0.480   4.620 -0.3090 -1.2114  1.4752
 4417SOL    HW224888   1.358   0.350   4.580  1.6070  0.0928  0.3866
 4418SOL     OW24889   2.117   4.303   1.806 -0.4959  1.0297  0.1601
 4418SOL    HW124890   2.090   4.369   1.869 -2.0708 -0.7571  1.3545
 4418SOL    HW224891   2.074   4.223   1.836 -0.2250  1.5534  1.9020
 4419SOL     OW24892   4.385   0.728   9.409 -0.0627  0.3531 -0.0426
 4419SOL    HW124893   4.293   0.754   9.412 -0.3106 -0.4696 -0.7905
 4419SOL    HW224894   4.418   0.801   9.462  1.8319  0.1944 -0.9887
 4420SOL     OW24895   3.198   2.120   2.334  0.2024  0.2543  0.4740
 4420SOL    HW124896   3.222   2.028   2.339 -0.6902  0.0602  1.2234
 4420SOL    HW224897   3.281   2.167   2.326  0.2236  0.2816  0.8542
 4421SOL     OW24898   2.133   4.378  10.116 -0.1737 -0.0669  0.3065
 4421SOL    HW124899   2.213   4.333  10.143 -0.2352 -0.4590 -0.1687
 4421SOL    HW224900   2.064   4.339  10.171  0.1827  0.3067  1.0113
 4422SOL     OW24901   2.358   0.326  12.620  0.0395  0.3502 -0.5686
 4422SOL    HW124902   2.417   0.377  12.676  0.4035 -0.9144  0.1937
 4422SOL    HW224903   2.358   0.241  12.664  0.6772  0.2130 -0.8298
 4423SOL     OW24904   3.644   3.067  17.373  0.6713 -0.2349  0.3627
 4423SOL    HW124905   3.549   3.065  17.380  0.5999  0.3913 -0.4542
 4423SOL    HW224906   3.659   3.151  17.329 -0.9766  0.4226  1.0725
 4424SOL     OW24907   4.569   3.285   8.904  0.0636 -0.2402 -0.5279
 4424SOL    HW124908   4.586   3.198   8.940  1.1235  0.3501  0.3792
 4424SOL    HW224909   4.651   3.334   8.915  0.1305 -0.2714 -0.8773
 4425SOL     OW24910   2.501   0.406   7.461  0.0847  0.5203 -0.2206
 4425SOL    HW124911   2.485   0.360   7.379  0.2927 -0.1208  0.0990
 4425SOL    HW224912   2.591   0.425   7.437 -0.1270  0.1905 -1.2732
 4426SOL     OW24913   1.734   0.696   4.360  0.1884 -0.2601 -0.0998
 4426SOL    HW124914   1.649   0.652   4.366  0.3578 -0.5511  0.1679
 4426SOL    HW224915   1.714   0.772   4.307 -2.4406 -3.1004 -3.2024
 4427SOL     OW24916   1.384   0.016   8.970 -0.2964 -0.1913  0.4533
 4427SOL    HW124917   1.369   0.060   8.886 -0.4540 -0.9002  0.1091
 4427SOL    HW224918   1.469   4.710   8.952 -0.1369 -0.2747  1.4261
 4428SOL     OW24919   1.164   1.628  15.417 -0.0760 -0.4236 -0.0679
 4428SOL    HW124920   1.157   1.690  15.344 -0.5620 -0.2627  0.1183
 4428SOL    HW224921   1.175   1.541  15.379  0.2697  0.2426 -1.5179
 4429SOL     OW24922   2.119   0.454  10.493 -0.0495  0.2105  0.2237
 4429SOL    HW124923   2.063   0.405  10.553 -1.0165  1.0845  0.0474
 4429SOL    HW224924   2.065   0.447  10.414 -0.3264  0.0725  0.4238
 4430SOL     OW24925   2.913   2.193   8.709 -0.0909 -0.7760 -0.4578
 4430SOL    HW124926   2.951   2.189   8.797  1.8991 -3.2694 -1.4548
 4430SOL    HW224927   2.841   2.256   8.716  0.4965 -0.4462  2.7378
 4431SOL     OW24928   4.098   0.562   3.468  0.2130  0.3458  1.3497
 4431SOL    HW124929   4.037   0.494   3.495 -0.5061  0.7008  0.6201
 4431SOL    HW224930   4.050   0.615   3.404  0.7181  1.9777  2.3332
 4432SOL     OW24931   3.186   2.180   3.467  0.0777 -0.0476 -0.3719
 4432SOL    HW124932   3.142   2.264   3.477 -0.7648 -0.4969 -0.2613
 4432SOL    HW224933   3.216   2.190   3.377  2.8257 -1.0735  0.4417
 4433SOL     OW24934   1.950   3.569   2.351 -0.0696 -0.0763  0.4647
 4433SOL    HW124935   1.888   3.608   2.413 -0.2327 -0.3615  0.4818
 4433SOL    HW224936   2.027   3.622   2.373 -0.2681  0.5325 -0.3136
 4434SOL     OW24937   4.255   4.097  14.127  0.1198  0.4365  0.0361
 4434SOL    HW124938   4.206   4.120  14.206 -1.1961  2.2569 -1.3188
 4434SOL    HW224939   4.194   4.029  14.097  0.5265 -0.1684  0.5945
 4435SOL     OW24940   1.337   0.957   2.931  0.1569  0.1388 -0.0321
 4435SOL    HW124941   1.298   1.044   2.921  1.0351  0.4818 -0.4490
 4435SOL    HW224942   1.274   0.898   2.888 -0.0844  2.0854 -2.3373
 4436SOL     OW24943   3.764   0.259   1.757  0.8013  0.4312 -0.1400
 4436SOL    HW124944   3.670   0.246   1.763  0.6173  1.2381 -1.2192
 4436SOL    HW224945   3.786   0.216   1.675  2.8141  2.2064 -0.5405
 4437SOL     OW24946   1.241   2.338   5.225  0.4869 -0.3670 -0.3464
 4437SOL    HW124947   1.244   2.303   5.314 -0.4811 -0.3036 -0.2891
 4437SOL    HW224948   1.328   2.320   5.189 -0.0027 -0.5170 -1.4463
 4438SOL     OW24949   0.109   1.688  11.513 -0.0673  0.4287  0.5561
 4438SOL    HW124950   0.017   1.693  11.538  0.0045  0.0451  0.8957
 4438SOL    HW224951   0.154   1.756  11.563  0.7979  0.0836  0.2423
 4439SOL     OW24952   0.383   0.914   6.931  0.0552  0.0054  0.7356
 4439SOL    HW124953   0.295   0.931   6.965 -0.6607  0.1648 -1.1553
 4439SOL    HW224954   0.430   0.941   7.009  0.6707  1.1611 -0.0265
 4440SOL     OW24955   2.151   0.015   4.096  0.0200  0.4659  0.2946
 4440SOL    HW124956   2.093   0.038   4.023  0.3570  1.6839  0.4200
 4440SOL    HW224957   2.153   0.100   4.140  2.3151  0.6441 -0.2016
 4441SOL     OW24958   1.970   2.313   3.877  0.5729 -0.2824 -0.1045
 4441SOL    HW124959   1.950   2.321   3.970 -2.8086  2.5217 -1.0867
 4441SOL    HW224960   2.065   2.305   3.888  0.8274  1.3396 -1.2517
 4442SOL     OW24961   0.289   3.055   2.656 -0.5560 -0.2007 -0.7805
 4442SOL    HW124962   0.323   3.123   2.714 -0.1662  1.2240 -2.6847
 4442SOL    HW224963   0.265   3.100   2.575 -0.1992 -0.9238 -1.2907
 4443SOL     OW24964   3.906   2.106   3.702  0.1971 -0.6404  0.4537
 4443SOL    HW124965   3.965   2.175   3.734  0.9239 -1.5166  1.0007
 4443SOL    HW224966   3.948   2.086   3.619  2.4544 -0.0692  1.4461
 4444SOL     OW24967   2.573   4.404   6.834 -0.6221 -0.1121 -0.1744
 4444SOL    HW124968   2.518   4.327   6.846 -1.2283  0.6116  1.7485
 4444SOL    HW224969   2.519   4.478   6.807 -0.0634 -0.0229 -1.0473
 4445SOL     OW24970   1.356   4.109   4.036 -0.1464 -0.3425  0.1783
 4445SOL    HW124971   1.342   4.174   4.105  1.1330  1.5071 -1.2648
 4445SOL    HW224972   1.421   4.053   4.077 -0.0735  1.4149  2.4654
 4446SOL     OW24973   3.341   0.157   4.227  0.2018 -0.4997  0.1277
 4446SOL    HW124974   3.427   0.159   4.185  0.2496  0.5686  0.2734
 4446SOL    HW224975   3.312   0.246   4.206  1.7635  0.7211  3.1653
 4447SOL     OW24976   0.849   3.022   3.342  0.4356 -0.4364  0.2531
 4447SOL    HW124977   0.819   3.112   3.342 -0.6405 -0.7901  1.8669
 4447SOL    HW224978   0.770   2.967   3.346  0.1647 -0.0663 -0.0283
 4448SOL     OW24979   2.008   1.464   4.672 -0.0924  0.2383 -0.7007
 4448SOL    HW124980   2.058   1.396   4.626 -0.7732 -0.7325 -0.0256
 4448SOL    HW224981   2.008   1.415   4.754 -0.5084  3.0044  0.9349
 4449SOL     OW24982   0.462   0.560   6.433 -0.6569 -0.6798 -0.6744
 4449SOL    HW124983   0.533   0.502   6.407 -2.3486 -2.6023 -1.0911
 4449SOL    HW224984   0.455   0.558   6.529  0.2259 -1.4264 -0.6197
 4450SOL     OW24985   0.398   2.296  16.427 -0.6194 -0.3241  0.0236
 4450SOL    HW124986   0.346   2.300  16.347  3.2507  1.1807 -2.4036
 4450SOL    HW224987   0.390   2.201  16.432 -0.6945 -0.2956  0.4560
 4451SOL     OW24988   4.209   3.443   4.900  0.6871 -0.0942 -0.0887
 4451SOL    HW124989   4.188   3.475   4.812 -2.3255  0.3225  0.7853
 4451SOL    HW224990   4.245   3.355   4.885 -1.1727 -0.0949 -4.3953
 4452SOL     OW24991   1.019   1.087   8.191  0.2241 -0.5117 -0.5376
 4452SOL    HW124992   1.063   1.140   8.125 -0.7569  2.1880  0.9511
 4452SOL    HW224993   1.007   1.010   8.136 -0.0717 -1.2356  0.5443
 4453SOL     OW24994   0.606   1.961   2.891  0.3151 -0.0692  0.2572
 4453SOL    HW124995   0.511   1.968   2.900  0.2255 -1.1508  0.1291
 4453SOL    HW224996   0.625   1.888   2.951 -0.2727  0.0418  0.5763
 4454SOL     OW24997   2.722   3.116   7.847  0.2451 -0.3692  0.6640
 4454SOL    HW124998   2.777   3.194   7.850  0.3510 -0.4235  0.1774
 4454SOL    HW224999   2.790   3.048   7.847 -0.4347 -1.0525  1.6069
 4455SOL     OW25000   0.084   2.639   5.426 -0.1271 -0.3041 -0.5161
 4455SOL    HW125001   0.080   2.725   5.467 -1.7883 -0.8459  0.4412
 4455SOL    HW225002   0.179   2.624   5.425 -0.4460 -2.2652 -2.1685
 4456SOL     OW25003   3.539   2.845   8.325  0.3851 -0.0756 -0.0656
 4456SOL    HW125004   3.599   2.839   8.251  0.7297 -0.6312  0.2520
 4456SOL    HW225005   3.458   2.856   8.276  1.7485  0.0102 -2.3158
 4457SOL     OW25006   3.030   0.579   8.305  0.0589 -0.3330 -0.4948
 4457SOL    HW125007   2.958   0.619   8.256 -1.3966  1.3286  3.0651
 4457SOL    HW225008   3.079   0.538   8.233  1.3207 -0.6466  0.5290
 4458SOL     OW25009   3.092   4.629   9.527 -0.0968 -0.1147  0.2764
 4458SOL    HW125010   3.001   4.642   9.498 -0.1591 -0.0740  0.4909
 4458SOL    HW225011   3.134   4.568   9.466 -2.7260 -1.7731  0.1123
 4459SOL     OW25012   2.056   1.875  11.111  0.7654 -0.2469 -0.2899
 4459SOL    HW125013   2.072   1.794  11.160  2.1571 -0.6560 -1.4009
 4459SOL    HW225014   2.143   1.911  11.130 -0.9749  2.7335  1.8156
 4460SOL     OW25015   1.710   3.483   7.112  0.0055 -0.5123  0.4658
 4460SOL    HW125016   1.684   3.472   7.204 -1.3977 -2.1293 -0.1277
 4460SOL    HW225017   1.670   3.402   7.081  0.1524  0.2214 -1.5841
 4461SOL     OW25018   3.860   0.260   6.350 -0.2418 -0.5513 -0.5243
 4461SOL    HW125019   3.855   0.165   6.341  1.0039 -0.6294 -0.3974
 4461SOL    HW225020   3.829   0.278   6.439  1.9363  0.1250  0.0930
 4462SOL     OW25021   1.925   1.667   7.924 -0.4705  0.5173 -0.2831
 4462SOL    HW125022   1.901   1.600   7.988 -1.6006  0.0596 -1.1818
 4462SOL    HW225023   1.855   1.671   7.859 -0.6060 -0.2798 -0.1834
 4463SOL     OW25024   3.741   4.283   1.427 -0.3345 -0.4816  0.0013
 4463SOL    HW125025   3.734   4.188   1.440 -0.5376 -0.3779  0.6453
 4463SOL    HW225026   3.745   4.285   1.331  0.1001 -1.0380  0.0110
 4464SOL     OW25027   1.127   3.697   1.051 -0.0977 -0.0548 -0.1394
 4464SOL    HW125028   1.179   3.711   0.971  2.5149  1.4057  1.8090
 4464SOL    HW225029   1.095   3.786   1.065 -0.6538 -0.0895 -1.1654
 4465SOL     OW25030   0.065   1.105   8.554 -0.0230  0.3901  0.1877
 4465SOL    HW125031   0.062   1.139   8.643  0.8530 -1.8272  1.0577
 4465SOL    HW225032   4.727   1.145   8.506  1.0106 -1.4683 -2.9427
 4466SOL     OW25033   2.356   1.914   3.456 -0.8541 -0.2234 -0.3258
 4466SOL    HW125034   2.443   1.934   3.420 -2.4194  0.3254 -3.8359
 4466SOL    HW225035   2.301   1.979   3.411 -1.6661 -1.6324 -1.3628
 4467SOL     OW25036   4.424   4.425   2.517  0.6137  0.4741 -0.1068
 4467SOL    HW125037   4.461   4.513   2.513 -1.2020  1.2622  0.4475
 4467SOL    HW225038   4.334   4.438   2.547  0.7192 -0.6878  0.7060
 4468SOL     OW25039   2.612   0.020   5.293 -0.2663 -0.2627 -0.0316
 4468SOL    HW125040   2.597   0.077   5.369  2.4813  0.8600 -0.3489
 4468SOL    HW225041   2.683   0.069   5.252  1.3671 -2.0567  0.6879
 4469SOL     OW25042   1.486   1.469   3.870  0.2945  0.3074  0.9180
 4469SOL    HW125043   1.426   1.537   3.839 -1.0364 -2.3405 -2.3176
 4469SOL    HW225044   1.488   1.412   3.793  2.7295 -0.2565  1.3808
 4470SOL     OW25045   0.449   0.284   3.444  0.3059 -0.2145  0.2572
 4470SOL    HW125046   0.382   0.353   3.447  1.1300  0.6281 -0.4010
 4470SOL    HW225047   0.466   0.266   3.536 -1.7318 -0.2274  0.6305
 4471SOL     OW25048   4.084   1.399   2.846 -0.0930 -0.0576 -0.5956
 4471SOL    HW125049   4.175   1.375   2.863  0.4624  2.5363  0.0353
 4471SOL    HW225050   4.050   1.422   2.932 -1.3826 -1.1126 -0.8112
 4472SOL     OW25051   2.323   0.436   5.054 -0.4785 -0.2234 -0.1680
 4472SOL    HW125052   2.416   0.414   5.065 -0.5561 -1.0297 -1.0393
 4472SOL    HW225053   2.278   0.360   5.091 -2.4250  0.9334 -0.1538
 4473SOL     OW25054   3.138   4.377   5.000  0.2157 -0.4841  0.2113
 4473SOL    HW125055   3.162   4.311   4.935 -0.3243 -0.3316 -0.1364
 4473SOL    HW225056   3.197   4.364   5.075 -0.6076  0.8424  1.0908
 4474SOL     OW25057   2.280   1.429   9.037 -0.4095  0.2025  0.2803
 4474SOL    HW125058   2.299   1.389   9.122  0.0747  2.4629  1.2370
 4474SOL    HW225059   2.185   1.423   9.026 -0.5726  1.6508  0.8965
 4475SOL     OW25060   4.266   3.654   5.079 -0.2343  0.5834  0.2664
 4475SOL    HW125061   4.258   3.712   5.003 -0.4210 -2.0752 -1.7102
 4475SOL    HW225062   4.276   3.572   5.032 -0.2461  1.8852 -2.0250
 4476SOL     OW25063   1.641   4.236   2.902  0.0928  0.4229 -0.7564
 4476SOL    HW125064   1.662   4.302   2.968  0.5822 -1.7390  1.2171
 4476SOL    HW225065   1.713   4.258   2.843  1.1394 -1.1536 -0.0390
 4477SOL     OW25066   3.709   2.948   0.426  0.3021 -0.2777  0.1543
 4477SOL    HW125067   3.692   2.854   0.430 -1.6711 -0.0097 -1.6685
 4477SOL    HW225068   3.777   2.944   0.359  0.3934 -0.2569  0.2475
 4478SOL     OW25069   2.925   1.995   8.123 -0.2220  0.1048  0.0419
 4478SOL    HW125070   2.932   2.089   8.106 -2.0600  0.4720  1.2587
 4478SOL    HW225071   2.922   1.963   8.033  0.1030 -2.5715  1.0040
 4479SOL     OW25072   3.502   3.446   7.982  0.8346  0.0660  0.1383
 4479SOL    HW125073   3.562   3.476   8.050  0.3622 -1.7353  1.3585
 4479SOL    HW225074   3.436   3.515   7.980 -2.1453 -2.7918 -0.8181
 4480SOL     OW25075   1.225   4.681   9.356 -0.4230 -0.2050  0.1669
 4480SOL    HW125076   1.301   4.697   9.412  0.0234 -0.5423 -0.3434
 4480SOL    HW225077   1.198   4.591   9.375 -0.5484 -0.3368 -0.6416
 4481SOL     OW25078   0.391   1.377   3.431 -0.5114 -0.3344  0.0765
 4481SOL    HW125079   0.448   1.304   3.455 -0.0404  0.4772  1.5072
 4481SOL    HW225080   0.401   1.434   3.508 -1.5614 -0.0463  0.0006
 4482SOL     OW25081   3.389   3.545  15.059 -0.4174 -0.1272  0.0851
 4482SOL    HW125082   3.466   3.529  15.114  1.7542  2.4559 -2.2800
 4482SOL    HW225083   3.386   3.640  15.058  0.1074 -0.1202 -0.4685
 4483SOL     OW25084   0.705   3.818   7.093  0.2724 -0.5003 -0.2927
 4483SOL    HW125085   0.759   3.808   7.171 -2.0669  1.0421  1.4916
 4483SOL    HW225086   0.773   3.805   7.027  0.0153  1.9454 -1.0636
 4484SOL     OW25087   2.517   2.298   6.886  0.2060  0.6740  0.0320
 4484SOL    HW125088   2.428   2.264   6.872 -0.3748  0.8140  3.4657
 4484SOL    HW225089   2.525   2.295   6.981 -0.7669 -0.6358  0.0778
 4485SOL     OW25090   2.545   3.091   6.240 -0.0559  0.0743 -0.3517
 4485SOL    HW125091   2.640   3.101   6.238 -0.2930  2.2375 -1.1824
 4485SOL    HW225092   2.532   3.008   6.285  1.5033 -0.5360 -1.0084
 4486SOL     OW25093   2.603   1.223  14.885  0.3398 -0.2991  0.2532
 4486SOL    HW125094   2.554   1.141  14.874  0.8399 -0.3875 -1.3715
 4486SOL    HW225095   2.696   1.198  14.890  0.4476  0.6820  3.0937
 4487SOL     OW25096   0.072   4.628   3.746  0.2801  0.3515  0.3903
 4487SOL    HW125097   0.107   4.562   3.806  0.6811 -1.3808 -1.7575
 4487SOL    HW225098   0.085   4.706   3.799 -3.1699  1.5584 -0.5053
 4488SOL     OW25099   0.216   2.656   7.959  0.1745 -0.1476 -0.0383
 4488SOL    HW125100   0.199   2.741   7.998 -1.6982 -0.0789 -0.9819
 4488SOL    HW225101   0.135   2.647   7.909 -0.4206 -0.2216  0.9406
 4489SOL     OW25102   0.950   3.610   2.145  0.2183  0.1024 -0.2891
 4489SOL    HW125103   0.944   3.525   2.188 -2.7148 -0.3512 -1.5744
 4489SOL    HW225104   1.043   3.599   2.125  1.0481  3.0105  1.9536
 4490SOL     OW25105   2.810   1.166   6.164  0.8195 -0.2920 -0.0204
 4490SOL    HW125106   2.845   1.249   6.131 -2.7845  1.4258  0.5495
 4490SOL    HW225107   2.826   1.111   6.087 -3.4193 -0.5933 -0.6771
 4491SOL     OW25108   3.878   2.939  17.416  0.5856  0.3003 -0.7866
 4491SOL    HW125109   3.788   2.972  17.414  0.3971 -0.1506  0.8549
 4491SOL    HW225110   3.870   2.845  17.400 -1.0052 -0.0240  2.0097
 4492SOL     OW25111   2.524   3.861   7.345 -0.3650  0.0096  0.3493
 4492SOL    HW125112   2.537   3.804   7.421 -0.2593 -0.5687 -0.1019
 4492SOL    HW225113   2.575   3.816   7.278  0.9737 -0.6393  1.8116
 4493SOL     OW25114   0.398   0.842   3.699 -0.8345 -0.0049  0.0287
 4493SOL    HW125115   0.303   0.832   3.706 -0.7366 -0.4226  0.7078
 4493SOL    HW225116   0.421   0.915   3.756  0.0201 -1.0694  1.0484
 4494SOL     OW25117   1.074   0.179   6.138 -0.6360  0.1696 -0.2632
 4494SOL    HW125118   1.019   0.143   6.208  2.2627  0.4210  2.1620
 4494SOL    HW225119   1.121   0.099   6.114  2.6957  1.8714  0.6632
 4495SOL     OW25120   4.653   3.915   1.632 -0.2752 -0.3505 -0.1758
 4495SOL    HW125121   4.598   3.885   1.705 -0.5838  1.6053  0.4043
 4495SOL    HW225122   4.691   3.828   1.620  0.0932 -0.2749  0.4124
 4496SOL     OW25123   2.801   1.552  17.309 -0.0752 -0.2039  0.4820
 4496SOL    HW125124   2.840   1.616  17.368 -1.3520  1.0540 -0.0157
 4496SOL    HW225125   2.721   1.531  17.357 -0.0342  2.0477  1.5350
 4497SOL     OW25126   2.187   4.511   6.441  0.2525 -0.5781  0.5614
 4497SOL    HW125127   2.175   4.445   6.373  0.8472  1.5778 -1.5950
 4497SOL    HW225128   2.279   4.532   6.425  0.4500 -1.5699  0.3755
 4498SOL     OW25129   2.350   0.524  13.673  0.4626 -0.0143  0.1422
 4498SOL    HW125130   2.307   0.442  13.651  0.8280 -0.1045 -0.2361
 4498SOL    HW225131   2.430   0.513  13.620 -0.1784  1.0533 -1.0482
 4499SOL     OW25132   1.810   4.029   3.395  0.0737  0.1573  0.6265
 4499SOL    HW125133   1.775   4.116   3.378  2.0335  0.8083 -0.0548
 4499SOL    HW225134   1.754   3.982   3.334  1.7853  0.6009 -1.2789
 4500SOL     OW25135   1.338   3.984  12.481  0.6337  0.1427  0.2060
 4500SOL    HW125136   1.298   3.970  12.395 -0.6331 -0.3147  0.8648
 4500SOL    HW225137   1.385   4.067  12.468 -0.5560  0.4032 -2.4856
 4501SOL     OW25138   0.774   2.471   2.419 -0.2089  0.2999 -0.0351
 4501SOL    HW125139   0.774   2.495   2.326 -1.2420 -0.7300 -0.2993
 4501SOL    HW225140   0.730   2.386   2.421  2.9584 -1.3837 -2.4504
 4502SOL     OW25141   3.888   0.315   8.479 -0.0409  0.5041 -0.3119
 4502SOL    HW125142   3.929   0.291   8.562  1.1125  1.4405 -0.6217
 4502SOL    HW225143   3.851   0.230   8.453 -0.3552  0.7389 -0.6388
 4503SOL     OW25144   4.721   3.664   1.603  0.2602  0.2850  0.2297
 4503SOL    HW125145   4.640   3.619   1.628 -1.4541  3.2285 -0.1135
 4503SOL    HW225146   4.734   3.613   1.523  1.4578  0.9961 -0.0253
 4504SOL     OW25147   3.130   3.463   8.065 -0.7301 -0.1843 -0.0496
 4504SOL    HW125148   3.128   3.554   8.037 -2.8381 -0.8098 -1.9817
 4504SOL    HW225149   3.160   3.470   8.156 -1.4326  3.2912 -0.0952
 4505SOL     OW25150   2.664   2.144  17.494 -0.3727  1.0257  0.3149
 4505SOL    HW125151   2.757   2.128  17.512 -0.7571 -1.5169  0.0877
 4505SOL    HW225152   2.633   2.177  17.578 -1.7644  0.8189 -0.1245
 4506SOL     OW25153   0.225   1.893  11.639 -0.2101 -0.2173  0.5649
 4506SOL    HW125154   0.251   1.985  11.647 -0.0431 -0.3288  1.3135
 4506SOL    HW225155   0.272   1.847  11.708 -1.4944 -2.5472 -0.1221
 4507SOL     OW25156   1.427   0.610   9.009 -0.5658 -0.1725 -0.1937
 4507SOL    HW125157   1.456   0.691   9.051 -0.3069 -0.1638 -0.3935
 4507SOL    HW225158   1.497   0.598   8.946 -0.4838  0.2282 -0.1797
 4508SOL     OW25159   0.591   4.297   1.827 -0.6221  0.4290  0.4246
 4508SOL    HW125160   0.645   4.223   1.854  1.3701  0.8092 -2.6169
 4508SOL    HW225161   0.512   4.289   1.881 -1.9850  1.8764 -1.3869
 4509SOL     OW25162   1.569   1.685  14.625  0.2538 -0.4615  1.0063
 4509SOL    HW125163   1.480   1.699  14.658  0.4136 -1.8016  2.0279
 4509SOL    HW225164   1.562   1.639  14.541 -0.6880  1.6741 -0.0654
 4510SOL     OW25165   1.519   4.062   9.126  0.5766  0.5417 -0.1376
 4510SOL    HW125166   1.511   3.969   9.143  3.5452  0.6784  2.0418
 4510SOL    HW225167   1.596   4.095   9.172  1.9626 -0.7381 -1.5680
 4511SOL     OW25168   3.631   2.503   4.238 -0.3184  0.4040 -1.0150
 4511SOL    HW125169   3.587   2.519   4.155 -2.2718  2.1098  0.3478
 4511SOL    HW225170   3.684   2.582   4.245  2.1763 -1.3215 -0.2352
 4512SOL     OW25171   1.303   1.776   5.165 -0.1216 -0.1526 -0.1390
 4512SOL    HW125172   1.240   1.766   5.237 -0.4255 -0.9946 -0.5309
 4512SOL    HW225173   1.350   1.696   5.186 -0.0913  0.0681  0.6698
 4513SOL     OW25174   3.975   0.479   2.716  0.1487 -0.2613  0.1820
 4513SOL    HW125175   3.951   0.438   2.633  0.1267  1.5063 -0.6843
 4513SOL    HW225176   3.910   0.548   2.727  1.3322  0.7174  1.0760
 4514SOL     OW25177   0.049   2.265   4.381  0.0861 -0.1724  0.5740
 4514SOL    HW125178   4.702   2.271   4.431 -0.3707  0.9857 -0.2975
 4514SOL    HW225179   0.099   2.320   4.442  0.9599 -0.0526 -0.2616
 4515SOL     OW25180   2.860   2.720   6.489  0.1459 -0.5697  0.0533
 4515SOL    HW125181   2.822   2.725   6.577  0.7235 -1.1922  0.3475
 4515SOL    HW225182   2.803   2.653   6.453 -0.3416  0.5519 -1.2590
 4516SOL     OW25183   1.081   0.723   5.263  0.8144 -0.1432  0.3774
 4516SOL    HW125184   1.060   0.779   5.338  0.1257  0.8791 -0.5743
 4516SOL    HW225185   1.104   0.785   5.194 -2.7479  0.7183 -0.0207
 4517SOL     OW25186   2.622   1.660  12.654  0.5625  0.1062  0.0303
 4517SOL    HW125187   2.599   1.733  12.597 -0.8779 -0.7008 -0.4289
 4517SOL    HW225188   2.711   1.688  12.678  0.6386 -0.7921  0.7967
 4518SOL     OW25189   1.878   4.495   8.039 -0.2804  0.2661  0.3460
 4518SOL    HW125190   1.788   4.529   8.048  0.8938  3.2417  1.0524
 4518SOL    HW225191   1.899   4.516   7.949  4.2267  0.0676  1.3755
 4519SOL     OW25192   0.246   1.776   2.583  0.0672  0.1715 -0.2404
 4519SOL    HW125193   0.186   1.808   2.516 -0.8521  1.1548  1.0432
 4519SOL    HW225194   0.191   1.792   2.659 -0.4596  1.4552 -0.9008
 4520SOL     OW25195   4.190   3.987   8.618  0.1137  0.3397  0.0403
 4520SOL    HW125196   4.255   3.918   8.604 -1.5185 -1.2924  0.3631
 4520SOL    HW225197   4.139   3.961   8.540  0.2688  0.3133 -0.0512
 4521SOL     OW25198   1.399   1.510   4.184  0.8084 -0.0887 -0.0033
 4521SOL    HW125199   1.343   1.577   4.224  0.8260 -0.0555 -0.0346
 4521SOL    HW225200   1.463   1.562   4.135 -0.4448  1.6979  0.2171
 4522SOL     OW25201   1.843   1.936  11.420 -0.1194 -0.0043 -0.3345
 4522SOL    HW125202   1.929   1.976  11.407 -0.1457  0.9475  2.4943
 4522SOL    HW225203   1.791   1.948  11.340 -0.5803 -2.3539 -0.4076
 4523SOL     OW25204   0.403   2.545   2.283  0.2245 -0.0414  0.0771
 4523SOL    HW125205   0.454   2.575   2.359  0.5627 -0.5602  0.0538
 4523SOL    HW225206   0.464   2.570   2.214 -0.5666 -0.3978 -0.7357
 4524SOL     OW25207   3.240   3.479   8.595 -0.3902  1.0075 -0.3030
 4524SOL    HW125208   3.245   3.571   8.617 -2.8210  1.6042 -2.1179
 4524SOL    HW225209   3.319   3.446   8.638 -1.1178 -0.7267 -0.2587
 4525SOL     OW25210   4.481   3.229   2.395  0.0711  0.6634  0.4750
 4525SOL    HW125211   4.473   3.243   2.300 -2.0255  0.7811  0.6700
 4525SOL    HW225212   4.559   3.277   2.423  0.8372 -0.1428 -0.2420
 4526SOL     OW25213   2.443   1.690   7.482 -0.4256  0.3334  0.2012
 4526SOL    HW125214   2.374   1.633   7.516 -0.1298 -1.0091 -1.4947
 4526SOL    HW225215   2.410   1.776   7.508 -1.4095 -0.3574  1.2192
 4527SOL     OW25216   4.147   3.374  10.827  0.0456  0.6064 -0.0536
 4527SOL    HW125217   4.072   3.343  10.776  1.8642 -2.3313 -0.9760
 4527SOL    HW225218   4.151   3.463  10.792  0.8366  0.1504 -1.1453
 4528SOL     OW25219   4.266   1.553   8.471  0.2735 -0.3930  0.0392
 4528SOL    HW125220   4.291   1.461   8.482 -0.4571 -0.7537 -1.3689
 4528SOL    HW225221   4.277   1.583   8.562  0.0370 -3.6225  1.1466
 4529SOL     OW25222   1.860   3.051   0.546 -0.1075  0.0198  0.3140
 4529SOL    HW125223   1.830   3.099   0.469 -1.1010 -1.0824  0.0061
 4529SOL    HW225224   1.785   3.045   0.606 -1.0388 -1.5327 -0.9963
 4530SOL     OW25225   3.341   0.918   6.687  0.2936  0.0462  0.5831
 4530SOL    HW125226   3.431   0.937   6.714 -0.1254  2.5919  0.2148
 4530SOL    HW225227   3.334   0.824   6.673 -2.0736  0.2727  0.2479
 4531SOL     OW25228   0.690   2.614  15.849  0.1198  0.7014 -0.3514
 4531SOL    HW125229   0.737   2.551  15.904 -0.8348 -1.1946 -1.6887
 4531SOL    HW225230   0.755   2.622  15.779  1.5513 -1.4437  0.7136
 4532SOL     OW25231   4.533   0.105   7.835  0.0717 -0.5223  0.6018
 4532SOL    HW125232   4.465   0.167   7.810 -0.4947 -0.2924  2.7074
 4532SOL    HW225233   4.522   0.119   7.929 -1.7855 -1.2650  0.4895
 4533SOL     OW25234   3.943   2.307   3.039 -0.0104 -0.2953  0.0461
 4533SOL    HW125235   3.866   2.322   2.985 -0.7815  1.3909  1.5940
 4533SOL    HW225236   3.933   2.212   3.046 -1.2016 -0.2089 -0.6205
 4534SOL     OW25237   0.723   3.677   6.791  1.0964  0.1032 -0.1430
 4534SOL    HW125238   0.676   3.748   6.748  0.1269 -0.9364 -0.8030
 4534SOL    HW225239   0.781   3.728   6.847  1.6529  0.4143 -1.0163
 4535SOL     OW25240   4.271   3.279   6.063  0.0108  0.0864  0.0573
 4535SOL    HW125241   4.289   3.218   6.135  0.4741 -2.1776 -1.9878
 4535SOL    HW225242   4.361   3.311   6.052  0.9509 -1.4322  3.2086
 4536SOL     OW25243   3.684   3.540   6.507 -0.1448 -0.0690  0.1070
 4536SOL    HW125244   3.701   3.571   6.596 -0.2352  0.6388 -0.1256
 4536SOL    HW225245   3.601   3.575   6.473 -0.6300 -3.3127 -2.0710
 4537SOL     OW25246   2.158   1.102   4.863  0.3734 -0.0990 -0.8315
 4537SOL    HW125247   2.212   1.037   4.909 -1.7129 -0.2217  1.4407
 4537SOL    HW225248   2.162   1.059   4.778 -2.5380 -1.1124 -0.4507
 4538SOL     OW25249   3.502   3.940   7.738 -0.6460  0.4891 -0.3834
 4538SOL    HW125250   3.579   3.986   7.705 -0.2777 -0.1838 -0.4439
 4538SOL    HW225251   3.442   4.015   7.747 -2.0197 -0.5870 -0.5875
 4539SOL     OW25252   1.086   1.283   4.704  0.1446  0.2958  0.3130
 4539SOL    HW125253   0.991   1.295   4.706  0.3513  2.2288 -1.7177
 4539SOL    HW225254   1.108   1.303   4.613 -0.5060  2.4104  0.6355
 4540SOL     OW25255   2.075   1.602   3.124 -0.5992 -0.0678  0.6218
 4540SOL    HW125256   2.128   1.616   3.202 -3.0586 -3.1347  2.8616
 4540SOL    HW225257   2.091   1.686   3.082  0.5920  0.3395  1.8715
 4541SOL     OW25258   0.543   2.942   6.224 -0.6925 -0.0844 -0.0570
 4541SOL    HW125259   0.470   2.919   6.282 -0.4792  0.7567  0.5495
 4541SOL    HW225260   0.599   2.866   6.240 -0.0761  0.8250  2.2023
 4542SOL     OW25261   0.180   2.928   9.666 -0.8936 -0.0610 -0.3697
 4542SOL    HW125262   0.127   2.983   9.608  0.5373  0.9591 -0.7192
 4542SOL    HW225263   0.158   2.842   9.631  0.2282 -0.3490 -0.3416
 4543SOL     OW25264   2.497   4.354   8.529 -0.3703  0.5814  0.3867
 4543SOL    HW125265   2.455   4.439   8.539 -0.6016  0.3356  1.5137
 4543SOL    HW225266   2.539   4.342   8.615  0.4726  2.4636  0.2341
 4544SOL     OW25267   0.399   4.360   6.365  0.6565 -0.1373  0.4278
 4544SOL    HW125268   0.438   4.429   6.312 -0.6120 -1.4156 -2.1558
 4544SOL    HW225269   0.339   4.414   6.417  0.1876 -0.1547 -0.0872
 4545SOL     OW25270   2.078   1.819   1.609 -0.1848 -0.4033 -0.3463
 4545SOL    HW125271   2.110   1.784   1.526  0.1582 -2.9166  0.8409
 4545SOL    HW225272   2.107   1.910   1.611 -2.2781  0.2522 -0.1049
 4546SOL     OW25273   2.381   1.484  10.100 -0.8068  0.0662 -0.3658
 4546SOL    HW125274   2.363   1.396  10.066  2.6498 -0.6202 -0.5065
 4546SOL    HW225275   2.425   1.470  10.184  0.0895  0.2618 -0.8046
 4547SOL     OW25276   3.032   4.271   6.979 -0.5291  0.4755 -0.2407
 4547SOL    HW125277   2.954   4.260   7.033  3.8954  0.1901  6.1806
 4547SOL    HW225278   2.988   4.323   6.912  0.4803  1.2436 -0.3048
 4548SOL     OW25279   0.573   1.470   8.697 -0.2253 -0.0341  0.5143
 4548SOL    HW125280   0.581   1.483   8.603 -1.2036 -1.4267  0.2336
 4548SOL    HW225281   0.481   1.450   8.714 -0.3536 -2.0696 -2.6295
 4549SOL     OW25282   2.593   0.672   3.067  0.0791  0.0063  0.5796
 4549SOL    HW125283   2.522   0.663   3.131 -0.5525 -0.1709 -0.1394
 4549SOL    HW225284   2.551   0.624   2.996  2.8356 -0.2170 -0.8804
 4550SOL     OW25285   0.809   4.206   3.467 -0.1029 -0.3685  0.4508
 4550SOL    HW125286   0.864   4.254   3.405  0.6641 -0.3784  1.1236
 4550SOL    HW225287   0.820   4.261   3.545  0.8792 -0.3863  0.3220
 4551SOL     OW25288   3.256   3.885   6.527  0.2620  0.4849 -0.0584
 4551SOL    HW125289   3.288   3.917   6.442  0.4369 -3.5656 -1.4962
 4551SOL    HW225290   3.296   3.799   6.535 -1.3919 -0.2704  0.0304
 4552SOL     OW25291   3.647   4.716   7.451 -0.2595 -0.0206 -0.2710
 4552SOL    HW125292   3.571   0.031   7.421  0.3801  0.8839 -0.4099
 4552SOL    HW225293   3.629   4.709   7.545 -3.1114  3.3869 -0.5774
 4553SOL     OW25294   1.783   0.973   2.473 -0.6799  0.0023  0.4487
 4553SOL    HW125295   1.847   0.941   2.410 -0.2700 -2.4510  2.0972
 4553SOL    HW225296   1.740   1.025   2.406 -1.1888 -0.6559  0.2676
 4554SOL     OW25297   2.082   0.709   6.739  0.3660 -0.0930  0.0784
 4554SOL    HW125298   2.107   0.790   6.695 -2.4531  0.1150 -1.1368
 4554SOL    HW225299   2.149   0.648   6.708 -0.1855  0.3026 -1.8811
 4555SOL     OW25300   2.665   2.585   3.378 -0.1132  0.0311  0.0123
 4555SOL    HW125301   2.699   2.632   3.454  1.0052  1.4227 -1.3388
 4555SOL    HW225302   2.707   2.500   3.371  2.1808  1.1605  0.1604
 4556SOL     OW25303   2.914   4.473  14.543 -0.2149  0.3088 -0.0192
 4556SOL    HW125304   2.853   4.514  14.482  1.1717 -0.0520 -1.6438
 4556SOL    HW225305   2.905   4.380  14.524 -0.2529  0.6779 -1.7430
 4557SOL     OW25306   1.781   3.056   0.170 -0.2631  0.0128 -0.3881
 4557SOL    HW125307   1.836   3.027   0.097 -0.6426 -0.7446 -0.3732
 4557SOL    HW225308   1.750   2.970   0.199 -0.0797  0.3675  0.8465
 4558SOL     OW25309   4.065   4.373   5.155 -0.3099 -0.5725  0.4599
 4558SOL    HW125310   4.139   4.352   5.099  0.3420  0.6593  0.8573
 4558SOL    HW225311   4.102   4.405   5.237 -0.5508  3.6934 -1.0591
 4559SOL     OW25312   0.430   2.836   2.431  0.0384  0.2771 -0.1584
 4559SOL    HW125313   0.522   2.830   2.458 -0.1314 -0.7724  0.1530
 4559SOL    HW225314   0.380   2.836   2.513  0.1069  0.7758 -0.1125
 4560SOL     OW25315   2.237   4.372   4.755 -0.0178 -0.1243  0.0116
 4560SOL    HW125316   2.223   4.282   4.785 -0.9853 -1.6221 -4.8603
 4560SOL    HW225317   2.154   4.386   4.709 -0.7674 -0.7692  1.1615
 4561SOL     OW25318   4.358   3.004  17.672  0.0032  0.0503 -0.5237
 4561SOL    HW125319   4.372   2.950   0.010 -0.6818 -0.3747 -0.6984
 4561SOL    HW225320   4.290   2.957  17.624 -1.6470  0.5243  1.3674
 4562SOL     OW25321   2.652   1.945   8.808  0.4261  0.0142 -0.4764
 4562SOL    HW125322   2.740   1.921   8.779 -0.1692  0.5751 -2.7098
 4562SOL    HW225323   2.612   1.872   8.760 -2.4356  0.7929  0.7359
 4563SOL     OW25324   1.416   0.546  10.816  0.2259  0.0516  0.1442
 4563SOL    HW125325   1.334   0.506  10.845 -0.3829  0.2589 -1.3220
 4563SOL    HW225326   1.437   0.577  10.905  3.4053 -0.7551 -0.3335
 4564SOL     OW25327   0.554   1.741  15.293  0.3585 -0.2884  0.3570
 4564SOL    HW125328   0.520   1.764  15.380 -1.2853  0.1586 -0.3980
 4564SOL    HW225329   0.537   1.820  15.241 -1.6188  0.2530  1.8255
 4565SOL     OW25330   1.130   3.385  16.158  0.1802  0.2145 -0.2278
 4565SOL    HW125331   1.065   3.426  16.101  1.3277  1.1909 -0.8125
 4565SOL    HW225332   1.187   3.456  16.186  1.6895 -0.5840 -1.2605
 4566SOL     OW25333   1.045   1.752   2.922  0.0138 -0.1137 -0.0009
 4566SOL    HW125334   1.099   1.717   2.993  0.2461  0.0556 -0.0912
 4566SOL    HW225335   1.065   1.701   2.843 -0.0138 -0.0657 -0.0387
 4567SOL     OW25336   3.087   2.018   6.159 -0.5052 -0.2268 -0.3222
 4567SOL    HW125337   3.040   1.992   6.239  1.0779 -0.9299  0.3861
 4567SOL    HW225338   3.029   2.090   6.137 -0.3418  0.2342  0.7594
 4568SOL     OW25339   0.323   4.212   5.796 -0.1386 -0.3696  0.4539
 4568SOL    HW125340   0.244   4.196   5.847 -0.1841 -2.8516 -0.4172
 4568SOL    HW225341   0.387   4.194   5.864  0.5153 -1.1583 -0.3712
 4569SOL     OW25342   0.979   1.307  16.989 -0.8950  0.4831  0.0658
 4569SOL    HW125343   1.055   1.300  16.931  0.6342  2.4678  1.8230
 4569SOL    HW225344   0.988   1.225  17.037 -1.4776  1.0360  1.1230
 4570SOL     OW25345   3.716   2.916   1.924 -0.1647 -0.1200  0.0074
 4570SOL    HW125346   3.793   2.949   1.878  0.8424 -0.0119  1.7694
 4570SOL    HW225347   3.654   2.919   1.851  1.5142 -0.5761 -1.4250
 4571SOL     OW25348   3.527   1.701   6.998  0.0196  0.1576  0.4188
 4571SOL    HW125349   3.475   1.645   6.940  0.8865 -0.9688  0.7223
 4571SOL    HW225350   3.458   1.735   7.056 -2.1980 -2.6516 -0.5610
 4572SOL     OW25351   1.487   1.827   7.896  0.3993  0.3114 -0.1749
 4572SOL    HW125352   1.481   1.920   7.874  2.1091 -0.0261 -2.0736
 4572SOL    HW225353   1.428   1.793   7.828  0.8054  0.2908 -0.5213
 4573SOL     OW25354   1.805   1.155   0.354  0.9016  0.0759  0.1892
 4573SOL    HW125355   1.878   1.196   0.401  0.1640  1.5633  0.0428
 4573SOL    HW225356   1.840   1.066   0.346 -0.5666 -0.5428  0.5116
 4574SOL     OW25357   1.734   3.538   4.606 -0.4050  0.4713  0.5502
 4574SOL    HW125358   1.758   3.561   4.516 -1.6549 -0.0616  0.0760
 4574SOL    HW225359   1.719   3.625   4.643 -1.3067  0.5946 -0.0831
 4575SOL     OW25360   1.374   0.965  10.895  0.4328 -0.1901 -0.8538
 4575SOL    HW125361   1.418   1.050  10.892  0.0376  0.0299 -0.5127
 4575SOL    HW225362   1.288   0.992  10.928  0.4124 -1.9317  0.5202
 4576SOL     OW25363   3.044   0.168   2.861 -0.4721  0.2730  0.1324
 4576SOL    HW125364   2.952   0.189   2.873 -0.1886  1.5303  0.0273
 4576SOL    HW225365   3.059   0.099   2.926  0.1296  0.1749 -0.1125
 4577SOL     OW25366   0.352   3.740   2.033  0.0935  0.0337  0.5943
 4577SOL    HW125367   0.362   3.826   1.992  0.0386 -0.5147 -0.5848
 4577SOL    HW225368   0.256   3.740   2.035  0.1013  0.7680  0.9443
 4578SOL     OW25369   1.494   3.837   2.661 -0.5318 -0.0057  0.1573
 4578SOL    HW125370   1.516   3.744   2.668  1.9233  0.6496  1.4588
 4578SOL    HW225371   1.526   3.881   2.740 -1.5677  0.6203  0.2295
 4579SOL     OW25372   0.793   3.941   3.592  0.6754 -0.1040  0.4635
 4579SOL    HW125373   0.825   3.855   3.566 -0.4226  0.0637 -1.3871
 4579SOL    HW225374   0.847   4.006   3.548  0.4681 -1.2137 -1.4142
 4580SOL     OW25375   1.909   2.846   5.291 -0.1167 -0.1334  0.5326
 4580SOL    HW125376   1.944   2.916   5.236 -0.2522  0.0424  0.6722
 4580SOL    HW225377   1.886   2.899   5.367  1.3278 -1.9774  2.2598
 4581SOL     OW25378   2.272   3.481  11.247 -0.2101  0.4680 -0.5680
 4581SOL    HW125379   2.237   3.397  11.276 -0.1890  0.1596 -1.4206
 4581SOL    HW225380   2.196   3.537  11.264 -1.0961 -1.0365  0.4574
 4582SOL     OW25381   3.724   1.030  13.940 -0.3631 -0.0077  0.3546
 4582SOL    HW125382   3.659   1.014  13.872 -0.0224  1.4625 -0.3195
 4582SOL    HW225383   3.778   1.103  13.911  0.3133 -0.3534  0.7560
 4583SOL     OW25384   3.225   0.990   7.093  0.0305 -0.2067  0.4174
 4583SOL    HW125385   3.227   1.084   7.114 -1.2108 -0.2361  0.6773
 4583SOL    HW225386   3.305   0.958   7.134 -0.1077 -2.2135 -0.9005
 4584SOL     OW25387   3.453   0.873   8.774  0.1811 -0.4328 -0.6160
 4584SOL    HW125388   3.360   0.885   8.755  0.1189  2.1328  1.4028
 4584SOL    HW225389   3.444   0.847   8.866 -1.2045 -1.7158 -1.1138
 4585SOL     OW25390   3.748   2.976   2.730  0.3634  0.1907 -0.5254
 4585SOL    HW125391   3.818   3.018   2.679 -0.5538 -0.9651 -2.7205
 4585SOL    HW225392   3.781   2.999   2.817  1.8537 -0.6245 -0.8828
 4586SOL     OW25393   4.134   1.088   3.061  0.0375  0.7345 -0.2376
 4586SOL    HW125394   4.062   1.138   3.098  0.6363  0.8484  0.7682
 4586SOL    HW225395   4.084   1.010   3.036  1.8483 -0.7242  0.6806
 4587SOL     OW25396   2.273   1.236  15.884 -0.3791  0.2940  0.4086
 4587SOL    HW125397   2.203   1.260  15.944 -1.9906 -2.8572 -0.2466
 4587SOL    HW225398   2.286   1.317  15.834  1.1853 -0.5390 -0.5374
 4588SOL     OW25399   3.370   2.475   2.300 -0.4525  0.3923  0.0319
 4588SOL    HW125400   3.442   2.533   2.272 -1.2217 -0.0166 -2.8235
 4588SOL    HW225401   3.312   2.530   2.353 -3.7443 -1.6701 -1.4538
 4589SOL     OW25402   3.945   1.780   2.603  0.8199  0.1764 -0.0349
 4589SOL    HW125403   4.015   1.746   2.659  0.5997 -2.2236 -1.1880
 4589SOL    HW225404   3.975   1.748   2.518 -0.1277  0.0568 -0.3254
 4590SOL     OW25405   4.301   2.132   4.236 -0.1277  0.4010  0.6424
 4590SOL    HW125406   4.215   2.095   4.216  0.7202 -2.2250  1.7860
 4590SOL    HW225407   4.273   2.184   4.311 -1.1704 -1.1805  1.3459
 4591SOL     OW25408   0.145   0.097   2.108  0.6519  0.4084  0.0889
 4591SOL    HW125409   0.145   0.077   2.201  0.5309  0.4439  0.0963
 4591SOL    HW225410   0.161   0.010   2.072 -0.4690  0.3337 -0.2186
 4592SOL     OW25411   3.902   2.917   0.254 -0.0780  0.1756 -0.3278
 4592SOL    HW125412   3.953   2.983   0.206  0.8560 -0.0400  0.3660
 4592SOL    HW225413   3.926   2.838   0.205  0.1283 -0.7923  1.3525
 4593SOL     OW25414   3.387   3.213   8.002 -0.2960  0.4010 -0.4365
 4593SOL    HW125415   3.363   3.220   8.094  0.2585 -0.1618 -0.2450
 4593SOL    HW225416   3.438   3.292   7.989 -2.2516  1.6203 -0.6132
 4594SOL     OW25417   3.512   1.806   4.677 -0.0614 -0.0377  0.0389
 4594SOL    HW125418   3.442   1.743   4.698 -0.0461  0.3267  1.1989
 4594SOL    HW225419   3.472   1.862   4.611 -0.5092 -1.8790 -1.2378
 4595SOL     OW25420   2.729   0.150   6.769  0.0018  0.8508 -0.5619
 4595SOL    HW125421   2.803   0.128   6.826 -0.7738 -1.2233 -0.3478
 4595SOL    HW225422   2.763   0.168   6.682 -0.5494 -0.6364 -1.0885
 4596SOL     OW25423   0.174   2.022   3.513 -0.3662 -0.1385  0.3138
 4596SOL    HW125424   0.079   2.023   3.508 -0.2673  0.6187 -1.4272
 4596SOL    HW225425   0.188   2.036   3.606  4.7233 -0.9120 -0.3214
 4597SOL     OW25426   2.737   1.319   8.151  0.1518 -0.1361  0.8842
 4597SOL    HW125427   2.731   1.412   8.172 -0.9671 -0.7797  3.3825
 4597SOL    HW225428   2.652   1.306   8.110  0.5275 -1.5217  0.5572
 4598SOL     OW25429   3.324   2.471   0.077 -0.6056  0.3089  0.4374
 4598SOL    HW125430   3.411   2.505   0.056 -0.9228  0.7683 -0.1363
 4598SOL    HW225431   3.287   2.509   0.157  1.3595  2.3346  0.4175
 4599SOL     OW25432   1.624   2.113  17.480 -0.3635  0.0635 -0.3009
 4599SOL    HW125433   1.638   2.091  17.388  0.5984  2.0494 -0.6361
 4599SOL    HW225434   1.574   2.039  17.512 -1.5102  1.4219  1.0530
 4600SOL     OW25435   3.640   1.136   8.204 -0.3311  0.0104 -0.1357
 4600SOL    HW125436   3.675   1.181   8.127 -2.4176 -0.5591 -1.4197
 4600SOL    HW225437   3.687   1.182   8.274 -1.2991  0.8342 -0.0319
 4601SOL     OW25438   1.342   2.285   2.514 -0.5313 -0.1135 -0.6728
 4601SOL    HW125439   1.304   2.209   2.469  1.3693 -0.2229 -2.0857
 4601SOL    HW225440   1.362   2.333   2.434  1.8357 -0.1493 -0.1027
 4602SOL     OW25441   3.642   1.381   8.514  0.1096 -0.4804  0.2459
 4602SOL    HW125442   3.626   1.342   8.600 -2.0616  0.8740  0.4680
 4602SOL    HW225443   3.731   1.347   8.500  0.5334  0.6925  0.1259
 4603SOL     OW25444   3.536   2.350   5.049 -0.2052  0.0744  0.3992
 4603SOL    HW125445   3.520   2.344   5.143  0.1490  1.4362  0.5568
 4603SOL    HW225446   3.631   2.339   5.044 -0.1053  0.0371  2.3129
 4604SOL     OW25447   1.409   1.915  17.569 -0.4506 -0.1307  0.3859
 4604SOL    HW125448   1.316   1.940  17.564 -0.2413  0.6878  0.4726
 4604SOL    HW225449   1.406   1.820  17.571 -1.7744 -0.1266 -1.2065
 4605SOL     OW25450   3.593   0.329  15.169 -0.4602  0.0381 -0.5857
 4605SOL    HW125451   3.561   0.411  15.131  1.5929  2.1699  2.3730
 4605SOL    HW225452   3.683   0.348  15.193 -0.2453 -1.2437 -0.3710
 4606SOL     OW25453   3.162   1.218   6.074  0.4098 -0.2121  0.6386
 4606SOL    HW125454   3.089   1.269   6.039 -1.1195 -1.6023  1.8468
 4606SOL    HW225455   3.224   1.288   6.095  0.3464  0.2196 -0.5908
 4607SOL     OW25456   3.401   1.399   7.869 -0.3083  0.4250  0.0073
 4607SOL    HW125457   3.366   1.312   7.847 -1.2189  0.2728  2.0659
 4607SOL    HW225458   3.319   1.440   7.841 -2.1849 -1.6142  2.4526
 4608SOL     OW25459   3.593   0.464  15.714  0.3293 -0.4061 -0.1307
 4608SOL    HW125460   3.640   0.493  15.791 -0.9304 -1.3379  1.0020
 4608SOL    HW225461   3.531   0.399  15.749 -2.2440  1.5253 -1.0475
 4609SOL     OW25462   3.565   2.446   1.415  0.5941 -0.0736  0.4405
 4609SOL    HW125463   3.501   2.414   1.351  0.7434  0.0678  0.2241
 4609SOL    HW225464   3.532   2.534   1.429 -1.9812 -0.3762 -3.7401
 4610SOL     OW25465   0.724   2.216   3.599  0.2530  0.8926 -0.1487
 4610SOL    HW125466   0.639   2.184   3.566  1.8909 -0.8346 -2.7220
 4610SOL    HW225467   0.699   2.264   3.678  0.5476 -0.2463  0.6390
 4611SOL     OW25468   3.342   4.567   6.135  0.1300 -0.2613 -0.0081
 4611SOL    HW125469   3.284   4.642   6.145 -1.2721 -1.2024 -0.8908
 4611SOL    HW225470   3.333   4.552   6.041 -2.5229  0.1684  0.1586
 4612SOL     OW25471   4.520   1.397  12.222 -0.2765  0.2221 -0.1070
 4612SOL    HW125472   4.598   1.452  12.220 -0.0956  0.0830  2.5005
 4612SOL    HW225473   4.500   1.409  12.315 -0.2196  0.1725 -0.0879
 4613SOL     OW25474   0.675   0.712   0.808 -0.3341  0.3534 -0.1371
 4613SOL    HW125475   0.625   0.644   0.854 -1.0004  0.9512  0.0184
 4613SOL    HW225476   0.723   0.644   0.761 -1.3445 -1.1300  0.9475
 4614SOL     OW25477   2.137   0.004   1.279  0.2927 -0.0018 -0.0519
 4614SOL    HW125478   2.093   0.075   1.327  1.8717  1.1822 -0.3730
 4614SOL    HW225479   2.158   4.674   1.345  0.5249  0.4873  0.3550
 4615SOL     OW25480   1.065   2.250   2.672  0.1186  0.0763 -0.0841
 4615SOL    HW125481   1.160   2.250   2.663  0.2184  1.1715  0.9789
 4615SOL    HW225482   1.060   2.297   2.755  1.6051 -1.0041  0.6120
 4616SOL     OW25483   3.665   1.071   9.033  0.2170 -0.4117  0.0404
 4616SOL    HW125484   3.571   1.074   9.017 -0.1395 -1.7214  1.8600
 4616SOL    HW225485   3.665   1.031   9.120  0.4926  2.2581  1.2741
 4617SOL     OW25486   3.141   0.216   7.981 -0.3906  0.0439  0.3410
 4617SOL    HW125487   3.055   0.212   7.940 -0.4579 -1.4927  0.6331
 4617SOL    HW225488   3.134   0.308   8.008 -1.1674 -0.1373  0.7430
 4618SOL     OW25489   2.538   1.317   6.231  0.1315  0.0572 -0.1477
 4618SOL    HW125490   2.615   1.293   6.180  0.1903 -0.9399  0.4252
 4618SOL    HW225491   2.531   1.410   6.206 -1.0157  0.3608  1.2761
 4619SOL     OW25492   0.413   3.095   8.913  0.3716 -0.4759  0.5318
 4619SOL    HW125493   0.410   3.161   8.982 -3.8744 -1.6770  1.4765
 4619SOL    HW225494   0.479   3.138   8.858 -0.2716 -0.9201 -0.5867
 4620SOL     OW25495   4.609   2.562  13.794  0.2358 -0.5683  0.4081
 4620SOL    HW125496   4.616   2.494  13.727  0.7569 -2.8035  2.7115
 4620SOL    HW225497   4.518   2.549  13.819  0.2623  2.1060  1.9300
 4621SOL     OW25498   0.148   1.349  12.825  0.4202  0.4756 -0.0425
 4621SOL    HW125499   0.163   1.299  12.905 -2.1488 -1.3564 -0.7314
 4621SOL    HW225500   0.226   1.401  12.807  1.0177 -0.1496  0.7516
 4622SOL     OW25501   2.943   3.751   4.527  0.4615 -0.9132 -0.8495
 4622SOL    HW125502   2.878   3.710   4.584  1.9548  0.6437  1.9965
 4622SOL    HW225503   2.934   3.842   4.556 -0.5750 -1.2203 -0.2088
 4623SOL     OW25504   4.213   2.817   1.776  0.2395 -0.4007 -0.3147
 4623SOL    HW125505   4.264   2.771   1.709  1.2888  0.9836 -0.4508
 4623SOL    HW225506   4.204   2.756   1.850  0.9416 -1.1217 -0.8266
 4624SOL     OW25507   1.130   3.812   5.657 -0.3861  0.7806  0.2429
 4624SOL    HW125508   1.068   3.806   5.729 -2.2854 -1.2570 -1.5675
 4624SOL    HW225509   1.212   3.828   5.703  0.5024 -0.1627 -0.9796
 4625SOL     OW25510   4.051   0.913   9.516  0.1926  0.6637  0.4900
 4625SOL    HW125511   4.042   0.830   9.470  0.4519  1.3696 -0.8405
 4625SOL    HW225512   4.064   0.887   9.607 -1.6108 -0.1372  0.5041
 4626SOL     OW25513   0.169   2.462  10.894  0.1626 -0.0317  0.2358
 4626SOL    HW125514   0.167   2.539  10.836  1.7965  0.9627  1.5103
 4626SOL    HW225515   0.077   2.458  10.919 -0.4220 -0.5130 -2.0391
 4627SOL     OW25516   4.256   1.469   5.123 -0.3487 -0.0043 -0.0483
 4627SOL    HW125517   4.281   1.531   5.055  0.0215  0.2915  0.3527
 4627SOL    HW225518   4.161   1.471   5.111 -0.3528  0.4000  0.0603
 4628SOL     OW25519   0.961   2.967   0.136  0.4432 -0.3676 -0.1173
 4628SOL    HW125520   1.022   3.037   0.114  0.1932  0.1792  0.9208
 4628SOL    HW225521   0.954   2.912   0.058 -0.9949 -3.6886  2.3321
 4629SOL     OW25522   4.698   0.335  15.987  0.3135  0.0336 -0.4518
 4629SOL    HW125523   4.614   0.365  16.022  0.5667 -0.1893  0.3494
 4629SOL    HW225524   4.687   0.241  15.977  0.4085  0.2758 -2.8298
 4630SOL     OW25525   0.131   0.798   3.688 -0.1566 -0.2677  0.2121
 4630SOL    HW125526   0.101   0.880   3.650  0.6182  0.4686  1.1784
 4630SOL    HW225527   0.114   0.739   3.615  1.5532  0.1609 -0.5418
 4631SOL     OW25528   3.578   0.397   7.715  0.1381 -0.2840 -0.2363
 4631SOL    HW125529   3.508   0.332   7.703 -0.5973  0.3711  0.5269
 4631SOL    HW225530   3.570   0.406   7.810  0.8698  0.8047 -0.2785
 4632SOL     OW25531   1.606   1.715   3.434 -0.2036  0.6020 -0.7335
 4632SOL    HW125532   1.611   1.683   3.525  4.0502 -1.7249 -1.7874
 4632SOL    HW225533   1.648   1.800   3.447  0.5009 -0.0757  1.5578
 4633SOL     OW25534   4.303   4.374  11.449  0.1393  0.3097 -0.5635
 4633SOL    HW125535   4.214   4.384  11.481  0.4631 -1.0659  0.7732
 4633SOL    HW225536   4.294   4.410  11.361 -1.3857  0.8883 -0.1553
 4634SOL     OW25537   0.858   3.193  16.384 -0.0648  0.4231 -0.2469
 4634SOL    HW125538   0.804   3.147  16.320  0.2184 -0.8647  0.4486
 4634SOL    HW225539   0.865   3.278  16.341  0.6845  0.4725 -0.0159
 4635SOL     OW25540   3.376   0.260   5.471  0.2128  0.0682  0.2215
 4635SOL    HW125541   3.351   0.350   5.450 -3.8059 -0.9945  0.4177
 4635SOL    HW225542   3.390   0.230   5.381 -0.5106  1.6602 -0.4258
 4636SOL     OW25543   0.969   4.524  12.553 -0.2701 -0.5810 -0.7613
 4636SOL    HW125544   1.014   4.542  12.471  0.2190 -2.6530 -0.9534
 4636SOL    HW225545   1.027   4.561  12.619 -0.8180 -1.2288  0.0965
 4637SOL     OW25546   2.073   2.613   1.395  0.1818 -0.7886  0.2132
 4637SOL    HW125547   2.088   2.647   1.307  1.5027 -0.4961  0.5530
 4637SOL    HW225548   2.021   2.685   1.431 -0.3740 -0.6049 -0.9380
 4638SOL     OW25549   2.134   3.474   2.987 -0.0308  0.1900 -1.1905
 4638SOL    HW125550   2.147   3.454   3.080 -0.7402  0.9513 -0.9209
 4638SOL    HW225551   2.062   3.414   2.966  0.4163  0.0078 -2.1812
 4639SOL     OW25552   0.246   1.453   7.372  0.0667  0.6579  0.6576
 4639SOL    HW125553   0.245   1.543   7.403  1.1540  0.6666  0.6575
 4639SOL    HW225554   0.166   1.417   7.409  0.8244 -1.5069  0.2537
 4640SOL     OW25555   1.038   3.430   5.784 -0.0644  0.4338  0.0020
 4640SOL    HW125556   0.957   3.478   5.801 -0.4000 -0.0836 -0.1207
 4640SOL    HW225557   1.029   3.366   5.855 -0.3788 -0.7354 -1.0905
 4641SOL     OW25558   2.486   1.557   0.780 -0.3199 -0.1714  0.3134
 4641SOL    HW125559   2.411   1.497   0.777  0.7495 -1.3956 -1.8505
 4641SOL    HW225560   2.467   1.631   0.722  1.5185  1.0658  1.3177
 4642SOL     OW25561   0.082   4.132   6.372 -0.3467  0.2266 -0.2184
 4642SOL    HW125562   0.100   4.200   6.437 -2.1321 -1.1034  1.6469
 4642SOL    HW225563   0.015   4.175   6.318 -2.0447  0.2142  1.8581
 4643SOL     OW25564   4.408   2.639   6.526  0.0436 -0.6003  0.0241
 4643SOL    HW125565   4.388   2.594   6.608  1.8525  0.9814  1.3596
 4643SOL    HW225566   4.445   2.566   6.477 -0.9274  1.0253 -3.1722
 4644SOL     OW25567   3.687   1.687   4.469 -0.7733  0.4844  0.5821
 4644SOL    HW125568   3.639   1.750   4.416 -1.3537 -0.7036 -0.3086
 4644SOL    HW225569   3.641   1.701   4.552  0.4700  1.6854  1.0619
 4645SOL     OW25570   0.387   0.823   7.311 -0.2079 -0.4940  0.1063
 4645SOL    HW125571   0.357   0.884   7.379 -1.8309  0.1113 -1.1580
 4645SOL    HW225572   0.433   0.887   7.256 -0.1994 -0.2493  0.3971
 4646SOL     OW25573   1.225   1.591   3.828  0.0829  0.8514  0.3317
 4646SOL    HW125574   1.208   1.681   3.857 -2.5706 -0.0110  1.3860
 4646SOL    HW225575   1.159   1.557   3.888 -0.5518 -0.3370 -1.0421
 4647SOL     OW25576   0.362   3.226   1.893 -0.5808 -0.6463 -0.4227
 4647SOL    HW125577   0.272   3.232   1.862 -0.4311  4.4120  0.0555
 4647SOL    HW225578   0.395   3.163   1.829  2.1129  0.6268 -0.3315
 4648SOL     OW25579   1.871   4.221   5.027  0.0686  0.0974 -0.4732
 4648SOL    HW125580   1.864   4.238   5.121  2.0924 -2.2943  0.0912
 4648SOL    HW225581   1.852   4.308   4.991 -1.9088  0.1434  0.7251
 4649SOL     OW25582   2.447   2.287  11.576 -0.7422 -0.0833  1.2156
 4649SOL    HW125583   2.374   2.246  11.623 -2.1565 -0.9839 -1.7030
 4649SOL    HW225584   2.523   2.288  11.633  0.7358  2.4733 -0.7746
 4650SOL     OW25585   2.203   4.713   7.862  0.5016 -0.3293  0.0735
 4650SOL    HW125586   2.153   0.057   7.845  1.2819  0.5598  1.9904
 4650SOL    HW225587   2.279   4.713   7.804  0.8374  0.8910  0.5220
 4651SOL     OW25588   2.645   1.028   7.873  1.1346  0.0212 -0.7120
 4651SOL    HW125589   2.687   1.114   7.865  1.5284 -0.0953  0.1249
 4651SOL    HW225590   2.579   1.038   7.805 -0.3638  3.1459  1.1747
 4652SOL     OW25591   1.174   3.816   7.887 -0.1320 -0.2408 -0.3696
 4652SOL    HW125592   1.229   3.772   7.823  0.2670 -0.9746  0.4706
 4652SOL    HW225593   1.098   3.842   7.834  2.3788  2.3450 -2.6680
 4653SOL     OW25594   1.489   1.933  13.981 -0.2839  0.1546 -0.0724
 4653SOL    HW125595   1.523   1.917  14.069 -0.9508  1.3279  0.4018
 4653SOL    HW225596   1.396   1.928  14.004  0.1188  0.5791  1.5911
 4654SOL     OW25597   0.295   1.073   1.755 -0.3124  0.2331  0.2500
 4654SOL    HW125598   0.269   1.154   1.712 -0.1471  0.4754  0.6080
 4654SOL    HW225599   0.340   1.107   1.832 -0.9209 -0.9942  1.1570
 4655SOL     OW25600   4.582   1.705   6.861 -0.0652 -0.0829  0.2094
 4655SOL    HW125601   4.621   1.712   6.774  0.2454  0.4700  0.3971
 4655SOL    HW225602   4.637   1.639   6.903  2.2402  0.7944 -1.4227
 4656SOL     OW25603   2.213   2.225   0.002 -0.0802 -0.5046  0.4237
 4656SOL    HW125604   2.279   2.156  17.736  0.0875 -0.2805 -0.4742
 4656SOL    HW225605   2.201   2.255  17.651  0.1717  0.6602  0.7809
 4657SOL     OW25606   3.691   0.047   7.718 -0.0573  0.1987 -0.1204
 4657SOL    HW125607   3.663   0.061   7.808 -5.0142  0.0386 -1.6192
 4657SOL    HW225608   3.755   4.711   7.724  0.6032  0.9515  1.6195
 4658SOL     OW25609   0.830   0.313  12.192 -0.0274 -0.3226 -0.1494
 4658SOL    HW125610   0.888   0.374  12.148 -1.6786  0.2654 -1.5051
 4658SOL    HW225611   0.771   0.374  12.236  0.5992  1.9041 -2.4299
 4659SOL     OW25612   1.203   3.060  17.339  0.5628  0.0069  0.4031
 4659SOL    HW125613   1.136   3.034  17.276 -0.5457  1.0492  1.1534
 4659SOL    HW225614   1.279   3.004  17.321 -1.3675 -2.3770 -0.2915
 4660SOL     OW25615   3.422   3.052  12.999  0.1201  0.5242  0.1576
 4660SOL    HW125616   3.385   2.977  13.046  0.5239  0.3261  0.1572
 4660SOL    HW225617   3.347   3.097  12.961 -0.6004 -0.5512  0.2934
 4661SOL     OW25618   2.079   3.099   7.322  0.1105  0.2806  0.1272
 4661SOL    HW125619   2.127   3.121   7.402  0.3799 -0.2710  0.1160
 4661SOL    HW225620   1.988   3.083   7.347 -0.1903 -0.0469 -1.1764
 4662SOL     OW25621   2.942   2.137   5.445  0.2843 -0.3071 -0.2631
 4662SOL    HW125622   2.919   2.172   5.532  1.0369  2.8186 -1.3217
 4662SOL    HW225623   2.872   2.170   5.389  1.0421  1.4696 -0.1609
 4663SOL     OW25624   1.016   1.004  14.373  0.5061  0.2922  0.2483
 4663SOL    HW125625   1.003   1.010  14.468 -1.7523  0.5355 -0.0730
 4663SOL    HW225626   1.058   1.085  14.345  0.9587 -0.2576 -0.6792
 4664SOL     OW25627   4.236   3.621   2.844 -0.2404 -0.0037 -0.0726
 4664SOL    HW125628   4.308   3.624   2.908  0.9293  1.9464 -1.4782
 4664SOL    HW225629   4.167   3.593   2.903 -1.0093 -1.0352 -1.4589
 4665SOL     OW25630   4.683   0.304   0.820  0.2353  0.0444  0.0055
 4665SOL    HW125631   4.700   0.384   0.871  1.7171  1.2042 -2.3001
 4665SOL    HW225632   0.032   0.258   0.826  1.8150  2.7281 -1.1598
 4666SOL     OW25633   0.887   3.329  17.194  0.2308 -0.0171  0.3572
 4666SOL    HW125634   0.849   3.290  17.273 -0.2289 -1.5867 -0.6270
 4666SOL    HW225635   0.841   3.284  17.123 -1.0256 -1.2938  1.9767
 4667SOL     OW25636   1.798   0.510   7.121  0.1510 -0.1480  0.3512
 4667SOL    HW125637   1.782   0.554   7.037  2.1777  0.0497  0.0634
 4667SOL    HW225638   1.873   0.558   7.157  0.3747 -1.7714  2.0433
 4668SOL     OW25639   2.870   1.000  14.312 -0.6020 -0.1571 -0.2256
 4668SOL    HW125640   2.792   1.047  14.342  0.4117  0.5213  1.3482
 4668SOL    HW225641   2.883   1.024  14.220 -0.8791  1.1738  0.0818
 4669SOL     OW25642   1.591   0.422   7.291 -0.2403  0.2870 -0.2337
 4669SOL    HW125643   1.523   0.487   7.271 -0.3705  0.4153  0.6416
 4669SOL    HW225644   1.659   0.436   7.225 -0.1828 -0.8608 -0.4289
 4670SOL     OW25645   0.036   2.856   7.007 -0.0323 -0.0945 -0.7976
 4670SOL    HW125646   4.691   2.845   6.956  0.1676 -0.7303 -0.9762
 4670SOL    HW225647   0.035   2.950   7.023 -0.1051 -0.3575  0.8038
 4671SOL     OW25648   2.582   3.544   7.966  0.1093 -0.2364 -0.2848
 4671SOL    HW125649   2.553   3.633   7.988 -2.1220 -1.2940  1.0788
 4671SOL    HW225650   2.628   3.562   7.885  3.2237  1.1418  1.7785
 4672SOL     OW25651   3.163   3.679  15.512 -0.4032 -0.0054  0.2792
 4672SOL    HW125652   3.259   3.688  15.508 -0.2616 -0.3653  2.8511
 4672SOL    HW225653   3.134   3.761  15.472  2.0260  0.6187 -0.2342
 4673SOL     OW25654   0.130   4.313   7.556  0.3168 -0.1177 -0.1389
 4673SOL    HW125655   0.184   4.349   7.626 -3.5213  2.5469  1.5146
 4673SOL    HW225656   0.105   4.240   7.612 -1.7584 -0.6444 -1.7321
 4674SOL     OW25657   0.583   0.562   2.266  0.4569  0.4360 -0.0849
 4674SOL    HW125658   0.570   0.651   2.299  1.5116  0.3653  0.5037
 4674SOL    HW225659   0.677   0.562   2.281  0.3614 -3.3045  0.3989
 4675SOL     OW25660   1.369   0.338  11.051 -0.8026  0.3659 -0.3908
 4675SOL    HW125661   1.417   0.403  11.103 -1.0187  0.8292 -0.7747
 4675SOL    HW225662   1.289   0.384  11.027 -0.5116  1.2418  0.3094
 4676SOL     OW25663   0.464   1.912   3.198 -0.2907  0.5971 -0.4920
 4676SOL    HW125664   0.507   1.854   3.136  0.6758 -0.1494  0.8833
 4676SOL    HW225665   0.386   1.931   3.146 -1.4182 -1.7570  0.3364
 4677SOL     OW25666   3.772   0.277   3.165  0.2214 -0.2330  0.5195
 4677SOL    HW125667   3.747   0.333   3.239 -1.4095  0.4025 -0.5052
 4677SOL    HW225668   3.728   0.321   3.093 -0.4559  2.0888  2.3358
 4678SOL     OW25669   4.643   2.306  11.303  0.0147 -0.0042 -0.3171
 4678SOL    HW125670   4.687   2.294  11.219  1.6069 -1.4276  0.7312
 4678SOL    HW225671   4.697   2.242  11.349 -0.0182 -0.0224 -0.3044
 4679SOL     OW25672   3.508   3.981   5.321  0.9313  0.0555  0.1369
 4679SOL    HW125673   3.558   3.900   5.335  1.5158  0.4687  0.4598
 4679SOL    HW225674   3.563   4.027   5.257 -2.0432 -0.5794 -2.8646
 4680SOL     OW25675   2.580   1.016  14.501  0.3228  0.4708  0.0269
 4680SOL    HW125676   2.590   0.927  14.466  1.1297  0.8990 -0.8482
 4680SOL    HW225677   2.580   1.004  14.596 -1.4067 -3.0223 -0.4074
 4681SOL     OW25678   2.432   2.692  14.730  0.1187  1.1020  0.6317
 4681SOL    HW125679   2.428   2.786  14.750  1.5766  1.6288 -1.5862
 4681SOL    HW225680   2.352   2.659  14.771 -0.0577  2.2802  1.2440
 4682SOL     OW25681   3.475   2.256   8.832  0.2028  0.2751 -0.0994
 4682SOL    HW125682   3.481   2.352   8.831  0.1053  0.2806 -0.0988
 4682SOL    HW225683   3.383   2.239   8.812  0.4648 -0.8256 -0.3660
 4683SOL     OW25684   0.030   2.297   9.206  0.4982  0.4504  0.2807
 4683SOL    HW125685   0.031   2.205   9.180  0.5771  1.2297 -2.4436
 4683SOL    HW225686   4.685   2.299   9.258  1.5211  2.2097  1.8023
 4684SOL     OW25687   2.793   4.205   3.232 -0.5316 -0.7264 -0.0056
 4684SOL    HW125688   2.879   4.206   3.190  0.9246 -0.0216  2.9592
 4684SOL    HW225689   2.747   4.266   3.175 -2.2522 -0.7933  1.3103
 4685SOL     OW25690   3.971   4.304   5.677 -0.5275  0.1736  0.2098
 4685SOL    HW125691   3.969   4.258   5.761  1.6378 -0.0492  0.1229
 4685SOL    HW225692   3.918   4.377   5.708  0.0700  0.8754 -0.4382
 4686SOL     OW25693   3.836   4.544   4.058 -0.3099  0.0745  0.2507
 4686SOL    HW125694   3.769   4.586   4.112  1.7976  1.9077  1.4087
 4686SOL    HW225695   3.796   4.555   3.972 -0.3502 -1.9138  0.0018
 4687SOL     OW25696   2.041   2.866   6.916 -0.1239 -0.1672 -0.0216
 4687SOL    HW125697   2.059   2.854   7.009 -0.8554 -1.5884 -0.0565
 4687SOL    HW225698   2.078   2.953   6.902  0.7159 -0.4561  0.4331
 4688SOL     OW25699   0.155   3.840  11.053 -0.0953 -0.6735  0.1638
 4688SOL    HW125700   0.229   3.783  11.073  1.3523  2.0997  2.5918
 4688SOL    HW225701   0.129   3.788  10.977 -4.4202  1.2428  0.3258
 4689SOL     OW25702   3.725   3.232  14.415 -0.5626 -0.2408  0.3458
 4689SOL    HW125703   3.751   3.281  14.493 -2.9831 -0.1698  1.1031
 4689SOL    HW225704   3.651   3.185  14.453 -1.9406  0.2395 -1.7664
 4690SOL     OW25705   2.988   0.171  13.889  0.1265  0.5149 -0.1950
 4690SOL    HW125706   2.911   0.186  13.835 -1.3562  1.7428  2.2254
 4690SOL    HW225707   3.047   0.230  13.843  0.2673  0.2724 -0.3251
 4691SOL     OW25708   2.121   2.518   6.677 -0.4295  0.3528  0.6259
 4691SOL    HW125709   2.090   2.457   6.610  0.5303  1.5983 -0.9366
 4691SOL    HW225710   2.194   2.549   6.624  0.4456  2.4857  3.1153
 4692SOL     OW25711   0.166   4.083   9.042  0.3977  0.0272  0.2797
 4692SOL    HW125712   0.231   4.018   9.069  1.9854  1.4226 -0.2334
 4692SOL    HW225713   0.140   4.051   8.955  0.1694  1.9995 -0.3727
 4693SOL     OW25714   2.688   4.042   2.948 -0.1332 -0.0809 -0.4608
 4693SOL    HW125715   2.607   4.087   2.924 -0.4660 -0.3433  0.1979
 4693SOL    HW225716   2.681   3.958   2.901 -0.5730 -1.0714  1.3948
 4694SOL     OW25717   0.722   3.697  14.987  0.4714  0.4906 -0.1973
 4694SOL    HW125718   0.777   3.647  14.926 -0.2514 -1.2920  0.6113
 4694SOL    HW225719   0.669   3.745  14.923 -0.8049 -0.4366  0.1491
 4695SOL     OW25720   2.019   2.252   0.212 -0.2396  0.0162 -0.3447
 4695SOL    HW125721   2.108   2.246   0.245  0.8011  0.8373 -2.9523
 4695SOL    HW225722   2.035   2.276   0.120 -0.1384 -1.8262 -0.7949
 4696SOL     OW25723   1.153   1.251   2.415  0.3910 -0.8393  0.3990
 4696SOL    HW125724   1.234   1.204   2.434 -0.2069 -1.3230  1.7663
 4696SOL    HW225725   1.186   1.339   2.396 -1.1570 -0.2143  0.5667
 4697SOL     OW25726   4.314   4.356   4.990 -1.0558  0.6076 -0.2764
 4697SOL    HW125727   4.406   4.338   4.970 -0.6494  0.2278  1.8536
 4697SOL    HW225728   4.301   4.409   4.912  0.1024  0.4923 -0.5477
 4698SOL     OW25729   1.972   1.982  16.712  0.2877  0.2767  0.4812
 4698SOL    HW125730   2.052   2.029  16.689  0.7261  0.2303  1.9209
 4698SOL    HW225731   1.903   2.028  16.663 -0.7242 -1.5242  0.2229
 4699SOL     OW25732   2.927   1.549   6.320  0.0679 -0.4810 -0.0260
 4699SOL    HW125733   2.978   1.513   6.393 -0.1725  0.2726  0.5194
 4699SOL    HW225734   2.935   1.487   6.248  1.0158  0.7527 -0.9877
 4700SOL     OW25735   0.102   3.998   3.231  0.2287 -0.2937 -0.0137
 4700SOL    HW125736   0.177   4.050   3.202 -0.4560  0.9920  0.5391
 4700SOL    HW225737   0.034   4.032   3.173  0.7484  1.2477  0.2722
 4701SOL     OW25738   2.642   2.063   9.141 -0.5175  0.0552  0.2783
 4701SOL    HW125739   2.672   1.995   9.081 -0.5963 -0.1733  0.4993
 4701SOL    HW225740   2.698   2.063   9.219  0.3613  0.2310 -0.3532
 4702SOL     OW25741   2.628   4.155  10.874  0.2946 -0.6623  0.7481
 4702SOL    HW125742   2.708   4.120  10.913 -0.2289 -1.5059  1.0376
 4702SOL    HW225743   2.656   4.245  10.858  3.2807 -1.2420  2.6232
 4703SOL     OW25744   3.876   3.098  10.145  0.5409 -0.4300  0.1392
 4703SOL    HW125745   3.887   3.004  10.130 -1.3223 -0.4740 -1.0527
 4703SOL    HW225746   3.793   3.092  10.194  0.1831  1.5013 -0.2322
 4704SOL     OW25747   2.208   1.927  14.700  0.4531 -0.1667  0.3307
 4704SOL    HW125748   2.253   1.937  14.616 -0.9692 -0.9030 -0.5172
 4704SOL    HW225749   2.146   1.861  14.669 -1.5840  0.9281  2.0436
 4705SOL     OW25750   1.749   4.637   6.929  0.1654  0.1084 -0.6491
 4705SOL    HW125751   1.770   4.590   7.010  0.8236  1.9352  0.2341
 4705SOL    HW225752   1.829   4.675   6.893 -0.4596  1.1985 -0.8590
 4706SOL     OW25753   3.280   2.511   1.590  0.0269 -0.6292 -0.4706
 4706SOL    HW125754   3.230   2.557   1.523  0.2959  0.0498 -0.2105
 4706SOL    HW225755   3.238   2.528   1.675 -0.3606 -0.4098 -0.7037
 4707SOL     OW25756   0.108   2.158  15.093 -0.0631 -0.2693  0.2570
 4707SOL    HW125757   0.052   2.232  15.069  1.5509  0.8925  0.0669
 4707SOL    HW225758   0.052   2.083  15.071 -2.2754  1.3177  0.4115
 4708SOL     OW25759   0.566   4.541   8.496 -0.2311 -0.1177  0.3992
 4708SOL    HW125760   0.546   4.586   8.414 -2.3648  0.6328  1.3145
 4708SOL    HW225761   0.571   4.450   8.469 -0.7528  0.0300 -0.2070
 4709SOL     OW25762   0.079   3.052   7.403  0.0852  0.5287 -0.3707
 4709SOL    HW125763   0.150   3.029   7.463 -0.4329 -0.9252 -0.3204
 4709SOL    HW225764   0.135   3.095   7.338 -1.8619  1.7147 -1.2738
 4710SOL     OW25765   2.654   1.452   4.181 -0.4628  0.3836  0.3593
 4710SOL    HW125766   2.632   1.542   4.156  2.6740  1.1802  0.4858
 4710SOL    HW225767   2.688   1.468   4.269 -1.0385  0.4045  0.5848
 4711SOL     OW25768   3.818   1.140   3.189  0.0607 -0.3070  0.3653
 4711SOL    HW125769   3.832   1.066   3.248 -1.5054 -1.7257 -1.0538
 4711SOL    HW225770   3.829   1.101   3.102  0.6795 -3.1889  1.7454
 4712SOL     OW25771   1.621   3.438   8.440 -0.1530  0.5085  0.1818
 4712SOL    HW125772   1.638   3.486   8.359  0.7252  2.2492  1.4028
 4712SOL    HW225773   1.624   3.498   8.515  0.4804  0.4161  0.2310
 4713SOL     OW25774   4.657   2.060   1.983 -0.1964 -0.3546 -0.9755
 4713SOL    HW125775   0.001   2.009   1.998  0.0276 -0.3135 -1.9725
 4713SOL    HW225776   4.632   2.068   2.075  0.5245  0.1510 -0.8242
 4714SOL     OW25777   1.484   1.909  12.460 -0.2778  0.3343 -0.0932
 4714SOL    HW125778   1.553   1.851  12.427 -0.5112  0.2780 -0.4743
 4714SOL    HW225779   1.491   1.986  12.404 -1.4043 -0.9979 -2.0507
 4715SOL     OW25780   1.060   3.926   7.516  0.1610 -0.5003 -0.4252
 4715SOL    HW125781   1.028   3.892   7.600  1.0657  1.2603  0.6326
 4715SOL    HW225782   1.087   4.013   7.544 -0.3327  0.2604 -2.3231
 4716SOL     OW25783   4.056   4.333  13.551 -0.7244  0.0600 -0.0076
 4716SOL    HW125784   3.976   4.386  13.556 -0.9788 -0.5333  2.6392
 4716SOL    HW225785   4.100   4.368  13.629 -0.1864  1.4766 -0.9447
 4717SOL     OW25786   1.798   3.398   9.321  0.3425 -0.1943 -0.9481
 4717SOL    HW125787   1.850   3.353   9.254 -1.7696 -2.5700 -0.9767
 4717SOL    HW225788   1.712   3.357   9.329  1.1367 -1.7007 -0.0171
 4718SOL     OW25789   1.559   3.120   5.210 -0.7399  0.0667 -0.3828
 4718SOL    HW125790   1.599   3.124   5.123 -0.7648 -1.8550 -0.4801
 4718SOL    HW225791   1.588   3.033   5.238  2.4359  0.6938 -1.6986
 4719SOL     OW25792   3.283   2.786   3.582  0.0948 -0.0868  0.2045
 4719SOL    HW125793   3.365   2.779   3.534  0.7268 -1.9354  1.5533
 4719SOL    HW225794   3.268   2.693   3.597  1.7686 -0.3798  0.0122
 4720SOL     OW25795   0.240   1.244  17.563 -0.4686 -0.3103 -0.0581
 4720SOL    HW125796   0.265   1.153  17.574  1.4446  0.4144  1.5125
 4720SOL    HW225797   0.203   1.259  17.651  1.1464 -0.5158  0.6486
 4721SOL     OW25798   0.021   0.474   9.488  0.3345  0.5366 -0.7518
 4721SOL    HW125799   0.002   0.383   9.466 -2.5297  0.5642  1.5289
 4721SOL    HW225800   4.717   0.513   9.410 -1.5052  0.9666  0.3898
 4722SOL     OW25801   2.202   3.565   7.449  0.6969 -0.4076  0.1334
 4722SOL    HW125802   2.283   3.586   7.404  0.7734 -3.0064 -0.9209
 4722SOL    HW225803   2.148   3.566   7.370  0.6580 -0.6253  0.1565
 4723SOL     OW25804   4.337   3.184  14.781  0.0002 -0.0425  0.1501
 4723SOL    HW125805   4.335   3.178  14.877 -1.6381 -0.3990  0.0836
 4723SOL    HW225806   4.282   3.109  14.757 -0.0570 -0.5638  1.8563
 4724SOL     OW25807   3.311   2.812   1.876 -0.5234  0.7698 -0.2141
 4724SOL    HW125808   3.245   2.744   1.872  1.4193 -1.2611  1.6899
 4724SOL    HW225809   3.380   2.777   1.820 -0.4281 -1.5570  1.3453
 4725SOL     OW25810   3.749   4.205  15.560 -0.4937 -0.4545 -0.2320
 4725SOL    HW125811   3.838   4.197  15.593  0.0612  1.3646 -1.2849
 4725SOL    HW225812   3.745   4.124  15.508 -1.7509  0.2933 -1.3082
 4726SOL     OW25813   4.229   0.255   7.341 -0.3190 -0.0911  0.2177
 4726SOL    HW125814   4.224   0.241   7.435 -2.4676 -1.1667 -0.0584
 4726SOL    HW225815   4.188   0.179   7.299 -3.1585  0.7576  1.4849
 4727SOL     OW25816   1.931   2.490   0.833 -0.0290  0.3465 -0.0563
 4727SOL    HW125817   2.014   2.538   0.835 -0.2780  0.6961  2.2756
 4727SOL    HW225818   1.959   2.399   0.845 -0.4663  0.3962  1.3601
 4728SOL     OW25819   3.106   0.483   8.045 -0.0795 -0.1521 -0.4181
 4728SOL    HW125820   3.017   0.517   8.053 -0.2961 -0.2280 -2.5781
 4728SOL    HW225821   3.141   0.565   8.011  1.7487 -1.2921 -1.2399
 4729SOL     OW25822   1.285   1.989   1.929 -0.2305  0.3712  0.3612
 4729SOL    HW125823   1.205   2.034   1.901  0.3611  0.6261 -0.8822
 4729SOL    HW225824   1.287   1.934   1.851  2.0305 -0.3808  0.9503
 4730SOL     OW25825   1.939   0.803   3.503 -0.1245 -0.3979 -0.2726
 4730SOL    HW125826   2.025   0.817   3.542 -0.5417  3.0115 -0.6353
 4730SOL    HW225827   1.969   0.768   3.419 -1.5930  0.3851 -1.1217
 4731SOL     OW25828   3.793   3.502   2.230  0.2426 -0.4176 -0.3132
 4731SOL    HW125829   3.703   3.486   2.200  0.6609  0.2440 -1.8910
 4731SOL    HW225830   3.800   3.438   2.301 -1.1779 -0.5501 -0.2864
 4732SOL     OW25831   3.369   3.434  11.066 -0.0543  0.5958  0.0326
 4732SOL    HW125832   3.419   3.353  11.080 -1.9864 -0.2071  2.2539
 4732SOL    HW225833   3.318   3.437  11.147 -1.2281  2.1914 -0.7639
 4733SOL     OW25834   2.308   2.690   6.549  0.0225  0.1777 -0.4425
 4733SOL    HW125835   2.321   2.720   6.459  0.0080 -0.7892 -0.7634
 4733SOL    HW225836   2.270   2.771   6.582  0.1285 -0.4555  1.2692
 4734SOL     OW25837   3.780   0.598  14.653  0.3849  0.1800 -0.1761
 4734SOL    HW125838   3.803   0.571  14.742  2.1963 -0.3950 -0.8368
 4734SOL    HW225839   3.685   0.582  14.652  0.0633  1.7356  2.0062
 4735SOL     OW25840   2.911   3.044  14.770 -0.3271  0.1328 -0.0612
 4735SOL    HW125841   2.819   3.030  14.791 -0.0259 -0.4394  0.8591
 4735SOL    HW225842   2.931   3.134  14.796  0.3813  0.2865 -1.1561
 4736SOL     OW25843   0.085   0.710   4.789 -0.0624  0.5592 -0.2473
 4736SOL    HW125844   0.176   0.718   4.758 -0.0842  2.2952  0.1203
 4736SOL    HW225845   0.088   0.695   4.883 -1.1468 -3.2243 -0.8194
 4737SOL     OW25846   3.510   3.873   3.304  0.2040 -0.1399  0.4198
 4737SOL    HW125847   3.463   3.837   3.379 -1.3745  0.9206 -0.0634
 4737SOL    HW225848   3.437   3.887   3.244 -0.4189 -1.6509  0.8344
 4738SOL     OW25849   0.657   4.479   0.391 -0.2449  0.2398 -0.0260
 4738SOL    HW125850   0.577   4.448   0.433  0.6092 -0.4222  1.1119
 4738SOL    HW225851   0.712   4.401   0.382  0.3761  0.6253  0.4301
 4739SOL     OW25852   1.016   0.241   5.851  0.7125 -0.0958  0.2519
 4739SOL    HW125853   1.002   0.238   5.945 -1.5540 -1.7639 -0.1325
 4739SOL    HW225854   0.959   0.316   5.830 -0.2678 -1.2603 -1.2919
 4740SOL     OW25855   3.156   1.794   4.806 -0.3624  0.1175 -0.1700
 4740SOL    HW125856   3.210   1.871   4.826  0.6837 -1.5327  3.3445
 4740SOL    HW225857   3.107   1.792   4.888 -2.0126  0.4956 -1.1550
 4741SOL     OW25858   0.286   2.684   6.993 -0.3798 -0.1266  0.5196
 4741SOL    HW125859   0.223   2.756   6.988 -0.3079 -0.1360 -0.5159
 4741SOL    HW225860   0.332   2.709   7.073 -0.5817 -0.1419  0.6398
 4742SOL     OW25861   3.510   3.403   7.223  0.0049  0.1422 -0.5255
 4742SOL    HW125862   3.593   3.423   7.266 -0.5474  1.7370 -0.1970
 4742SOL    HW225863   3.440   3.404   7.288 -0.8529  1.0401 -1.4418
 4743SOL     OW25864   3.501   0.309   5.830 -0.3481 -0.0000 -0.1874
 4743SOL    HW125865   3.452   0.250   5.888 -1.7578 -0.8180 -2.2023
 4743SOL    HW225866   3.524   0.249   5.759 -0.0012 -0.0333 -0.0480
 4744SOL     OW25867   0.232   3.743  11.412 -0.1141 -0.5934 -1.5384
 4744SOL    HW125868   0.150   3.697  11.428 -0.9652  1.0775 -1.0615
 4744SOL    HW225869   0.255   3.772  11.500 -0.5752 -0.9487 -1.3033
 4745SOL     OW25870   3.787   0.559  11.194  0.0295 -0.2955 -0.4172
 4745SOL    HW125871   3.706   0.590  11.234  1.2277 -0.6406  2.2610
 4745SOL    HW225872   3.783   0.599  11.107  0.7554  0.5211 -0.0805
 4746SOL     OW25873   4.446   3.320   6.451  0.3780 -0.0740  0.3584
 4746SOL    HW125874   4.497   3.333   6.531  0.1966  4.1513 -0.2270
 4746SOL    HW225875   4.465   3.398   6.399 -1.6939 -0.1909 -0.5832
 4747SOL     OW25876   0.764   3.210   5.405  0.1379  0.1940  0.3806
 4747SOL    HW125877   0.781   3.179   5.494  1.7744  0.9751  0.3269
 4747SOL    HW225878   0.823   3.285   5.412 -0.7893  0.7831  1.8771
 4748SOL     OW25879   4.319   4.323  15.923 -0.4769 -0.0760  0.0304
 4748SOL    HW125880   4.336   4.388  15.992 -1.5933 -1.0820  1.2437
 4748SOL    HW225881   4.232   4.337  15.887 -0.9525 -1.4934  0.6669
 4749SOL     OW25882   3.238   0.448   6.539 -0.0564  0.5372 -0.1989
 4749SOL    HW125883   3.325   0.409   6.554 -0.3148  1.4515  3.6224
 4749SOL    HW225884   3.262   0.534   6.504 -1.8905  1.2034  0.2207
 4750SOL     OW25885   3.245   1.718   1.953 -0.0602  0.1426 -0.6729
 4750SOL    HW125886   3.193   1.740   1.876 -0.1121  2.2969 -0.0270
 4750SOL    HW225887   3.179   1.690   2.017  1.1098 -2.5973 -0.7008
 4751SOL     OW25888   2.957   0.202   0.796  0.1649  0.2072  0.2298
 4751SOL    HW125889   3.035   0.185   0.742  0.8086  0.2786  1.1483
 4751SOL    HW225890   2.901   0.148   0.739  0.3466 -0.9609  1.1554
 4752SOL     OW25891   4.132   3.438   6.229 -0.1761 -0.3258  0.0765
 4752SOL    HW125892   4.067   3.369   6.240 -0.7134  0.2941  0.7820
 4752SOL    HW225893   4.194   3.396   6.169  1.4732 -1.4457  2.5633
 4753SOL     OW25894   4.120   0.669   3.804  0.3857 -0.4381 -0.2020
 4753SOL    HW125895   4.034   0.641   3.836  1.1243  0.7227  2.7636
 4753SOL    HW225896   4.176   0.646   3.878  0.9462  1.5834  0.0051
 4754SOL     OW25897   0.955   3.085   1.292  0.7006  0.6505 -0.1662
 4754SOL    HW125898   0.888   3.062   1.357  0.8086 -0.4721 -0.4558
 4754SOL    HW225899   0.909   3.151   1.240 -3.9177 -1.3332  1.3549
 4755SOL     OW25900   3.224   3.949  10.734  0.5596  0.0809  0.0745
 4755SOL    HW125901   3.197   3.868  10.777  0.2975  1.1584  1.9264
 4755SOL    HW225902   3.147   4.006  10.744  2.2960  2.3810  0.1983
 4756SOL     OW25903   2.422   3.282   1.303 -0.1255 -0.0483  0.1455
 4756SOL    HW125904   2.430   3.265   1.397  0.1673 -0.4148  0.0496
 4756SOL    HW225905   2.330   3.309   1.295  0.2367  0.5577 -1.9958
 4757SOL     OW25906   3.567   3.830   9.513 -0.1478 -0.2734  0.0388
 4757SOL    HW125907   3.499   3.892   9.486  0.5048  0.1733 -0.6027
 4757SOL    HW225908   3.620   3.899   9.554 -0.6297  0.0628  0.0943
 4758SOL     OW25909   3.791   1.365   7.167  0.6304 -0.2736 -0.4060
 4758SOL    HW125910   3.819   1.453   7.142 -2.2475  0.3817 -1.4041
 4758SOL    HW225911   3.719   1.348   7.106  0.9149  1.1985 -1.1437
 4759SOL     OW25912   2.862   3.713   8.266 -0.5081 -0.7052 -0.3728
 4759SOL    HW125913   2.870   3.685   8.357 -1.1899  3.8855  1.0935
 4759SOL    HW225914   2.886   3.631   8.223  1.2283  0.0537 -0.8509
 4760SOL     OW25915   0.038   2.653   3.576  0.1416 -0.3318  0.2160
 4760SOL    HW125916   4.681   2.644   3.550 -0.1209  2.3265  0.2100
 4760SOL    HW225917   0.080   2.596   3.512  1.6932  1.3557 -0.2506
 4761SOL     OW25918   3.470   1.750   0.048 -0.2766  0.1591  0.3903
 4761SOL    HW125919   3.430   1.817  17.732 -0.5256 -0.7457 -0.5355
 4761SOL    HW225920   3.545   1.793   0.087 -0.2647  2.5507 -2.2464
 4762SOL     OW25921   2.792   4.598  14.056 -0.0629  0.0099  0.0677
 4762SOL    HW125922   2.735   4.667  14.023  0.0219  0.7095  1.3660
 4762SOL    HW225923   2.857   4.607  13.987 -0.1264  3.7992  0.5197
 4763SOL     OW25924   1.909   0.501   8.934  0.4110  0.5175  0.1163
 4763SOL    HW125925   1.911   0.419   8.884  0.0033  0.8527 -0.4631
 4763SOL    HW225926   1.993   0.545   8.933  0.1408  0.9981 -2.9793
 4764SOL     OW25927   1.220   3.675   2.427 -0.2489 -0.6460 -0.4964
 4764SOL    HW125928   1.255   3.736   2.363  1.7908 -2.7430 -1.3506
 4764SOL    HW225929   1.126   3.684   2.410 -0.0893  0.0173 -1.0442
 4765SOL     OW25930   1.807   1.824   7.434  0.1742  0.0634 -0.2371
 4765SOL    HW125931   1.866   1.762   7.476  1.9664  2.8337  1.3561
 4765SOL    HW225932   1.791   1.887   7.505  0.2879 -0.0953 -0.0699
 4766SOL     OW25933   1.257   0.851  14.080 -0.8395  0.1808  0.8401
 4766SOL    HW125934   1.269   0.930  14.028  1.2716 -0.3072  0.6147
 4766SOL    HW225935   1.163   0.838  14.065 -0.1284 -3.5369 -0.5323
 4767SOL     OW25936   3.608   3.116   0.657 -0.1207 -0.1847  0.2618
 4767SOL    HW125937   3.536   3.106   0.595 -0.2096 -1.0416  0.5015
 4767SOL    HW225938   3.673   3.058   0.617 -0.2385 -0.5527  0.6056
 4768SOL     OW25939   4.486   2.581  16.653 -0.1250  0.8002  0.1056
 4768SOL    HW125940   4.420   2.514  16.635  1.0008 -0.1887 -0.3541
 4768SOL    HW225941   4.563   2.537  16.617  0.0444 -0.0021  1.4673
 4769SOL     OW25942   4.625   0.544  15.547  0.0539  0.1320 -0.1668
 4769SOL    HW125943   4.647   0.549  15.640  1.3853  0.4928 -0.4946
 4769SOL    HW225944   4.700   0.593  15.513  0.3046  0.3930  0.7641
 4770SOL     OW25945   0.232   3.089  15.703 -0.2803  0.6679 -0.2401
 4770SOL    HW125946   0.245   3.175  15.744 -1.1336  1.1212 -0.9220
 4770SOL    HW225947   0.311   3.077  15.651  0.0338  1.7188 -0.0120
 4771SOL     OW25948   3.673   3.302   8.907 -0.0138  0.1965  0.2094
 4771SOL    HW125949   3.743   3.366   8.920 -2.6275  3.2432 -0.6447
 4771SOL    HW225950   3.697   3.257   8.826  2.0025  0.7919  0.4786
 4772SOL     OW25951   3.167   4.230   1.333  0.2358 -0.2472 -1.0441
 4772SOL    HW125952   3.081   4.196   1.310 -0.5766  0.7099  0.5911
 4772SOL    HW225953   3.205   4.167   1.394 -3.4922 -2.0742 -0.6586
 4773SOL     OW25954   0.411   3.285  13.302 -0.3885 -0.0624 -0.3928
 4773SOL    HW125955   0.481   3.313  13.361  0.3427 -0.1643 -1.2190
 4773SOL    HW225956   0.336   3.277  13.361 -0.7678 -0.4902 -0.9266
 4774SOL     OW25957   4.449   4.092  13.185 -0.3814 -0.0928 -0.2298
 4774SOL    HW125958   4.379   4.064  13.125  0.2771 -0.8904 -0.6168
 4774SOL    HW225959   4.410   4.157  13.244 -1.4922  0.3703 -1.4621
 4775SOL     OW25960   2.358   2.430   1.727 -0.6237  0.2251  0.0876
 4775SOL    HW125961   2.363   2.428   1.823 -0.6024  0.6590  0.0956
 4775SOL    HW225962   2.446   2.406   1.697 -1.6864 -0.1298 -2.7512
 4776SOL     OW25963   2.734   4.378   4.736  0.0174  0.2050 -0.4273
 4776SOL    HW125964   2.649   4.397   4.697 -0.3173 -1.5631 -0.5872
 4776SOL    HW225965   2.721   4.306   4.798  1.0190 -1.1771 -1.8293
 4777SOL     OW25966   4.318   2.770   3.360 -0.0142 -0.1935  0.4169
 4777SOL    HW125967   4.380   2.768   3.433  0.7114 -0.4959 -0.1984
 4777SOL    HW225968   4.377   2.795   3.289  1.0233  2.4710  2.2179
 4778SOL     OW25969   3.566   1.076  14.590 -0.5254  0.1870 -0.4956
 4778SOL    HW125970   3.612   1.135  14.650 -1.2245 -0.2233  0.4489
 4778SOL    HW225971   3.620   0.998  14.602  1.8914  2.2858  2.4487
 4779SOL     OW25972   3.679   3.045   6.904  0.0634  0.1314  0.3863
 4779SOL    HW125973   3.628   3.121   6.931  0.2084 -0.0742  1.2463
 4779SOL    HW225974   3.769   3.079   6.906 -0.0948  0.5353  0.6069
 4780SOL     OW25975   0.665   2.735   6.809 -0.2633 -0.1592  0.4533
 4780SOL    HW125976   0.686   2.795   6.880 -2.6480 -0.1558  1.1481
 4780SOL    HW225977   0.693   2.653   6.849 -0.5079 -0.8295 -0.7175
 4781SOL     OW25978   1.333   3.667   8.432  0.1027  0.5228  0.0210
 4781SOL    HW125979   1.328   3.571   8.429 -0.8404  0.4942  2.1695
 4781SOL    HW225980   1.273   3.685   8.505 -1.8330  2.7279 -2.1397
 4782SOL     OW25981   3.852   1.674   7.670 -0.3301  0.6540 -0.1905
 4782SOL    HW125982   3.915   1.742   7.694 -0.3259  0.9219 -0.9791
 4782SOL    HW225983   3.807   1.662   7.754  0.6289 -0.7881  0.0989
 4783SOL     OW25984   4.588   1.740  11.565  0.9708  0.0010 -0.5932
 4783SOL    HW125985   4.619   1.827  11.588 -0.0640  1.2570 -4.0178
 4783SOL    HW225986   4.513   1.736  11.624  1.6792  0.3985  0.3363
 4784SOL     OW25987   3.751   1.789  16.170  0.4030  0.5588 -0.4756
 4784SOL    HW125988   3.673   1.757  16.215  1.5311 -1.6415 -0.0995
 4784SOL    HW225989   3.713   1.840  16.099  2.1154  2.3880 -0.0974
 4785SOL     OW25990   3.448   0.549   2.847 -0.1517  0.0169 -0.5271
 4785SOL    HW125991   3.423   0.538   2.755  0.0050  0.8894 -0.6763
 4785SOL    HW225992   3.366   0.524   2.891  0.2966 -2.3904 -1.0543
 4786SOL     OW25993   1.042   3.672   5.158  0.7843  0.5121 -0.3561
 4786SOL    HW125994   1.037   3.701   5.249 -0.5431 -4.0430  1.0333
 4786SOL    HW225995   1.133   3.648   5.142  1.0426  0.4390  1.2534
 4787SOL     OW25996   2.710   2.338   4.608 -0.1448  0.2137 -0.0449
 4787SOL    HW125997   2.730   2.355   4.700 -1.7210  2.0228 -0.0404
 4787SOL    HW225998   2.676   2.421   4.576  2.0416  1.9919  2.1765
 4788SOL     OW25999   3.354   4.177   6.942  0.0904 -0.0218  0.2015
 4788SOL    HW126000   3.275   4.155   6.894 -0.2777  0.7059  0.4878
 4788SOL    HW226001   3.389   4.090   6.962 -0.2539 -0.1407  0.2873
 4789SOL     OW26002   0.707   2.808   8.672  0.5146 -0.1593  0.0684
 4789SOL    HW126003   0.630   2.863   8.658  2.0460  1.6855 -1.1374
 4789SOL    HW226004   0.694   2.730   8.619  0.7360  0.1924 -0.5027
 4790SOL     OW26005   4.236   2.946   5.122 -0.2936 -0.0786  0.5687
 4790SOL    HW126006   4.217   2.933   5.029  1.5885 -1.2120  0.3288
 4790SOL    HW226007   4.214   3.039   5.132 -3.1082 -0.8785  1.7608
 4791SOL     OW26008   4.105   0.448   5.824 -0.5620  0.2784 -0.0004
 4791SOL    HW126009   4.082   0.474   5.913  0.6354 -3.5613  1.4206
 4791SOL    HW226010   4.173   0.514   5.805 -0.6043  0.8039  1.6475
 4792SOL     OW26011   3.042   1.508  14.903 -0.5368  0.0371  0.4916
 4792SOL    HW126012   3.081   1.421  14.912 -0.5279  0.0451  0.5300
 4792SOL    HW226013   2.955   1.484  14.873 -0.3467 -0.9199  0.7194
 4793SOL     OW26014   4.091   1.642  11.722  0.6359  0.2835  0.5168
 4793SOL    HW126015   4.034   1.688  11.661  1.2552 -1.4022 -1.3302
 4793SOL    HW226016   4.031   1.622  11.794  1.4948  0.2083  1.2251
 4794SOL     OW26017   3.638   0.166   4.127 -0.3694 -0.0074  0.2070
 4794SOL    HW126018   3.651   0.245   4.180  0.8709 -0.9483  1.2891
 4794SOL    HW226019   3.665   0.086   4.172 -0.6596  0.7780  1.7652
 4795SOL     OW26020   3.110   1.530   2.944  0.4861 -0.4732  0.5218
 4795SOL    HW126021   3.170   1.500   3.012 -0.5090  0.0604  1.6234
 4795SOL    HW226022   3.173   1.554   2.876  2.3122 -0.5260  2.2068
 4796SOL     OW26023   3.583   1.118   1.915 -0.2294 -0.0071 -1.0295
 4796SOL    HW126024   3.652   1.053   1.930 -0.0335 -0.1781 -2.5686
 4796SOL    HW226025   3.613   1.149   1.829  0.9792  1.6828  0.0122
 4797SOL     OW26026   3.674   3.779   5.320  0.1574  0.2516  0.2061
 4797SOL    HW126027   3.678   3.711   5.388  0.7666  0.8999  0.8157
 4797SOL    HW226028   3.710   3.739   5.240 -1.7005  0.3648 -0.6733
 4798SOL     OW26029   3.300   2.459  15.408 -0.1474 -0.4428 -0.0283
 4798SOL    HW126030   3.369   2.435  15.470 -1.5805  0.1731  1.8175
 4798SOL    HW226031   3.321   2.551  15.391 -1.4083 -0.1336  0.0689
 4799SOL     OW26032   1.751   1.414   8.704  0.1197 -0.0457  0.2713
 4799SOL    HW126033   1.750   1.445   8.795  1.4493  0.1382  0.2180
 4799SOL    HW226034   1.812   1.470   8.658 -1.6695  2.2106  0.6356
 4800SOL     OW26035   0.276   4.217   1.779  0.2192 -0.0563 -0.0391
 4800SOL    HW126036   0.336   4.173   1.719  0.5303  0.1029  0.1501
 4800SOL    HW226037   0.196   4.191   1.734  0.8593  0.6431 -1.5950
 4801SOL     OW26038   3.227   0.692   1.481 -0.6438 -0.4911 -0.0989
 4801SOL    HW126039   3.168   0.747   1.533  0.2180 -1.7468  2.1941
 4801SOL    HW226040   3.174   0.676   1.403 -3.2298  2.1896  1.0672
 4802SOL     OW26041   3.476   3.126  16.695  1.3453 -0.1002 -0.3580
 4802SOL    HW126042   3.485   3.054  16.632 -0.0961  0.4182 -1.1651
 4802SOL    HW226043   3.402   3.183  16.673  2.5620  1.5201 -0.2398
 4803SOL     OW26044   0.663   4.451   8.120  0.5493 -0.1657  0.3388
 4803SOL    HW126045   0.610   4.526   8.150  0.2632 -0.6972  1.1629
 4803SOL    HW226046   0.714   4.495   8.052 -1.3497  2.4192  0.5551
 4804SOL     OW26047   1.722   2.758   3.085  0.8189  0.8837  0.4259
 4804SOL    HW126048   1.666   2.753   3.007  1.4303  1.2818 -0.0432
 4804SOL    HW226049   1.691   2.696   3.150 -0.5315  0.1142 -0.9467
 4805SOL     OW26050   4.275   0.579   4.012 -0.5463  1.3354  0.0291
 4805SOL    HW126051   4.233   0.496   4.034  1.7567  1.0242  3.3239
 4805SOL    HW226052   4.360   0.550   3.979  0.5350  1.5881  2.5749
 4806SOL     OW26053   1.193   4.021   6.108  0.2339  0.1825 -0.0045
 4806SOL    HW126054   1.244   4.088   6.154  0.4622 -1.2743  1.8450
 4806SOL    HW226055   1.262   3.958   6.086  1.2328 -0.0344  3.6991
 4807SOL     OW26056   3.155   0.989  15.127  0.1280  0.2423  0.4488
 4807SOL    HW126057   3.079   0.932  15.118 -1.6470  2.6883  0.0315
 4807SOL    HW226058   3.225   0.925  15.141  1.3806  1.8256  1.4515
 4808SOL     OW26059   1.278   0.656   4.926 -0.4728  0.4397  0.1436
 4808SOL    HW126060   1.371   0.650   4.903 -1.2550  0.2555 -3.0152
 4808SOL    HW226061   1.265   0.571   4.967  1.1559  1.4307  2.6981
 4809SOL     OW26062   3.817   1.942  10.131 -0.2695  0.3187  0.4998
 4809SOL    HW126063   3.809   1.906  10.220  3.5110  1.4702  1.3303
 4809SOL    HW226064   3.724   1.954  10.113  0.0677 -1.5973 -2.5876
 4810SOL     OW26065   0.740   1.393   3.334  0.5700  0.3657 -0.6176
 4810SOL    HW126066   0.709   1.313   3.291 -0.3025  0.5671 -0.3587
 4810SOL    HW226067   0.833   1.371   3.327  0.5590 -0.8001  2.9158
 4811SOL     OW26068   2.793   3.963   7.103 -0.8402 -0.6929  1.1618
 4811SOL    HW126069   2.822   4.043   7.146  2.5493 -0.7367 -0.9990
 4811SOL    HW226070   2.881   3.938   7.075 -1.2065 -1.2505  0.5086
 4812SOL     OW26071   0.003   1.831   1.195 -0.2577 -0.0325  0.1891
 4812SOL    HW126072   0.074   1.882   1.155  2.8174 -2.7240  2.2041
 4812SOL    HW226073   4.697   1.900   1.247  0.3409 -0.2772  0.9773
 4813SOL     OW26074   2.415   4.416   8.823 -0.1743 -0.2243  0.3981
 4813SOL    HW126075   2.477   4.462   8.880 -0.1410 -0.3674  0.4779
 4813SOL    HW226076   2.346   4.482   8.812  0.9569  0.2922 -3.4607
 4814SOL     OW26077   4.257   1.735   7.194  0.3319 -0.2259  0.8232
 4814SOL    HW126078   4.301   1.819   7.180 -2.2994  0.7632 -1.7182
 4814SOL    HW226079   4.336   1.685   7.211  0.2517 -0.4272  0.6116
 4815SOL     OW26080   4.498   2.814  14.216  0.2531 -0.3959  0.1936
 4815SOL    HW126081   4.534   2.810  14.128  0.8820 -0.8181  0.4764
 4815SOL    HW226082   4.562   2.761  14.263  0.6553  0.4736  0.6247
 4816SOL     OW26083   1.472   1.025   8.097  0.3357  0.3985  0.3272
 4816SOL    HW126084   1.505   1.111   8.120  1.9915 -0.2561  0.3663
 4816SOL    HW226085   1.422   1.051   8.019  0.6755 -0.9084 -0.3282
 4817SOL     OW26086   3.707   0.044   7.118 -0.0729 -0.1024  0.2248
 4817SOL    HW126087   3.657   0.124   7.135 -0.5341 -0.6937  1.6414
 4817SOL    HW226088   3.650   4.722   7.169  1.2258 -0.9268  0.7416
 4818SOL     OW26089   1.585   0.237   4.417  0.3972  0.0919  0.4133
 4818SOL    HW126090   1.596   0.142   4.420  0.8047  0.0895 -1.3738
 4818SOL    HW226091   1.613   0.254   4.507  2.7283 -0.3415 -0.2344
 4819SOL     OW26092   4.153   0.736   4.518  0.6930 -0.1436  0.6422
 4819SOL    HW126093   4.200   0.805   4.471  1.8792 -1.4291 -0.0173
 4819SOL    HW226094   4.225   0.683   4.550  0.6994 -0.5796 -0.1065
 4820SOL     OW26095   2.936   4.695  14.921 -0.0710 -0.2354  0.1994
 4820SOL    HW126096   2.977   4.648  14.848 -1.2994 -0.3803 -0.3988
 4820SOL    HW226097   2.860   4.637  14.920 -0.8880  0.8487  0.4069
 4821SOL     OW26098   4.727   3.037   1.204 -0.5638 -0.0024 -0.3887
 4821SOL    HW126099   4.720   3.053   1.110 -0.7252  2.5608  0.0525
 4821SOL    HW226100   4.637   3.021   1.232 -0.2608  0.6107  0.9506
 4822SOL     OW26101   3.210   3.410  14.893 -0.5690  0.3747 -0.7553
 4822SOL    HW126102   3.249   3.323  14.884  1.9617  1.2816  1.6741
 4822SOL    HW226103   3.281   3.456  14.937  1.8423 -1.0288 -3.2074
 4823SOL     OW26104   0.215   4.511   4.634  0.2826 -0.4409  0.4408
 4823SOL    HW126105   0.207   4.520   4.728 -0.5961  0.3020  0.2896
 4823SOL    HW226106   0.231   4.599   4.600  1.9568 -1.9659 -2.7741
 4824SOL     OW26107   2.222   2.711   4.016  0.3876  0.2304 -0.2581
 4824SOL    HW126108   2.196   2.681   4.104 -0.8194 -1.2088 -1.1100
 4824SOL    HW226109   2.308   2.670   4.007 -0.2459 -1.5893  2.0122
 4825SOL     OW26110   0.828   4.367   7.321 -0.4880 -0.5474 -0.4647
 4825SOL    HW126111   0.776   4.364   7.402  0.9954 -0.0251  0.4953
 4825SOL    HW226112   0.801   4.439   7.264 -1.3081 -1.8849 -1.7679
 4826SOL     OW26113   1.074   1.575  14.962 -0.0091  0.1317 -0.2320
 4826SOL    HW126114   1.084   1.507  15.029 -1.2535 -0.1348 -0.3158
 4826SOL    HW226115   1.115   1.653  14.999  0.4114 -0.9594  1.5794
 4827SOL     OW26116   2.618   2.796   1.147  0.3361  0.4937  0.0553
 4827SOL    HW126117   2.562   2.858   1.100 -0.6188 -0.6099 -0.3017
 4827SOL    HW226118   2.582   2.810   1.235  2.5010 -0.2470  1.0556
 4828SOL     OW26119   3.596   3.699   4.897  0.1183 -0.1041 -0.0097
 4828SOL    HW126120   3.664   3.729   4.836  1.3156 -2.4009  0.1795
 4828SOL    HW226121   3.540   3.776   4.904  1.4639  0.9329 -0.6685
 4829SOL     OW26122   4.677   2.203   3.491 -0.6128 -0.1026 -0.5792
 4829SOL    HW126123   4.581   2.201   3.488 -0.5959 -0.2566 -1.0505
 4829SOL    HW226124   4.683   2.295   3.516 -1.2697  0.0117 -0.8329
 4830SOL     OW26125   0.452   0.137   6.290  0.0079 -0.3049  0.2943
 4830SOL    HW126126   0.372   0.106   6.333  1.1505 -1.7817  1.3493
 4830SOL    HW226127   0.469   0.060   6.236  0.4592  0.6725 -0.9594
 4831SOL     OW26128   3.084   3.456   4.057  0.2828 -0.2542  0.2237
 4831SOL    HW126129   3.094   3.505   4.139  1.7732 -0.5014  0.2036
 4831SOL    HW226130   3.175   3.468   4.027  0.0057  1.1234 -0.0811
 4832SOL     OW26131   2.846   1.683   7.317  0.1248 -0.5463 -0.3914
 4832SOL    HW126132   2.805   1.607   7.277 -0.1219 -1.5800  1.8533
 4832SOL    HW226133   2.806   1.688   7.404 -1.7591 -0.1661 -1.2802
 4833SOL     OW26134   1.810   3.619   2.613  0.2703  0.6016 -0.3390
 4833SOL    HW126135   1.735   3.608   2.673 -0.4986 -1.0435 -1.6173
 4833SOL    HW226136   1.877   3.582   2.671  0.2380 -0.0450 -0.7279
 4834SOL     OW26137   3.711   3.885   6.358  0.5275 -0.1016  0.0813
 4834SOL    HW126138   3.733   3.938   6.435  0.8590  0.5903 -0.4895
 4834SOL    HW226139   3.616   3.876   6.351  0.5582 -1.1399  0.9102
 4835SOL     OW26140   4.292   4.576   0.870 -0.1534  0.3449 -0.1801
 4835SOL    HW126141   4.362   4.518   0.900 -1.7920 -0.8074  1.4052
 4835SOL    HW226142   4.330   4.619   0.793 -3.8652  2.0735 -1.0216
 4836SOL     OW26143   2.693   3.348  13.882  0.7209  0.1997  0.1620
 4836SOL    HW126144   2.611   3.397  13.885  0.3785 -0.3786  0.3554
 4836SOL    HW226145   2.715   3.340  13.975 -0.9595 -1.5163  0.4099
 4837SOL     OW26146   1.300   0.699   1.758 -0.4501 -0.6195  0.1411
 4837SOL    HW126147   1.213   0.666   1.738 -0.9419  1.9877 -2.0179
 4837SOL    HW226148   1.352   0.621   1.736 -0.4491 -0.6247  0.1616
 4838SOL     OW26149   4.012   3.443   1.823  0.4390 -0.0918 -0.6908
 4838SOL    HW126150   3.974   3.463   1.737 -1.0236  1.7588  0.3728
 4838SOL    HW226151   3.986   3.517   1.879 -0.6477 -0.3458 -0.8548
 4839SOL     OW26152   2.564   1.955   5.226  0.2034 -0.3554  0.0264
 4839SOL    HW126153   2.492   1.984   5.282  0.9537  2.3078 -0.4049
 4839SOL    HW226154   2.623   2.029   5.242 -0.3071  0.2737 -0.9699
 4840SOL     OW26155   3.723   3.320   3.666  0.4851 -0.1380 -0.2834
 4840SOL    HW126156   3.808   3.347   3.631  1.6507 -1.1309  1.7281
 4840SOL    HW226157   3.658   3.368   3.615  2.5842  2.0766 -0.8672
 4841SOL     OW26158   4.331   0.658   6.155  0.3602  0.6779 -0.6697
 4841SOL    HW126159   4.252   0.688   6.110  0.1174  0.7346 -0.2069
 4841SOL    HW226160   4.354   0.738   6.203 -0.6222  1.0628 -0.8272
 4842SOL     OW26161   1.031   0.467  11.430  0.8654  0.7919  0.0016
 4842SOL    HW126162   0.963   0.491  11.367  0.3705 -1.3798 -0.2763
 4842SOL    HW226163   1.104   0.488  11.371 -0.4680  3.0131 -0.8948
 4843SOL     OW26164   0.376   4.081   4.412 -0.0332 -0.1927 -0.0774
 4843SOL    HW126165   0.430   4.050   4.485 -0.0621 -1.0581 -0.4224
 4843SOL    HW226166   0.288   4.057   4.442 -0.3417  0.0378 -0.7928
 4844SOL     OW26167   4.473   1.018   7.906  0.2193  0.3100  0.0394
 4844SOL    HW126168   4.389   1.043   7.866 -1.2867  0.9992  3.6850
 4844SOL    HW226169   4.531   1.057   7.841 -0.1836 -1.0637 -1.1433
 4845SOL     OW26170   0.819   2.187   2.927  0.0407 -0.1089 -0.2166
 4845SOL    HW126171   0.817   2.172   3.021 -0.6523 -0.9995 -0.3759
 4845SOL    HW226172   0.758   2.119   2.898  0.3767 -0.0956 -0.9414
 4846SOL     OW26173   2.379   1.857   8.676 -0.1194  0.0926  0.5315
 4846SOL    HW126174   2.299   1.851   8.624 -0.0841  0.2300  0.4605
 4846SOL    HW226175   2.407   1.770   8.702  1.6664  0.8391  1.1359
 4847SOL     OW26176   4.553   3.081  12.574 -0.2230  0.1628 -1.0093
 4847SOL    HW126177   4.505   3.071  12.491  2.0821 -0.5225 -2.2660
 4847SOL    HW226178   4.583   2.991  12.583  0.3090  0.3435 -0.9704
 4848SOL     OW26179   1.869   4.661   7.780 -0.4852  0.0816  1.0914
 4848SOL    HW126180   1.939   4.702   7.729 -0.0080 -2.0954 -0.0036
 4848SOL    HW226181   1.794   4.671   7.721  0.2627 -0.8315 -0.0195
 4849SOL     OW26182   4.034   4.409  14.174  0.0768 -0.5924 -0.2374
 4849SOL    HW126183   4.062   4.484  14.120  0.5336 -1.1467 -0.7753
 4849SOL    HW226184   4.025   4.337  14.111  1.7023 -1.5211  0.5912
 4850SOL     OW26185   4.047   4.318   9.758 -0.0759 -0.3426  0.3389
 4850SOL    HW126186   4.068   4.226   9.741  1.1976  0.3365 -1.6801
 4850SOL    HW226187   4.133   4.360   9.767  0.6491 -2.0778  1.7694
 4851SOL     OW26188   1.472   0.979   0.585  0.2466 -0.1153 -0.1364
 4851SOL    HW126189   1.499   1.060   0.629  1.5702  0.5205 -2.0837
 4851SOL    HW226190   1.478   1.008   0.494  2.2400  2.1614  0.7158
 4852SOL     OW26191   3.403   1.893   5.560  0.4028  0.2142 -0.3722
 4852SOL    HW126192   3.486   1.867   5.599  0.0886  1.3642  1.0589
 4852SOL    HW226193   3.393   1.984   5.589 -0.8164 -0.4718  1.3487
 4853SOL     OW26194   0.428   1.112   2.020 -0.5425  0.2790  0.1011
 4853SOL    HW126195   0.402   1.025   2.051 -1.4075  1.2948  2.2631
 4853SOL    HW226196   0.439   1.151   2.107  1.1427  0.2988 -0.1215
 4854SOL     OW26197   0.788   3.114   4.083  0.3039  0.1457 -0.4067
 4854SOL    HW126198   0.754   3.162   4.008 -0.3630  1.3199  0.6541
 4854SOL    HW226199   0.864   3.165   4.112  0.1248  0.4109 -0.4055
 4855SOL     OW26200   1.574   4.323   5.352  0.1712  0.5314  0.3268
 4855SOL    HW126201   1.495   4.275   5.329 -0.6084  2.3049 -0.6725
 4855SOL    HW226202   1.539   4.374   5.425  1.6267  1.6020  0.2824
 4856SOL     OW26203   1.697   3.030  11.228  0.3456  0.1873 -0.3583
 4856SOL    HW126204   1.635   3.090  11.188 -0.2103 -1.4327 -1.9442
 4856SOL    HW226205   1.714   2.971  11.154  0.6631 -1.4486  1.0134
 4857SOL     OW26206   2.372   0.144  12.252 -0.1800  0.3366 -0.6325
 4857SOL    HW126207   2.420   0.085  12.310 -1.5530  0.6728  0.8460
 4857SOL    HW226208   2.304   0.083  12.224 -1.5852  1.2513  0.7905
 4858SOL     OW26209   1.313   1.780  15.583 -0.3404  0.4301 -0.3052
 4858SOL    HW126210   1.388   1.742  15.536 -0.7960 -0.0062 -0.6810
 4858SOL    HW226211   1.241   1.733  15.540  1.1913 -2.1849 -0.0466
 4859SOL     OW26212   0.785   4.434   8.887  0.0070 -0.4205  0.6432
 4859SOL    HW126213   0.872   4.468   8.863 -1.0869  1.7505 -0.2114
 4859SOL    HW226214   0.816   4.393   8.968  0.5470  0.8778  1.0891
 4860SOL     OW26215   1.330   0.102   7.113 -0.3173  0.1218  0.1968
 4860SOL    HW126216   1.256   0.135   7.062 -1.4105 -3.4968 -0.6332
 4860SOL    HW226217   1.394   0.150   7.061  1.6337 -0.9748  1.5853
 4861SOL     OW26218   3.374   2.945   1.576 -0.3933 -0.0934 -0.6743
 4861SOL    HW126219   3.368   2.931   1.481  1.7288  2.4531 -1.1959
 4861SOL    HW226220   3.400   2.857   1.600  1.2833  0.4212 -0.6262
 4862SOL     OW26221   4.656   1.649   1.602 -0.1220  0.4888 -0.1999
 4862SOL    HW126222   4.573   1.604   1.622  0.7771 -1.8446 -1.7005
 4862SOL    HW226223   4.643   1.738   1.635  0.5147  0.2761  0.5942
 4863SOL     OW26224   2.615   1.751   1.339  0.0799  0.0471  0.7567
 4863SOL    HW126225   2.701   1.721   1.309  0.9765  2.0505  1.2815
 4863SOL    HW226226   2.637   1.835   1.381  0.0892 -0.0877  1.0216
 4864SOL     OW26227   3.663   2.313  16.508  0.2684  0.2630  0.1474
 4864SOL    HW126228   3.688   2.226  16.539  1.1572 -0.4337 -2.5457
 4864SOL    HW226229   3.733   2.323  16.445  1.3024 -1.9398  0.9526
 4865SOL     OW26230   3.150   2.975  13.761 -0.4453 -0.5598  0.6558
 4865SOL    HW126231   3.168   3.065  13.789 -1.3502  0.5429 -2.3222
 4865SOL    HW226232   3.239   2.949  13.740 -0.3065  1.1000 -0.8245
 4866SOL     OW26233   1.047   1.121   1.775  0.2935  0.1419 -0.6379
 4866SOL    HW126234   1.026   1.087   1.688 -1.8872  1.1598 -0.5051
 4866SOL    HW226235   1.141   1.127   1.761  0.6379  0.8767  2.0762
 4867SOL     OW26236   4.192   1.117   3.629  0.5883 -0.3528  0.2617
 4867SOL    HW126237   4.265   1.143   3.686  0.2784 -1.0656  0.9879
 4867SOL    HW226238   4.203   1.024   3.647  0.3292 -0.9955 -3.0283
 4868SOL     OW26239   0.295   3.835   5.984  0.4125 -0.2156 -0.2002
 4868SOL    HW126240   0.216   3.870   6.024  1.1779  0.9799  0.2655
 4868SOL    HW226241   0.328   3.767   6.042 -0.9026  0.7204  1.6483
 4869SOL     OW26242   0.562   2.193   5.344 -0.0458 -0.3986 -0.2288
 4869SOL    HW126243   0.503   2.159   5.410  0.4822  0.6458  0.7853
 4869SOL    HW226244   0.576   2.110   5.299  2.3437 -0.3789  0.4993
 4870SOL     OW26245   1.892   0.658   4.010 -0.3090 -0.0339  0.2879
 4870SOL    HW126246   1.844   0.720   4.065 -0.2493  1.5391 -1.4282
 4870SOL    HW226247   1.975   0.683   4.049 -0.5185 -1.8695  1.9123
 4871SOL     OW26248   0.316   1.688  15.783 -0.5449  0.6094  0.1654
 4871SOL    HW126249   0.356   1.683  15.696 -0.3067 -3.2916  0.5148
 4871SOL    HW226250   0.380   1.750  15.819  2.1016 -0.2671 -3.1044
 4872SOL     OW26251   0.232   1.959   4.528 -0.3500  0.3054  0.3582
 4872SOL    HW126252   0.263   2.012   4.454 -1.3807  1.0939  0.4990
 4872SOL    HW226253   0.146   1.938   4.491 -0.3798 -0.5572  0.9213
 4873SOL     OW26254   2.488   1.232  10.616  0.2018 -0.6143 -0.1697
 4873SOL    HW126255   2.559   1.168  10.615 -0.8134 -1.6930 -2.7123
 4873SOL    HW226256   2.537   1.289  10.556 -1.6440  0.9649 -0.1959
 4874SOL     OW26257   3.349   3.069   1.972  0.1661 -0.9730 -0.0646
 4874SOL    HW126258   3.348   2.979   1.939 -1.2833 -0.8597 -0.3499
 4874SOL    HW226259   3.371   3.053   2.063 -1.5584 -0.7550  0.3763
 4875SOL     OW26260   0.336   0.118   9.564 -0.1166 -0.4435 -0.2970
 4875SOL    HW126261   0.414   0.139   9.512  1.5929  0.2712  2.5549
 4875SOL    HW226262   0.355   0.154   9.651  0.8344  0.7431 -1.0027
 4876SOL     OW26263   1.609   4.296   2.188  0.1474 -0.8526 -0.1615
 4876SOL    HW126264   1.634   4.208   2.218 -0.2931 -0.9327 -0.0263
 4876SOL    HW226265   1.641   4.353   2.258  1.9686 -0.4855 -1.3017
 4877SOL     OW26266   0.133   3.652   9.380 -0.2766 -0.5056  0.6491
 4877SOL    HW126267   0.102   3.565   9.402 -1.3101 -0.0915  0.8311
 4877SOL    HW226268   0.138   3.644   9.284 -0.2712 -0.6408  0.6613
 4878SOL     OW26269   3.147   1.531   1.541 -0.5549 -0.2977 -0.6929
 4878SOL    HW126270   3.115   1.443   1.519  1.3199 -1.2435  0.3401
 4878SOL    HW226271   3.240   1.517   1.562 -0.4362 -0.6316 -1.4530
 4879SOL     OW26272   3.391   3.611  10.846 -0.0850 -0.1435 -0.7660
 4879SOL    HW126273   3.377   3.557  10.925  2.5943 -0.8308 -0.7617
 4879SOL    HW226274   3.485   3.623  10.859 -0.3579 -0.7448  1.8408
 4880SOL     OW26275   3.065   0.451  13.561 -0.0196  0.1737  0.1340
 4880SOL    HW126276   3.157   0.424  13.560 -0.2102 -0.4086 -1.1720
 4880SOL    HW226277   3.054   0.425  13.653 -0.8222 -0.0162 -0.0181
 4881SOL     OW26278   2.754   0.778   5.126 -0.4426  0.2058  0.2543
 4881SOL    HW126279   2.727   0.706   5.182  1.1365 -1.2207 -0.8417
 4881SOL    HW226280   2.680   0.838   5.139 -1.9153 -1.5865  0.1157
 4882SOL     OW26281   0.145   2.179   4.700 -0.6935  0.7657 -0.0062
 4882SOL    HW126282   0.238   2.198   4.689 -0.4076  0.2120  1.4474
 4882SOL    HW226283   0.150   2.091   4.661  0.5195  1.1780 -0.7701
 4883SOL     OW26284   1.860   4.686   1.555  0.0841  0.7106  0.6835
 4883SOL    HW126285   1.812   4.703   1.474  0.2630 -3.2560 -0.2701
 4883SOL    HW226286   1.811   4.608   1.582  2.1610 -1.0552 -0.6500
 4884SOL     OW26287   3.968   1.480   5.093  0.2532 -0.5287  0.0063
 4884SOL    HW126288   3.943   1.561   5.048  0.3728 -0.4691  0.0467
 4884SOL    HW226289   3.883   1.449   5.123 -0.4679  0.0028 -1.4824
 4885SOL     OW26290   1.313   2.368   7.278  0.0527  0.4101 -0.0815
 4885SOL    HW126291   1.249   2.297   7.288 -1.3347  1.7581  0.7390
 4885SOL    HW226292   1.379   2.321   7.228 -0.2592  0.2509 -0.3435
 4886SOL     OW26293   3.698   0.931  14.807  0.3057  0.4170 -0.0964
 4886SOL    HW126294   3.747   1.008  14.837  0.2937  0.3973 -0.0244
 4886SOL    HW226295   3.759   0.900  14.741 -2.0572 -1.4182 -1.3938
 4887SOL     OW26296   2.172   3.302   1.902  0.3330 -0.0497  0.4205
 4887SOL    HW126297   2.191   3.373   1.842 -2.2338 -0.7357 -1.2109
 4887SOL    HW226298   2.183   3.227   1.843 -0.8054 -0.4861  0.7710
 4888SOL     OW26299   0.983   3.581   4.769 -0.5093  0.3391  0.2077
 4888SOL    HW126300   1.036   3.553   4.694 -0.3582 -0.9453  0.8088
 4888SOL    HW226301   0.901   3.562   4.725  0.5413 -2.4554 -0.4965
 4889SOL     OW26302   3.540   2.484   4.799 -0.4945 -0.6680 -0.5388
 4889SOL    HW126303   3.537   2.425   4.874 -0.3046 -0.2131 -0.1764
 4889SOL    HW226304   3.612   2.541   4.825  1.1407 -1.3652 -3.4728
 4890SOL     OW26305   0.656   0.535  13.038  0.4453 -0.7575  0.2531
 4890SOL    HW126306   0.697   0.533  12.952 -3.7365  2.6527 -1.8309
 4890SOL    HW226307   0.669   0.444  13.065 -0.3972 -1.3159 -1.2419
 4891SOL     OW26308   2.556   1.536   5.149  0.4149 -0.2240 -0.5194
 4891SOL    HW126309   2.497   1.583   5.207  2.5332  1.1253  0.5382
 4891SOL    HW226310   2.532   1.443   5.148 -0.7492  0.0761  1.1849
 4892SOL     OW26311   3.051   1.915   5.741  0.2652 -0.1845 -0.1130
 4892SOL    HW126312   2.973   1.918   5.796  0.2040  1.8414 -0.3022
 4892SOL    HW226313   3.076   2.007   5.752  2.3452 -0.9997  2.1059
 4893SOL     OW26314   2.114   4.500  17.245 -0.2014 -0.6318  0.4875
 4893SOL    HW126315   2.118   4.595  17.235 -2.1188 -0.5775  0.1424
 4893SOL    HW226316   2.027   4.495  17.206  0.1121 -3.2577  0.1387
 4894SOL     OW26317   1.236   4.303  10.370  0.0973 -0.1405  0.2629
 4894SOL    HW126318   1.298   4.311  10.443  0.8460 -1.6502 -0.2050
 4894SOL    HW226319   1.305   4.292  10.305 -0.1445 -1.6982  0.2742
 4895SOL     OW26320   4.671   2.004   6.468  0.0145 -0.0592  0.0758
 4895SOL    HW126321   0.014   1.986   6.415  0.2220 -0.3779  0.4912
 4895SOL    HW226322   4.598   2.002   6.405  0.8746 -3.3010 -0.8260
 4896SOL     OW26323   2.006   1.263   6.558  0.2834 -0.0084 -0.1118
 4896SOL    HW126324   2.072   1.319   6.516  0.3082  0.2219  0.2352
 4896SOL    HW226325   2.011   1.184   6.503  1.3277 -0.5074  0.6953
 4897SOL     OW26326   1.488   0.620   4.408 -0.4655 -0.1283  0.7117
 4897SOL    HW126327   1.423   0.647   4.343 -0.4138  1.6114  1.3775
 4897SOL    HW226328   1.434   0.552   4.449  1.0247 -1.0136  1.2065
 4898SOL     OW26329   4.205   1.270   2.394 -0.3435 -0.4264 -0.3141
 4898SOL    HW126330   4.120   1.231   2.376  0.2375 -1.7350 -0.1625
 4898SOL    HW226331   4.259   1.199   2.360  2.3640  1.2823  0.4058
 4899SOL     OW26332   3.782   3.578   8.743 -0.3945 -0.0469  0.6755
 4899SOL    HW126333   3.793   3.672   8.759 -0.9383 -0.1738  1.8072
 4899SOL    HW226334   3.842   3.541   8.808 -0.9159 -0.0996  1.1308
 4900SOL     OW26335   3.393   3.587  16.109  0.2825  0.1477  0.0262
 4900SOL    HW126336   3.487   3.595  16.120  0.2807  0.1027  0.0750
 4900SOL    HW226337   3.373   3.524  16.179 -0.4755  0.2680 -0.0801
 4901SOL     OW26338   0.542   4.271   8.388  0.3257 -0.2722 -0.2506
 4901SOL    HW126339   0.456   4.287   8.426  0.0110 -0.8448 -0.7197
 4901SOL    HW226340   0.581   4.203   8.443 -0.2403  0.5175  1.1296
 4902SOL     OW26341   4.233   3.876   6.815 -0.1486 -0.2046 -0.3176
 4902SOL    HW126342   4.211   3.842   6.901 -1.2751  2.2372  0.3395
 4902SOL    HW226343   4.182   3.956   6.811  0.1866 -0.0354 -1.2909
 4903SOL     OW26344   2.238   2.677   5.046  0.1909 -0.4389 -0.1055
 4903SOL    HW126345   2.145   2.654   5.043 -0.3440  1.7624 -0.7244
 4903SOL    HW226346   2.247   2.675   5.141  2.9162  0.5116 -0.3463
 4904SOL     OW26347   2.822   0.551   8.059 -0.4534 -1.2574  0.1476
 4904SOL    HW126348   2.760   0.612   8.018  0.6147  0.4356  1.0909
 4904SOL    HW226349   2.758   0.484   8.085 -0.8959  0.0340  2.3603
 4905SOL     OW26350   0.484   4.653   8.261 -0.0951  0.0811  0.2444
 4905SOL    HW126351   0.406   4.618   8.218  1.0622 -1.0802 -0.9201
 4905SOL    HW226352   0.490   0.009   8.232 -1.6649  0.3016  0.6211
 4906SOL     OW26353   2.331   1.592   5.431 -0.4255  0.6512 -0.1645
 4906SOL    HW126354   2.251   1.588   5.379 -0.2464 -2.0498 -0.2352
 4906SOL    HW226355   2.299   1.635   5.510  1.0541  0.6064  0.4539
 4907SOL     OW26356   1.953   4.179  13.872 -0.3212 -0.5790 -0.4633
 4907SOL    HW126357   1.882   4.164  13.934  1.3163 -0.5348  1.4141
 4907SOL    HW226358   2.008   4.101  13.882  0.6609  0.5259  2.7616
 4908SOL     OW26359   2.146   2.685   8.791 -1.4003 -0.1353  0.2099
 4908SOL    HW126360   2.116   2.643   8.710  0.4131 -0.9467 -0.0647
 4908SOL    HW226361   2.090   2.644   8.857 -1.0009 -2.1603 -0.6984
 4909SOL     OW26362   1.493   0.741   7.574  0.4402 -0.5126  0.8732
 4909SOL    HW126363   1.524   0.653   7.595 -1.8397 -1.5672 -0.1810
 4909SOL    HW226364   1.553   0.789   7.632  0.1219  1.1867 -0.2066
 4910SOL     OW26365   2.446   1.320   1.120 -0.3015 -0.1827 -0.3847
 4910SOL    HW126366   2.525   1.363   1.086 -0.9638  0.6401 -0.9019
 4910SOL    HW226367   2.403   1.288   1.040  1.8664  2.0165 -2.4370
 4911SOL     OW26368   3.798   0.072   5.047 -0.4811 -0.2445 -0.4054
 4911SOL    HW126369   3.881   0.029   5.069  0.9161  2.3315 -0.7092
 4911SOL    HW226370   3.814   0.164   5.069  0.1363 -0.8543  1.7485
 4912SOL     OW26371   2.731   0.504   3.871  0.0583  0.4816 -0.1060
 4912SOL    HW126372   2.692   0.438   3.928 -1.2390  0.8399 -0.5755
 4912SOL    HW226373   2.740   0.451   3.792  0.2035 -0.2206  0.3817
 4913SOL     OW26374   1.146   1.530   1.055 -0.2434 -0.5413  0.2332
 4913SOL    HW126375   1.075   1.501   1.113  0.7483  1.4852  2.4763
 4913SOL    HW226376   1.170   1.613   1.096 -0.0788  1.0593 -3.0983
 4914SOL     OW26377   1.959   3.021   6.086 -0.8512  0.0063 -0.1795
 4914SOL    HW126378   1.864   3.011   6.087 -0.5718 -2.5830 -2.7164
 4914SOL    HW226379   1.963   3.114   6.065 -0.1464  0.5718  2.3982
 4915SOL     OW26380   2.465   0.294   4.736 -0.9564  0.0197 -0.2621
 4915SOL    HW126381   2.554   0.297   4.771 -1.8366 -0.3432  2.0231
 4915SOL    HW226382   2.414   0.232   4.788 -1.6637 -0.5759 -1.6626
 4916SOL     OW26383   3.523   0.087   2.789 -0.1161  0.5285 -0.0894
 4916SOL    HW126384   3.562   0.050   2.709 -0.8698 -2.2381  0.8194
 4916SOL    HW226385   3.432   0.104   2.764 -1.0913 -1.5198  2.1074
 4917SOL     OW26386   1.074   4.160   2.558  0.0854  0.4735  0.2204
 4917SOL    HW126387   1.146   4.127   2.611  0.0313 -1.3444 -0.8265
 4917SOL    HW226388   1.106   4.127   2.474  0.3063 -0.4329  0.6599
 4918SOL     OW26389   2.930   3.122   1.660 -0.2784  0.0106 -0.1080
 4918SOL    HW126390   2.868   3.157   1.725 -0.0189  0.5761 -0.1698
 4918SOL    HW226391   3.013   3.153   1.697 -1.1578  0.9959  1.0395
 4919SOL     OW26392   4.615   3.941   4.306  0.5237 -0.1434 -0.0918
 4919SOL    HW126393   4.666   3.909   4.231 -1.0096  1.2458 -1.6949
 4919SOL    HW226394   4.685   3.991   4.348  1.5826 -1.3094 -0.4575
 4920SOL     OW26395   1.755   2.460   5.045  0.1481  0.3380 -0.4510
 4920SOL    HW126396   1.686   2.437   5.108 -1.3672  0.0652 -2.2120
 4920SOL    HW226397   1.732   2.403   4.972 -0.8292  0.3747 -0.1691
 4921SOL     OW26398   0.952   1.756   5.993  0.2705  0.0907  0.1041
 4921SOL    HW126399   0.925   1.805   5.915 -0.1106  2.2253  1.5988
 4921SOL    HW226400   1.010   1.688   5.959 -2.2900 -1.2230 -1.6053
 4922SOL     OW26401   2.948   4.106  12.543 -0.0416  0.2438  0.0885
 4922SOL    HW126402   2.860   4.080  12.570  0.0315 -0.4516 -0.3480
 4922SOL    HW226403   2.955   4.198  12.570  0.7924  0.2679 -0.2211
 4923SOL     OW26404   1.316   4.011   1.020 -0.0188  0.6113  0.5362
 4923SOL    HW126405   1.221   4.001   1.012  0.6866 -2.6224 -3.7896
 4923SOL    HW226406   1.351   3.929   0.984 -0.2396  0.7952 -0.1057
 4924SOL     OW26407   0.422   4.596   3.032  0.3208  0.0704 -0.4121
 4924SOL    HW126408   0.352   4.613   3.095  0.8680  0.7801  0.0049
 4924SOL    HW226409   0.494   4.633   3.084 -1.1375  0.7677  1.1451
 4925SOL     OW26410   0.597   4.384   6.111 -0.5297  0.2271 -0.4682
 4925SOL    HW126411   0.623   4.331   6.036 -2.7073 -1.0170 -0.3411
 4925SOL    HW226412   0.669   4.358   6.169 -1.3027 -1.8261 -0.4465
 4926SOL     OW26413   3.998   0.644   4.248  0.8834  0.4433 -0.0854
 4926SOL    HW126414   3.996   0.662   4.342 -1.0364 -0.5662  0.0660
 4926SOL    HW226415   3.904   0.628   4.237  0.4841  1.8205  1.2683
 4927SOL     OW26416   1.104   0.489   6.854  0.6994  0.7710 -0.7685
 4927SOL    HW126417   1.092   0.454   6.766 -0.9150 -0.7889  0.0738
 4927SOL    HW226418   1.129   0.413   6.905  1.4240  3.1763  2.4828
 4928SOL     OW26419   1.939   0.900   8.380  0.4544  0.5013  0.2014
 4928SOL    HW126420   1.883   0.830   8.344 -0.2455  1.7966 -1.2353
 4928SOL    HW226421   2.004   0.843   8.421  0.5961 -1.0444 -2.1412
 4929SOL     OW26422   0.051   1.982   2.900 -0.2587  0.5061  0.2922
 4929SOL    HW126423   0.050   1.945   2.811  0.3802 -0.0113  0.4953
 4929SOL    HW226424   4.700   1.959   2.935 -0.1651 -0.6964 -0.2663
 4930SOL     OW26425   3.877   3.044   2.313 -0.4731 -0.1907  0.4970
 4930SOL    HW126426   3.910   2.990   2.241 -0.5416  0.6737 -0.1914
 4930SOL    HW226427   3.782   3.037   2.300 -0.3836  0.6696 -0.6141
 4931SOL     OW26428   4.338   2.679   4.643  0.4956 -0.3136 -0.4412
 4931SOL    HW126429   4.366   2.589   4.660  2.4848  0.6643  1.4339
 4931SOL    HW226430   4.385   2.723   4.714 -0.4202  1.3520 -0.8777
 4932SOL     OW26431   0.549   2.533   5.000 -0.0578 -0.3474  0.0759
 4932SOL    HW126432   0.609   2.574   5.062  2.3005 -2.7881 -0.5545
 4932SOL    HW226433   0.582   2.569   4.917  2.9271 -2.0307  0.5227
 4933SOL     OW26434   0.099   3.253   6.809 -0.4732 -0.1599  0.0077
 4933SOL    HW126435   0.126   3.318   6.874 -0.8640  2.0098 -1.9610
 4933SOL    HW226436   0.178   3.267   6.758 -0.4849  0.5292  0.1725
 4934SOL     OW26437   2.200   2.203   1.938  0.4212  0.7331 -0.4843
 4934SOL    HW126438   2.167   2.129   1.989 -0.3242  1.5971  0.2938
 4934SOL    HW226439   2.169   2.181   1.850  3.2220  0.1396 -1.3260
 4935SOL     OW26440   0.743   2.379   7.516  0.1257  0.0227  0.2195
 4935SOL    HW126441   0.791   2.460   7.502  2.2179 -1.2982 -0.1859
 4935SOL    HW226442   0.718   2.382   7.608 -0.2624  0.6547  0.0956
 4936SOL     OW26443   3.504   4.473   3.603  0.5337 -0.2263  0.5343
 4936SOL    HW126444   3.444   4.494   3.674 -1.2589  0.8854 -1.2896
 4936SOL    HW226445   3.482   4.381   3.590  2.7274 -0.9163  1.7791
 4937SOL     OW26446   4.679   0.713   2.159  0.0867  0.1834 -0.5494
 4937SOL    HW126447   4.724   0.634   2.127  0.8046  0.2723  0.2163
 4937SOL    HW226448   4.667   0.684   2.250 -0.7046  0.1763 -0.6565
 4938SOL     OW26449   0.650   3.444  16.997  0.2347 -0.0800  0.0348
 4938SOL    HW126450   0.590   3.507  16.957  1.3391 -0.1058 -1.6571
 4938SOL    HW226451   0.668   3.475  17.086 -2.0795 -0.7220  0.7314
 4939SOL     OW26452   2.247   3.989   2.475 -0.6933  0.6412 -0.3580
 4939SOL    HW126453   2.325   4.033   2.509 -0.3002  2.2625 -3.3462
 4939SOL    HW226454   2.234   4.022   2.386  1.9048  1.1119 -0.5743
 4940SOL     OW26455   4.192   0.617   8.227 -0.0200 -0.2891 -0.5301
 4940SOL    HW126456   4.243   0.603   8.147  0.6941 -0.2217 -0.0895
 4940SOL    HW226457   4.144   0.534   8.232  1.4933 -1.1954 -1.2285
 4941SOL     OW26458   2.687   3.041   1.558  0.6195  0.6886 -0.2716
 4941SOL    HW126459   2.677   3.039   1.653 -0.1602 -2.9456 -0.4335
 4941SOL    HW226460   2.767   3.093   1.563  0.1730  1.2668  0.8288
 4942SOL     OW26461   4.612   0.369  11.868  0.3431 -0.1350  0.3219
 4942SOL    HW126462   4.557   0.409  11.936  1.6081 -1.6455  2.2070
 4942SOL    HW226463   4.609   0.275  11.886 -0.2418 -0.4686 -1.5537
 4943SOL     OW26464   0.798   1.106   6.950  0.0296  0.4717 -0.2918
 4943SOL    HW126465   0.831   1.033   6.897 -0.6553  0.0344 -0.1104
 4943SOL    HW226466   0.709   1.114   6.915 -0.2545  0.1118  0.3616
 4944SOL     OW26467   0.286   2.754   8.634 -0.2731  0.1396 -0.1338
 4944SOL    HW126468   0.349   2.683   8.645  0.2788  0.6637  0.0988
 4944SOL    HW226469   0.220   2.749   8.703  2.3445 -0.9660  2.2423
 4945SOL     OW26470   2.761   1.275   7.828  0.3548  0.3175 -0.5673
 4945SOL    HW126471   2.809   1.282   7.746 -0.8454 -0.2824 -1.3181
 4945SOL    HW226472   2.833   1.282   7.891  1.1026  2.0582 -1.6035
 4946SOL     OW26473   4.364   0.473   3.068  0.1335  0.6052 -0.0259
 4946SOL    HW126474   4.349   0.557   3.112  0.9689 -0.3789  2.1342
 4946SOL    HW226475   4.299   0.418   3.113  0.4481  0.5623  0.3794
 4947SOL     OW26476   4.418   0.101   3.117 -0.1257  0.6105 -0.0010
 4947SOL    HW126477   4.360   0.177   3.128  0.8516  1.4919 -0.8813
 4947SOL    HW226478   4.377   0.047   3.049  0.7126  1.7070 -1.3949
 4948SOL     OW26479   0.748   2.086   8.622  0.4866  0.3861  0.5826
 4948SOL    HW126480   0.670   2.142   8.629  0.8201  0.8655  0.4386
 4948SOL    HW226481   0.805   2.110   8.695  1.0929  0.1092  0.1948
 4949SOL     OW26482   4.276   1.131   7.748  0.1637  0.2376 -0.9514
 4949SOL    HW126483   4.309   1.218   7.727 -2.6151  1.1799 -1.4608
 4949SOL    HW226484   4.250   1.111   7.658  1.2088 -2.0325 -0.7346
 4950SOL     OW26485   1.362   2.301   8.085  0.2781 -0.4732 -0.0093
 4950SOL    HW126486   1.395   2.251   8.160  1.2140 -1.3991 -1.0461
 4950SOL    HW226487   1.288   2.250   8.052 -0.5052 -1.1459  2.7747
 4951SOL     OW26488   0.670   1.587   6.921 -0.2911  0.4408  0.4728
 4951SOL    HW126489   0.661   1.554   7.011 -0.3665  2.4610  1.2041
 4951SOL    HW226490   0.762   1.611   6.906 -0.0841 -2.6874 -3.1247
 4952SOL     OW26491   0.137   1.649   2.151 -0.1457 -0.2112 -0.2846
 4952SOL    HW126492   0.068   1.633   2.216 -1.2110 -1.3245 -1.7040
 4952SOL    HW226493   0.104   1.621   2.066  1.6696 -3.1040 -0.0263
 4953SOL     OW26494   1.595   3.076   7.968  0.6254  0.3430  0.0572
 4953SOL    HW126495   1.557   3.041   7.887  2.2617 -0.7167 -0.2696
 4953SOL    HW226496   1.689   3.069   7.949  0.1863 -3.1625 -0.8145
 4954SOL     OW26497   3.997   4.359   2.964  0.0017 -0.4741  0.3477
 4954SOL    HW126498   4.005   4.384   3.056  0.4183  0.0757  0.1582
 4954SOL    HW226499   3.917   4.307   2.966 -0.6727  0.4555 -3.2486
 4955SOL     OW26500   0.443   4.654   0.501  0.7077 -0.2594 -0.4017
 4955SOL    HW126501   0.448   4.583   0.565  0.8373  0.8814  0.8578
 4955SOL    HW226502   0.526   4.697   0.525 -0.4595  0.4663  2.3729
 4956SOL     OW26503   1.703   1.791  12.392  0.0602  0.1724 -0.2492
 4956SOL    HW126504   1.765   1.836  12.450 -0.3627 -0.2631  0.5320
 4956SOL    HW226505   1.765   1.730  12.351  0.0800 -0.1925  0.3364
 4957SOL     OW26506   0.445   1.461   7.544 -0.5008 -0.3703 -0.2111
 4957SOL    HW126507   0.376   1.435   7.483 -0.2428  0.7324 -0.9708
 4957SOL    HW226508   0.476   1.546   7.513  1.6638 -0.9258  0.4622
 4958SOL     OW26509   3.531   2.671   2.934 -0.2249  0.6897  0.0163
 4958SOL    HW126510   3.508   2.582   2.907 -0.4742  1.3128 -1.8682
 4958SOL    HW226511   3.626   2.672   2.925 -0.3486  0.8957 -1.2801
 4959SOL     OW26512   3.656   4.167   4.439 -0.0026  0.0828 -0.1966
 4959SOL    HW126513   3.698   4.141   4.520  0.0120 -0.8141 -0.4990
 4959SOL    HW226514   3.715   4.132   4.373  0.8766  1.2320 -0.0241
 4960SOL     OW26515   4.004   2.834  15.937 -0.4680  0.6338 -0.7956
 4960SOL    HW126516   3.935   2.875  15.988  1.7963  0.0002  2.7497
 4960SOL    HW226517   4.081   2.879  15.973 -0.8420  3.1336 -3.0461
 4961SOL     OW26518   1.162   1.888   8.260  0.1888 -0.3449 -0.1414
 4961SOL    HW126519   1.137   1.809   8.308  1.2643 -0.9382 -0.5392
 4961SOL    HW226520   1.124   1.957   8.314  1.4458  1.1469 -1.1356
 4962SOL     OW26521   2.903   0.123   1.070  0.7998 -0.0259  0.0676
 4962SOL    HW126522   2.930   0.173   0.993  1.1987 -0.7296 -0.2523
 4962SOL    HW226523   2.840   0.059   1.040  1.1853 -0.6602  0.6030
 4963SOL     OW26524   4.313   2.566  10.721 -0.6255 -0.2255  0.5019
 4963SOL    HW126525   4.329   2.570  10.815  0.2863 -0.5130  0.3650
 4963SOL    HW226526   4.244   2.500  10.711  0.1611 -0.9431 -0.2138
 4964SOL     OW26527   3.606   0.506  10.522  0.1277  0.0910 -0.2943
 4964SOL    HW126528   3.532   0.508  10.461 -0.7038  0.2244  0.7343
 4964SOL    HW226529   3.683   0.513  10.465 -1.2320  0.2205 -2.1128
 4965SOL     OW26530   0.302   0.800   0.954 -0.4247  0.0093 -0.6005
 4965SOL    HW126531   0.358   0.723   0.960  0.4445  0.8625  2.0002
 4965SOL    HW226532   0.280   0.799   1.047 -0.1970  0.0632 -0.5475
 4966SOL     OW26533   2.299   3.177  13.229  0.0508  0.3654 -0.0131
 4966SOL    HW126534   2.344   3.094  13.243  1.5430  1.6140  2.4948
 4966SOL    HW226535   2.228   3.182  13.293  0.1103  0.7952  0.0165
 4967SOL     OW26536   3.329   1.965  10.500  0.0194 -0.0505 -0.0446
 4967SOL    HW126537   3.406   2.021  10.492 -0.0585  0.4092  2.5796
 4967SOL    HW226538   3.291   1.994  10.417 -0.7619  1.4769  0.8534
 4968SOL     OW26539   3.728   1.431  16.212  0.0658 -0.2683 -0.4514
 4968SOL    HW126540   3.673   1.368  16.165  1.2942 -1.1958 -0.6793
 4968SOL    HW226541   3.759   1.369  16.279  0.8791  0.9704  0.3113
 4969SOL     OW26542   2.661   2.075  13.542  0.3717  0.1242  0.5108
 4969SOL    HW126543   2.753   2.058  13.562  0.1030 -1.6951  0.1689
 4969SOL    HW226544   2.633   2.089  13.632 -0.9712  0.4912  0.0320
 4970SOL     OW26545   1.212   3.090   6.063 -0.7906 -0.2115  0.2832
 4970SOL    HW126546   1.241   3.010   6.018 -3.3640 -0.6777 -0.5071
 4970SOL    HW226547   1.286   3.150   6.052 -1.8410  1.0170  0.0513
 4971SOL     OW26548   2.645   4.458  16.694  0.2796  0.3624 -0.1227
 4971SOL    HW126549   2.676   4.505  16.616  1.1240  1.4488  0.8602
 4971SOL    HW226550   2.557   4.434  16.667  0.2112  0.2874  0.1628
 4972SOL     OW26551   4.398   0.153   4.037 -0.0467 -0.2193 -0.0916
 4972SOL    HW126552   4.414   0.213   3.965 -1.5606 -0.1404 -0.3691
 4972SOL    HW226553   4.421   0.201   4.116 -1.0252  0.8627 -0.4664
 4973SOL     OW26554   0.286   3.797   9.535 -0.2318 -0.2257  0.1670
 4973SOL    HW126555   0.254   3.745   9.461  1.0362 -1.7379  0.7023
 4973SOL    HW226556   0.222   3.786   9.606  1.0349  0.8508  1.4823
 4974SOL     OW26557   3.591   2.363   5.574 -0.7912  0.1500 -0.4553
 4974SOL    HW126558   3.670   2.415   5.560 -1.6874  1.5578 -0.2744
 4974SOL    HW226559   3.577   2.382   5.667 -0.2806 -2.2072  0.0998
 4975SOL     OW26560   1.986   3.063   9.975  0.2163  0.3463  1.2189
 4975SOL    HW126561   1.925   3.134   9.995  0.5475  0.9456  0.1252
 4975SOL    HW226562   1.997   3.013  10.055 -0.5831 -1.4548  0.2078
 4976SOL     OW26563   4.418   1.423  12.474  0.6001  0.0392  0.3537
 4976SOL    HW126564   4.412   1.507  12.519 -0.8954  0.3818 -0.5018
 4976SOL    HW226565   4.327   1.395  12.461  0.4247  0.3836  0.8387
 4977SOL     OW26566   2.409   0.020  14.592  0.6006  0.1330 -0.2422
 4977SOL    HW126567   2.441   4.665  14.593  0.5758  0.1288  0.1209
 4977SOL    HW226568   2.320   0.006  14.624  0.9658 -0.3470  0.5442
 4978SOL     OW26569   3.828   2.667   2.906  0.3583  0.0355  0.1510
 4978SOL    HW126570   3.852   2.656   2.814  2.0578  0.4807  0.5414
 4978SOL    HW226571   3.910   2.686   2.951  0.0681  1.3206  0.1477
 4979SOL     OW26572   2.975   0.169   5.931 -0.2396 -0.9669 -0.5313
 4979SOL    HW126573   3.032   0.120   5.872 -0.8293  0.5585 -2.3522
 4979SOL    HW226574   2.901   0.188   5.874 -0.1331  1.7678  0.2336
 4980SOL     OW26575   2.227   4.640   3.155 -0.0831 -0.2955  0.1442
 4980SOL    HW126576   2.137   4.642   3.123 -0.9460 -1.5742  2.4740
 4980SOL    HW226577   2.217   4.595   3.240  1.2299  0.2495  0.5968
 4981SOL     OW26578   3.132   4.728   2.632 -0.2208  0.4480  0.0023
 4981SOL    HW126579   3.163   0.013   2.544 -1.2800  0.4169 -0.3832
 4981SOL    HW226580   3.072   0.068   2.639 -0.9040  0.1103 -2.1802
 4982SOL     OW26581   0.242   3.894   7.049  0.0495 -0.1235 -0.4024
 4982SOL    HW126582   0.327   3.858   7.076 -0.9170 -2.5781 -0.5678
 4982SOL    HW226583   0.214   3.948   7.123  0.0832 -0.2918 -0.2661
 4983SOL     OW26584   2.174   4.440   7.735  0.2391  0.0509  0.0619
 4983SOL    HW126585   2.245   4.400   7.786 -0.3807  2.0582  2.5178
 4983SOL    HW226586   2.148   4.504   7.801  1.9356 -0.0180  0.8129
 4984SOL     OW26587   0.211   1.077   9.056  0.2791 -0.2664 -0.1996
 4984SOL    HW126588   0.219   1.133   9.133 -1.2098  0.0123 -0.2510
 4984SOL    HW226589   0.170   0.994   9.081  0.6222 -0.7609 -1.2601
 4985SOL     OW26590   4.027   0.289   2.945 -0.5071  0.0305 -0.3469
 4985SOL    HW126591   4.006   0.213   2.890 -0.2993 -0.7831  0.7189
 4985SOL    HW226592   3.994   0.349   2.878  0.7948 -0.0514 -1.0573
 4986SOL     OW26593   2.814   1.009   9.228 -0.5572  0.0128 -0.2793
 4986SOL    HW126594   2.902   0.972   9.218  0.0191  1.2792  0.1963
 4986SOL    HW226595   2.791   1.030   9.138  0.3400  1.9568 -0.0364
 4987SOL     OW26596   2.548   2.375   7.157  0.0857  0.6228  0.0844
 4987SOL    HW126597   2.600   2.451   7.181  1.5099 -0.2708 -0.1702
 4987SOL    HW226598   2.469   2.400   7.205 -0.1612 -1.4746  0.8096
 4988SOL     OW26599   2.423   0.014   9.685 -0.0778 -0.4628 -0.5065
 4988SOL    HW126600   2.512   0.000   9.719  0.5710 -1.4606 -2.6256
 4988SOL    HW226601   2.441   0.081   9.619 -0.0160  0.6336  0.6232
 4989SOL     OW26602   4.004   4.445   7.573  0.1677  0.3115 -0.0692
 4989SOL    HW126603   4.006   4.350   7.571  1.5554  0.3614 -1.0038
 4989SOL    HW226604   3.914   4.463   7.548  1.4904  1.1558 -4.1606
 4990SOL     OW26605   3.001   0.158   1.308 -0.3335 -0.1924  0.1230
 4990SOL    HW126606   2.949   0.145   1.229  1.1382  2.2085 -1.2644
 4990SOL    HW226607   3.083   0.121   1.274  0.1906  2.5053 -1.6312
 4991SOL     OW26608   0.363   3.717   5.542  0.0080  0.5829 -0.1914
 4991SOL    HW126609   0.327   3.787   5.488 -2.9911 -1.1764 -0.4648
 4991SOL    HW226610   0.454   3.747   5.541 -0.0642  0.8261  0.5899
 4992SOL     OW26611   3.249   0.862   4.716 -0.6473 -0.1150  0.2999
 4992SOL    HW126612   3.256   0.936   4.777  1.0649  0.9353 -1.1738
 4992SOL    HW226613   3.219   0.795   4.777 -1.9228 -1.2628 -1.5803
 4993SOL     OW26614   2.345   4.564   2.814  0.3710  0.1702  0.4854
 4993SOL    HW126615   2.382   4.574   2.726 -0.1375 -0.9832  0.1404
 4993SOL    HW226616   2.425   4.555   2.865 -0.5665  1.1034  2.1248
 4994SOL     OW26617   2.664   4.321   0.600  0.4342  0.2109 -0.1820
 4994SOL    HW126618   2.721   4.326   0.677 -0.1827 -1.1510  0.3778
 4994SOL    HW226619   2.714   4.367   0.533 -0.4329  1.9694  0.3957
 4995SOL     OW26620   3.003   0.956   6.403 -0.1213 -0.0831  0.1391
 4995SOL    HW126621   2.975   0.932   6.315  3.3287  1.0360 -1.2834
 4995SOL    HW226622   2.968   0.890   6.462 -2.6568 -1.1735 -2.5828
 4996SOL     OW26623   2.809   1.053  10.736 -0.5032 -0.1660 -0.2660
 4996SOL    HW126624   2.889   1.023  10.694  0.5015 -0.0675  1.5703
 4996SOL    HW226625   2.735   1.005  10.699 -1.7296  1.6802 -0.2429
 4997SOL     OW26626   0.047   2.283   2.842  0.4968 -0.4344 -0.1417
 4997SOL    HW126627   0.048   2.193   2.874  3.6843 -0.3135  0.1537
 4997SOL    HW226628   0.066   2.277   2.748  0.2906 -0.8249 -0.1594
 4998SOL     OW26629   2.023   4.657  16.620  0.2020  0.0693 -0.1282
 4998SOL    HW126630   2.015   4.612  16.704 -0.2126  0.1013 -0.1499
 4998SOL    HW226631   1.953   4.723  16.621  0.8889  0.7971 -0.5191
 4999SOL     OW26632   0.233   2.820   3.689  0.7038 -0.0995  0.5701
 4999SOL    HW126633   0.169   2.785   3.627 -1.2760  0.2485  2.4097
 4999SOL    HW226634   0.187   2.834   3.772 -1.0984 -1.6941 -0.1648
 5000SOL     OW26635   2.494   1.278  14.466  0.1110 -0.1819  0.6111
 5000SOL    HW126636   2.488   1.184  14.480 -1.6079 -0.4870 -2.1872
 5000SOL    HW226637   2.587   1.295  14.478  0.1650  0.0316 -0.1058
 5001SOL     OW26638   2.764   3.185  17.462 -0.3136  0.6058 -0.6870
 5001SOL    HW126639   2.782   3.276  17.484 -0.7839  0.7888 -1.0773
 5001SOL    HW226640   2.669   3.181  17.468 -0.0129  1.4246  4.3458
 5002SOL     OW26641   0.300   3.261  10.676 -0.3626 -0.3543  0.1358
 5002SOL    HW126642   0.314   3.174  10.637 -1.2244  0.0307 -1.0221
 5002SOL    HW226643   0.346   3.322  10.619 -2.4016 -0.7855 -1.9725
 5003SOL     OW26644   3.305   0.796   4.083  0.1456 -0.3466 -0.0180
 5003SOL    HW126645   3.285   0.781   3.991 -1.6216 -1.7203  0.5818
 5003SOL    HW226646   3.277   0.886   4.100  0.4710 -0.4619  1.1071
 5004SOL     OW26647   0.776   0.667  10.116 -0.2503 -0.0716 -0.1471
 5004SOL    HW126648   0.707   0.646  10.053  0.6998 -0.2588 -1.1105
 5004SOL    HW226649   0.853   0.618  10.087  0.0774  0.2342  0.1998
 5005SOL     OW26650   0.393   0.747  12.785  0.3194 -0.0482 -0.5512
 5005SOL    HW126651   0.369   0.701  12.865 -2.2360  0.5525 -0.9693
 5005SOL    HW226652   0.474   0.783  12.820  0.3331 -0.4119 -0.2114
 5006SOL     OW26653   0.704   4.684   3.118  0.1805 -0.0103  0.1568
 5006SOL    HW126654   0.728   0.027   3.168 -0.3512 -0.1307  0.5967
 5006SOL    HW226655   0.743   4.713   3.035  0.2780 -1.6872 -0.3904
 5007SOL     OW26656   3.840   3.054   7.163  0.3906 -0.1093  0.1741
 5007SOL    HW126657   3.905   3.024   7.227  0.1076  1.1830  1.0699
 5007SOL    HW226658   3.862   3.147   7.153 -1.7016  0.2248 -1.1525
 5008SOL     OW26659   2.891   2.694  16.055  0.2043 -0.1110 -0.0408
 5008SOL    HW126660   2.924   2.622  16.110 -0.1430  0.1292  0.4820
 5008SOL    HW226661   2.914   2.663  15.967 -1.1129  1.2661 -0.8691
 5009SOL     OW26662   3.204   2.897   7.726  0.1139 -0.3712  0.0549
 5009SOL    HW126663   3.241   2.857   7.804 -1.5366  2.6550  2.4267
 5009SOL    HW226664   3.180   2.983   7.761  3.7009  1.0236 -0.9291
 5010SOL     OW26665   1.845   1.235   3.206  0.8086  0.0111  0.1501
 5010SOL    HW126666   1.802   1.256   3.288  0.9885 -1.7151  0.6814
 5010SOL    HW226667   1.921   1.191   3.245  0.0445 -1.1923  0.2900
 5011SOL     OW26668   1.595   0.933   6.983 -0.0272  0.2922  0.4413
 5011SOL    HW126669   1.644   0.999   6.933  0.4035 -0.6003 -0.3031
 5011SOL    HW226670   1.664   0.902   7.042  1.5649  1.3035 -0.8700
 5012SOL     OW26671   2.703   2.652   5.478  0.1823  0.4427 -0.2860
 5012SOL    HW126672   2.774   2.607   5.524 -0.9884 -1.3345 -0.2318
 5012SOL    HW226673   2.739   2.637   5.391  0.2351  1.4392 -0.4349
 5013SOL     OW26674   2.520   0.767   4.798  0.3335 -0.3749  0.3208
 5013SOL    HW126675   2.608   0.733   4.815  1.3728  2.1470 -0.0032
 5013SOL    HW226676   2.465   0.688   4.806 -0.4157  0.0850 -0.2595
 5014SOL     OW26677   2.624   0.770   7.962 -0.7139 -0.7818  0.2494
 5014SOL    HW126678   2.638   0.862   7.942  2.0250 -1.2281  0.1590
 5014SOL    HW226679   2.606   0.739   7.873 -3.7067 -0.0350  0.6052
 5015SOL     OW26680   1.235   2.671   6.151  0.1527  0.1035  0.1438
 5015SOL    HW126681   1.236   2.757   6.109  0.0442  0.2714  0.4831
 5015SOL    HW226682   1.313   2.684   6.206 -0.3676  1.2095  0.6340
 5016SOL     OW26683   4.185   0.577   8.532 -0.0451  0.3133  0.4329
 5016SOL    HW126684   4.197   0.572   8.437  1.2759 -2.0684  0.7212
 5016SOL    HW226685   4.107   0.633   8.532 -0.4079 -0.1963 -1.7334
 5017SOL     OW26686   2.158   1.383   3.470 -0.1944 -0.2869 -0.7317
 5017SOL    HW126687   2.174   1.380   3.564 -1.3643 -0.9008 -0.5635
 5017SOL    HW226688   2.064   1.396   3.469 -0.5660 -2.8827  1.4242
 5018SOL     OW26689   2.138   1.710   4.598 -0.3504 -0.2617 -0.0062
 5018SOL    HW126690   2.112   1.620   4.617  2.6536 -1.4628 -1.5231
 5018SOL    HW226691   2.230   1.714   4.624 -0.4478  0.3529  0.2424
 5019SOL     OW26692   1.585   2.833   1.622  0.3324  0.2375  0.1298
 5019SOL    HW126693   1.630   2.906   1.663  1.4155 -1.6358  2.2901
 5019SOL    HW226694   1.643   2.806   1.550 -1.5809 -0.6210 -1.0681
 5020SOL     OW26695   1.163   2.134   8.439 -0.6441  0.2831  0.1891
 5020SOL    HW126696   1.165   2.227   8.463  0.5914 -0.1549  1.7867
 5020SOL    HW226697   1.128   2.150   8.352  2.0157 -0.2249 -0.9608
 5021SOL     OW26698   0.977   3.409   3.837 -0.0781 -0.6090  0.8098
 5021SOL    HW126699   0.971   3.491   3.885  2.5257 -1.7383  3.0708
 5021SOL    HW226700   1.070   3.396   3.855  0.7194 -0.1855 -2.9172
 5022SOL     OW26701   0.165   1.370   1.729  0.4730 -0.4541 -0.4352
 5022SOL    HW126702   0.072   1.379   1.750  0.6458  0.2589  0.0041
 5022SOL    HW226703   0.163   1.327   1.643  1.4964  0.4710 -0.9190
 5023SOL     OW26704   4.315   0.497   7.191 -0.0164  0.3650  0.2563
 5023SOL    HW126705   4.287   0.554   7.263  1.5843 -1.3723  2.2812
 5023SOL    HW226706   4.290   0.415   7.235  2.6124 -0.7293 -0.2725
 5024SOL     OW26707   2.130   1.857   6.037 -0.2771 -0.1728 -0.2489
 5024SOL    HW126708   2.190   1.901   6.097 -0.5730 -0.2038  0.0722
 5024SOL    HW226709   2.092   1.930   5.987 -2.2628 -0.5297  0.7476
 5025SOL     OW26710   1.213   2.724  16.083  0.1587  0.2719 -0.2462
 5025SOL    HW126711   1.126   2.684  16.089  0.0180  0.7809  1.0852
 5025SOL    HW226712   1.199   2.814  16.054 -1.0942  0.7289  1.7233
 5026SOL     OW26713   1.267   3.445   1.642  0.0999 -0.3893  0.5030
 5026SOL    HW126714   1.283   3.532   1.679 -1.2278 -0.0315  0.2262
 5026SOL    HW226715   1.225   3.400   1.716  1.6046 -2.6597 -0.0256
 5027SOL     OW26716   1.485   4.515   4.051  0.4629 -0.0506 -0.3563
 5027SOL    HW126717   1.439   4.483   3.973  0.4053 -2.5442  0.7010
 5027SOL    HW226718   1.573   4.481   4.037  0.7934 -0.0329  1.6979
 5028SOL     OW26719   1.374   0.835   2.469 -0.4618 -0.1851  0.1427
 5028SOL    HW126720   1.410   0.748   2.452  1.1762  0.2968  1.1468
 5028SOL    HW226721   1.289   0.822   2.512 -0.3883  1.1844  0.6975
 5029SOL     OW26722   1.731   2.797   2.463  0.3302  0.4476 -0.1660
 5029SOL    HW126723   1.663   2.731   2.458  0.2695  0.5956 -1.2291
 5029SOL    HW226724   1.790   2.764   2.395  0.6260  0.7019 -0.0364
 5030SOL     OW26725   3.572   1.245   6.786  0.4651 -0.6587  0.5721
 5030SOL    HW126726   3.596   1.155   6.810 -1.0834 -0.8808  1.2352
 5030SOL    HW226727   3.607   1.242   6.697 -0.0291  0.5295  0.3418
 5031SOL     OW26728   4.727   1.343   7.747  0.4600  0.2107  0.3778
 5031SOL    HW126729   4.672   1.279   7.702 -1.5413  1.5632  0.9433
 5031SOL    HW226730   4.673   1.401   7.800 -0.5749 -0.5943  0.2077
 5032SOL     OW26731   3.732   0.882   8.164 -0.1259 -0.1696 -0.1217
 5032SOL    HW126732   3.692   0.967   8.144  1.6997  0.9282  0.9722
 5032SOL    HW226733   3.696   0.870   8.252 -2.0838 -2.6696 -1.2406
 5033SOL     OW26734   0.929   3.395   2.305 -0.6962  0.5937 -0.1403
 5033SOL    HW126735   0.875   3.408   2.383  0.8589 -0.5754  1.1429
 5033SOL    HW226736   0.891   3.313   2.274  0.1516 -0.1099  0.6638
 5034SOL     OW26737   4.728   4.677   7.238 -0.0909  0.1598 -0.3547
 5034SOL    HW126738   4.651   4.660   7.292 -0.2442 -1.6662 -1.1474
 5034SOL    HW226739   0.065   4.635   7.284  0.9548  1.8194 -0.4721
 5035SOL     OW26740   0.591   2.743  13.232 -0.1760  0.6664  0.1539
 5035SOL    HW126741   0.547   2.828  13.224 -1.5535  0.0790  1.6391
 5035SOL    HW226742   0.510   2.694  13.244  1.4776 -1.5285  2.3780
 5036SOL     OW26743   0.554   0.821   2.308  0.0949 -0.0492 -0.1809
 5036SOL    HW126744   0.493   0.888   2.340  0.7081 -0.3642  1.6212
 5036SOL    HW226745   0.627   0.883   2.310  2.1857 -2.6025  2.8015
 5037SOL     OW26746   2.664   0.783   9.272 -0.2208 -0.2131 -0.3784
 5037SOL    HW126747   2.699   0.872   9.273  1.4921 -0.9203  0.8577
 5037SOL    HW226748   2.722   0.727   9.323  1.2399  0.8612 -0.8695
 5038SOL     OW26749   4.578   4.449   9.779  0.8802  0.1122  0.0100
 5038SOL    HW126750   4.670   4.474   9.786  0.8828  0.2582 -0.5292
 5038SOL    HW226751   4.546   4.539   9.790  0.2023 -0.0607 -0.5292
 5039SOL     OW26752   2.657   3.719   6.935 -0.7012 -0.1639  0.5532
 5039SOL    HW126753   2.684   3.802   6.975 -0.4670 -1.0911  2.3394
 5039SOL    HW226754   2.562   3.722   6.931 -0.7073  0.6999  1.3448
 5040SOL     OW26755   0.662   4.617   7.253  0.7907 -0.1174  0.6418
 5040SOL    HW126756   0.578   4.573   7.241  0.9816 -0.3186 -0.0002
 5040SOL    HW226757   0.668   4.651   7.163  0.3623 -1.9185 -0.0586
 5041SOL     OW26758   4.240   0.854   2.582  0.5879  0.5942  0.1783
 5041SOL    HW126759   4.267   0.921   2.519  2.3932 -0.8561 -0.5781
 5041SOL    HW226760   4.310   0.867   2.646 -0.2879 -0.5298  1.3851
 5042SOL     OW26761   1.689   1.686   7.773 -0.3652 -1.2163 -0.0073
 5042SOL    HW126762   1.639   1.610   7.744 -0.7352 -1.6028  1.6695
 5042SOL    HW226763   1.619   1.743   7.803  2.3731  2.4846 -0.6368
 5043SOL     OW26764   4.713   2.804   7.473  0.5169 -0.5903  0.1474
 5043SOL    HW126765   4.709   2.897   7.450 -2.8835 -0.6709  0.4263
 5043SOL    HW226766   4.715   2.809   7.569 -0.4541  2.5516  0.0246
 5044SOL     OW26767   2.697   0.794   3.718 -0.2478 -0.5543 -0.9627
 5044SOL    HW126768   2.737   0.881   3.721  0.4300 -0.9220  0.6683
 5044SOL    HW226769   2.757   0.745   3.774 -1.2370  0.6135  1.1213
 5045SOL     OW26770   0.787   3.306   4.423  0.0448  0.2126 -0.1490
 5045SOL    HW126771   0.702   3.277   4.391  1.1764 -1.0137 -2.0346
 5045SOL    HW226772   0.824   3.343   4.344 -1.9857  1.1292 -0.6659
 5046SOL     OW26773   2.232   0.729  13.530 -0.4544 -0.2041 -0.4442
 5046SOL    HW126774   2.299   0.674  13.570 -1.1448 -1.5167 -1.0734
 5046SOL    HW226775   2.156   0.691  13.574 -0.0309 -2.3283 -1.5773
 5047SOL     OW26776   4.645   3.754  12.338  0.0636 -0.3719  0.4194
 5047SOL    HW126777   4.557   3.761  12.302  0.0245  0.7003  0.7044
 5047SOL    HW226778   4.687   3.694  12.276  0.8586  0.4098  0.2004
 5048SOL     OW26779   4.659   3.027  16.217 -0.3554  0.2230  0.3315
 5048SOL    HW126780   4.726   3.080  16.260 -1.1195  2.4105 -1.1922
 5048SOL    HW226781   4.712   2.949  16.205 -0.2839  0.6709 -2.2276
 5049SOL     OW26782   1.128   1.216  14.254 -0.2386 -0.3237  0.1791
 5049SOL    HW126783   1.158   1.307  14.259 -1.1088  0.0328 -1.1955
 5049SOL    HW226784   1.148   1.203  14.161 -0.9932 -0.6487  0.0641
 5050SOL     OW26785   3.855   3.225   9.690 -0.0167  0.0414  0.1246
 5050SOL    HW126786   3.815   3.256   9.608 -2.0313  0.6665  1.3462
 5050SOL    HW226787   3.945   3.220   9.658  0.3534  2.3854  0.7980
 5051SOL     OW26788   0.415   1.076   9.839 -0.1246 -0.3895  0.8077
 5051SOL    HW126789   0.460   1.008   9.890 -0.5004 -1.7579 -0.6800
 5051SOL    HW226790   0.445   1.149   9.893  1.5431  0.8138 -1.7843
 5052SOL     OW26791   1.572   0.899   2.649  0.4030  0.5872 -0.1026
 5052SOL    HW126792   1.643   0.936   2.597  1.2390 -0.7876  0.0693
 5052SOL    HW226793   1.504   0.885   2.583 -0.6351  1.2065  0.8243
 5053SOL     OW26794   1.369   1.116   8.802  0.2745 -0.2651  0.4465
 5053SOL    HW126795   1.433   1.045   8.803 -0.4815 -0.9696 -2.6015
 5053SOL    HW226796   1.353   1.128   8.709  1.2675  0.3949  0.3617
 5054SOL     OW26797   1.391   4.412  11.209  0.1322  0.7741  0.2917
 5054SOL    HW126798   1.371   4.387  11.300 -0.4270  0.3295  0.0518
 5054SOL    HW226799   1.454   4.341  11.197  0.5194  1.0902  0.4647
 5055SOL     OW26800   1.264   4.546   1.718 -0.0987  0.5978  0.0994
 5055SOL    HW126801   1.227   4.465   1.751  0.7502 -0.4107 -1.4311
 5055SOL    HW226802   1.178   4.587   1.707  0.1751  1.3750  0.8808
 5056SOL     OW26803   4.299   0.426   8.753  0.3398 -0.1681  0.0485
 5056SOL    HW126804   4.283   0.470   8.670  2.3150  0.2361 -0.1149
 5056SOL    HW226805   4.323   0.344   8.711  3.3032  0.5462  0.2868
 5057SOL     OW26806   1.300   4.636   5.297 -0.2781  0.1251 -0.6411
 5057SOL    HW126807   1.251   4.713   5.325  0.8209  0.7658 -0.5002
 5057SOL    HW226808   1.224   4.582   5.275 -1.1794 -0.0126  2.7351
 5058SOL     OW26809   0.872   3.944  11.372 -0.1012 -0.6704  0.5364
 5058SOL    HW126810   0.817   3.897  11.435 -0.2286  0.3726  1.2052
 5058SOL    HW226811   0.833   4.031  11.367 -0.8865 -1.2681 -3.2746
 5059SOL     OW26812   0.580   4.027  10.150  0.5706  0.2631 -0.8600
 5059SOL    HW126813   0.672   4.036  10.174  0.2859  0.1214  0.2821
 5059SOL    HW226814   0.579   3.979  10.067  1.7022  0.6590 -1.1058
 5060SOL     OW26815   2.736   2.196   1.340 -0.8210  0.2855  0.3449
 5060SOL    HW126816   2.794   2.183   1.415 -0.5626  0.9673  0.2623
 5060SOL    HW226817   2.764   2.138   1.269  0.1903  0.8769  0.2734
 5061SOL     OW26818   1.237   0.833   7.614 -0.2810  0.6622  0.7126
 5061SOL    HW126819   1.296   0.822   7.540  0.8651  0.6694  1.6118
 5061SOL    HW226820   1.300   0.809   7.682  2.0147 -1.6274 -2.2491
 5062SOL     OW26821   2.480   0.501  12.806  0.2757  0.0794 -0.4822
 5062SOL    HW126822   2.559   0.554  12.794  0.8669 -1.0608 -1.6440
 5062SOL    HW226823   2.495   0.451  12.886 -0.6844  0.7307  0.0941
 5063SOL     OW26824   3.728   2.711   8.478  0.1507 -0.1334 -0.1409
 5063SOL    HW126825   3.648   2.752   8.446 -0.0600 -1.8260 -1.7989
 5063SOL    HW226826   3.762   2.669   8.399  0.0041  0.3826 -0.4753
 5064SOL     OW26827   1.118   3.815   1.653  0.2640  0.3425  0.3483
 5064SOL    HW126828   1.207   3.799   1.684  0.1460 -3.2456 -1.2688
 5064SOL    HW226829   1.061   3.770   1.716  0.3172 -0.8622 -0.4691
 5065SOL     OW26830   2.508   1.393   5.714  0.3046 -0.1467  0.2689
 5065SOL    HW126831   2.417   1.370   5.697 -0.4351  3.7791 -1.0072
 5065SOL    HW226832   2.540   1.315   5.669 -0.6363 -1.0561  1.1795
 5066SOL     OW26833   0.632   1.189   8.538  0.2746 -0.2222 -0.5457
 5066SOL    HW126834   0.686   1.261   8.573 -0.8158 -0.8698  2.4467
 5066SOL    HW226835   0.691   1.153   8.471  0.0695 -0.3874 -0.6347
 5067SOL     OW26836   2.649   1.716   3.643  0.3987  0.4093 -0.2230
 5067SOL    HW126837   2.663   1.763   3.726 -0.9521  0.1693  0.1452
 5067SOL    HW226838   2.633   1.792   3.587 -1.1136  1.5894  1.8105
 5068SOL     OW26839   4.287   2.410  17.501 -0.3691 -0.2771 -0.0253
 5068SOL    HW126840   4.356   2.402  17.434  0.4309 -0.0557  0.7784
 5068SOL    HW226841   4.314   2.340  17.559  3.2474  0.0355 -1.3362
 5069SOL     OW26842   0.889   2.221   6.397 -0.0787  0.3646 -0.8445
 5069SOL    HW126843   0.810   2.230   6.343 -0.3537  0.1631 -0.4709
 5069SOL    HW226844   0.878   2.146   6.455 -1.2300 -0.3662 -1.9955
 5070SOL     OW26845   4.452   3.216   2.912  0.6258 -0.1877  0.4147
 5070SOL    HW126846   4.377   3.236   2.855  2.8551 -1.4229 -2.9116
 5070SOL    HW226847   4.510   3.286   2.883  1.2661 -0.4846  0.9822
 5071SOL     OW26848   0.153   0.143   7.153  0.1539 -0.0993 -0.2863
 5071SOL    HW126849   0.095   0.218   7.166  0.2447  0.0574 -0.7902
 5071SOL    HW226850   0.103   0.064   7.172  0.6845  0.3618  2.9881
 5072SOL     OW26851   4.332   1.380   4.104  0.0854 -0.3601 -0.2410
 5072SOL    HW126852   4.243   1.359   4.074 -0.1448  1.5323 -0.8534
 5072SOL    HW226853   4.320   1.414   4.193 -1.3649 -1.7185  0.0958
 5073SOL     OW26854   4.256   1.792   8.740 -0.6955 -0.6273  0.5361
 5073SOL    HW126855   4.172   1.748   8.746 -0.6695 -0.8837 -1.1480
 5073SOL    HW226856   4.260   1.841   8.658  1.0070 -0.0667  0.9505
 5074SOL     OW26857   4.724   3.015   0.223  0.0530 -0.1068  0.2957
 5074SOL    HW126858   4.733   3.047   0.313  0.3310  0.2941  0.1229
 5074SOL    HW226859   0.037   3.078   0.170 -3.6563  2.1379 -0.4493
 5075SOL     OW26860   0.367   2.543   3.434 -0.6062  0.8303  0.1863
 5075SOL    HW126861   0.342   2.594   3.512 -1.2351 -0.8458  1.0773
 5075SOL    HW226862   0.316   2.464   3.452 -2.7293  2.0406 -0.4311
 5076SOL     OW26863   3.939   3.009   0.578 -0.8117 -0.1956  0.1258
 5076SOL    HW126864   4.004   3.015   0.508 -1.5150 -2.5229 -0.7484
 5076SOL    HW226865   3.887   2.930   0.561  0.5837 -0.9890 -0.5249
 5077SOL     OW26866   3.953   1.264  13.840  0.5265  0.0677 -0.3059
 5077SOL    HW126867   4.030   1.288  13.789 -0.2891 -0.2472 -1.7115
 5077SOL    HW226868   3.942   1.341  13.895  0.7706 -0.1407  0.0331
 5078SOL     OW26869   3.906   4.029  10.592 -0.0377  0.4189  0.2478
 5078SOL    HW126870   3.851   4.059  10.664  0.7187  0.4365  0.8116
 5078SOL    HW226871   3.842   3.997  10.528 -1.0905  0.2167  1.4066
 5079SOL     OW26872   1.549   1.574  12.308  0.0917  0.6669  0.2420
 5079SOL    HW126873   1.561   1.661  12.346  0.7039  0.9313 -0.5768
 5079SOL    HW226874   1.598   1.581  12.227 -0.8758  0.6337 -0.3491
 5080SOL     OW26875   1.522   1.837  14.248 -0.3464  0.3569  0.0419
 5080SOL    HW126876   1.444   1.781  14.250  0.3310 -0.5333  1.1825
 5080SOL    HW226877   1.502   1.907  14.310  1.0084  1.2116 -0.4746
 5081SOL     OW26878   2.423   2.152   9.342 -0.1073 -1.1098  0.2101
 5081SOL    HW126879   2.482   2.199   9.402 -0.4351 -1.3372  0.7089
 5081SOL    HW226880   2.371   2.104   9.406  1.0741 -1.4906  0.8848
 5082SOL     OW26881   0.069   0.862   6.148  0.3290  0.1561 -0.2384
 5082SOL    HW126882   0.132   0.934   6.159  0.4809  0.1072 -0.8062
 5082SOL    HW226883   0.016   0.883   6.071  0.5475 -0.1573 -0.4718
 5083SOL     OW26884   3.275   3.807  16.928 -0.1118 -0.1484 -0.1392
 5083SOL    HW126885   3.251   3.890  16.968  1.9222 -0.6728  2.1116
 5083SOL    HW226886   3.206   3.748  16.959  1.1867  0.1140  3.1535
 5084SOL     OW26887   0.989   1.340   7.830  0.4644 -0.9145 -0.1052
 5084SOL    HW126888   1.067   1.289   7.854  0.8016 -0.8205 -1.0112
 5084SOL    HW226889   0.956   1.313   7.745  0.3355  0.2703 -0.4311
 5085SOL     OW26890   2.355   0.521   8.368  0.6480  0.2617 -0.8142
 5085SOL    HW126891   2.415   0.468   8.420  0.0100 -0.8493 -1.2055
 5085SOL    HW226892   2.300   0.457   8.322  0.9624 -0.9009  0.4337
 5086SOL     OW26893   4.582   4.062   7.886  0.1338  0.2160  0.0020
 5086SOL    HW126894   4.626   4.111   7.956 -0.1702  0.6160 -0.0902
 5086SOL    HW226895   4.549   3.994   7.945 -1.1160  1.5054  0.7771
 5087SOL     OW26896   1.363   1.065  16.080 -0.1227 -0.3141  0.4443
 5087SOL    HW126897   1.287   1.121  16.067  0.1366  0.5145  2.4508
 5087SOL    HW226898   1.396   1.108  16.159  2.2953  1.3898 -1.4518
 5088SOL     OW26899   0.573   4.256  10.504 -0.3371  0.0571 -0.1715
 5088SOL    HW126900   0.595   4.180  10.559 -1.0186  0.5982  0.8528
 5088SOL    HW226901   0.659   4.294  10.487  1.2283 -2.4937  1.8755
 5089SOL     OW26902   3.881   3.826   7.244 -0.1832 -0.3892 -0.0601
 5089SOL    HW126903   3.840   3.765   7.305 -1.6444  1.3427  0.6589
 5089SOL    HW226904   3.819   3.898   7.240 -1.7506 -1.5866  2.8042
 5090SOL     OW26905   1.662   0.769   2.893 -0.4582 -0.1168  0.2274
 5090SOL    HW126906   1.627   0.777   2.804 -1.6822 -0.9451  0.6231
 5090SOL    HW226907   1.601   0.696   2.907 -1.3055  0.2945 -1.2875
 5091SOL     OW26908   2.194   2.273   3.576 -0.0141  0.2140  0.2782
 5091SOL    HW126909   2.133   2.331   3.529  0.3809 -2.5135 -3.6555
 5091SOL    HW226910   2.280   2.312   3.561 -0.5113  1.7000  1.2539
 5092SOL     OW26911   3.525   0.325   8.039  0.0794  0.1522 -0.1847
 5092SOL    HW126912   3.468   0.354   8.111  2.2133 -0.5811  1.7912
 5092SOL    HW226913   3.526   0.229   8.037 -0.8125  0.1336  0.0234
 5093SOL     OW26914   4.320   0.316   7.002 -0.1334 -0.6721 -0.2757
 5093SOL    HW126915   4.348   0.336   6.913  0.3871 -1.9277 -0.3927
 5093SOL    HW226916   4.338   0.398   7.048 -2.1302  0.1351 -0.9590
 5094SOL     OW26917   3.434   0.575  14.852 -0.5265 -0.1211 -0.1803
 5094SOL    HW126918   3.339   0.574  14.844 -0.2787 -2.9414 -2.7707
 5094SOL    HW226919   3.443   0.594  14.759 -0.1109  2.0720  0.3163
 5095SOL     OW26920   4.029   2.377   1.702  0.8407 -0.3160  0.2272
 5095SOL    HW126921   4.016   2.365   1.796  1.6150 -0.1135  0.3652
 5095SOL    HW226922   3.967   2.450   1.696  0.8798 -0.4013 -1.2363
 5096SOL     OW26923   0.559   3.782   2.220 -0.7182  0.0433 -0.2266
 5096SOL    HW126924   0.526   3.722   2.287  0.3375 -0.5160 -0.2051
 5096SOL    HW226925   0.480   3.778   2.166  0.3407  1.7194 -1.8928
 5097SOL     OW26926   2.942   0.012   8.855 -0.2123  0.1335 -0.0387
 5097SOL    HW126927   2.931   0.098   8.817 -1.6495 -0.4867 -1.0042
 5097SOL    HW226928   3.031   4.720   8.832 -0.1410  0.8088 -0.5470
 5098SOL     OW26929   0.196   0.554   1.741  0.2252  0.4029  0.4864
 5098SOL    HW126930   0.252   0.624   1.708  1.1629  0.4596  2.2395
 5098SOL    HW226931   0.258   0.484   1.759 -0.0683  0.1314  0.4477
 5099SOL     OW26932   4.361   0.376  16.777  0.7840 -0.3463  0.5715
 5099SOL    HW126933   4.353   0.433  16.853  2.7134 -0.0093  0.5396
 5099SOL    HW226934   4.431   0.416  16.726 -0.6716  0.2482 -0.9614
 5100SOL     OW26935   3.766   3.779   2.366 -0.3170 -0.5066 -0.6716
 5100SOL    HW126936   3.804   3.845   2.308 -1.3132  2.8130  2.4287
 5100SOL    HW226937   3.729   3.714   2.306 -1.8939  1.6525 -2.0260
 5101SOL     OW26938   2.287   2.332  17.177  0.0385 -0.2558 -0.7139
 5101SOL    HW126939   2.337   2.407  17.210 -0.0992 -1.0453  1.2986
 5101SOL    HW226940   2.251   2.297  17.259  0.1780 -0.0399 -0.5597
 5102SOL     OW26941   0.592   1.547   8.410  0.3135  0.7560 -0.2498
 5102SOL    HW126942   0.501   1.547   8.380  0.3818 -0.5072 -0.4329
 5102SOL    HW226943   0.631   1.473   8.364 -0.2644  1.6767 -2.2577
 5103SOL     OW26944   4.606   1.632  16.090 -0.0629  0.5329 -0.4774
 5103SOL    HW126945   4.536   1.567  16.099 -0.9899  2.0305  3.0086
 5103SOL    HW226946   4.683   1.579  16.067 -0.6092 -1.0120  1.2498
 5104SOL     OW26947   3.451   3.952   1.294  0.3278 -0.3393 -0.0645
 5104SOL    HW126948   3.397   3.957   1.373 -3.0949 -3.7369 -2.2257
 5104SOL    HW226949   3.537   3.939   1.333  1.1582 -1.1515 -2.1479
 5105SOL     OW26950   4.020   0.734   6.045  0.0285 -0.2214  0.0891
 5105SOL    HW126951   3.931   0.750   6.013  0.2868  0.4387 -0.3013
 5105SOL    HW226952   4.061   0.793   5.981 -0.3319 -0.9015 -0.7753
 5106SOL     OW26953   3.584   2.951  15.858 -0.0905  0.9532 -0.5606
 5106SOL    HW126954   3.541   2.867  15.875  0.9762  0.4746 -0.2216
 5106SOL    HW226955   3.509   3.010  15.860 -0.1577  0.8344  0.8652
 5107SOL     OW26956   2.870   0.708   3.100 -0.0565  0.4704  0.3123
 5107SOL    HW126957   2.777   0.715   3.079  0.3103  1.2293 -1.0962
 5107SOL    HW226958   2.865   0.759   3.180 -2.8252  2.0304 -0.8625
 5108SOL     OW26959   1.015   2.608   4.796  0.3908  0.2467  0.1292
 5108SOL    HW126960   1.046   2.679   4.852 -0.5387  0.4037  0.4438
 5108SOL    HW226961   1.094   2.604   4.742  0.5608  1.3190  0.3107
 5109SOL     OW26962   0.218   1.037   5.620 -0.5271  0.6513  0.1942
 5109SOL    HW126963   0.237   1.126   5.648 -0.3245  0.1898  1.5274
 5109SOL    HW226964   0.287   0.991   5.668  1.0777  3.0598  0.1725
 5110SOL     OW26965   3.167   1.455   9.121 -0.1118  0.5285 -0.1122
 5110SOL    HW126966   3.166   1.455   9.217 -0.5701 -2.6856 -0.0969
 5110SOL    HW226967   3.230   1.525   9.106  1.5155 -1.3061 -1.7721
 5111SOL     OW26968   0.550   3.329   5.289 -0.0494  0.4510  0.0895
 5111SOL    HW126969   0.618   3.379   5.243  0.2989  0.2429  0.3757
 5111SOL    HW226970   0.605   3.287   5.355  1.1127  0.3397 -0.9434
 5112SOL     OW26971   4.253   4.385   5.832  0.5785 -0.1440 -0.5429
 5112SOL    HW126972   4.266   4.476   5.806 -1.9031  1.0115  2.1970
 5112SOL    HW226973   4.301   4.337   5.765 -0.3549  1.9023 -2.6768
 5113SOL     OW26974   2.170   0.933  15.119  0.1696 -0.3884  0.3556
 5113SOL    HW126975   2.201   1.016  15.082  0.8676 -0.2401  1.2843
 5113SOL    HW226976   2.116   0.956  15.195 -1.7789  0.6551 -1.3454
 5114SOL     OW26977   1.115   2.878   5.388 -0.3266  0.2803  0.1328
 5114SOL    HW126978   1.188   2.817   5.391 -0.4002  0.2307  0.9692
 5114SOL    HW226979   1.149   2.953   5.339  1.2661  0.9423  2.2159
 5115SOL     OW26980   1.732   2.670   4.204  0.3687  0.0434  0.0550
 5115SOL    HW126981   1.741   2.726   4.282 -0.4212  0.4752 -0.1691
 5115SOL    HW226982   1.820   2.631   4.207 -0.7638 -2.3645  1.5615
 5116SOL     OW26983   3.944   0.876   6.922 -0.2203 -0.1223 -0.1101
 5116SOL    HW126984   4.009   0.864   6.853  0.9053 -0.5107  1.0276
 5116SOL    HW226985   3.963   0.967   6.945  0.9088  0.1850 -2.3484
 5117SOL     OW26986   0.844   1.597   7.615 -0.3001  0.3495 -0.1563
 5117SOL    HW126987   0.790   1.643   7.680  0.8657  1.8433 -0.2411
 5117SOL    HW226988   0.786   1.525   7.590 -2.5606  1.1167  2.7133
 5118SOL     OW26989   3.502   2.604   6.961 -0.0513 -0.4983  0.5188
 5118SOL    HW126990   3.524   2.696   6.948 -2.9108 -0.1104 -1.6168
 5118SOL    HW226991   3.423   2.624   7.012  0.3669 -0.5050  1.1628
 5119SOL     OW26992   1.794   0.824   5.207 -0.6671  0.1896 -0.3364
 5119SOL    HW126993   1.750   0.877   5.140 -1.4215 -0.4301 -0.3299
 5119SOL    HW226994   1.736   0.748   5.214  0.6572 -0.6747  1.3339
 5120SOL     OW26995   3.600   3.464   3.464 -0.3200  0.2573 -0.4948
 5120SOL    HW126996   3.556   3.456   3.379  1.3149  0.5631 -1.3624
 5120SOL    HW226997   3.631   3.554   3.459  0.0068  0.0397 -2.1717
 5121SOL     OW26998   2.296   4.686   8.112 -0.1523  1.2473  0.1249
 5121SOL    HW126999   2.210   4.711   8.147 -0.6764  0.2353 -0.4457
 5121SOL    HW227000   2.272   4.668   8.021 -0.6417  0.0303  0.4981
 5122SOL     OW27001   0.741   2.770   8.345 -0.9519  0.3197 -0.0236
 5122SOL    HW127002   0.698   2.848   8.310 -0.9988  0.9334  1.4236
 5122SOL    HW227003   0.813   2.810   8.394  0.6730  0.2795 -2.3928
 5123SOL     OW27004   1.779   3.490   1.297  0.5454 -0.1464  0.3815
 5123SOL    HW127005   1.751   3.481   1.206  1.0534 -2.3834  0.4502
 5123SOL    HW227006   1.699   3.531   1.331 -0.1888 -2.2779  1.2169
 5124SOL     OW27007   2.187   2.031   9.096 -0.1732  0.4273  0.0765
 5124SOL    HW127008   2.094   2.031   9.118 -0.3547 -1.7538 -0.6361
 5124SOL    HW227009   2.192   1.943   9.058 -1.8209 -0.7966  2.6649
 5125SOL     OW27010   3.678   0.679   0.168 -0.1576 -0.4760 -0.3426
 5125SOL    HW127011   3.704   0.588   0.155  1.7215 -0.0292  0.2881
 5125SOL    HW227012   3.760   0.701   0.213 -0.4361 -2.2268  1.0131
 5126SOL     OW27013   1.815   3.570   3.740 -0.0674  0.1202 -0.1271
 5126SOL    HW127014   1.837   3.631   3.810  0.8806 -0.6278  0.2202
 5126SOL    HW227015   1.815   3.488   3.789  1.6513 -0.7549 -1.5884
 5127SOL     OW27016   3.902   4.102   9.069  0.3486 -0.4283  0.1143
 5127SOL    HW127017   3.994   4.126   9.062  0.7439 -1.6332  1.2670
 5127SOL    HW227018   3.890   4.039   9.140  0.2078 -0.3101  0.1966
 5128SOL     OW27019   0.179   2.670   9.090 -0.8110 -0.0466  0.7730
 5128SOL    HW127020   0.239   2.738   9.059 -1.1589  1.1218  2.6014
 5128SOL    HW227021   0.121   2.643   9.019 -2.0165  2.6087  0.7474
 5129SOL     OW27022   1.641   0.078  16.142  0.1645  0.7794  0.0813
 5129SOL    HW127023   1.546   0.079  16.150  0.3269  0.5435  2.1406
 5129SOL    HW227024   1.659   0.082  16.048 -2.5742 -2.3305 -0.5779
 5130SOL     OW27025   1.491   1.588   2.267 -0.4511 -0.1378  0.2686
 5130SOL    HW127026   1.467   1.625   2.183 -0.5160 -3.0436 -0.9878
 5130SOL    HW227027   1.504   1.501   2.230 -0.4259  0.6251 -1.5236
 5131SOL     OW27028   3.038   4.512   6.114  0.0080 -0.4970  0.2742
 5131SOL    HW127029   3.080   4.589   6.152 -0.0569  0.0163 -0.6696
 5131SOL    HW227030   2.981   4.545   6.044 -0.5159 -1.9416  0.0324
 5132SOL     OW27031   2.838   3.092   6.272 -0.3661  0.2869 -0.5886
 5132SOL    HW127032   2.841   3.046   6.187  0.7795  0.2386 -0.5152
 5132SOL    HW227033   2.923   3.136   6.279 -0.0505  0.0511 -2.7802
 5133SOL     OW27034   4.080   2.243  13.385 -0.2056 -0.0574  0.2348
 5133SOL    HW127035   4.176   2.242  13.393  0.0588  0.9490 -3.0199
 5133SOL    HW227036   4.052   2.152  13.379  1.5223 -0.4843 -1.6408
 5134SOL     OW27037   4.572   2.208   2.287  0.3311 -0.0429 -0.1936
 5134SOL    HW127038   4.575   2.113   2.296  1.6513  0.0928  0.6908
 5134SOL    HW227039   4.479   2.223   2.301  0.2795 -0.3471 -0.2048
 5135SOL     OW27040   0.086   0.354  10.834 -0.5395  0.6019  0.0995
 5135SOL    HW127041   0.145   0.279  10.827 -0.4920  0.4648  2.2281
 5135SOL    HW227042   0.124   0.398  10.758 -0.4546  1.4473  0.6343
 5136SOL     OW27043   4.652   3.926   5.261  0.3924 -0.6423 -0.5066
 5136SOL    HW127044   4.681   3.840   5.292 -0.9592 -0.7541  0.3961
 5136SOL    HW227045   4.569   3.940   5.305  1.1447  0.7318  0.4607
 5137SOL     OW27046   2.855   1.401   8.675 -0.3309 -0.2488  0.0312
 5137SOL    HW127047   2.906   1.461   8.730  0.8243 -1.6525  0.4905
 5137SOL    HW227048   2.765   1.434   8.680 -0.9644 -1.9474 -0.0753
 5138SOL     OW27049   0.319   1.575   8.326  0.2107  0.2061 -0.1466
 5138SOL    HW127050   0.305   1.534   8.240  1.7430  0.0465 -0.3082
 5138SOL    HW227051   0.263   1.520   8.381  1.0708  0.0764  0.6006
 5139SOL     OW27052   3.572   0.707   8.002 -0.3865  0.4327  0.0077
 5139SOL    HW127053   3.484   0.720   8.035 -0.2072  0.4796  0.4694
 5139SOL    HW227054   3.624   0.769   8.053 -0.1428 -0.0360  0.3340
 5140SOL     OW27055   1.876   3.915  13.552 -0.0816  0.8301 -0.1739
 5140SOL    HW127056   1.824   3.841  13.522 -1.2345  2.3630 -1.9244
 5140SOL    HW227057   1.880   3.886  13.643 -0.4796  0.6664 -0.2090
 5141SOL     OW27058   0.707   4.033   3.293  0.0408  0.2445 -0.0592
 5141SOL    HW127059   0.749   4.093   3.355  1.1783 -0.7537  0.1356
 5141SOL    HW227060   0.778   3.969   3.289  1.0326  1.5142 -2.5687
 5142SOL     OW27061   4.431   2.038   5.630 -0.0232  0.3494 -0.1786
 5142SOL    HW127062   4.380   2.081   5.561 -1.5350  0.8612  1.2463
 5142SOL    HW227063   4.447   2.109   5.692 -2.6568  0.9974 -0.2043
 5143SOL     OW27064   4.627   1.258  12.464 -0.1782 -0.1978  0.2802
 5143SOL    HW127065   4.610   1.257  12.370  2.3648  0.0671 -0.1938
 5143SOL    HW227066   4.567   1.329  12.485 -1.2366 -0.4995 -1.7513
 5144SOL     OW27067   1.359   3.124   7.177  0.0375  0.1526 -0.2772
 5144SOL    HW127068   1.370   3.045   7.123 -0.2187  1.3530 -2.0650
 5144SOL    HW227069   1.443   3.170   7.170 -0.1756  0.5335 -0.2972
 5145SOL     OW27070   0.760   2.161  15.347  0.1974 -0.6105 -1.0867
 5145SOL    HW127071   0.780   2.086  15.403 -0.1182 -0.1385 -0.3429
 5145SOL    HW227072   0.833   2.151  15.285  1.1768  1.0519 -0.2012
 5146SOL     OW27073   3.630   1.905   6.662 -0.2598  0.0543  0.4255
 5146SOL    HW127074   3.638   1.967   6.734 -0.3028  2.2856 -1.4754
 5146SOL    HW227075   3.687   1.834   6.693  0.8969  0.9388  0.3361
 5147SOL     OW27076   0.270   4.642   5.928  0.9906  0.1721 -0.0477
 5147SOL    HW127077   0.191   4.604   5.965  0.4485  0.7732 -0.5880
 5147SOL    HW227078   0.267   4.594   5.845  0.8644  0.4363 -0.1964
 5148SOL     OW27079   1.682   3.335   2.365 -0.1858 -0.6379  0.2990
 5148SOL    HW127080   1.598   3.304   2.330  0.3544 -0.4999 -1.1154
 5148SOL    HW227081   1.677   3.312   2.458 -2.1987 -0.1300  0.3211
 5149SOL     OW27082   3.361   3.330  13.579  0.1330  0.0179 -0.3873
 5149SOL    HW127083   3.375   3.421  13.602  1.6795 -0.0357 -1.1114
 5149SOL    HW227084   3.285   3.308  13.633 -0.3742 -1.7370 -1.8023
 5150SOL     OW27085   4.212   4.000   9.960 -0.2758  0.0774 -0.2550
 5150SOL    HW127086   4.253   3.916   9.938  0.3995  0.2392  0.4116
 5150SOL    HW227087   4.135   3.971  10.009 -0.8761  0.4059 -1.0017
 5151SOL     OW27088   4.500   2.225  15.565 -0.4350  0.3516  0.2689
 5151SOL    HW127089   4.504   2.227  15.470  1.8638 -0.5823  0.3548
 5151SOL    HW227090   4.486   2.318  15.581 -0.3579  0.7935 -2.2780
 5152SOL     OW27091   3.839   1.676  10.718 -0.0282  0.0864 -0.6710
 5152SOL    HW127092   3.928   1.663  10.752  0.2576  0.0011 -1.4445
 5152SOL    HW227093   3.834   1.770  10.733  1.1025  0.1023 -0.3583
 5153SOL     OW27094   0.487   3.559   6.882  0.5252  0.3406  0.1986
 5153SOL    HW127095   0.567   3.589   6.837  1.1831 -0.5845  0.7518
 5153SOL    HW227096   0.429   3.526   6.813  0.6732  0.4563  0.0177
 5154SOL     OW27097   3.945   4.643   1.761  0.0066  0.8818  0.1977
 5154SOL    HW127098   3.971   4.721   1.712  0.1557  0.7961  0.1415
 5154SOL    HW227099   3.907   4.592   1.689  0.1862  1.8710 -0.5823
 5155SOL     OW27100   2.241   0.131   6.594 -0.1288  0.7544  0.0048
 5155SOL    HW127101   2.148   0.107   6.600 -0.1741  1.2831  1.3647
 5155SOL    HW227102   2.250   0.148   6.500 -0.9760  0.2402 -0.1783
 5156SOL     OW27103   0.967   4.539   2.686  0.0361  0.0290  0.1469
 5156SOL    HW127104   0.980   4.622   2.641  1.7716 -1.0169 -1.2907
 5156SOL    HW227105   1.032   4.484   2.642 -2.1890  0.9974 -4.2796
 5157SOL     OW27106   2.263   4.368  15.867 -0.4483 -0.2476  0.3414
 5157SOL    HW127107   2.185   4.421  15.883 -0.0044  0.7695 -0.8481
 5157SOL    HW227108   2.297   4.351  15.954  2.1725  2.0334 -0.2439
 5158SOL     OW27109   0.032   0.772   5.313  0.3732  0.3412 -0.1228
 5158SOL    HW127110   0.063   0.762   5.222  1.5205  0.0765  0.3001
 5158SOL    HW227111   0.114   0.749   5.356  1.0708 -0.3771 -1.8224
 5159SOL     OW27112   2.931   2.211   5.937  0.3602  0.2955  0.4679
 5159SOL    HW127113   2.889   2.131   5.904 -0.9394  0.2102  2.2859
 5159SOL    HW227114   3.020   2.182   5.921  0.2811  0.2615  0.0808
 5160SOL     OW27115   1.839   2.288   3.636 -0.0079 -0.4948 -0.5967
 5160SOL    HW127116   1.914   2.291   3.578  0.5197  0.6167  0.1358
 5160SOL    HW227117   1.881   2.294   3.722  2.6061 -0.4605 -1.8715
 5161SOL     OW27118   0.828   0.893   4.872  0.5020 -0.5583  0.3231
 5161SOL    HW127119   0.876   0.936   4.943 -0.5616  0.3919  0.4583
 5161SOL    HW227120   0.900   0.853   4.824 -0.3298  1.8871 -2.9019
 5162SOL     OW27121   4.481   1.500  17.718  0.0979 -0.3498 -0.6949
 5162SOL    HW127122   4.403   1.537  17.675 -1.6389 -2.7816  0.3481
 5162SOL    HW227123   4.532   1.581  17.718 -1.1122  0.4159 -1.1580
 5163SOL     OW27124   1.725   0.476  16.823 -0.0812  0.1509 -0.2393
 5163SOL    HW127125   1.721   0.382  16.837 -0.2999 -0.4319 -4.0713
 5163SOL    HW227126   1.745   0.505  16.912 -1.3286 -1.6187  0.6126
 5164SOL     OW27127   1.756   3.075   1.070 -0.1231 -0.0580 -0.3816
 5164SOL    HW127128   1.796   2.998   1.111 -2.3002 -1.2514 -0.4913
 5164SOL    HW227129   1.746   3.133   1.145 -0.5794 -0.2661 -0.2804
 5165SOL     OW27130   0.751   4.452   0.767 -0.4354  0.5741 -0.3547
 5165SOL    HW127131   0.776   4.423   0.855 -4.6380  1.6706  1.2199
 5165SOL    HW227132   0.823   4.513   0.749  1.7291 -1.7135  0.5314
 5166SOL     OW27133   1.492   3.217   6.802  0.1534  0.6070  0.2515
 5166SOL    HW127134   1.414   3.240   6.752 -1.1807 -1.3794  1.4415
 5166SOL    HW227135   1.529   3.153   6.741  0.6621  1.3449 -0.2245
 5167SOL     OW27136   2.934   3.933  13.299 -0.2533 -0.1047 -0.1279
 5167SOL    HW127137   2.925   3.868  13.229  0.1668 -0.0200 -0.2598
 5167SOL    HW227138   3.006   3.981  13.258  0.9314 -0.9179  0.9976
 5168SOL     OW27139   0.589   3.361   6.603  0.2317 -0.3407 -0.9312
 5168SOL    HW127140   0.546   3.350   6.518 -1.2121 -1.8807 -0.0050
 5168SOL    HW227141   0.630   3.444   6.581 -1.1993 -0.2883 -3.3331
 5169SOL     OW27142   1.264   1.688   4.744 -0.2396 -0.1727 -0.0348
 5169SOL    HW127143   1.328   1.754   4.718 -0.6083 -0.1160 -0.7926
 5169SOL    HW227144   1.203   1.697   4.671 -0.0826 -0.5607 -0.2131
 5170SOL     OW27145   1.931   1.661   5.738 -0.4428 -0.2033 -0.6155
 5170SOL    HW127146   2.026   1.651   5.729 -0.0398  1.7684  1.5827
 5170SOL    HW227147   1.914   1.574   5.701  0.5110  0.4149 -2.5573
 5171SOL     OW27148   3.625   4.668  15.267  0.4616  0.4783  0.4004
 5171SOL    HW127149   3.666   4.584  15.249 -1.7323 -0.7962  1.2708
 5171SOL    HW227150   3.567   4.691  15.194 -0.5624  0.5911  1.2374
 5172SOL     OW27151   1.096   4.527   7.544  0.1735  0.3972 -0.3046
 5172SOL    HW127152   1.022   4.578   7.512  0.3556  2.2776  2.3011
 5172SOL    HW227153   1.101   4.449   7.489  1.0514 -0.6944  1.3274
 5173SOL     OW27154   4.260   0.703  13.641  0.3417  0.7480 -0.3310
 5173SOL    HW127155   4.206   0.730  13.715  0.0903  0.9359 -0.5843
 5173SOL    HW227156   4.344   0.723  13.682  0.2809  0.7943 -0.2286
 5174SOL     OW27157   1.912   1.223   8.886 -0.1651  0.0049  0.0188
 5174SOL    HW127158   1.871   1.137   8.897 -1.5187  0.4656 -1.3889
 5174SOL    HW227159   1.866   1.268   8.815  1.1322 -0.0955 -0.8962
 5175SOL     OW27160   0.897   0.687   1.499 -0.0950 -0.5023  0.5171
 5175SOL    HW127161   0.969   0.643   1.543  1.4222  1.9555  0.4506
 5175SOL    HW227162   0.820   0.660   1.548 -0.4266 -0.8694 -0.1952
 5176SOL     OW27163   3.113   2.453   8.186  0.1969 -0.2113  0.0612
 5176SOL    HW127164   3.154   2.427   8.269  1.6959 -0.7031 -0.8304
 5176SOL    HW227165   3.106   2.547   8.198  2.6744  0.0112 -0.2549
 5177SOL     OW27166   2.065   1.547   2.020  0.0445  0.2069 -0.0654
 5177SOL    HW127167   2.068   1.560   1.925  1.1687 -1.1082 -0.2115
 5177SOL    HW227168   2.151   1.582   2.044  0.5188 -0.8622 -0.1913
 5178SOL     OW27169   2.469   4.162   0.530 -0.1300  0.5915  0.2909
 5178SOL    HW127170   2.419   4.190   0.454  1.1185 -1.6576 -1.3453
 5178SOL    HW227171   2.532   4.232   0.545 -2.8278  2.8781  0.9818
 5179SOL     OW27172   1.004   1.253  12.303  0.6458 -0.0290 -0.7563
 5179SOL    HW127173   0.988   1.235  12.210  0.0417  1.3061 -0.9014
 5179SOL    HW227174   0.992   1.166  12.341  1.3518 -0.4833 -1.5679
 5180SOL     OW27175   1.214   3.502   2.120  0.1602  0.3936 -0.1812
 5180SOL    HW127176   1.271   3.578   2.123 -1.5557  1.6697  0.3523
 5180SOL    HW227177   1.265   3.434   2.164 -0.3118  0.2983  0.2192
 5181SOL     OW27178   2.594   1.497  17.476 -0.3916 -0.2720  0.2391
 5181SOL    HW127179   2.626   1.428  17.534  0.7955 -0.4924 -0.6610
 5181SOL    HW227180   2.510   1.524  17.511 -0.3914 -1.5725  1.2584
 5182SOL     OW27181   0.447   4.096   6.425  0.2873  0.3100  0.0665
 5182SOL    HW127182   0.440   4.087   6.520 -0.7431  1.2246  0.0809
 5182SOL    HW227183   0.454   4.192   6.423  1.9065  0.1777 -0.5257
 5183SOL     OW27184   2.114   3.020   3.708  0.0256  0.0971  0.4123
 5183SOL    HW127185   2.108   2.931   3.741  1.5474  0.5443  1.8748
 5183SOL    HW227186   2.063   3.069   3.772 -1.2794  0.1512 -0.6534
 5184SOL     OW27187   0.189   0.727   5.066  0.1585 -0.1157  0.1831
 5184SOL    HW127188   0.232   0.812   5.067 -1.1247  0.5337 -0.2269
 5184SOL    HW227189   0.267   0.670   5.063 -0.6941 -1.2848  0.3969
 5185SOL     OW27190   0.600   3.190   2.997  0.2543  0.4642  0.2312
 5185SOL    HW127191   0.554   3.112   2.967 -2.2289  0.7659  3.2622
 5185SOL    HW227192   0.559   3.209   3.081 -0.1000 -0.1621  0.1962
 5186SOL     OW27193   2.309   3.610  11.886 -0.1156  0.3128  0.3039
 5186SOL    HW127194   2.380   3.549  11.864 -0.9870 -1.3262  1.9973
 5186SOL    HW227195   2.258   3.559  11.949  0.8564  0.0613  0.8977
 5187SOL     OW27196   3.327   2.323   5.995 -0.4231 -0.3208  0.0916
 5187SOL    HW127197   3.378   2.244   6.009 -1.5300 -1.0841 -0.2456
 5187SOL    HW227198   3.341   2.338   5.902 -1.7341  0.4711  0.0283
 5188SOL     OW27199   1.345   2.318   6.181 -0.1229  0.0481 -0.2079
 5188SOL    HW127200   1.305   2.251   6.125 -1.1262 -1.3631  2.1781
 5188SOL    HW227201   1.400   2.260   6.234  2.2952  0.6835 -2.0119
 5189SOL     OW27202   2.116   2.740  15.100 -0.2890  0.1581  0.3257
 5189SOL    HW127203   2.100   2.721  15.192 -0.3862  1.0912  0.5009
 5189SOL    HW227204   2.049   2.680  15.066  0.8548 -0.3103 -1.0770
 5190SOL     OW27205   3.333   4.398  15.953 -0.0793 -0.4068  0.1716
 5190SOL    HW127206   3.350   4.440  15.869  2.4263  0.0962  0.9301
 5190SOL    HW227207   3.419   4.365  15.980  0.2034  0.8269  0.7562
 5191SOL     OW27208   2.559   3.428  11.202  0.1097  0.1457  0.0399
 5191SOL    HW127209   2.464   3.441  11.208 -0.0779 -0.8603 -0.6715
 5191SOL    HW227210   2.591   3.453  11.288 -0.4350 -3.5038  1.2803
 5192SOL     OW27211   4.301   2.884  10.933  0.6310  0.3781  0.0337
 5192SOL    HW127212   4.254   2.957  10.893  0.4721  0.1790 -0.1455
 5192SOL    HW227213   4.367   2.925  10.989  1.2703 -2.3366  1.3108
 5193SOL     OW27214   1.843   4.451  11.602  0.2915  0.0243  0.3998
 5193SOL    HW127215   1.880   4.536  11.580 -1.4874  0.0536 -2.5192
 5193SOL    HW227216   1.847   4.423  11.510  0.0962  0.5368  0.2354
 5194SOL     OW27217   2.774   0.469   9.907 -0.5253  0.3403  0.0165
 5194SOL    HW127218   2.823   0.426   9.838 -0.1613  1.3197 -0.3327
 5194SOL    HW227219   2.716   0.531   9.862  0.0896  0.5672 -0.4586
 5195SOL     OW27220   2.627   4.471   4.201 -0.0499 -0.5716 -0.1802
 5195SOL    HW127221   2.708   4.486   4.248 -1.1478 -0.3830  1.6523
 5195SOL    HW227222   2.571   4.536   4.245 -1.0520 -0.3914 -1.7071
 5196SOL     OW27223   3.013   3.356   8.464 -0.2344 -0.4893 -0.1072
 5196SOL    HW127224   3.017   3.261   8.465 -2.1144 -0.5427  1.2349
 5196SOL    HW227225   3.098   3.377   8.503 -0.3626 -1.2087  0.5533
 5197SOL     OW27226   4.348   3.163   1.783  0.2700 -0.7029  0.5908
 5197SOL    HW127227   4.337   3.105   1.708  0.5416  0.1942 -0.1372
 5197SOL    HW227228   4.262   3.166   1.824  0.7979 -0.2794  1.6587
 5198SOL     OW27229   0.667   1.658   3.373  0.1885 -0.0039  0.2143
 5198SOL    HW127230   0.704   1.570   3.378 -1.7717 -0.8128  0.7900
 5198SOL    HW227231   0.733   1.713   3.331  0.2561 -0.4369 -0.2425
 5199SOL     OW27232   2.390   1.335   8.815 -0.1042 -0.3818  0.2202
 5199SOL    HW127233   2.450   1.264   8.840 -0.6741 -0.8653  0.2270
 5199SOL    HW227234   2.351   1.360   8.898 -0.9175  0.4376 -0.4054
 5200SOL     OW27235   2.655   1.948   7.319  0.7886 -0.6798 -0.6622
 5200SOL    HW127236   2.645   1.883   7.388  1.9211  0.2281  0.3799
 5200SOL    HW227237   2.624   1.897   7.245 -1.1578 -1.8619  0.9898
 5201SOL     OW27238   1.952   0.200   6.714  0.0468  0.0642 -0.7401
 5201SOL    HW127239   1.968   0.106   6.726  1.1537 -0.0563 -3.2709
 5201SOL    HW227240   2.026   0.234   6.764  0.0298 -2.0338  0.7327
 5202SOL     OW27241   2.026   0.461  10.947  0.3884  0.0104 -0.4417
 5202SOL    HW127242   2.079   0.538  10.967 -1.2495  0.8130  0.7510
 5202SOL    HW227243   1.966   0.457  11.022  0.9585 -1.0047 -0.0387
 5203SOL     OW27244   0.615   1.722   6.263 -0.0575 -0.6596 -0.3783
 5203SOL    HW127245   0.681   1.667   6.305  0.4760 -0.5291 -1.0415
 5203SOL    HW227246   0.560   1.661   6.214  0.3600  1.1490 -3.1026
 5204SOL     OW27247   1.306   2.276   0.330 -0.3136  0.4080 -0.2046
 5204SOL    HW127248   1.211   2.281   0.332 -0.3837 -0.6869 -0.6430
 5204SOL    HW227249   1.316   2.328   0.250  0.6733 -1.5259 -1.3518
 5205SOL     OW27250   2.867   2.743  17.188  0.0383 -0.1859  0.4672
 5205SOL    HW127251   2.881   2.819  17.244 -1.7013  0.4922 -0.0133
 5205SOL    HW227252   2.836   2.688  17.260 -2.8362 -1.9340 -2.0848
 5206SOL     OW27253   4.011   0.074   7.028  0.4713 -0.3956  0.3151
 5206SOL    HW127254   3.918   0.081   7.052  0.3811 -1.9361  0.4210
 5206SOL    HW227255   4.008   0.155   6.977  0.9952  0.1928  1.2139
 5207SOL     OW27256   3.789   2.582   5.556 -0.3161  0.1996 -0.4804
 5207SOL    HW127257   3.883   2.580   5.537  0.0451  1.6892  1.0693
 5207SOL    HW227258   3.763   2.673   5.546 -0.7186  0.0895 -0.4381
 5208SOL     OW27259   1.813   1.334   5.950 -0.1430  0.2782 -0.3216
 5208SOL    HW127260   1.768   1.286   5.880  0.6925  0.9006 -1.2861
 5208SOL    HW227261   1.764   1.416   5.946  2.1489  1.6944  0.8253
 5209SOL     OW27262   1.497   1.277   3.640 -0.2670 -0.0519 -0.3001
 5209SOL    HW127263   1.431   1.216   3.673  0.7693 -0.0643  1.7340
 5209SOL    HW227264   1.572   1.223   3.666 -0.9718  0.0596  1.9103
 5210SOL     OW27265   2.496   1.227   5.130 -0.7135  0.0810  0.3050
 5210SOL    HW127266   2.529   1.142   5.158 -0.1766 -0.3136 -1.5217
 5210SOL    HW227267   2.431   1.241   5.200 -1.3793  0.9777 -0.4837
 5211SOL     OW27268   1.310   0.470   5.449  0.2118 -0.1506 -0.2400
 5211SOL    HW127269   1.372   0.422   5.395  1.1034 -0.2488  0.8782
 5211SOL    HW227270   1.281   0.397   5.504 -0.9600  0.0696 -0.5673
 5212SOL     OW27271   0.475   1.886   4.031 -0.4208 -0.6411 -0.3093
 5212SOL    HW127272   0.441   1.936   4.105 -0.0901  0.7946 -1.1227
 5212SOL    HW227273   0.566   1.873   4.061 -0.4622  2.9201  1.3253
 5213SOL     OW27274   0.574   2.066  12.968 -0.6165 -0.1465  0.1762
 5213SOL    HW127275   0.628   2.065  13.047 -0.7793 -0.8117  0.2833
 5213SOL    HW227276   0.584   2.151  12.927 -0.9229  0.6477  1.7668
 5214SOL     OW27277   2.646   3.135  13.514 -0.4731 -0.4116  0.4590
 5214SOL    HW127278   2.685   3.110  13.597 -1.0992  0.9354  1.1551
 5214SOL    HW227279   2.719   3.131  13.452 -0.8204  2.4771 -0.1477
 5215SOL     OW27280   2.974   4.150  12.265  0.1278  0.3256 -0.2810
 5215SOL    HW127281   3.069   4.145  12.271  0.1457  0.5728 -0.3475
 5215SOL    HW227282   2.944   4.112  12.348 -2.6370  0.0191 -1.4389
 5216SOL     OW27283   1.424   2.678  17.137 -0.0027  0.0377  0.0760
 5216SOL    HW127284   1.427   2.741  17.065  1.7845 -0.6837 -0.4915
 5216SOL    HW227285   1.432   2.746  17.204  0.0609 -0.2742  0.3822
 5217SOL     OW27286   0.638   3.311  15.632 -0.2572 -0.4110  0.2865
 5217SOL    HW127287   0.692   3.347  15.703  1.3750  0.3954 -1.3607
 5217SOL    HW227288   0.631   3.392  15.581  1.5982  0.3157  1.1721
 5218SOL     OW27289   3.937   1.107   0.434  0.3273 -0.1438 -0.4010
 5218SOL    HW127290   3.843   1.096   0.422  0.2577  1.4177 -1.2257
 5218SOL    HW227291   3.947   1.198   0.462 -0.4850 -0.6460  1.5202
 5219SOL     OW27292   3.077   0.565   7.444 -0.2300  0.1515  0.0740
 5219SOL    HW127293   3.064   0.575   7.538 -0.6298 -0.2234  0.0604
 5219SOL    HW227294   3.092   0.658   7.428  2.4461 -0.2193  0.5032
 5220SOL     OW27295   1.670   0.379  15.851 -0.0514  0.4005  0.4760
 5220SOL    HW127296   1.682   0.370  15.945 -1.6899 -1.7210  0.4951
 5220SOL    HW227297   1.692   0.471  15.842  0.3869  0.5150  2.6602
 5221SOL     OW27298   1.050   0.880   1.894  0.2638 -0.5512  0.2540
 5221SOL    HW127299   1.038   0.975   1.886 -1.0953 -0.7960 -0.5724
 5221SOL    HW227300   1.073   0.860   1.803  1.3524  0.4149  0.3202
 5222SOL     OW27301   0.729   1.971   6.140 -0.0049 -0.3184  0.1411
 5222SOL    HW127302   0.733   1.877   6.122 -1.4839 -0.4718  0.6079
 5222SOL    HW227303   0.670   1.974   6.215 -0.2339 -1.6892  0.0164
 5223SOL     OW27304   1.565   0.190   8.242 -0.0748 -0.4528 -0.4926
 5223SOL    HW127305   1.492   0.201   8.181 -0.0229 -0.7563 -0.6129
 5223SOL    HW227306   1.519   0.196   8.325 -0.5707 -2.6770 -0.6001
 5224SOL     OW27307   2.366   0.031   3.715 -0.2830 -0.0965  0.4376
 5224SOL    HW127308   2.354   0.105   3.655  0.1132  0.4725  1.0685
 5224SOL    HW227309   2.346   0.066   3.801 -2.1771 -0.2542  0.0832
 5225SOL     OW27310   1.076   1.977  16.673 -0.1092 -0.1967 -0.6503
 5225SOL    HW127311   1.141   2.035  16.712 -1.3887  1.4046 -0.9304
 5225SOL    HW227312   1.108   1.972  16.582 -0.4075  1.1225 -0.8215
 5226SOL     OW27313   0.155   0.316  13.162  0.0512 -0.2601 -0.4755
 5226SOL    HW127314   0.075   0.279  13.126 -1.1000  2.1300 -0.3471
 5226SOL    HW227315   0.133   0.408  13.146 -1.7159 -0.5583  0.3332
 5227SOL     OW27316   0.526   0.587   4.811  0.5763  0.5735  0.6456
 5227SOL    HW127317   0.588   0.615   4.878  0.4786 -0.6598  1.2511
 5227SOL    HW227318   0.491   0.502   4.838 -0.2936  1.2229  1.5552
 5228SOL     OW27319   3.317   4.626   4.838  0.2181 -0.2938 -0.5639
 5228SOL    HW127320   3.308   4.554   4.899  0.9421 -2.0860 -2.5460
 5228SOL    HW227321   3.403   4.647   4.874  0.3221  1.9737 -2.1059
 5229SOL     OW27322   1.308   3.635   3.564 -0.6367 -0.6535 -0.4967
 5229SOL    HW127323   1.215   3.651   3.548 -0.6012 -0.4440 -0.4881
 5229SOL    HW227324   1.357   3.648   3.483  0.6974 -1.1291  0.2315
 5230SOL     OW27325   2.968   2.468   9.432  0.3082  0.5067 -0.1230
 5230SOL    HW127326   2.966   2.522   9.511 -1.7545 -0.1358  0.2645
 5230SOL    HW227327   2.969   2.537   9.365  0.6161  0.6474  0.0278
 5231SOL     OW27328   3.035   0.739  13.638  0.2485  0.4172  0.4796
 5231SOL    HW127329   2.987   0.755  13.556 -0.1901 -0.8274  0.4971
 5231SOL    HW227330   2.996   0.808  13.690 -0.2424  1.6419 -1.4954
 5232SOL     OW27331   4.165   2.186   5.111 -0.2210 -0.0132 -0.0552
 5232SOL    HW127332   4.252   2.224   5.120 -0.5719  0.5548  1.0319
 5232SOL    HW227333   4.113   2.227   5.181 -0.3658  2.1360 -1.4353
 5233SOL     OW27334   2.210   3.855   2.835 -0.2555 -0.5589  0.2555
 5233SOL    HW127335   2.285   3.855   2.774 -0.9982 -1.5782 -0.6577
 5233SOL    HW227336   2.226   3.937   2.882 -1.1219  0.3334 -0.9912
 5234SOL     OW27337   1.012   0.572  11.716  0.6923 -0.3824 -0.5324
 5234SOL    HW127338   0.996   0.549  11.625 -0.6256  1.8360 -0.8437
 5234SOL    HW227339   1.012   0.484  11.754 -1.8933 -0.3982 -0.5980
 5235SOL     OW27340   2.174   0.305  13.578 -0.6730 -0.2899 -0.1170
 5235SOL    HW127341   2.107   0.370  13.561  0.5290  0.9382 -0.1759
 5235SOL    HW227342   2.140   0.221  13.547  1.8165 -1.4555  0.2459
 5236SOL     OW27343   0.651   0.655   2.522 -0.5926 -0.0524 -0.5741
 5236SOL    HW127344   0.693   0.660   2.436 -1.2757  0.5403 -0.8712
 5236SOL    HW227345   0.595   0.733   2.517 -0.0793  0.4174  1.1961
 5237SOL     OW27346   3.196   3.838  13.664 -0.2370 -0.1173 -0.4402
 5237SOL    HW127347   3.170   3.899  13.596 -0.3861  0.7523  0.3975
 5237SOL    HW227348   3.131   3.862  13.731 -1.5077 -2.2617 -0.8822
 5238SOL     OW27349   0.654   1.959   7.274 -0.0250  0.7767 -0.2852
 5238SOL    HW127350   0.659   2.054   7.279  0.0468  0.7628 -0.0848
 5238SOL    HW227351   0.631   1.926   7.360 -0.2367 -0.3614 -0.7775
 5239SOL     OW27352   4.519   0.838   8.608  0.2753  0.2023  0.2661
 5239SOL    HW127353   4.562   0.781   8.545  0.3308  0.8103 -0.2447
 5239SOL    HW227354   4.584   0.864   8.673  2.1875  0.2543 -1.6590
 5240SOL     OW27355   2.923   1.749   3.815 -0.3613 -0.0693  0.2082
 5240SOL    HW127356   2.903   1.655   3.812 -0.0994 -0.0446 -1.7726
 5240SOL    HW227357   2.839   1.793   3.825 -1.6269 -2.7058  1.2389
 5241SOL     OW27358   2.168   1.324   6.867  0.3697  0.0047  0.2888
 5241SOL    HW127359   2.098   1.323   6.931 -0.0935  0.2579 -0.2140
 5241SOL    HW227360   2.126   1.362   6.790 -0.3407 -0.8717  0.2417
 5242SOL     OW27361   1.482   4.525   6.437 -0.2633 -0.0764 -0.0530
 5242SOL    HW127362   1.547   4.521   6.507  0.8239  1.3478 -0.9774
 5242SOL    HW227363   1.429   4.595   6.477  1.5317  1.2334  0.0192
 5243SOL     OW27364   2.731   2.111   4.997 -0.2089 -0.5899 -0.0869
 5243SOL    HW127365   2.799   2.057   4.956 -0.3800 -0.0896 -1.0475
 5243SOL    HW227366   2.746   2.196   4.955  0.2017 -0.0908  1.0686
 5244SOL     OW27367   0.235   4.477   5.261 -0.4094  0.2279 -0.0675
 5244SOL    HW127368   0.142   4.465   5.243 -0.3815 -0.9146  0.5869
 5244SOL    HW227369   0.276   4.423   5.193 -1.0383 -0.6865  0.2785
 5245SOL     OW27370   0.823   2.019  13.760  0.5339  0.2242 -0.4801
 5245SOL    HW127371   0.746   2.044  13.812  0.5612  0.3609 -0.5048
 5245SOL    HW227372   0.789   1.956  13.696  1.4445 -2.2371  1.4508
 5246SOL     OW27373   0.770   1.559   1.295  0.5363 -0.8112  0.3409
 5246SOL    HW127374   0.827   1.503   1.243  2.0046 -0.0810  1.1617
 5246SOL    HW227375   0.728   1.500   1.359 -0.0063  0.1454  0.8601
 5247SOL     OW27376   0.724   0.236   0.408  0.1128  0.3255  0.6608
 5247SOL    HW127377   0.734   0.158   0.461  0.3398  1.1333  1.8080
 5247SOL    HW227378   0.775   0.223   0.328  1.2022  0.1901  1.3880
 5248SOL     OW27379   0.280   0.884   2.978 -0.6589 -0.4801 -0.1935
 5248SOL    HW127380   0.236   0.958   3.018 -0.6711  0.1620 -1.3929
 5248SOL    HW227381   0.255   0.897   2.887  0.7695  2.9813 -0.0941
 5249SOL     OW27382   1.705   0.867  15.634 -0.4989  0.9330 -0.4515
 5249SOL    HW127383   1.638   0.804  15.662  0.6803 -1.2503 -2.5315
 5249SOL    HW227384   1.664   0.948  15.665 -2.2477  0.8636 -2.6086
 5250SOL     OW27385   2.348   3.701  16.771  0.0327 -0.0733  0.4114
 5250SOL    HW127386   2.341   3.772  16.707 -1.0167 -0.8989 -0.4101
 5250SOL    HW227387   2.413   3.725  16.836 -0.6488 -1.8917  1.7692
 5251SOL     OW27388   3.935   2.153   6.369  0.3277  0.1030  0.0964
 5251SOL    HW127389   3.945   2.157   6.464  0.1894  2.6953 -0.0164
 5251SOL    HW227390   3.857   2.100   6.353  1.1501 -1.2309  0.4638
 5252SOL     OW27391   1.188   3.517  14.681 -0.2190 -0.5405 -0.0073
 5252SOL    HW127392   1.134   3.592  14.706 -0.6729 -0.0270 -2.5661
 5252SOL    HW227393   1.246   3.575  14.634 -0.8649  1.1584  1.3008
 5253SOL     OW27394   0.820   2.749  14.476 -0.0074 -0.0809  0.3805
 5253SOL    HW127395   0.800   2.818  14.540 -2.0706  0.0743 -0.4344
 5253SOL    HW227396   0.863   2.809  14.415 -1.3995  0.1304 -0.3870
 5254SOL     OW27397   2.393   0.923  16.192  0.2606 -0.0037  0.0731
 5254SOL    HW127398   2.455   0.984  16.233  0.0142  0.0491  0.3600
 5254SOL    HW227399   2.447   0.870  16.134 -1.3256 -0.7808 -0.6852
 5255SOL     OW27400   4.646   4.264   3.811  0.0099 -0.3162 -0.2397
 5255SOL    HW127401   4.661   4.214   3.731  0.2165 -0.9460  0.1945
 5255SOL    HW227402   4.552   4.248   3.818  0.2746 -1.9584 -0.4047
 5256SOL     OW27403   4.274   0.661  16.775  0.1860 -0.0634 -0.1132
 5256SOL    HW127404   4.250   0.635  16.864 -1.9540 -0.6010 -0.8519
 5256SOL    HW227405   4.192   0.655  16.725 -0.8027  0.0090  1.4964
 5257SOL     OW27406   0.691   2.509   6.022  0.2464 -0.1597 -0.2740
 5257SOL    HW127407   0.776   2.549   6.038  0.8348 -0.8747 -1.5796
 5257SOL    HW227408   0.666   2.562   5.946  0.9188 -0.1098 -0.4524
 5258SOL     OW27409   0.671   3.734   6.048 -0.4321  0.5623 -0.1104
 5258SOL    HW127410   0.751   3.710   6.096 -0.8583  2.9209  1.7579
 5258SOL    HW227411   0.592   3.697   6.089 -1.2290 -0.7492 -2.8311
 5259SOL     OW27412   0.064   2.975  13.393 -0.1400 -0.1765 -0.3901
 5259SOL    HW127413   0.012   2.970  13.472  2.7408 -3.3189  1.3461
 5259SOL    HW227414   0.045   2.890  13.354  1.0813 -1.6559  2.2443
 5260SOL     OW27415   3.638   0.262  12.996 -0.3106  0.3130  0.4015
 5260SOL    HW127416   3.690   0.341  12.980  0.6825 -0.3595  0.3728
 5260SOL    HW227417   3.690   0.191  12.960  2.1777  1.4176  1.7848
 5261SOL     OW27418   2.452   4.186   1.572 -0.3536  0.6138  0.1873
 5261SOL    HW127419   2.451   4.215   1.663 -0.5752  0.6383  0.1753
 5261SOL    HW227420   2.363   4.163   1.547  0.9809 -2.8716 -1.4008
 5262SOL     OW27421   0.768   0.228   8.275  0.1180 -0.1105  0.0726
 5262SOL    HW127422   0.755   0.311   8.228 -0.7367 -0.1909  0.1536
 5262SOL    HW227423   0.690   0.231   8.331 -1.5257  1.2762 -2.2553
 5263SOL     OW27424   3.657   2.073  14.371  0.1434  0.6061 -0.2887
 5263SOL    HW127425   3.569   2.052  14.403  0.9183 -0.5879  1.0354
 5263SOL    HW227426   3.704   2.100  14.449 -0.1301 -2.2095  0.8281
 5264SOL     OW27427   4.026   4.576   9.591 -0.2254 -0.5263 -0.0734
 5264SOL    HW127428   3.946   4.536   9.557  0.2301 -0.9149 -0.6959
 5264SOL    HW227429   4.061   4.500   9.637  0.2732 -0.4593 -0.3352
 5265SOL     OW27430   3.210   1.347  10.596  0.1201 -0.5530 -0.1100
 5265SOL    HW127431   3.271   1.273  10.596 -0.4250 -0.9986 -1.6170
 5265SOL    HW227432   3.170   1.338  10.683 -2.3388 -0.3667 -1.2282
 5266SOL     OW27433   3.402   3.235   5.312 -0.5281  0.0144  0.2488
 5266SOL    HW127434   3.359   3.175   5.372  0.4008 -0.3189  0.5675
 5266SOL    HW227435   3.402   3.315   5.364  0.1676  0.5409 -0.5594
 5267SOL     OW27436   4.018   1.151   0.794 -0.0637 -0.3749  0.0311
 5267SOL    HW127437   3.999   1.071   0.744  1.1458  1.4184 -3.3096
 5267SOL    HW227438   3.945   1.175   0.851  0.0500  2.5097 -1.0429
 5268SOL     OW27439   4.307   2.235   2.386 -0.3128  0.2384 -0.5835
 5268SOL    HW127440   4.262   2.316   2.409 -1.5663 -1.0221  1.4550
 5268SOL    HW227441   4.234   2.173   2.392  0.8511 -1.5225 -4.6103
 5269SOL     OW27442   3.880   0.345   0.248 -0.1928 -0.1562  0.1617
 5269SOL    HW127443   3.900   0.277   0.184  0.0680 -0.3190  0.4139
 5269SOL    HW227444   3.788   0.365   0.233 -0.7742 -1.8190  1.5354
 5270SOL     OW27445   1.910   0.404   6.535  0.0118 -0.1571  0.4061
 5270SOL    HW127446   1.818   0.428   6.525 -0.1769 -0.8055  0.6042
 5270SOL    HW227447   1.914   0.339   6.605  2.2957 -0.9773 -0.4609
 5271SOL     OW27448   3.650   1.528   7.772  0.5540 -0.7081 -0.3711
 5271SOL    HW127449   3.611   1.447   7.806 -0.1768 -0.1034  0.2417
 5271SOL    HW227450   3.687   1.490   7.692  0.4554 -1.5023 -0.0381
 5272SOL     OW27451   2.105   2.899   0.853  0.2883  0.0817 -0.2656
 5272SOL    HW127452   2.104   2.843   0.930 -0.5217 -0.6301 -0.7934
 5272SOL    HW227453   2.155   2.970   0.892 -1.8703  1.2411  0.3944
 5273SOL     OW27454   3.214   3.230   8.856  0.7149 -0.4153 -0.4888
 5273SOL    HW127455   3.200   3.318   8.822  1.3810 -0.5184 -1.0325
 5273SOL    HW227456   3.128   3.189   8.846  0.7719 -0.7452  0.3606
 5274SOL     OW27457   1.338   1.202   7.595 -0.0944  0.1400 -0.4751
 5274SOL    HW127458   1.338   1.276   7.535  1.9342 -0.3522 -1.0629
 5274SOL    HW227459   1.285   1.139   7.545 -0.1289 -1.1121  1.1307
 5275SOL     OW27460   1.054   2.176   8.193 -0.6361  0.4623  0.8505
 5275SOL    HW127461   1.082   2.141   8.108 -1.5011 -0.7792  1.0644
 5275SOL    HW227462   1.003   2.254   8.171 -2.1965 -0.9503 -0.5965
 5276SOL     OW27463   0.396   3.303   4.329 -0.3840  0.3160 -0.6163
 5276SOL    HW127464   0.337   3.314   4.405  1.6165  2.0480  0.6850
 5276SOL    HW227465   0.412   3.397   4.323 -0.5009  0.4152  0.4680
 5277SOL     OW27466   3.202   2.332   8.734 -0.3483  0.4139 -0.4579
 5277SOL    HW127467   3.206   2.423   8.766  0.3966  0.6715 -1.2857
 5277SOL    HW227468   3.179   2.338   8.641  1.0639 -1.2672 -0.9023
 5278SOL     OW27469   2.043   2.951  16.023  0.1352  0.6848 -0.1468
 5278SOL    HW127470   2.024   2.947  15.929  0.9729  2.4801 -0.3898
 5278SOL    HW227471   2.051   3.044  16.044 -1.5556  0.7788  0.0799
 5279SOL     OW27472   0.810   3.444   4.177  0.3824 -0.3665  0.5119
 5279SOL    HW127473   0.849   3.519   4.133 -1.1121 -0.2658 -0.6218
 5279SOL    HW227474   0.723   3.438   4.138  0.9550 -0.6039 -0.7414
 5280SOL     OW27475   0.176   3.495   3.251  0.6142 -0.5231  0.3600
 5280SOL    HW127476   0.111   3.564   3.265  0.8471 -0.2648  0.1709
 5280SOL    HW227477   0.132   3.442   3.185  1.5117 -0.8115 -0.0001
 5281SOL     OW27478   1.056   4.188  16.198 -0.6211 -0.0722 -0.5857
 5281SOL    HW127479   0.995   4.145  16.258  1.5902 -1.1529  0.8797
 5281SOL    HW227480   1.064   4.114  16.136  0.8132 -1.2529  1.0126
 5282SOL     OW27481   3.515   2.158  12.901 -0.4005 -0.2351 -0.2359
 5282SOL    HW127482   3.580   2.114  12.957  1.2670  0.8342 -1.3419
 5282SOL    HW227483   3.570   2.231  12.874 -0.3216 -0.4570 -0.6676
 5283SOL     OW27484   1.799   4.456   6.184 -0.7455  0.0649 -0.4836
 5283SOL    HW127485   1.816   4.549   6.167  1.6668 -0.2921 -0.0942
 5283SOL    HW227486   1.887   4.424   6.203 -0.7992  0.4474  0.4366
 5284SOL     OW27487   4.049   0.950   2.223  0.1343  0.5083  0.1056
 5284SOL    HW127488   4.139   0.915   2.219  1.0454  2.7039  1.6847
 5284SOL    HW227489   4.000   0.869   2.236  0.3266  0.7241  2.1702
 5285SOL     OW27490   0.405   1.453   1.831  0.1231 -0.2886 -0.3968
 5285SOL    HW127491   0.313   1.434   1.850  0.2984 -0.6115  0.1325
 5285SOL    HW227492   0.400   1.458   1.736 -0.1203 -0.4917 -0.3945
 5286SOL     OW27493   0.826   4.137   0.105  0.0064 -0.1028  0.2274
 5286SOL    HW127494   0.908   4.171   0.069 -0.3252  1.1104  0.5997
 5286SOL    HW227495   0.763   4.186   0.052  1.7699  0.7153 -1.0717
 5287SOL     OW27496   1.983   2.576   8.104 -1.0099 -0.1505  0.2714
 5287SOL    HW127497   2.011   2.662   8.134 -0.2525  0.0226 -0.9812
 5287SOL    HW227498   2.015   2.588   8.015  0.7517 -1.3100  0.7283
 5288SOL     OW27499   4.285   3.685   8.997 -0.2944 -0.0817  0.2360
 5288SOL    HW127500   4.205   3.736   8.999  0.4346  1.0444  0.3200
 5288SOL    HW227501   4.337   3.739   9.056  0.6217  0.1176 -0.7579
 5289SOL     OW27502   3.055   4.035   1.055  0.7474 -0.3939 -0.1379
 5289SOL    HW127503   3.022   4.125   1.059  2.0627  0.2020 -2.9383
 5289SOL    HW227504   3.148   4.053   1.046  0.3151  1.2522 -1.1568
 5290SOL     OW27505   0.759   1.025   2.652  0.0274  0.1262  0.3782
 5290SOL    HW127506   0.768   1.053   2.743  1.0382 -2.0729  0.9514
 5290SOL    HW227507   0.818   1.091   2.615 -1.9195  0.7570 -1.5577
 5291SOL     OW27508   1.258   2.952   2.029 -0.2280  0.2328  0.0898
 5291SOL    HW127509   1.339   2.942   1.979  0.8218  1.9250  1.4419
 5291SOL    HW227510   1.210   3.019   1.981  2.0744  2.5683  1.0483
 5292SOL     OW27511   3.762   1.147  12.918  0.2350 -0.4090  0.4617
 5292SOL    HW127512   3.712   1.113  12.992 -0.9749  1.0982  0.3395
 5292SOL    HW227513   3.801   1.220  12.965  1.0134 -0.0520 -0.7289
 5293SOL     OW27514   1.734   2.194  10.926  0.2387  0.1890 -0.4175
 5293SOL    HW127515   1.749   2.109  10.884  1.2070 -0.3785  1.0615
 5293SOL    HW227516   1.710   2.251  10.853 -1.2221 -0.5999 -0.5475
 5294SOL     OW27517   4.490   0.291   7.598 -0.1857 -0.5068  0.2259
 5294SOL    HW127518   4.560   0.356   7.600  0.4711 -1.1292 -2.0613
 5294SOL    HW227519   4.514   0.244   7.518  2.3330  0.4874  0.3968
 5295SOL     OW27520   2.928   1.918   9.174 -0.5373  0.2157  0.3218
 5295SOL    HW127521   2.989   1.919   9.247  1.1712 -1.0930 -1.0736
 5295SOL    HW227522   2.977   1.970   9.110  2.4907 -3.2947 -0.1789
 5296SOL     OW27523   3.246   0.272  14.258 -0.0952 -0.3020  0.4363
 5296SOL    HW127524   3.178   0.339  14.254  1.5776  1.4324  0.8099
 5296SOL    HW227525   3.231   0.212  14.186 -0.2771 -2.4719  2.2804
 5297SOL     OW27526   0.768   3.381   2.865 -0.3703 -0.1876 -0.0873
 5297SOL    HW127527   0.685   3.336   2.880 -0.0518 -0.6104  0.3645
 5297SOL    HW227528   0.831   3.316   2.897 -0.7543 -0.6105 -0.1934
 5298SOL     OW27529   0.902   3.185   7.789 -0.2078 -0.3642  0.6403
 5298SOL    HW127530   0.940   3.250   7.847 -0.8557  2.3332 -1.9015
 5298SOL    HW227531   0.856   3.241   7.726  1.2434  0.3984  0.2485
 5299SOL     OW27532   0.732   3.246   5.055  0.3959 -0.3059  0.1052
 5299SOL    HW127533   0.700   3.184   5.121 -1.7916 -0.6935 -1.3359
 5299SOL    HW227534   0.825   3.227   5.046  0.9168  2.0883  0.4127
 5300SOL     OW27535   2.842   4.377   3.967 -0.4549 -0.2864  0.0319
 5300SOL    HW127536   2.837   4.284   3.988 -0.2313  0.2236  2.3486
 5300SOL    HW227537   2.924   4.403   4.007 -0.4342 -0.0968 -0.1297
 5301SOL     OW27538   1.851   2.981   8.000 -0.1248 -0.2518 -0.2393
 5301SOL    HW127539   1.902   2.925   8.058  0.6764  2.0075  1.2255
 5301SOL    HW227540   1.917   3.041   7.963 -1.1123  0.6898 -0.4789
 5302SOL     OW27541   0.145   0.113   8.692 -0.1172 -0.1676 -0.2373
 5302SOL    HW127542   0.138   0.079   8.603 -0.4426  0.1864 -0.3436
 5302SOL    HW227543   0.082   0.184   8.683 -2.3528 -1.8332  2.1022
 5303SOL     OW27544   0.509   2.209   1.871 -1.0086 -0.1809  0.4481
 5303SOL    HW127545   0.458   2.276   1.826  0.8776  1.6700  1.0583
 5303SOL    HW227546   0.545   2.253   1.948 -1.8533 -0.0674  0.7771
 5304SOL     OW27547   4.039   0.130   3.765  0.1830 -0.0954 -0.3373
 5304SOL    HW127548   4.022   0.093   3.851 -1.3272  2.2197  0.3756
 5304SOL    HW227549   4.117   0.088   3.729  0.3553  1.3524 -1.7059
 5305SOL     OW27550   1.198   3.645   8.656 -0.3690 -0.3576 -0.6276
 5305SOL    HW127551   1.137   3.719   8.656  0.3358  0.2081  1.4983
 5305SOL    HW227552   1.142   3.568   8.667 -0.5845 -0.4532 -2.3861
 5306SOL     OW27553   1.414   1.388  16.106 -0.3005 -0.1551  0.2105
 5306SOL    HW127554   1.406   1.410  16.199  2.4563  2.1635 -0.1002
 5306SOL    HW227555   1.329   1.345  16.102 -0.5650  0.6500 -3.1476
 5307SOL     OW27556   3.224   3.674   7.221  0.0504 -0.8031 -0.5684
 5307SOL    HW127557   3.169   3.602   7.190  0.7107 -0.7476 -1.8727
 5307SOL    HW227558   3.163   3.711   7.284 -1.2649 -1.8679 -1.2041
 5308SOL     OW27559   1.861   1.825   0.801 -0.1081  0.5316 -0.4059
 5308SOL    HW127560   1.770   1.817   0.773 -1.0530  3.2512  1.8884
 5308SOL    HW227561   1.839   1.815   0.894  2.2743 -1.6929 -0.0919
 5309SOL     OW27562   3.766   3.880  14.264  0.0433  0.5502  0.3943
 5309SOL    HW127563   3.756   3.854  14.355 -1.3453 -0.5239 -0.0658
 5309SOL    HW227564   3.819   3.807  14.231 -0.4692 -0.6649  2.2546
 5310SOL     OW27565   0.683   2.922   0.425  0.1404 -0.6322  0.2685
 5310SOL    HW127566   0.686   2.827   0.419  0.5940 -0.7156  1.8456
 5310SOL    HW227567   0.616   2.943   0.490  0.1033  1.7118 -0.5021
 5311SOL     OW27568   3.383   4.291   0.820 -0.6741  0.1415  0.3690
 5311SOL    HW127569   3.476   4.275   0.839 -0.3762  1.0923 -0.2790
 5311SOL    HW227570   3.366   4.208   0.774 -1.3277  0.4770  0.0071
 5312SOL     OW27571   2.337   0.273   8.977  0.2241  0.7323 -0.1028
 5312SOL    HW127572   2.405   0.217   8.940 -0.8968 -0.4217 -0.4279
 5312SOL    HW227573   2.276   0.209   9.013 -0.9701  2.6233  1.2340
 5313SOL     OW27574   0.680   3.345  14.694 -0.2444  0.0731  0.4236
 5313SOL    HW127575   0.614   3.346  14.763  0.9303 -0.9424  1.5579
 5313SOL    HW227576   0.755   3.390  14.733  0.4875 -0.8875  0.1304
 5314SOL     OW27577   3.733   4.734   6.377  0.0610  0.7765  0.0933
 5314SOL    HW127578   3.662   0.045   6.420  0.3936  0.6914  0.7284
 5314SOL    HW227579   3.680   4.674   6.324  0.3316 -0.8974  1.7245
 5315SOL     OW27580   2.729   2.763   3.000 -0.0329  0.1015  0.0322
 5315SOL    HW127581   2.666   2.718   2.944  0.7465 -0.0822 -0.6887
 5315SOL    HW227582   2.771   2.816   2.932  0.2146  0.3943  0.4126
 5316SOL     OW27583   0.362   4.126   3.991 -0.3774 -0.1622 -0.0766
 5316SOL    HW127584   0.314   4.195   4.037 -0.0393  0.2837 -0.3898
 5316SOL    HW227585   0.368   4.063   4.062 -1.4717 -0.4525 -0.2430
 5317SOL     OW27586   0.151   2.330   7.899 -0.2554 -0.4330 -0.1474
 5317SOL    HW127587   0.101   2.411   7.901 -1.6158 -1.2534 -0.9294
 5317SOL    HW227588   0.192   2.327   7.812  1.2253  0.4464  0.5237
 5318SOL     OW27589   4.668   1.579   2.349  0.6246  0.0193 -0.1018
 5318SOL    HW127590   4.602   1.638   2.384  0.9529 -0.2101  0.8793
 5318SOL    HW227591   4.677   1.521   2.424 -0.4883 -1.1024 -0.8334
 5319SOL     OW27592   1.385   1.608   6.898 -0.1705 -0.2067  0.5495
 5319SOL    HW127593   1.315   1.577   6.839  0.6225  0.2426 -0.6381
 5319SOL    HW227594   1.336   1.609   6.980  1.8812  0.3406  1.7770
 5320SOL     OW27595   2.200   1.953  17.065  0.1692 -0.2029 -0.0119
 5320SOL    HW127596   2.169   1.897  16.995  1.1938  0.1289 -0.7308
 5320SOL    HW227597   2.228   1.890  17.132  0.7917 -0.7608 -0.7980
 5321SOL     OW27598   4.548   2.926   9.770 -0.1627  0.0002 -0.4218
 5321SOL    HW127599   4.557   2.856   9.834  2.9391 -0.2920 -1.1563
 5321SOL    HW227600   4.615   2.985   9.805  0.0017  0.1458 -0.9776
 5322SOL     OW27601   1.583   3.631   1.926 -0.2376  0.0141 -0.3325
 5322SOL    HW127602   1.508   3.654   1.981  1.7847 -0.7165  2.7470
 5322SOL    HW227603   1.649   3.622   1.995 -0.7878  2.3512  0.5069
 5323SOL     OW27604   3.127   3.186  12.561  0.0746  0.3505  1.6355
 5323SOL    HW127605   3.084   3.267  12.588  1.1583  0.7171  2.2669
 5323SOL    HW227606   3.053   3.125  12.551  0.1395  0.1447  2.3905
 5324SOL     OW27607   3.286   2.667   8.653  0.0022 -0.0344 -0.2812
 5324SOL    HW127608   3.205   2.696   8.612  0.0910 -1.4669 -1.4726
 5324SOL    HW227609   3.307   2.745   8.704 -1.3862 -1.1172  1.9760
 5325SOL     OW27610   1.386   0.737  11.052 -0.0797  0.8593 -0.0452
 5325SOL    HW127611   1.299   0.735  11.011 -0.1649 -2.3358  0.2453
 5325SOL    HW227612   1.421   0.811  11.003 -0.3075 -0.8262 -2.7186
 5326SOL     OW27613   0.992   0.878   6.794 -0.2183 -0.1678  0.0449
 5326SOL    HW127614   0.908   0.845   6.761 -1.5412  1.6939  1.5184
 5326SOL    HW227615   1.052   0.871   6.720 -0.3614  0.9997 -0.1816
 5327SOL     OW27616   0.656   1.055   1.597 -0.3888 -0.1021 -0.2196
 5327SOL    HW127617   0.577   1.051   1.543 -2.4221 -0.3213  2.8165
 5327SOL    HW227618   0.645   0.985   1.660  0.8131 -1.6383 -1.7158
 5328SOL     OW27619   2.436   2.633  13.062 -0.4102  0.2254 -0.4482
 5328SOL    HW127620   2.458   2.689  12.988 -3.2752  0.1387 -1.3614
 5328SOL    HW227621   2.373   2.682  13.117 -1.2402 -0.1353 -1.0780
 5329SOL     OW27622   2.780   3.302   2.430 -0.2373  0.1357  0.1407
 5329SOL    HW127623   2.692   3.306   2.468  0.1981  1.7641  0.9630
 5329SOL    HW227624   2.827   3.370   2.479 -0.1053 -0.1654  0.4405
 5330SOL     OW27625   3.644   3.186   5.680 -0.1461 -0.1950 -0.4063
 5330SOL    HW127626   3.679   3.160   5.594  0.0134  0.7784 -0.6370
 5330SOL    HW227627   3.714   3.155   5.737  0.1375  0.7873 -0.2338
 5331SOL     OW27628   4.216   3.207   5.167 -0.2823 -0.4612 -0.1872
 5331SOL    HW127629   4.303   3.228   5.201 -0.2801  1.4789 -1.3753
 5331SOL    HW227630   4.202   3.299   5.144 -1.6882 -0.7459 -0.4384
 5332SOL     OW27631   1.769   0.504   7.713  0.2306 -0.2283  0.0850
 5332SOL    HW127632   1.840   0.528   7.653 -0.0823  1.1396  0.2608
 5332SOL    HW227633   1.699   0.498   7.647  1.7063 -1.6153 -1.3494
 5333SOL     OW27634   0.656   0.169   4.771 -0.0780  0.4473  0.5218
 5333SOL    HW127635   0.694   0.085   4.744 -1.6286  1.1428 -3.6658
 5333SOL    HW227636   0.704   0.227   4.712 -0.8047 -0.2621 -0.7504
 5334SOL     OW27637   1.594   0.355   7.864 -0.8652  0.3759 -0.4604
 5334SOL    HW127638   1.546   0.434   7.889 -1.6045 -1.4274  3.8791
 5334SOL    HW227639   1.660   0.391   7.806 -0.6457 -1.0944 -1.1076
 5335SOL     OW27640   3.930   0.499   3.929  0.2418  0.3559 -0.1709
 5335SOL    HW127641   3.953   0.431   3.992  1.3112 -1.8372 -2.8733
 5335SOL    HW227642   3.852   0.461   3.889 -0.3014  2.9783 -1.5928
 5336SOL     OW27643   2.214   2.518  15.419  0.1287  0.1552 -0.4797
 5336SOL    HW127644   2.143   2.576  15.446  1.0051  1.1252 -0.2300
 5336SOL    HW227645   2.172   2.465  15.352 -3.5263 -0.1209  2.0450
 5337SOL     OW27646   0.953   2.650   6.104  0.2241 -0.1613  0.0496
 5337SOL    HW127647   1.041   2.680   6.127 -0.7115 -0.7179  4.2694
 5337SOL    HW227648   0.961   2.555   6.116  0.7250 -0.3039 -1.4354
 5338SOL     OW27649   3.671   4.543  11.104 -0.2621 -0.1900 -0.3279
 5338SOL    HW127650   3.581   4.547  11.072 -0.5822  2.0527  0.8461
 5338SOL    HW227651   3.662   4.590  11.188  2.1254  0.8624 -0.6612
 5339SOL     OW27652   0.712   2.671   5.208 -0.4716 -0.4327  0.1212
 5339SOL    HW127653   0.795   2.626   5.222 -0.1056  0.1557 -0.1280
 5339SOL    HW227654   0.740   2.746   5.155  0.9962 -0.0295  1.4511
 5340SOL     OW27655   3.501   1.417   3.324 -0.1812 -0.3800 -0.9993
 5340SOL    HW127656   3.557   1.464   3.262  0.4855  1.4842  1.0263
 5340SOL    HW227657   3.509   1.483   3.392 -1.7031 -0.3090 -0.8803
 5341SOL     OW27658   2.468   2.667  17.430 -0.5154 -0.3019  0.0369
 5341SOL    HW127659   2.431   2.741  17.381 -0.2113 -0.3581 -0.2848
 5341SOL    HW227660   2.408   2.670  17.504 -2.0812  1.3405 -1.2898
 5342SOL     OW27661   1.026   4.174   5.880  0.1235  0.4462  0.2406
 5342SOL    HW127662   0.990   4.088   5.906 -1.6251  0.9602 -0.4630
 5342SOL    HW227663   0.954   4.223   5.841 -2.2384 -3.0334  0.1909
 5343SOL     OW27664   4.136   4.269   6.492 -0.2620 -0.7998 -0.4635
 5343SOL    HW127665   4.211   4.285   6.550 -1.1262 -0.3518  0.5305
 5343SOL    HW227666   4.186   4.233   6.418 -0.0625 -0.7187 -0.3683
 5344SOL     OW27667   4.591   3.166   7.558  0.2844  0.1650 -0.1134
 5344SOL    HW127668   4.529   3.209   7.500  0.7342  1.0404  0.0524
 5344SOL    HW227669   4.663   3.141   7.501  0.3917 -0.8751  0.4726
 5345SOL     OW27670   2.589   2.319   4.350  0.2247  0.2039 -0.2143
 5345SOL    HW127671   2.593   2.395   4.292  0.2459 -0.2784 -0.8471
 5345SOL    HW227672   2.651   2.335   4.420  0.1302 -0.0189 -0.0770
 5346SOL     OW27673   3.359   0.701   8.162  0.3706  0.6356 -0.0192
 5346SOL    HW127674   3.386   0.755   8.237  1.5556 -1.7632  1.2578
 5346SOL    HW227675   3.351   0.616   8.204  0.5311  1.1364  1.0222
 5347SOL     OW27676   4.511   4.598   7.386 -0.5218  0.4522 -0.6366
 5347SOL    HW127677   4.502   4.610   7.480  0.5067 -1.1641 -0.3283
 5347SOL    HW227678   4.491   4.687   7.356  1.4847  1.3931  0.8630
 5348SOL     OW27679   2.297   3.799   4.853  0.1511 -0.2452 -0.0833
 5348SOL    HW127680   2.377   3.816   4.803 -0.4930 -0.1929 -1.0975
 5348SOL    HW227681   2.232   3.836   4.794  1.3849  2.4785  0.3001
 5349SOL     OW27682   1.550   4.567   9.838 -0.3443 -0.6387 -0.0899
 5349SOL    HW127683   1.521   4.540   9.751  0.4212  0.1790 -0.6046
 5349SOL    HW227684   1.643   4.572   9.816 -0.5635 -0.7545 -1.0682
 5350SOL     OW27685   4.641   1.857  11.905  0.0052  0.2771  0.0658
 5350SOL    HW127686   4.629   1.951  11.891 -4.6486 -0.0339  1.7108
 5350SOL    HW227687   4.720   1.849  11.958 -1.0678  1.2374  1.8226
 5351SOL     OW27688   2.652   0.258   4.338  0.6130 -0.4498  0.4816
 5351SOL    HW127689   2.741   0.293   4.341 -0.2519  1.7254  0.6911
 5351SOL    HW227690   2.613   0.328   4.391 -2.3937 -1.2674 -0.6951
 5352SOL     OW27691   4.095   0.157   7.608 -0.4103  0.3961 -0.1791
 5352SOL    HW127692   4.082   0.188   7.698 -2.2249 -0.3811 -0.1749
 5352SOL    HW227693   4.011   0.158   7.562 -0.6011 -2.8182  0.1392
 5353SOL     OW27694   3.058   2.028  10.408 -0.2929 -0.4291 -0.5874
 5353SOL    HW127695   3.090   1.953  10.458 -0.1372 -1.1988 -1.8484
 5353SOL    HW227696   3.048   1.985  10.324  1.5542  0.3291 -1.1995
 5354SOL     OW27697   1.901   1.062   4.852  0.0032  0.6368 -0.2279
 5354SOL    HW127698   1.983   1.105   4.878  0.2649  0.0345 -0.0517
 5354SOL    HW227699   1.913   1.066   4.757  1.2791  3.0049  0.0075
 5355SOL     OW27700   0.248   1.509  12.004 -0.1790 -0.4078 -0.4100
 5355SOL    HW127701   0.181   1.448  11.974  0.3744  0.0595 -2.5864
 5355SOL    HW227702   0.320   1.498  11.942 -0.1172  1.7631 -0.7279
 5356SOL     OW27703   0.717   0.478   2.717 -0.3538  0.0066  0.0018
 5356SOL    HW127704   0.693   0.531   2.793  0.9524 -0.8554  1.0217
 5356SOL    HW227705   0.668   0.526   2.650  1.3406  1.1730 -0.4172
 5357SOL     OW27706   2.646   2.464  13.946 -0.3552  0.5577 -0.4442
 5357SOL    HW127707   2.567   2.465  14.001 -0.8546  1.0257 -1.1746
 5357SOL    HW227708   2.681   2.379  13.972 -2.4661 -0.2092 -0.1206
 5358SOL     OW27709   3.475   3.675   6.151  0.2245  0.0784 -0.2681
 5358SOL    HW127710   3.492   3.598   6.205  3.4465  0.2087 -1.1001
 5358SOL    HW227711   3.509   3.647   6.066 -0.3875 -0.3570 -0.3657
 5359SOL     OW27712   0.445   2.079   6.725  0.2365 -0.3260  0.8620
 5359SOL    HW127713   0.420   2.155   6.674  2.3121  0.9463  1.7568
 5359SOL    HW227714   0.391   2.011   6.685  0.3044  0.8905 -1.2656
 5360SOL     OW27715   3.197   3.180   4.184  0.0504 -0.2285  0.5005
 5360SOL    HW127716   3.263   3.202   4.249 -0.9184 -0.8201  1.6919
 5360SOL    HW227717   3.161   3.097   4.216 -0.9039 -0.8216 -2.0824
 5361SOL     OW27718   4.477   0.731   8.950 -0.0606  0.5142  0.4974
 5361SOL    HW127719   4.525   0.660   8.907 -2.8293 -1.1114  0.1171
 5361SOL    HW227720   4.392   0.719   8.908  0.4722  1.5600 -0.8716
 5362SOL     OW27721   3.357   0.228   7.726 -0.0049 -0.0403  0.2419
 5362SOL    HW127722   3.295   0.300   7.740 -0.8969 -0.5752 -0.9559
 5362SOL    HW227723   3.293   0.169   7.686 -0.9425  0.9998  0.1911
 5363SOL     OW27724   1.417   4.572   4.962 -0.0851 -0.6769 -0.1075
 5363SOL    HW127725   1.462   4.501   5.008 -3.0234 -1.9920  0.6644
 5363SOL    HW227726   1.327   4.561   4.991  0.7469  1.5254  3.3718
 5364SOL     OW27727   2.278   3.960   7.755  0.0595  0.8283  0.3955
 5364SOL    HW127728   2.307   3.980   7.666  0.8031  1.1708  0.7187
 5364SOL    HW227729   2.231   3.878   7.739 -0.2755  0.8328  1.3207
 5365SOL     OW27730   0.855   1.433  14.932  0.0356 -0.0327  0.3069
 5365SOL    HW127731   0.885   1.374  14.863  0.3686 -0.7683  1.0738
 5365SOL    HW227732   0.938   1.452  14.975  0.4359 -1.6243  0.2329
 5366SOL     OW27733   3.163   1.565  14.449  0.1107  0.0161 -0.3366
 5366SOL    HW127734   3.251   1.544  14.482  0.3639  0.9019 -0.4434
 5366SOL    HW227735   3.167   1.660  14.462 -1.5379  0.0568 -0.1978
 5367SOL     OW27736   1.654   2.860  13.444 -0.5713  0.0917  0.3557
 5367SOL    HW127737   1.670   2.800  13.517 -0.6586  1.1082  1.2166
 5367SOL    HW227738   1.576   2.832  13.397 -1.0983  1.9780  0.0848
 5368SOL     OW27739   1.425   4.286   7.042 -0.1478 -0.0732  0.0043
 5368SOL    HW127740   1.384   4.314   6.960 -2.8591 -2.5466  0.4893
 5368SOL    HW227741   1.519   4.295   7.024 -0.4451 -2.1414 -2.5872
 5369SOL     OW27742   3.122   4.405   5.749  0.4036  0.3058  0.3633
 5369SOL    HW127743   3.204   4.408   5.699  0.8812  2.0437  1.2515
 5369SOL    HW227744   3.121   4.317   5.788 -0.2257 -0.1085 -0.6046
 5370SOL     OW27745   4.233   3.491   7.480 -0.5258 -0.2389  0.3252
 5370SOL    HW127746   4.200   3.409   7.516 -1.2282 -0.7521 -1.4932
 5370SOL    HW227747   4.312   3.504   7.533  0.2587 -1.6958 -0.4736
 5371SOL     OW27748   4.135   1.598  14.652 -0.2514 -0.3139  0.0086
 5371SOL    HW127749   4.210   1.541  14.667  0.8480  1.3599  0.9591
 5371SOL    HW227750   4.173   1.658  14.587  1.2250 -0.3988  0.8112
 5372SOL     OW27751   4.226   2.488   8.295 -0.0759 -0.4029 -0.1733
 5372SOL    HW127752   4.182   2.573   8.298  1.3271  0.3162 -0.0908
 5372SOL    HW227753   4.192   2.452   8.213  0.8736 -0.3717 -0.5717
 5373SOL     OW27754   2.093   1.681   6.485 -0.3945 -0.8477  0.0852
 5373SOL    HW127755   2.115   1.773   6.500 -0.1636 -0.8884 -0.0104
 5373SOL    HW227756   2.116   1.650   6.573  1.2797  1.6549  0.5510
 5374SOL     OW27757   1.380   4.160   1.591  0.3459  1.0365 -0.3113
 5374SOL    HW127758   1.368   4.195   1.680  1.2267  0.5639 -0.0147
 5374SOL    HW227759   1.288   4.159   1.565  0.1439 -1.1468  0.4782
 5375SOL     OW27760   3.004   4.685   3.873  0.0208  0.3922  0.0686
 5375SOL    HW127761   2.954   4.704   3.794 -1.2621  0.4659  0.8977
 5375SOL    HW227762   2.938   4.698   3.941 -0.1493  0.5454 -0.1263
 5376SOL     OW27763   2.930   4.659  12.564  0.4194 -0.1558  0.3836
 5376SOL    HW127764   3.010   4.690  12.608 -0.6870 -1.5897  3.4435
 5376SOL    HW227765   2.946   4.709  12.484 -0.5423  0.0080  0.3038
 5377SOL     OW27766   2.236   0.854   5.702  0.1203 -0.0281 -0.1186
 5377SOL    HW127767   2.324   0.852   5.739 -0.3214 -0.2620  0.9085
 5377SOL    HW227768   2.208   0.945   5.716 -2.1404 -1.0416  1.9310
 5378SOL     OW27769   1.433   0.237  15.844  0.2581  0.9570  0.1020
 5378SOL    HW127770   1.495   0.309  15.832  1.5619 -0.3756 -1.1404
 5378SOL    HW227771   1.497   0.166  15.854 -0.9959 -0.1418  0.2644
 5379SOL     OW27772   1.637   0.942   0.830 -0.3963  0.0823  0.9287
 5379SOL    HW127773   1.695   0.925   0.757 -1.0587  1.9526 -0.0277
 5379SOL    HW227774   1.549   0.928   0.794 -1.0082  0.3347  2.3132
 5380SOL     OW27775   4.502   3.083   8.106  0.3606 -0.1436 -0.1652
 5380SOL    HW127776   4.537   3.172   8.092 -1.0077  0.6550  1.5333
 5380SOL    HW227777   4.579   3.033   8.076  0.0955 -1.1496  0.8338
 5381SOL     OW27778   1.818   3.448   7.622 -0.4129  0.4382 -0.3233
 5381SOL    HW127779   1.743   3.431   7.679  0.3239 -0.7211  0.2622
 5381SOL    HW227780   1.825   3.543   7.630 -0.2613  0.4425 -0.4965
 5382SOL     OW27781   3.842   0.347   5.048 -0.3408 -0.7911 -0.0204
 5382SOL    HW127782   3.858   0.395   4.966 -1.4031  0.9790  0.7968
 5382SOL    HW227783   3.893   0.394   5.114  0.1666 -3.3940  1.4229
 5383SOL     OW27784   2.336   2.194  12.251  0.2343 -0.1504 -0.3275
 5383SOL    HW127785   2.242   2.212  12.251 -0.0747 -1.8425 -0.6520
 5383SOL    HW227786   2.343   2.127  12.318  1.9167 -0.2080 -0.5657
 5384SOL     OW27787   1.912   3.272   6.451  0.4663 -0.3326 -0.0373
 5384SOL    HW127788   1.862   3.275   6.369  1.8290  1.6165 -0.7866
 5384SOL    HW227789   1.978   3.336   6.424 -1.4512  2.3716  1.6198
 5385SOL     OW27790   3.765   0.929   1.996  0.5346  0.4875  0.7454
 5385SOL    HW127791   3.850   0.920   2.039  0.6728  0.0144  0.3831
 5385SOL    HW227792   3.702   0.920   2.067  0.3636 -2.1842  0.2828
 5386SOL     OW27793   1.387   0.432   6.506 -0.4771 -0.6596  0.1490
 5386SOL    HW127794   1.402   0.515   6.461  0.0629 -0.1230  1.3256
 5386SOL    HW227795   1.294   0.408   6.496 -0.1801 -1.7758  0.0372
 5387SOL     OW27796   0.108   3.307   6.236  0.3907  0.0860  0.3958
 5387SOL    HW127797   0.096   3.387   6.287 -0.1933  0.4811 -0.3595
 5387SOL    HW227798   0.137   3.351   6.157 -0.7212 -0.7790 -0.4980
 5388SOL     OW27799   2.581   1.112  14.221  0.1174 -0.3134 -0.1263
 5388SOL    HW127800   2.551   1.203  14.232  1.7134  0.3545 -1.2712
 5388SOL    HW227801   2.574   1.079  14.311 -0.6045 -2.3508 -0.9480
 5389SOL     OW27802   3.923   2.592   1.945 -0.3013 -0.0598  0.0608
 5389SOL    HW127803   4.003   2.643   1.932  0.0286 -0.2580  1.2601
 5389SOL    HW227804   3.962   2.507   1.965 -1.1674 -0.3714  0.4653
 5390SOL     OW27805   1.648   2.396   5.289  0.5156 -0.4779 -0.4316
 5390SOL    HW127806   1.589   2.401   5.364 -0.0232 -0.2548 -0.8684
 5390SOL    HW227807   1.730   2.386   5.336 -0.8252 -1.6891  1.6487
 5391SOL     OW27808   2.372   3.068  17.091 -0.3057 -0.1125 -0.3286
 5391SOL    HW127809   2.276   3.068  17.089 -0.2820  2.6515 -0.5645
 5391SOL    HW227810   2.392   3.132  17.023  0.0171 -0.0857 -0.2110
 5392SOL     OW27811   2.817   2.630   1.948  0.4853 -0.2312  0.0061
 5392SOL    HW127812   2.764   2.631   2.027  1.4845 -1.3904  0.6988
 5392SOL    HW227813   2.790   2.708   1.899  1.3345 -1.1305 -1.8958
 5393SOL     OW27814   0.086   3.344   4.284  0.1412  0.2609 -0.1912
 5393SOL    HW127815   0.170   3.302   4.263  0.6397  0.4308  1.4720
 5393SOL    HW227816   0.110   3.430   4.318  1.8195 -0.1055 -0.4623
 5394SOL     OW27817   4.695   1.951   4.509 -0.4162  0.3135  0.1061
 5394SOL    HW127818   4.668   1.911   4.426 -0.8149 -1.1350  0.9366
 5394SOL    HW227819   4.673   2.043   4.496 -0.6709  0.6574  3.0498
 5395SOL     OW27820   2.102   3.790   9.753 -0.1723 -0.2190  0.1255
 5395SOL    HW127821   2.132   3.701   9.735  0.4820 -0.1545  0.8586
 5395SOL    HW227822   2.130   3.803   9.843  2.2018  1.5599 -0.8619
 5396SOL     OW27823   1.524   0.593   6.286 -0.0872 -0.1388  0.2973
 5396SOL    HW127824   1.468   0.590   6.209 -0.1651 -0.1863  0.3548
 5396SOL    HW227825   1.600   0.643   6.258  0.8027 -2.7424 -1.9398
 5397SOL     OW27826   0.251   3.505   8.035 -0.0961 -0.2566 -0.5053
 5397SOL    HW127827   0.264   3.590   7.992 -1.1660  0.9624  1.5232
 5397SOL    HW227828   0.244   3.526   8.129  0.7794 -1.1543 -0.2438
 5398SOL     OW27829   1.973   1.641   7.550 -0.2931  0.4781  0.0936
 5398SOL    HW127830   2.019   1.667   7.629  0.6676  0.3922 -0.4383
 5398SOL    HW227831   2.043   1.657   7.486 -0.9261 -1.0348 -0.9814
 5399SOL     OW27832   1.936   4.352  15.585  0.2428  0.2685 -0.1454
 5399SOL    HW127833   2.011   4.401  15.617  1.3668 -0.9593 -0.9410
 5399SOL    HW227834   1.914   4.329  15.675 -0.9253  1.2671 -0.1702
 5400SOL     OW27835   2.423   2.074  17.157  0.3456  0.1955 -0.1643
 5400SOL    HW127836   2.433   2.166  17.134 -1.6886 -0.4795 -3.7844
 5400SOL    HW227837   2.359   2.040  17.095 -1.7762  0.0553  2.0743
 5401SOL     OW27838   0.473   3.584  15.086 -0.4575 -0.0841 -0.8652
 5401SOL    HW127839   0.541   3.649  15.102  1.2943 -1.6882 -1.7819
 5401SOL    HW227840   0.482   3.529  15.164  1.8811 -2.3964 -2.7469
 5402SOL     OW27841   0.704   4.319   7.556  0.1388  0.0405  0.1493
 5402SOL    HW127842   0.650   4.398   7.559  0.7995  0.4266  1.7224
 5402SOL    HW227843   0.714   4.313   7.651 -2.5691  0.3350  0.4673
 5403SOL     OW27844   4.731   1.566  16.566  0.0755 -0.6717 -0.0175
 5403SOL    HW127845   0.032   1.594  16.482  1.1857 -4.2765 -0.7592
 5403SOL    HW227846   4.672   1.639  16.585  2.0352  0.5637  1.2229
 5404SOL     OW27847   2.412   3.465   0.472 -0.3335  0.0208 -0.4788
 5404SOL    HW127848   2.433   3.556   0.450  1.6413 -0.0517  1.0989
 5404SOL    HW227849   2.445   3.456   0.561 -4.9572 -1.5759  1.0592
 5405SOL     OW27850   4.365   1.405   1.969 -0.1506  0.5162 -0.1308
 5405SOL    HW127851   4.450   1.402   2.013 -1.1944 -0.0129  1.8609
 5405SOL    HW227852   4.389   1.399   1.877  0.9177  0.0514  0.1693
 5406SOL     OW27853   1.011   0.383   7.610  0.3517 -0.2067  0.1156
 5406SOL    HW127854   1.028   0.463   7.560 -1.0189  0.9464  1.5095
 5406SOL    HW227855   1.063   0.400   7.688 -1.8741 -2.6788  2.1337
 5407SOL     OW27856   2.102   3.236  17.663 -0.7009 -0.1104  0.4090
 5407SOL    HW127857   2.164   3.203  17.729  0.3270  0.2857 -0.3505
 5407SOL    HW227858   2.061   3.313  17.703  0.1360  0.7363 -0.3546
 5408SOL     OW27859   4.731   3.690   8.420  0.2028  0.4013  0.4393
 5408SOL    HW127860   0.087   3.715   8.437  0.4544 -0.7794  0.7729
 5408SOL    HW227861   4.727   3.603   8.382  2.9048  0.2205  0.5860
 5409SOL     OW27862   3.423   2.582  14.049  0.5258  0.4294  0.4197
 5409SOL    HW127863   3.396   2.490  14.051  0.8207  0.2730 -2.6510
 5409SOL    HW227864   3.471   2.571  14.131  1.0963 -1.5151 -0.1559
 5410SOL     OW27865   2.150   1.615   9.589 -0.0504  0.2736 -0.1713
 5410SOL    HW127866   2.127   1.623   9.682 -0.3222 -2.4595 -0.0020
 5410SOL    HW227867   2.072   1.569   9.559  0.4891  1.9787 -4.1610
 5411SOL     OW27868   4.389   1.909   6.717  0.1553  0.1072  0.0987
 5411SOL    HW127869   4.484   1.907   6.723  0.2515  3.4693  0.0398
 5411SOL    HW227870   4.352   1.849   6.782 -0.0609  1.0349  0.8306
 5412SOL     OW27871   1.816   1.508   8.157  0.4604 -0.1501  0.0854
 5412SOL    HW127872   1.732   1.551   8.140 -0.0906 -1.4598 -0.5418
 5412SOL    HW227873   1.778   1.445   8.219 -0.0743  0.5112  0.4208
 5413SOL     OW27874   3.060   1.472   7.492 -0.5277  0.4683  0.3807
 5413SOL    HW127875   2.985   1.447   7.547 -0.5939 -0.8657 -0.3218
 5413SOL    HW227876   3.084   1.382   7.471 -0.0005  0.4558  1.0392
 5414SOL     OW27877   0.839   1.600   3.078 -0.5812  0.1609 -0.1876
 5414SOL    HW127878   0.855   1.564   3.165  1.1233  0.8435 -0.2176
 5414SOL    HW227879   0.863   1.691   3.091 -1.3487  0.4840 -1.0417
 5415SOL     OW27880   2.840   2.361   7.434 -0.3313  0.5152 -0.4308
 5415SOL    HW127881   2.784   2.435   7.410 -0.5108  0.8595  1.0399
 5415SOL    HW227882   2.797   2.284   7.398 -0.7237  0.9082 -0.8100
 5416SOL     OW27883   3.140   0.466   0.793 -0.0257 -0.6512 -0.4457
 5416SOL    HW127884   3.146   0.521   0.871 -0.0930 -0.0157 -0.8902
 5416SOL    HW227885   3.082   0.397   0.825 -1.8047  1.1301  0.1983
 5417SOL     OW27886   3.449   4.011   0.731  0.3032 -0.0648 -0.2402
 5417SOL    HW127887   3.387   3.947   0.767 -0.4799  1.3514  0.9285
 5417SOL    HW227888   3.532   3.977   0.765 -0.2899 -0.9785  0.3031
 5418SOL     OW27889   2.751   2.324   7.808 -0.1453  0.0457 -0.2098
 5418SOL    HW127890   2.733   2.402   7.755 -1.0817 -0.2437 -0.3286
 5418SOL    HW227891   2.843   2.340   7.826 -0.4473  1.1590  0.3801
 5419SOL     OW27892   1.729   0.472  11.002  0.1796 -0.1357 -0.2241
 5419SOL    HW127893   1.764   0.534  11.066 -0.3706  1.0802 -1.1256
 5419SOL    HW227894   1.680   0.415  11.062  0.0482  0.9770  0.7223
 5420SOL     OW27895   4.355   0.913   6.233 -0.2178 -0.0491 -0.7046
 5420SOL    HW127896   4.440   0.958   6.228 -0.2860  0.2726  1.0370
 5420SOL    HW227897   4.296   0.979   6.196 -1.0313 -0.5107 -0.2269
 5421SOL     OW27898   3.497   0.571  14.592  0.0522  0.1442  0.2632
 5421SOL    HW127899   3.548   0.627  14.535  0.0651 -0.3695 -0.2338
 5421SOL    HW227900   3.463   0.504  14.533  1.5122  0.2191 -0.6566
 5422SOL     OW27901   1.673   4.170   3.879  0.4213  0.1318 -0.2052
 5422SOL    HW127902   1.718   4.251   3.902 -1.2740  0.8560  0.5237
 5422SOL    HW227903   1.596   4.210   3.838 -0.1008 -1.3191 -0.6431
 5423SOL     OW27904   1.148   3.892   3.182  0.2462  0.8784 -0.5704
 5423SOL    HW127905   1.212   3.899   3.253 -0.4887  0.5626  0.1138
 5423SOL    HW227906   1.202   3.910   3.105  1.1144 -0.0921 -0.1986
 5424SOL     OW27907   0.293   2.416  15.302  0.7198 -0.1654  0.2429
 5424SOL    HW127908   0.372   2.374  15.268 -0.3658 -3.2702  1.5724
 5424SOL    HW227909   0.252   2.346  15.352  2.9618  0.1965  2.6055
 5425SOL     OW27910   2.815   1.394   3.905 -0.0430  0.2255 -0.5130
 5425SOL    HW127911   2.784   1.325   3.963  0.3778 -0.1753 -0.7640
 5425SOL    HW227912   2.731   1.430   3.876 -0.1178  0.2837 -0.2235
 5426SOL     OW27913   0.503   3.826  17.082 -0.3507  0.2492 -0.2758
 5426SOL    HW127914   0.503   3.757  17.016  1.8673 -0.5740  0.5601
 5426SOL    HW227915   0.488   3.767  17.156  0.2265 -1.2077 -1.3184
 5427SOL     OW27916   4.146   1.488   6.075  0.3548 -1.0625 -0.3433
 5427SOL    HW127917   4.137   1.526   5.988  2.9908 -1.4123 -0.7464
 5427SOL    HW227918   4.159   1.566   6.130  2.9589 -1.5440 -0.2970
 5428SOL     OW27919   0.629   0.878  15.585 -0.1277 -0.6369  0.1444
 5428SOL    HW127920   0.570   0.923  15.646 -0.3368  0.8898 -1.1948
 5428SOL    HW227921   0.578   0.890  15.505  1.8320  1.1910 -0.8156
 5429SOL     OW27922   0.357   1.465   7.793  0.2724 -0.0174 -0.0437
 5429SOL    HW127923   0.386   1.439   7.706 -1.4218 -2.5130  0.1600
 5429SOL    HW227924   0.414   1.540   7.813  0.8997 -0.3937 -0.4022
 5430SOL     OW27925   2.504   1.165   2.810  0.2983  0.7866  0.0042
 5430SOL    HW127926   2.479   1.133   2.723 -2.7110 -1.3397  1.6563
 5430SOL    HW227927   2.414   1.177   2.840  0.7381 -0.0433  1.6321
 5431SOL     OW27928   2.034   2.418   7.300 -0.2366  0.0433  0.0049
 5431SOL    HW127929   1.968   2.437   7.233 -2.1241 -1.6911  1.4070
 5431SOL    HW227930   2.050   2.503   7.340  0.2481 -1.1647  2.3660
 5432SOL     OW27931   1.189   1.583   8.850 -0.5781  0.1721  0.2158
 5432SOL    HW127932   1.208   1.593   8.757 -1.3312 -1.7318 -0.1526
 5432SOL    HW227933   1.095   1.569   8.837 -0.2836 -0.5152 -1.2175
 5433SOL     OW27934   4.572   2.308  15.295  0.5443  0.3997 -0.4876
 5433SOL    HW127935   4.551   2.278  15.207  1.6739  1.6143 -1.1634
 5433SOL    HW227936   4.637   2.377  15.282 -0.2470  1.0933 -0.7342
 5434SOL     OW27937   2.730   4.517   6.390  0.9292 -0.1328 -0.5245
 5434SOL    HW127938   2.767   4.505   6.303  1.0485 -2.0354 -0.2181
 5434SOL    HW227939   2.794   4.473   6.447  0.1896 -2.3567 -1.3916
 5435SOL     OW27940   3.290   4.717   1.527  0.8131  0.3760  0.4645
 5435SOL    HW127941   3.249   4.634   1.499 -1.0423  0.5977  2.4738
 5435SOL    HW227942   3.245   0.012   1.606 -1.5049 -2.3679  0.2139
 5436SOL     OW27943   2.631   0.665   9.784 -0.1184  0.4540  0.5825
 5436SOL    HW127944   2.579   0.642   9.707 -1.7016  0.7441  1.5681
 5436SOL    HW227945   2.565   0.662   9.853  0.1411  1.3620  0.8718
 5437SOL     OW27946   4.447   3.840  16.143 -0.1244 -0.1673 -0.2702
 5437SOL    HW127947   4.390   3.824  16.219  0.2499 -0.2899 -0.0155
 5437SOL    HW227948   4.425   3.929  16.114  0.1408  0.7237  2.2179
 5438SOL     OW27949   0.714   0.799   6.045  0.6315  0.0372  0.4879
 5438SOL    HW127950   0.679   0.710   6.040 -1.0995  0.6870  0.9926
 5438SOL    HW227951   0.653   0.856   6.091 -0.2214  0.4435 -1.1365
 5439SOL     OW27952   0.151   2.945   5.981 -0.3322 -0.0998  0.6353
 5439SOL    HW127953   0.103   2.867   6.007 -2.5126 -0.4471 -4.2277
 5439SOL    HW227954   0.140   2.951   5.886  1.2501 -0.3223  0.4340
 5440SOL     OW27955   0.247   1.080   4.200 -0.4093 -0.5214  0.3378
 5440SOL    HW127956   0.181   1.113   4.139 -0.7637 -0.1201  0.9446
 5440SOL    HW227957   0.302   1.029   4.141  0.3423  1.8860 -1.0469
 5441SOL     OW27958   2.258   1.981   2.172 -0.6073  0.5975 -0.5537
 5441SOL    HW127959   2.345   1.942   2.168 -0.2936  0.9297  2.7105
 5441SOL    HW227960   2.268   2.004   2.265 -3.3737  1.6410 -0.5113
 5442SOL     OW27961   4.536   3.375   5.663 -0.1605  0.3421 -0.9504
 5442SOL    HW127962   4.615   3.361   5.610  0.8608 -0.6964  0.8789
 5442SOL    HW227963   4.490   3.292   5.650  0.7910 -0.6900  2.3922
 5443SOL     OW27964   4.389   4.481   3.071 -0.2317  0.3520  0.2544
 5443SOL    HW127965   4.388   4.398   3.024 -0.9357  0.5928 -0.1542
 5443SOL    HW227966   4.385   4.537   2.994  0.9640  0.1279  0.0277
 5444SOL     OW27967   1.458   0.293   6.228  0.1955 -0.0215  0.8182
 5444SOL    HW127968   1.454   0.380   6.268 -1.3834 -0.1651  0.9847
 5444SOL    HW227969   1.389   0.297   6.162  0.4066 -1.0607  0.5356
 5445SOL     OW27970   1.218   2.501   5.902  0.1919 -0.6428  0.9278
 5445SOL    HW127971   1.244   2.561   5.972 -0.3246  1.3600 -0.5838
 5445SOL    HW227972   1.308   2.480   5.877 -0.6347 -1.6391 -1.3166
 5446SOL     OW27973   2.283   4.179   6.096  0.9846  0.1338  0.3335
 5446SOL    HW127974   2.290   4.124   6.174  1.6389  0.1299  0.2695
 5446SOL    HW227975   2.349   4.148   6.035 -0.6968 -3.0636  0.1249
 5447SOL     OW27976   3.749   2.573   8.231  0.5983  0.1047  0.2720
 5447SOL    HW127977   3.782   2.489   8.263 -0.9092 -0.6862 -0.2730
 5447SOL    HW227978   3.684   2.553   8.164  2.1613 -0.5782 -1.0515
 5448SOL     OW27979   0.289   2.305  16.809  0.2816 -0.5082  0.6240
 5448SOL    HW127980   0.334   2.359  16.874 -0.3608  0.8401 -0.0523
 5448SOL    HW227981   0.362   2.294  16.749  0.6256 -0.1774  0.9809
 5449SOL     OW27982   2.452   2.880  13.242  0.1959 -0.2885  0.5118
 5449SOL    HW127983   2.420   2.916  13.324  0.3423  0.1959  0.3559
 5449SOL    HW227984   2.375   2.873  13.186 -0.8258  0.0798  1.9000
 5450SOL     OW27985   1.740   4.387   1.711  0.5566 -0.1760  0.0932
 5450SOL    HW127986   1.671   4.432   1.662 -0.0952  0.3973  1.5164
 5450SOL    HW227987   1.694   4.378   1.795  0.3096  0.2530  0.0042
 5451SOL     OW27988   4.460   1.661   5.501 -0.1279 -0.2122  0.3307
 5451SOL    HW127989   4.476   1.609   5.423  0.9005  2.4694 -1.2614
 5451SOL    HW227990   4.443   1.747   5.462  0.2304 -0.5594 -0.5737
 5452SOL     OW27991   3.368   4.149   3.056  0.1372 -0.6872 -0.1696
 5452SOL    HW127992   3.432   4.196   3.109  0.3654 -1.7998  0.5267
 5452SOL    HW227993   3.356   4.203   2.977  1.3339 -0.0168  0.1086
 5453SOL     OW27994   3.443   3.143   2.592 -0.3518  0.5344 -0.5737
 5453SOL    HW127995   3.352   3.164   2.571 -0.3534 -1.4307 -2.4988
 5453SOL    HW227996   3.444   3.048   2.599  0.7376  0.8459  3.8312
 5454SOL     OW27997   3.928   3.237   0.742 -0.1324 -0.1422 -0.2711
 5454SOL    HW127998   3.960   3.166   0.685  1.0849  0.7115 -0.6683
 5454SOL    HW227999   3.844   3.192   0.750 -1.9465  3.0867 -1.0470
 5455SOL     OW28000   1.602   4.626   5.952 -0.1386  0.7538 -0.0146
 5455SOL    HW128001   1.651   4.704   5.927 -1.5787  2.4230  2.2758
 5455SOL    HW228002   1.575   4.661   6.038  0.8811  0.1679  0.5401
 5456SOL     OW28003   0.716   4.149  12.110  0.2864  0.0410 -0.4362
 5456SOL    HW128004   0.662   4.228  12.117 -1.1615 -1.1039  1.3524
 5456SOL    HW228005   0.754   4.163  12.023 -1.4121  0.6316 -1.1027
 5457SOL     OW28006   3.200   2.091  17.527 -0.6898 -0.4033  0.5127
 5457SOL    HW128007   3.106   2.081  17.541 -0.9818  0.9266 -0.4691
 5457SOL    HW228008   3.214   2.161  17.591 -0.4913 -1.9836  2.1939
 5458SOL     OW28009   2.971   0.789   5.585  0.3564  0.0179 -0.3267
 5458SOL    HW128010   2.978   0.697   5.610 -2.2426  0.3705  1.7106
 5458SOL    HW228011   3.061   0.803   5.558  0.6692 -2.5692 -0.6100
 5459SOL     OW28012   1.273   0.365   4.001 -0.2458  0.5049 -0.3052
 5459SOL    HW128013   1.310   0.359   4.089 -2.8636  0.3344  0.7919
 5459SOL    HW228014   1.198   0.421   4.024  0.2252  1.0091  0.0101
 5460SOL     OW28015   3.977   0.228   8.728  0.6257  0.1531 -0.1583
 5460SOL    HW128016   4.012   0.292   8.789 -0.4780  1.0670 -0.4948
 5460SOL    HW228017   3.923   0.173   8.786 -0.7259  1.7009  0.0463
 5461SOL     OW28018   3.003   2.568   7.833 -0.1177 -0.2723  0.2663
 5461SOL    HW128019   2.982   2.644   7.779 -1.2592  0.8690  2.2758
 5461SOL    HW228020   2.959   2.588   7.916 -0.2974 -1.0748  0.3682
 5462SOL     OW28021   4.550   2.251   4.514 -0.1460  0.0432  0.0590
 5462SOL    HW128022   4.463   2.211   4.519 -0.2159  0.0520 -1.1078
 5462SOL    HW228023   4.554   2.293   4.600  0.5448  2.0133 -0.9364
 5463SOL     OW28024   1.284   3.018   6.947  0.2459  0.1919 -0.5022
 5463SOL    HW128025   1.312   2.965   6.872  2.0715 -1.9248  1.7151
 5463SOL    HW228026   1.326   3.098   6.916 -0.2844  0.8016  0.3462
 5464SOL     OW28027   3.928   3.129  14.282 -0.0449  0.1211  0.2604
 5464SOL    HW128028   3.987   3.129  14.358 -2.1411 -1.5576  1.8778
 5464SOL    HW228029   3.847   3.158  14.324 -1.9786 -0.0708 -3.3709
 5465SOL     OW28030   2.400   4.338  10.472 -0.3812  0.6519 -0.2120
 5465SOL    HW128031   2.391   4.293  10.388 -1.3565  3.7891 -1.7721
 5465SOL    HW228032   2.432   4.264  10.523 -0.0450  2.4267  2.1760
 5466SOL     OW28033   4.509   0.614  13.075 -0.2984  0.6248  0.0865
 5466SOL    HW128034   4.466   0.555  13.137 -0.1746 -0.2710 -0.6743
 5466SOL    HW228035   4.486   0.703  13.102 -0.7229  1.6598 -3.6358
 5467SOL     OW28036   0.892   3.848   3.247  0.5467  0.4908 -0.2404
 5467SOL    HW128037   0.893   3.753   3.257 -1.1565  0.4389 -0.5419
 5467SOL    HW228038   0.982   3.866   3.220  0.4083  2.7007  0.7731
 5468SOL     OW28039   1.010   3.465   7.254  0.2693 -0.3951  0.1561
 5468SOL    HW128040   1.043   3.547   7.218 -1.4789  0.5382  0.6943
 5468SOL    HW228041   1.042   3.396   7.196 -2.1339 -0.8000 -0.6826
 5469SOL     OW28042   3.970   0.797   6.320  0.2980 -0.3228  0.2558
 5469SOL    HW128043   4.007   0.795   6.232 -1.7090  0.6674 -0.5915
 5469SOL    HW228044   3.939   0.708   6.337  0.1581 -0.0355  1.5113
 5470SOL     OW28045   4.025   4.208  13.952 -0.5710  0.0357 -0.1724
 5470SOL    HW128046   3.958   4.144  13.976 -0.2185  0.1759  1.1790
 5470SOL    HW228047   4.038   4.172  13.865 -0.6653 -0.6654  0.1056
 5471SOL     OW28048   0.009   0.143   1.856 -0.2329  0.0848 -0.0901
 5471SOL    HW128049   4.710   0.060   1.890  1.2160  0.1762  1.6025
 5471SOL    HW228050   0.081   0.152   1.919 -0.5839  4.5313 -0.3697
 5472SOL     OW28051   3.604   4.362  15.994  1.1119  0.5921  0.3237
 5472SOL    HW128052   3.646   4.398  15.916  1.2857  1.9358  1.0210
 5472SOL    HW228053   3.658   4.404  16.062  0.5119  0.2589  1.0120
 5473SOL     OW28054   0.208   1.621   3.688  0.1326  0.5505  0.0008
 5473SOL    HW128055   0.164   1.622   3.603  0.3016  2.3037 -0.0705
 5473SOL    HW228056   0.172   1.544   3.732  0.9447  1.9511  3.0934
 5474SOL     OW28057   1.505   3.524   5.272  0.7328  0.0508 -0.2184
 5474SOL    HW128058   1.482   3.452   5.331 -1.1160  0.9123  0.1147
 5474SOL    HW228059   1.572   3.483   5.218 -0.5101  1.6703 -3.0391
 5475SOL     OW28060   0.324   0.427   3.218  0.3836  0.0395  0.1819
 5475SOL    HW128061   0.294   0.336   3.219 -1.1207  0.5290  0.1455
 5475SOL    HW228062   0.239   0.459   3.248  0.5493  0.8561 -0.2254
 5476SOL     OW28063   3.655   2.808   9.409 -0.4771 -0.4518 -0.4471
 5476SOL    HW128064   3.663   2.714   9.393  1.3109 -0.2313 -0.7627
 5476SOL    HW228065   3.594   2.843   9.344 -0.7969  0.8574  0.5623
 5477SOL     OW28066   1.782   3.066  15.804 -0.2442 -0.2834 -0.7630
 5477SOL    HW128067   1.738   3.064  15.889  2.7676  1.2528  0.8673
 5477SOL    HW228068   1.710   3.081  15.744 -0.5124 -0.6154 -0.5211
 5478SOL     OW28069   4.532   0.959   1.561  0.0892  0.3612 -0.1257
 5478SOL    HW128070   4.608   0.904   1.583  1.7018  2.0555 -1.3980
 5478SOL    HW228071   4.479   0.903   1.504  1.2321  1.1305 -1.9787
 5479SOL     OW28072   2.526   3.485   0.812 -0.6432  0.5347 -0.2590
 5479SOL    HW128073   2.556   3.535   0.887 -1.3939 -0.4656  0.7178
 5479SOL    HW228074   2.461   3.542   0.771 -0.6285  0.0454 -0.9586
 5480SOL     OW28075   2.939   2.169   4.617  0.3474 -0.0193  0.2611
 5480SOL    HW128076   2.989   2.250   4.628  2.0724 -1.0961  0.2890
 5480SOL    HW228077   2.854   2.208   4.597 -0.2024 -1.5304 -0.3281
 5481SOL     OW28078   0.273   2.950   9.252 -0.4417 -0.0794  0.2579
 5481SOL    HW128079   0.327   2.919   9.180 -1.5681 -3.9777  1.0683
 5481SOL    HW228080   0.315   2.911   9.329  0.3051  1.9012  0.8509
 5482SOL     OW28081   2.715   4.237   5.179  0.4534  0.8068 -0.2212
 5482SOL    HW128082   2.620   4.238   5.181  0.4369 -0.3059 -0.4532
 5482SOL    HW228083   2.737   4.324   5.214 -0.6819 -0.1151  2.7306
 5483SOL     OW28084   1.919   4.267   1.514  0.2199  0.0375  0.5031
 5483SOL    HW128085   1.843   4.284   1.570  0.8352 -0.2077  1.4035
 5483SOL    HW228086   1.968   4.346   1.535 -1.6902  0.4273  3.6137
 5484SOL     OW28087   3.437   3.530   2.391  0.3379  0.3665  0.1624
 5484SOL    HW128088   3.362   3.502   2.340  0.1701  3.1132 -1.0945
 5484SOL    HW228089   3.508   3.492   2.340 -1.2197 -0.6095 -1.2794
 5485SOL     OW28090   0.206   2.620   7.491  0.1439 -0.0061 -0.2992
 5485SOL    HW128091   0.247   2.624   7.577 -2.5011 -1.3112  1.0245
 5485SOL    HW228092   0.143   2.691   7.483 -1.5665 -1.4897 -0.1655
 5486SOL     OW28093   2.907   0.709   8.899 -0.2641  0.4678 -0.1381
 5486SOL    HW128094   2.975   0.717   8.833 -0.8093 -0.1286 -0.7785
 5486SOL    HW228095   2.856   0.640   8.855 -1.2511  0.2901  1.2743
 5487SOL     OW28096   3.966   0.745   2.530 -0.2348 -0.2864  0.0541
 5487SOL    HW128097   3.929   0.765   2.616 -1.4298 -0.5813 -0.3911
 5487SOL    HW228098   4.050   0.789   2.544 -0.4429 -0.1355  0.8452
 5488SOL     OW28099   4.195   4.467   8.874 -0.2051 -0.0865 -0.2488
 5488SOL    HW128100   4.099   4.469   8.868 -0.3254  1.7904  2.2355
 5488SOL    HW228101   4.214   4.375   8.854 -4.0933 -0.9882  0.1035
 5489SOL     OW28102   0.535   3.873   2.631  0.2404  0.5073  0.2539
 5489SOL    HW128103   0.513   3.962   2.657 -3.4123 -0.0085 -1.1578
 5489SOL    HW228104   0.497   3.871   2.544 -1.2403 -1.0230  0.9271
 5490SOL     OW28105   3.875   0.183   5.430 -0.1369 -0.0294  0.2724
 5490SOL    HW128106   3.935   0.209   5.500  1.3847 -4.6001  0.6823
 5490SOL    HW228107   3.813   0.253   5.451 -0.1998  0.2510 -0.8256
 5491SOL     OW28108   1.690   1.702   6.645 -0.1409 -0.3099  0.0229
 5491SOL    HW128109   1.614   1.749   6.612  0.0217  0.7014  1.0806
 5491SOL    HW228110   1.682   1.614   6.608 -0.1657  0.2651 -1.3152
 5492SOL     OW28111   2.062   4.510  14.769 -0.2876 -0.4434 -0.0334
 5492SOL    HW128112   2.006   4.507  14.847  1.7008  0.5066  1.4193
 5492SOL    HW228113   2.098   4.598  14.763  0.2831 -0.6892 -0.2152
 5493SOL     OW28114   0.319   4.683  14.926 -0.0510  0.0224  0.3370
 5493SOL    HW128115   0.254   4.664  14.994  0.3630 -0.9765  0.4586
 5493SOL    HW228116   0.340   4.598  14.888 -0.6550 -0.0485  0.1627
 5494SOL     OW28117   2.036   3.281   2.423  0.3759 -0.1755  0.0296
 5494SOL    HW128118   1.967   3.291   2.489  0.5108 -1.5195  0.3642
 5494SOL    HW228119   2.002   3.337   2.353  1.5580  1.9136  1.1237
 5495SOL     OW28120   1.102   3.370  14.477  0.0631  0.1355  0.2691
 5495SOL    HW128121   1.137   3.288  14.510 -0.1564 -0.0059  0.1489
 5495SOL    HW228122   1.105   3.430  14.552  1.4756  1.1506 -0.6078
 5496SOL     OW28123   2.059   1.306   5.405  0.5507  0.3446  0.3575
 5496SOL    HW128124   2.020   1.393   5.390  1.8697  0.9070  0.2138
 5496SOL    HW228125   2.032   1.265   5.324  2.4713  0.0034 -0.1027
 5497SOL     OW28126   4.679   4.710   5.739  0.8168 -0.2742 -0.0729
 5497SOL    HW128127   0.005   0.025   5.685 -0.5947  0.7828 -0.6787
 5497SOL    HW228128   4.620   0.049   5.753  3.5376  1.4357  2.3394
 5498SOL     OW28129   0.706   3.943   4.125 -0.1594 -0.2568 -0.1916
 5498SOL    HW128130   0.741   3.938   4.036  0.6903  0.1685  0.1154
 5498SOL    HW228131   0.634   4.006   4.122 -1.0756 -1.3108 -0.5314
 5499SOL     OW28132   0.809   1.760  15.984  0.0820 -0.3986  0.0342
 5499SOL    HW128133   0.745   1.800  16.043  1.8932  1.0566  1.0155
 5499SOL    HW228134   0.825   1.674  16.023 -1.7833 -0.8039 -0.1128
 5500SOL     OW28135   1.011   3.579  17.143 -0.5234  0.1877  0.2375
 5500SOL    HW128136   0.957   3.503  17.162  0.5377 -0.6293  0.0192
 5500SOL    HW228137   1.021   3.586  17.048 -0.2711  1.3151  0.3505
 5501SOL     OW28138   1.416   2.558   1.802  0.2476  0.3513  0.3374
 5501SOL    HW128139   1.429   2.516   1.887  2.7232  2.4356  0.9928
 5501SOL    HW228140   1.348   2.499   1.767  1.8644  0.2090 -2.5962
 5502SOL     OW28141   2.580   4.171   4.506 -0.2234 -0.1654  0.2097
 5502SOL    HW128142   2.559   4.252   4.553  1.7918  1.6822 -2.0736
 5502SOL    HW228143   2.519   4.168   4.432 -0.2568  0.2487  0.2216
 5503SOL     OW28144   3.635   2.587   7.905 -0.0448 -0.0395 -0.9800
 5503SOL    HW128145   3.644   2.501   7.947  1.6792 -0.0642 -1.4106
 5503SOL    HW228146   3.552   2.571   7.859 -1.7440  0.0250  2.0574
 5504SOL     OW28147   0.957   2.432   8.165  0.0869  0.2402 -0.4520
 5504SOL    HW128148   1.018   2.506   8.160 -0.4757  0.7564  0.3691
 5504SOL    HW228149   0.910   2.466   8.241  0.6319  0.0913 -0.0491
 5505SOL     OW28150   0.498   4.013   5.979 -0.3082 -0.2412 -0.3781
 5505SOL    HW128151   0.408   3.980   5.966 -0.8492  0.5938  1.2432
 5505SOL    HW228152   0.550   3.933   5.969  1.1807  0.3345  2.9203
 5506SOL     OW28153   3.525   3.830   1.695 -0.3715 -0.3978  0.0015
 5506SOL    HW128154   3.473   3.765   1.741  1.0454 -0.8290  0.9526
 5506SOL    HW228155   3.493   3.827   1.604 -0.6200  1.3665  0.0159
 5507SOL     OW28156   0.341   3.647  15.747 -0.2700  0.2710  0.4664
 5507SOL    HW128157   0.256   3.637  15.703 -0.8811 -1.7608  2.0678
 5507SOL    HW228158   0.326   3.592  15.824  0.1298 -0.1867  0.2111
 5508SOL     OW28159   0.713   1.661   2.660  0.6813  0.0648  0.0847
 5508SOL    HW128160   0.668   1.708   2.590 -0.9453  0.9581  1.7134
 5508SOL    HW228161   0.774   1.729   2.690  1.7310 -0.7660 -0.2006
 5509SOL     OW28162   2.052   2.987   9.030 -0.1024 -0.1103  0.0551
 5509SOL    HW128163   2.032   3.060   9.088 -1.0447  0.1728 -0.6317
 5509SOL    HW228164   2.080   2.919   9.091 -0.3720 -1.3177 -1.1378
 5510SOL     OW28165   4.409   2.434   8.915 -0.1162  0.3244 -0.7521
 5510SOL    HW128166   4.361   2.461   8.993  1.7278  2.0370 -0.1978
 5510SOL    HW228167   4.343   2.419   8.848 -1.0711  3.0534 -0.4196
 5511SOL     OW28168   3.598   0.268   7.232 -0.0875 -0.1363 -0.2216
 5511SOL    HW128169   3.671   0.298   7.287 -1.0382 -0.3967  1.1845
 5511SOL    HW228170   3.522   0.265   7.290 -2.0792  3.9908 -2.6835
 5512SOL     OW28171   1.805   3.441  13.708 -0.4474  0.4308 -0.2511
 5512SOL    HW128172   1.752   3.362  13.700 -1.6279  1.1093  0.8617
 5512SOL    HW228173   1.795   3.487  13.624 -0.6020 -2.0874 -1.6043
 5513SOL     OW28174   3.081   3.881   7.081  0.0681 -0.8174 -0.3045
 5513SOL    HW128175   3.175   3.873   7.065  0.4183 -0.4359  1.5602
 5513SOL    HW228176   3.060   3.815   7.147  0.9014 -1.5908 -0.8240
 5514SOL     OW28177   4.630   1.437  12.747 -0.1571  0.2651 -0.5915
 5514SOL    HW128178   4.595   1.348  12.749  0.6606 -0.0234  0.8422
 5514SOL    HW228179   4.721   1.413  12.764 -0.4279  0.2852  0.8982
 5515SOL     OW28180   1.866   4.382  11.110  0.1177 -0.6643  0.2720
 5515SOL    HW128181   1.930   4.429  11.057  0.3307 -0.0731  1.0459
 5515SOL    HW228182   1.898   4.292  11.103  1.4790 -0.0212 -1.6357
 5516SOL     OW28183   0.209   4.539   6.516  0.3469 -0.5090  0.1725
 5516SOL    HW128184   0.250   4.576   6.594  0.4624  2.2603 -1.2231
 5516SOL    HW228185   0.211   4.612   6.455  0.0972 -1.2942 -0.7876
 5517SOL     OW28186   3.093   3.377  12.115  0.7993 -0.0956  0.3572
 5517SOL    HW128187   3.071   3.470  12.108  1.5954  0.0365 -0.3759
 5517SOL    HW228188   3.083   3.361  12.209 -1.2835 -0.0688  0.1457
 5518SOL     OW28189   4.383   2.032   1.866  0.2638  0.1009 -0.1810
 5518SOL    HW128190   4.466   2.011   1.909  0.4318 -0.2840 -0.7049
 5518SOL    HW228191   4.316   1.979   1.908 -0.4102  0.8019 -0.3597
 5519SOL     OW28192   2.237   2.653   7.002 -0.1580 -0.4702 -0.4327
 5519SOL    HW128193   2.193   2.729   7.039  0.5204  0.0709 -0.7313
 5519SOL    HW228194   2.330   2.676   7.008 -1.0244  2.1478  2.4373
 5520SOL     OW28195   3.487   3.273   9.252 -0.1922 -0.8690 -0.2835
 5520SOL    HW128196   3.567   3.224   9.232 -0.5277 -0.7427 -1.9224
 5520SOL    HW228197   3.495   3.302   9.343  2.0586  0.5043 -0.9240
 5521SOL     OW28198   2.705   2.109   7.612 -0.1540  0.0045  0.0394
 5521SOL    HW128199   2.787   2.137   7.572  0.0791  0.8612  1.1503
 5521SOL    HW228200   2.702   2.158   7.693  1.4308  1.0624 -0.5479
 5522SOL     OW28201   0.752   3.864   0.076 -0.3137 -0.4485 -0.2716
 5522SOL    HW128202   0.785   3.950   0.101  1.6656 -0.8102 -1.5618
 5522SOL    HW228203   0.780   3.804   0.145  0.0129  0.1411  0.1079
 5523SOL     OW28204   3.500   4.378   4.003  0.8477  0.1688  0.4826
 5523SOL    HW128205   3.538   4.457   3.963  1.3041  0.0033  0.5866
 5523SOL    HW228206   3.548   4.303   3.967 -0.4470 -1.4555  2.1469
 5524SOL     OW28207   1.514   4.710   2.483 -0.5746 -0.1539  0.4619
 5524SOL    HW128208   1.509   4.672   2.395 -0.0877  0.7220  0.0467
 5524SOL    HW228209   1.593   0.029   2.480  0.1266 -1.0618  2.5239
 5525SOL     OW28210   3.538   2.850  16.471  0.3910  0.2882  0.5544
 5525SOL    HW128211   3.505   2.797  16.543 -0.2724  0.7934  0.6179
 5525SOL    HW228212   3.619   2.804  16.449 -0.2842 -0.2907 -0.7529
 5526SOL     OW28213   1.692   2.024   7.622  0.2561  0.1825 -0.0055
 5526SOL    HW128214   1.610   2.031   7.671 -0.6975  0.9710 -1.7118
 5526SOL    HW228215   1.743   2.034   7.702 -1.1452 -0.9679  1.0324
 5527SOL     OW28216   3.285   4.049   1.520 -0.4783  1.1020  0.0486
 5527SOL    HW128217   3.223   3.976   1.512 -1.7412  2.1814  0.0344
 5527SOL    HW228218   3.294   4.060   1.615 -4.4313 -1.3850  0.6968
 5528SOL     OW28219   1.346   1.703   7.710  0.3842  0.6703  0.5179
 5528SOL    HW128220   1.386   1.617   7.719 -0.4728  0.3850  1.6524
 5528SOL    HW228221   1.260   1.666   7.731 -0.6488  3.6318  1.4364
 5529SOL     OW28222   4.554   0.777   4.081  0.6036  0.1190  0.6051
 5529SOL    HW128223   4.555   0.838   4.008 -0.6102  1.4942  1.7425
 5529SOL    HW228224   4.582   0.838   4.148  1.3690 -0.8935  1.2079
 5530SOL     OW28225   4.200   0.473   5.112 -0.8966  0.3076 -0.0089
 5530SOL    HW128226   4.109   0.499   5.123 -0.7845  1.3236 -1.4187
 5530SOL    HW228227   4.253   0.553   5.110  0.0166 -0.2737  1.5425
 5531SOL     OW28228   0.864   2.856   1.853 -0.3611 -0.4039  0.0523
 5531SOL    HW128229   0.856   2.931   1.793 -0.4012  0.5724  1.2656
 5531SOL    HW228230   0.816   2.893   1.928 -0.8151 -1.5116  0.2966
 5532SOL     OW28231   2.670   4.157   2.461  0.1704 -0.0446 -0.1915
 5532SOL    HW128232   2.737   4.167   2.394 -1.4606  0.9084 -1.6621
 5532SOL    HW228233   2.709   4.182   2.545 -0.2749  0.1229 -0.0310
 5533SOL     OW28234   4.702   3.388   2.397 -0.0804 -0.0810  0.3042
 5533SOL    HW128235   4.650   3.458   2.438 -3.5644 -1.0658 -2.5008
 5533SOL    HW228236   0.022   3.443   2.342 -1.0298  0.6228  0.0495
 5534SOL     OW28237   1.577   4.497   9.592  0.1204 -0.6304 -0.1511
 5534SOL    HW128238   1.517   4.424   9.573  0.1543 -1.1573  1.7503
 5534SOL    HW228239   1.638   4.484   9.520  0.4082  0.8979 -0.1774
 5535SOL     OW28240   4.231   4.434   7.396  0.5272  0.3176  0.0950
 5535SOL    HW128241   4.140   4.435   7.427  0.4873 -0.5904  0.0131
 5535SOL    HW228242   4.276   4.480   7.467  0.7733 -2.0401  1.4651
 5536SOL     OW28243   0.847   0.407   4.339 -0.3044 -0.1198  0.4534
 5536SOL    HW128244   0.883   0.468   4.404 -1.0948  1.8756 -1.0098
 5536SOL    HW228245   0.787   0.469   4.299  1.9925  2.0453  0.3442
 5537SOL     OW28246   0.768   4.482   4.513  0.3015  0.2958  0.1062
 5537SOL    HW128247   0.781   4.421   4.440  2.0269 -0.8185  1.3394
 5537SOL    HW228248   0.782   4.564   4.467  0.6100  0.7528  1.0026
 5538SOL     OW28249   2.760   2.890   1.877 -0.3794 -0.0826  0.0706
 5538SOL    HW128250   2.833   2.922   1.930 -0.6305 -0.5756  0.7084
 5538SOL    HW228251   2.727   2.977   1.852 -0.8061 -0.4863 -0.7876
 5539SOL     OW28252   3.693   0.539   2.451 -0.6300 -0.8490 -0.5487
 5539SOL    HW128253   3.669   0.626   2.419  0.4681 -0.0142  0.9307
 5539SOL    HW228254   3.656   0.490   2.378 -1.9008  2.7423 -2.3145
 5540SOL     OW28255   4.688   4.226   4.625 -0.0400 -0.0248  0.1032
 5540SOL    HW128256   4.687   4.321   4.618 -1.1881 -0.1414 -1.3188
 5540SOL    HW228257   4.597   4.206   4.646  0.2284 -1.0429  0.2907
 5541SOL     OW28258   0.024   1.675   5.477  0.1209 -0.4353 -0.1288
 5541SOL    HW128259   0.005   1.680   5.383 -0.9365  1.5562  0.1832
 5541SOL    HW228260   4.729   1.758   5.515  0.1932 -0.1258 -0.7416
 5542SOL     OW28261   4.046   4.099   4.925 -0.1400 -0.6140 -0.3009
 5542SOL    HW128262   4.021   4.019   4.971 -0.7788  0.7882  1.8111
 5542SOL    HW228263   4.138   4.087   4.899 -0.1345 -1.7754  0.2803
 5543SOL     OW28264   2.913   0.427  13.303 -0.0238  0.1274  0.2440
 5543SOL    HW128265   2.842   0.488  13.323  1.5318  1.8426  0.5005
 5543SOL    HW228266   2.970   0.448  13.377 -1.1411 -1.5470  1.5602
 5544SOL     OW28267   2.696   3.867   3.809  0.4581  0.1598 -0.1384
 5544SOL    HW128268   2.649   3.801   3.859 -2.5896  1.1436 -1.6950
 5544SOL    HW228269   2.628   3.913   3.760 -0.3719 -0.1554  0.7311
 5545SOL     OW28270   3.599   3.288  17.217 -0.0002  0.4684  0.1022
 5545SOL    HW128271   3.561   3.345  17.284 -1.7826  1.2028 -1.5426
 5545SOL    HW228272   3.598   3.339  17.136 -0.6170 -1.3492 -1.0184
 5546SOL     OW28273   4.295   2.423  16.535 -0.0379 -0.4044  0.3551
 5546SOL    HW128274   4.200   2.432  16.530  0.1610  0.7451 -1.1783
 5546SOL    HW228275   4.321   2.405  16.445  4.3937 -2.0704  1.9703
 5547SOL     OW28276   3.820   2.226  14.539  0.2678 -0.2521 -0.1874
 5547SOL    HW128277   3.826   2.320  14.524 -1.6391 -0.5089 -2.5933
 5547SOL    HW228278   3.812   2.217  14.634  0.0499 -0.1355 -0.1961
 5548SOL     OW28279   3.847   2.478   3.578  0.3469 -0.2502  0.1462
 5548SOL    HW128280   3.912   2.533   3.534 -0.7140  1.8929  1.2445
 5548SOL    HW228281   3.905   2.421   3.628  1.2611  1.7430  1.3688
 5549SOL     OW28282   3.116   2.281  15.256  0.0674 -0.3425 -0.1867
 5549SOL    HW128283   3.189   2.313  15.309 -0.8404  1.2594  0.0929
 5549SOL    HW228284   3.152   2.275  15.168 -1.7665  1.0998 -1.0273
 5550SOL     OW28285   3.645   3.193  12.830  0.4662 -0.3492  0.6714
 5550SOL    HW128286   3.593   3.139  12.889  0.4027 -1.4087 -0.3716
 5550SOL    HW228287   3.622   3.145  12.751  1.2039  2.6432 -1.3694
 5551SOL     OW28288   3.738   4.502  17.113  0.0569 -0.9855  0.0008
 5551SOL    HW128289   3.831   4.500  17.093  0.2570 -0.2587  0.8375
 5551SOL    HW228290   3.695   4.531  17.033 -1.6304 -0.4528  1.0805
 5552SOL     OW28291   2.057   2.070  10.902  0.1405 -0.4493  0.8922
 5552SOL    HW128292   2.026   2.103  10.987 -1.1825  1.8136 -0.4792
 5552SOL    HW228293   2.085   1.984  10.933  1.2862  0.8400  3.4116
 5553SOL     OW28294   3.812   3.372   2.465  0.3946 -0.5628  1.0230
 5553SOL    HW128295   3.749   3.389   2.535  1.3644 -1.9875  2.2698
 5553SOL    HW228296   3.893   3.415   2.493 -0.9094  1.5429  1.5802
 5554SOL     OW28297   2.714   4.245  15.879 -0.2450 -0.3842  0.6565
 5554SOL    HW128298   2.639   4.202  15.840  0.6271 -2.3256  1.1366
 5554SOL    HW228299   2.697   4.329  15.836  0.0152  0.0394  1.3840
 5555SOL     OW28300   2.824   1.596   2.195 -0.3192 -0.1950 -0.1035
 5555SOL    HW128301   2.847   1.535   2.265 -2.6070 -0.7801  0.1205
 5555SOL    HW228302   2.741   1.637   2.218  0.9682  0.6244  3.1196
 5556SOL     OW28303   2.385   3.317   1.604  0.3446  0.0262 -0.2858
 5556SOL    HW128304   2.311   3.349   1.552 -0.4733 -0.7709  0.3917
 5556SOL    HW228305   2.438   3.392   1.631  0.9203  0.4979 -2.6617
 5557SOL     OW28306   4.214   2.487   2.453 -0.9362 -0.2014  0.0483
 5557SOL    HW128307   4.234   2.510   2.544  0.4556 -2.6916  0.3625
 5557SOL    HW228308   4.262   2.558   2.410  0.7509 -0.6375  1.2020
 5558SOL     OW28309   2.025   0.254   7.265 -0.0740 -0.3826  0.5479
 5558SOL    HW128310   2.114   0.220   7.275  1.0672  2.6945  0.7481
 5558SOL    HW228311   2.050   0.328   7.210  0.8994 -1.5764 -0.6066
 5559SOL     OW28312   2.489   3.407   2.264 -0.1177 -0.8886 -0.4771
 5559SOL    HW128313   2.487   3.401   2.360 -0.2675 -0.8681 -0.4781
 5559SOL    HW228314   2.396   3.390   2.248 -0.1749 -0.8011 -0.2427
 5560SOL     OW28315   1.568   2.514  13.387  0.1100 -0.0165 -0.0413
 5560SOL    HW128316   1.632   2.568  13.433  0.6062  1.0546 -2.0034
 5560SOL    HW228317   1.617   2.457  13.327  0.6590 -0.0043  0.3914
 5561SOL     OW28318   2.370   0.438   2.604 -0.6608 -0.3059  0.1283
 5561SOL    HW128319   2.312   0.514   2.601 -0.8747 -0.5169 -0.8688
 5561SOL    HW228320   2.362   0.397   2.690  1.4954  1.2542  1.0761
 5562SOL     OW28321   3.336   0.636   4.485  0.4985 -0.4943  0.0895
 5562SOL    HW128322   3.383   0.716   4.505 -0.5577  0.0943  0.2085
 5562SOL    HW228323   3.364   0.633   4.393  2.5054  0.3772  0.6890
 5563SOL     OW28324   4.237   0.545  17.293  0.7807 -0.2355 -0.2806
 5563SOL    HW128325   4.210   0.456  17.269  1.1831 -0.1536 -1.0444
 5563SOL    HW228326   4.219   0.547  17.387 -0.8471  0.8185 -0.6190
 5564SOL     OW28327   1.357   4.611   4.558  0.0209 -0.7808  0.1569
 5564SOL    HW128328   1.301   4.560   4.616  0.1988 -1.9924 -0.7543
 5564SOL    HW228329   1.294   4.614   4.486  0.9330  1.1992 -0.5636
 5565SOL     OW28330   0.998   1.798   1.957  0.3009 -0.2947 -0.6023
 5565SOL    HW128331   0.963   1.830   1.874 -0.5620 -1.0149 -0.5176
 5565SOL    HW228332   0.922   1.796   2.016 -0.2244  0.4138 -1.2696
 5566SOL     OW28333   3.199   4.556   8.245  0.2565 -0.0441 -0.1656
 5566SOL    HW128334   3.118   4.551   8.195  0.3094 -0.7024 -0.1877
 5566SOL    HW228335   3.203   4.646   8.278  3.4432  0.2893 -1.5134
 5567SOL     OW28336   0.432   1.464  17.575 -0.4292 -0.4203 -0.4365
 5567SOL    HW128337   0.368   1.393  17.577 -1.2643  0.4348  3.1151
 5567SOL    HW228338   0.408   1.527  17.507  0.7037  0.2910 -0.1793
 5568SOL     OW28339   4.469   0.337  14.004 -0.0449  0.7355 -0.3532
 5568SOL    HW128340   4.421   0.329  14.087  1.4615 -0.4846  0.3960
 5568SOL    HW228341   4.435   0.258  13.962  1.6572  0.3551 -0.9995
 5569SOL     OW28342   4.182   4.435   2.629 -0.4111  0.1386  0.2467
 5569SOL    HW128343   4.164   4.512   2.575  1.0481  0.5186  0.3064
 5569SOL    HW228344   4.110   4.376   2.607 -1.4689  1.6165 -0.2846
 5570SOL     OW28345   0.450   4.719   4.765 -0.2940  0.2453  0.1765
 5570SOL    HW128346   0.387   4.713   4.693 -0.7923 -1.0037  0.7153
 5570SOL    HW228347   0.510   0.056   4.746 -0.1831 -0.0545 -0.5932
 5571SOL     OW28348   3.122   1.254   2.782  0.1197  0.0195 -0.7779
 5571SOL    HW128349   3.184   1.251   2.855  0.9110 -2.5209 -1.5437
 5571SOL    HW228350   3.096   1.346   2.794  0.5233  0.1612 -0.9750
 5572SOL     OW28351   4.467   4.515  15.384 -0.1339  0.1442 -0.1915
 5572SOL    HW128352   4.391   4.551  15.430 -1.2008 -0.4024 -1.5263
 5572SOL    HW228353   4.499   4.452  15.448 -2.1703  1.1896  1.8765
 5573SOL     OW28354   1.835   0.561   1.914  0.2456 -0.4951 -0.2105
 5573SOL    HW128355   1.796   0.608   1.989  0.1371 -0.1739 -0.4680
 5573SOL    HW228356   1.755   0.533   1.870  0.1528 -1.0374  0.3037
 5574SOL     OW28357   2.534   2.641  10.679 -0.5168  0.1746  0.3690
 5574SOL    HW128358   2.514   2.692  10.757 -1.7756 -1.1917  0.9372
 5574SOL    HW228359   2.502   2.555  10.705 -0.2408 -0.5184 -1.5541
 5575SOL     OW28360   1.477   0.706   0.304  0.0578  0.2142  0.4587
 5575SOL    HW128361   1.490   0.626   0.253  2.1180  3.0000 -3.3465
 5575SOL    HW228362   1.547   0.759   0.265 -1.8557  0.8993 -1.9613
 5576SOL     OW28363   0.190   0.092   6.412 -0.1689  0.2258  0.0037
 5576SOL    HW128364   0.107   0.062   6.375 -0.0656 -1.8371  1.4329
 5576SOL    HW228365   0.168   0.181   6.439 -1.1516  0.2910 -0.9919
 5577SOL     OW28366   3.960   2.117   0.666  0.0156  1.0211 -0.3004
 5577SOL    HW128367   4.015   2.054   0.620 -1.2361  0.1342 -0.5591
 5577SOL    HW228368   3.875   2.075   0.653  0.5852 -0.9114  1.9983
 5578SOL     OW28369   1.374   0.408   4.799 -0.4139 -0.1345  0.1113
 5578SOL    HW128370   1.322   0.344   4.847 -1.4033  0.8681  0.3793
 5578SOL    HW228371   1.442   0.426   4.863  0.5270 -1.6433 -0.4763
 5579SOL     OW28372   3.666   4.165  11.383 -0.2296  0.3755 -0.1048
 5579SOL    HW128373   3.592   4.214  11.418  0.4161  0.5814  0.9664
 5579SOL    HW228374   3.731   4.234  11.396  0.3178  0.0278 -0.9907
 5580SOL     OW28375   4.115   3.736   7.105  0.0569  0.0901  0.5784
 5580SOL    HW128376   4.044   3.758   7.165  1.0576  1.7180  1.1893
 5580SOL    HW228377   4.187   3.776   7.155 -0.3094  2.6496 -0.9607
 5581SOL     OW28378   4.098   3.312   3.753  0.0233  0.2346 -0.1544
 5581SOL    HW128379   4.129   3.319   3.663 -0.6321  0.2777 -0.3720
 5581SOL    HW228380   4.068   3.222   3.756  0.9916 -0.0952 -0.5008
 5582SOL     OW28381   3.488   4.727   1.732 -0.5053 -0.0433 -0.0051
 5582SOL    HW128382   3.464   4.677   1.654 -0.4830  1.1481 -0.7801
 5582SOL    HW228383   3.515   0.073   1.689 -0.0641  0.0352  0.4210
 5583SOL     OW28384   0.197   1.257   9.275 -0.2495  0.2220  0.3255
 5583SOL    HW128385   0.151   1.337   9.249  0.4852 -0.0689 -1.9525
 5583SOL    HW228386   0.137   1.221   9.340 -1.2594 -0.5711 -1.0516
 5584SOL     OW28387   1.207   1.413   7.477 -0.5143 -0.3700  0.0247
 5584SOL    HW128388   1.160   1.344   7.523 -0.9638  0.0144  0.1512
 5584SOL    HW228389   1.136   1.475   7.460 -0.5033 -0.0010  1.3305
 5585SOL     OW28390   0.611   4.476   6.626  0.4710 -0.0675 -0.3909
 5585SOL    HW128391   0.666   4.398   6.639 -0.3831 -0.7545 -0.8351
 5585SOL    HW228392   0.614   4.481   6.531  0.8410  3.9599 -0.1546
 5586SOL     OW28393   0.583   1.841  15.571  0.0553 -0.4184  0.3551
 5586SOL    HW128394   0.577   1.922  15.622 -0.1115 -0.5085  0.4779
 5586SOL    HW228395   0.658   1.799  15.614 -2.4404 -3.3569  1.8216
 5587SOL     OW28396   0.425   2.106   3.872  0.0931 -0.0968 -0.1218
 5587SOL    HW128397   0.420   2.030   3.930 -1.1540  0.1225  0.0516
 5587SOL    HW228398   0.332   2.110   3.850  0.4516 -0.2133 -1.6514
 5588SOL     OW28399   4.275   2.061   1.048 -0.6237  0.2102  0.3988
 5588SOL    HW128400   4.329   1.983   1.061  0.6100  1.6474  4.0349
 5588SOL    HW228401   4.253   2.074   1.140 -1.5487  1.7829 -0.0435
 5589SOL     OW28402   3.391   1.389   6.636  0.0796 -0.1227 -0.4784
 5589SOL    HW128403   3.361   1.312   6.588 -0.3810  0.7016 -1.4892
 5589SOL    HW228404   3.450   1.334   6.688  0.4480 -0.5811 -1.3772
 5590SOL     OW28405   0.929   3.934  14.883 -0.5433 -0.3611 -0.6247
 5590SOL    HW128406   0.999   3.957  14.944  0.9006 -1.6099 -1.8020
 5590SOL    HW228407   0.957   3.843  14.873  2.3565  0.4831 -0.0876
 5591SOL     OW28408   2.239   2.266   2.923 -0.0579  0.8694  0.2818
 5591SOL    HW128409   2.200   2.280   2.837 -2.0913  2.5812  1.4611
 5591SOL    HW228410   2.299   2.197   2.895 -0.5393  0.0849  1.2147
 5592SOL     OW28411   2.575   3.455  11.834 -0.0787 -0.1757 -0.7901
 5592SOL    HW128412   2.659   3.494  11.812 -0.7232  0.8239 -1.5166
 5592SOL    HW228413   2.547   3.406  11.757 -0.2447 -2.6172  0.8213
 5593SOL     OW28414   1.001   3.157  16.104  0.0161  0.2771  0.6767
 5593SOL    HW128415   1.058   3.224  16.141  1.3558 -0.6705  0.3142
 5593SOL    HW228416   0.999   3.183  16.011  1.8672  0.3771  0.6744
 5594SOL     OW28417   1.378   3.195   2.659  0.4430 -0.9035  0.1443
 5594SOL    HW128418   1.364   3.285   2.631 -2.8272 -1.3476  0.3933
 5594SOL    HW228419   1.430   3.208   2.738  0.8906  3.2086 -0.8312
 5595SOL     OW28420   1.183   0.499  10.970  0.5350  0.5085 -0.1028
 5595SOL    HW128421   1.108   0.506  11.030 -0.5991 -0.6626 -1.3905
 5595SOL    HW228422   1.191   0.595  10.968 -3.5975  0.8868 -0.2762
 5596SOL     OW28423   4.552   3.794   2.262 -0.2098  0.2422  0.1366
 5596SOL    HW128424   4.507   3.716   2.231 -0.4760  0.5021 -0.1388
 5596SOL    HW228425   4.478   3.853   2.275  0.0826  0.2834  1.6232
 5597SOL     OW28426   3.245   3.521  10.165  0.1203 -0.8707 -0.1362
 5597SOL    HW128427   3.310   3.466  10.209 -0.8406 -2.1116 -0.2671
 5597SOL    HW228428   3.295   3.544  10.087  0.6428  1.1268  0.8054
 5598SOL     OW28429   2.444   3.833   2.718 -0.0707  0.3609 -0.9129
 5598SOL    HW128430   2.462   3.915   2.671  3.4520 -0.4611 -1.0225
 5598SOL    HW228431   2.530   3.792   2.730  0.0326  0.8189  0.0172
 5599SOL     OW28432   2.221   3.191  15.727 -0.4077 -0.1181  0.0570
 5599SOL    HW128433   2.217   3.228  15.815 -0.2496 -0.6848  0.3015
 5599SOL    HW228434   2.239   3.098  15.742 -1.4594 -0.5685 -1.5095
 5600SOL     OW28435   1.966   0.494  10.032 -0.0232 -0.4428  0.1567
 5600SOL    HW128436   1.895   0.451   9.983 -1.0499  1.2537  0.1765
 5600SOL    HW228437   2.012   0.551   9.970 -1.7905  1.7637  0.8729
 5601SOL     OW28438   3.968   0.467   9.656 -0.1162 -0.1598 -0.2195
 5601SOL    HW128439   3.898   0.530   9.671  0.4825  0.6333 -0.7325
 5601SOL    HW228440   3.984   0.421   9.738 -0.4572 -0.0893 -0.1124
 5602SOL     OW28441   0.745   4.031  17.299 -0.0593 -0.0135 -0.0988
 5602SOL    HW128442   0.817   3.972  17.277 -0.5095  0.6739 -3.4493
 5602SOL    HW228443   0.680   3.997  17.238  0.4796  2.3314 -1.9618
 5603SOL     OW28444   1.905   2.080  16.960  0.6933 -0.3580  0.2322
 5603SOL    HW128445   1.945   2.000  16.995 -2.5518 -1.7402  0.7384
 5603SOL    HW228446   1.921   2.065  16.866  1.1085 -0.8596  0.3812
 5604SOL     OW28447   4.073   2.239   4.867  0.4492 -0.4907 -0.4998
 5604SOL    HW128448   4.113   2.199   4.945  0.4283 -1.0441 -0.7772
 5604SOL    HW228449   3.985   2.208   4.888 -0.0208  0.8833 -0.4661
 5605SOL     OW28450   1.469   2.861  14.682  0.1897 -0.2042  0.1629
 5605SOL    HW128451   1.542   2.833  14.626  1.3690  1.2428  0.9612
 5605SOL    HW228452   1.517   2.894  14.758  1.3026 -1.2880 -0.0667
 5606SOL     OW28453   1.930   4.215   2.234 -0.2232  0.3490 -0.6550
 5606SOL    HW128454   1.997   4.148   2.219  2.1917  1.4559  5.2312
 5606SOL    HW228455   1.885   4.224   2.150  2.5342  0.5078 -2.1159
 5607SOL     OW28456   4.038   4.245   3.460  0.8413  0.3804 -0.3369
 5607SOL    HW128457   3.990   4.216   3.382 -1.5550  3.6291 -0.0834
 5607SOL    HW228458   4.096   4.170   3.471 -0.2787 -0.3688  0.4867
 5608SOL     OW28459   3.152   4.531   8.800  0.4557 -0.0447  0.0814
 5608SOL    HW128460   3.060   4.508   8.787  0.7711 -0.9163 -0.5864
 5608SOL    HW228461   3.193   4.535   8.714 -0.8301  1.9998 -0.4223
 5609SOL     OW28462   1.463   4.382   8.305  0.5963  0.2517 -0.1851
 5609SOL    HW128463   1.518   4.357   8.231  0.0951 -3.5674  0.7186
 5609SOL    HW228464   1.376   4.395   8.266  0.2883 -0.2669  0.3220
 5610SOL     OW28465   2.788   3.335   8.789 -0.0590 -0.3558 -0.0562
 5610SOL    HW128466   2.778   3.426   8.762  1.5219 -0.3308 -0.5128
 5610SOL    HW228467   2.808   3.349   8.882  0.3827 -1.5053  0.0206
 5611SOL     OW28468   1.873   4.476   4.982  0.4036 -0.5236 -0.1343
 5611SOL    HW128469   1.913   4.529   4.913 -1.5718 -0.2197 -1.0519
 5611SOL    HW228470   1.867   4.544   5.049 -0.0980 -0.0605 -0.6407
 5612SOL     OW28471   0.324   2.973   7.565  0.5135  0.5452 -0.3185
 5612SOL    HW128472   0.395   2.990   7.626 -1.0116  1.1499  1.3048
 5612SOL    HW228473   0.357   3.036   7.502  0.0429  1.9237  0.8165
 5613SOL     OW28474   0.140   1.862   4.834  0.3501  0.7270  0.5643
 5613SOL    HW128475   0.207   1.898   4.776  1.0008  1.5240  1.8347
 5613SOL    HW228476   0.156   1.912   4.914  0.3978  0.5109  0.6896
 5614SOL     OW28477   0.523   3.254   0.440  0.0580  0.0246  0.2054
 5614SOL    HW128478   0.476   3.171   0.443 -1.0573  0.6760  0.8476
 5614SOL    HW228479   0.578   3.241   0.517 -2.1240 -0.2666  1.7317
 5615SOL     OW28480   0.563   3.711   3.789 -0.0104 -0.3201  0.4925
 5615SOL    HW128481   0.492   3.653   3.761 -0.2198  0.6485 -0.9960
 5615SOL    HW228482   0.539   3.710   3.881  1.8879 -0.7851  0.9871
 5616SOL     OW28483   3.655   1.902   2.789 -0.1364  0.4798  0.2695
 5616SOL    HW128484   3.738   1.865   2.821  1.2641  1.8447 -1.7533
 5616SOL    HW228485   3.600   1.912   2.866  0.4478 -0.8017  0.8564
 5617SOL     OW28486   3.516   4.600   8.673 -0.3017  0.0702 -0.1061
 5617SOL    HW128487   3.604   4.610   8.637  0.1560  0.3277  1.0935
 5617SOL    HW228488   3.475   4.686   8.663  0.4310 -0.0168 -3.6418
 5618SOL     OW28489   0.857   1.789   7.853  0.4514  0.0390  0.3725
 5618SOL    HW128490   0.822   1.867   7.809 -1.1294 -0.3137  0.9785
 5618SOL    HW228491   0.921   1.829   7.912 -1.3785 -0.5793  2.7830
 5619SOL     OW28492   3.702   2.235   3.505 -0.0182 -0.0711  0.4886
 5619SOL    HW128493   3.771   2.183   3.546 -1.1763 -2.0021 -0.0348
 5619SOL    HW228494   3.754   2.307   3.468  0.2195  0.5238  1.9677
 5620SOL     OW28495   3.800   1.911   9.148  0.4223  0.0582 -0.0597
 5620SOL    HW128496   3.848   1.969   9.207  1.4491 -0.7382 -0.1330
 5620SOL    HW228497   3.873   1.884   9.093 -0.5526 -0.3753 -1.1386
 5621SOL     OW28498   1.066   0.791   7.270 -0.5705  0.1729  0.2743
 5621SOL    HW128499   1.075   0.748   7.185  1.1371  2.5193 -0.7242
 5621SOL    HW228500   1.147   0.841   7.282  0.3300 -1.5706  1.3746
 5622SOL     OW28501   4.515   4.068   8.583 -0.1649  0.1303 -0.3665
 5622SOL    HW128502   4.496   4.078   8.677  1.4162 -0.3400  0.0060
 5622SOL    HW228503   4.484   3.979   8.566  0.2356  0.2695 -1.8004
 5623SOL     OW28504   1.188   1.361   3.667  0.1268 -0.0527  0.0633
 5623SOL    HW128505   1.218   1.438   3.715  0.4577  0.8893 -1.6648
 5623SOL    HW228506   1.267   1.354   3.613 -0.8188 -4.3659 -0.7782
 5624SOL     OW28507   3.925   4.164   7.168  0.1374  0.7524  0.2168
 5624SOL    HW128508   4.008   4.208   7.185  0.6199 -0.0619 -0.0390
 5624SOL    HW228509   3.924   4.094   7.234  1.8706 -0.9409 -1.5728
 5625SOL     OW28510   0.722   0.447   5.484  0.4858  0.0159  0.0634
 5625SOL    HW128511   0.764   0.411   5.407  0.9984 -0.0800  0.3885
 5625SOL    HW228512   0.646   0.488   5.442 -0.1520 -2.0016 -0.7220
 5626SOL     OW28513   0.743   4.363   6.896  0.3099  0.1849 -0.2539
 5626SOL    HW128514   0.812   4.297   6.907 -0.5475 -0.9223 -1.4696
 5626SOL    HW228515   0.762   4.382   6.804  0.9037  1.6699  0.1853
 5627SOL     OW28516   1.013   3.764   5.402 -0.2179  0.5857 -0.1357
 5627SOL    HW128517   0.930   3.720   5.421 -0.7068  2.3231  1.7955
 5627SOL    HW228518   1.052   3.755   5.490  1.1240 -1.8645 -0.9898
 5628SOL     OW28519   4.246   1.181   4.367 -0.0196  0.4144 -0.5308
 5628SOL    HW128520   4.341   1.190   4.374  0.1535 -2.6640  1.2843
 5628SOL    HW228521   4.219   1.235   4.440 -1.1227 -0.0560 -0.5945
 5629SOL     OW28522   0.206   0.988  16.784  0.6484  0.3341  0.2626
 5629SOL    HW128523   0.124   1.009  16.739  1.2893  4.6124  1.0133
 5629SOL    HW228524   0.194   0.895  16.802 -2.8182  0.7185 -0.0913
 5630SOL     OW28525   0.304   3.069  13.497 -0.2636 -0.4138  0.0321
 5630SOL    HW128526   0.362   2.995  13.482  0.6446  0.5410 -1.0650
 5630SOL    HW228527   0.223   3.023  13.472 -0.2338 -0.0490 -0.7299
 5631SOL     OW28528   0.296   0.817   9.382 -0.2017 -0.3308 -0.2769
 5631SOL    HW128529   0.366   0.870   9.343  0.2609  0.6702  1.9373
 5631SOL    HW228530   0.225   0.873   9.351 -0.7505 -0.0245  1.5409
 5632SOL     OW28531   0.404   4.403   4.199 -0.2436  0.3735 -0.1411
 5632SOL    HW128532   0.328   4.377   4.251  0.0647  2.7740  1.4749
 5632SOL    HW228533   0.462   4.339   4.241 -1.7990  0.6917  2.4771
 5633SOL     OW28534   4.527   0.171   1.020  0.0572  0.1492  0.3764
 5633SOL    HW128535   4.615   0.202   1.041 -0.1071  0.8883 -0.0130
 5633SOL    HW228536   4.503   0.245   0.964  0.4813  0.2630  0.3503
 5634SOL     OW28537   3.319   0.438  16.678  0.0033  0.4580  0.1817
 5634SOL    HW128538   3.359   0.438  16.765  0.8227  1.7799 -0.1865
 5634SOL    HW228539   3.230   0.409  16.695  0.4363 -0.5217  0.7571
 5635SOL     OW28540   1.792   1.069  10.848  0.1742  0.4460  0.7126
 5635SOL    HW128541   1.698   1.079  10.832 -0.5434 -0.5691  4.2031
 5635SOL    HW228542   1.807   0.974  10.846 -0.0195  0.4060  1.0778
 5636SOL     OW28543   1.765   4.027   9.203 -0.3841 -0.1221 -0.2244
 5636SOL    HW128544   1.781   3.951   9.148 -3.2075 -1.1125  0.3397
 5636SOL    HW228545   1.852   4.023   9.242 -0.2540  0.0323 -0.5044
 5637SOL     OW28546   3.093   4.708  14.644 -0.2507  0.0726  0.5359
 5637SOL    HW128547   3.050   4.632  14.604 -0.9654  0.0624  1.3397
 5637SOL    HW228548   3.136   0.021  14.573 -1.3729  0.1817 -0.0763
 5638SOL     OW28549   4.714   0.005   6.744 -0.4361  0.1978  0.2025
 5638SOL    HW128550   0.061   0.036   6.782 -0.5413  0.5322  0.1525
 5638SOL    HW228551   4.682   4.684   6.814 -0.9057 -2.0992 -1.8256
 5639SOL     OW28552   2.326   3.807   4.030 -0.6162  0.3532  0.1168
 5639SOL    HW128553   2.322   3.883   3.972  0.2073  0.5532  0.3215
 5639SOL    HW228554   2.395   3.753   3.992  0.2664 -0.0707  2.3043
 5640SOL     OW28555   4.371   2.984  10.053 -0.8552 -0.3386 -0.0486
 5640SOL    HW128556   4.431   3.054  10.079 -1.4373 -0.2291  0.9851
 5640SOL    HW228557   4.334   2.987  10.141 -1.1200 -0.2068 -0.1632
 5641SOL     OW28558   3.446   3.866   4.275 -0.0363 -0.4008 -0.3863
 5641SOL    HW128559   3.477   3.917   4.349  2.5168  0.5924 -2.1485
 5641SOL    HW228560   3.364   3.911   4.256 -0.4207 -0.3116  1.5078
 5642SOL     OW28561   0.604   0.261   2.884 -0.0246  0.5190  0.1502
 5642SOL    HW128562   0.603   0.291   2.975 -0.9044  0.9854 -0.0143
 5642SOL    HW228563   0.645   0.336   2.840 -0.7757  1.7968  1.5951
 5643SOL     OW28564   1.974   4.699   3.111  0.0553  0.3496  0.1689
 5643SOL    HW128565   1.928   4.661   3.187  3.3345 -0.9087  1.5192
 5643SOL    HW228566   1.908   0.027   3.083  1.0637  0.5746 -1.6576
 5644SOL     OW28567   4.104   2.212  11.947  0.1083  0.0778  0.4576
 5644SOL    HW128568   4.050   2.268  12.003 -0.7235  1.7191 -1.9757
 5644SOL    HW228569   4.041   2.141  11.931 -1.3182  1.6120 -0.7888
 5645SOL     OW28570   0.243   1.307   5.748  0.1889 -0.1136 -0.5203
 5645SOL    HW128571   0.214   1.377   5.806  0.1813 -0.3364 -0.2551
 5645SOL    HW228572   0.202   1.349   5.673 -0.8032  0.3108  0.2580
 5646SOL     OW28573   1.022   3.968   4.064  0.0229  0.5058 -0.0363
 5646SOL    HW128574   0.931   3.997   4.053 -0.2360 -0.0731  0.5732
 5646SOL    HW228575   1.048   3.976   3.972  1.9733  1.2568  0.5831
 5647SOL     OW28576   4.158   1.319   3.428  0.1428  0.4885  0.0542
 5647SOL    HW128577   4.069   1.307   3.395 -0.3979 -0.3061  1.7931
 5647SOL    HW228578   4.176   1.241   3.480 -1.8024  0.6438  0.9589
 5648SOL     OW28579   4.163   2.845   2.491  0.5509  0.4866 -0.2528
 5648SOL    HW128580   4.203   2.925   2.526 -0.5334  0.7327  0.4188
 5648SOL    HW228581   4.180   2.850   2.396  0.9347  0.7747 -0.1687
 5649SOL     OW28582   4.605   2.518   8.140 -0.5550  0.1360 -0.6919
 5649SOL    HW128583   4.661   2.557   8.073  1.0893  1.4498  1.4470
 5649SOL    HW228584   4.556   2.460   8.083  0.7148  0.7302 -2.4080
 5650SOL     OW28585   1.499   1.202   5.335  0.4569 -0.2687  0.0592
 5650SOL    HW128586   1.477   1.114   5.303 -0.2808  0.5855 -1.8143
 5650SOL    HW228587   1.418   1.245   5.307  1.3253  0.2830 -1.5619
 5651SOL     OW28588   0.547   3.347  13.733  0.3205 -0.4593 -0.2154
 5651SOL    HW128589   0.575   3.257  13.720  2.6026  0.0344  1.2569
 5651SOL    HW228590   0.478   3.355  13.667 -0.6426 -0.9814  0.7271
 5652SOL     OW28591   2.311   4.139   5.033 -0.1302  0.5345 -0.2744
 5652SOL    HW128592   2.259   4.166   5.108 -0.1821  2.1004 -0.8668
 5652SOL    HW228593   2.368   4.215   5.021 -0.5957  0.9522  0.1765
 5653SOL     OW28594   0.692   1.215   3.889  0.6100  0.0713 -0.5270
 5653SOL    HW128595   0.718   1.279   3.823  2.9021  1.1015  1.3747
 5653SOL    HW228596   0.602   1.241   3.911  0.5547  0.9016 -1.7452
 5654SOL     OW28597   2.556   1.957   5.709  0.3834 -0.3506  0.3926
 5654SOL    HW128598   2.550   1.863   5.724  1.0724 -0.4711 -0.0889
 5654SOL    HW228599   2.462   1.973   5.720  0.2266 -0.2286 -1.0978
 5655SOL     OW28600   3.057   3.993  17.135  0.0975 -0.1177 -0.2873
 5655SOL    HW128601   3.041   3.908  17.094  2.0949 -0.6601  0.0828
 5655SOL    HW228602   3.145   4.018  17.106  0.9112 -3.3657 -0.5563
 5656SOL     OW28603   2.683   0.337   3.641 -0.3465  0.2355 -0.5250
 5656SOL    HW128604   2.633   0.360   3.563 -2.7916  2.5116  1.6857
 5656SOL    HW228605   2.767   0.316   3.600  0.4235  1.4385  0.4218
 5657SOL     OW28606   0.548   3.786   3.203 -0.1607  0.4950  0.2313
 5657SOL    HW128607   0.621   3.830   3.246 -1.2900  0.4469  2.2005
 5657SOL    HW228608   0.509   3.737   3.275  1.6227  0.0769  0.9187
 5658SOL     OW28609   3.476   0.387   9.219 -0.4243 -0.1800 -0.0742
 5658SOL    HW128610   3.470   0.482   9.224  1.3655 -0.1002  0.8012
 5658SOL    HW228611   3.491   0.364   9.311 -1.8605 -0.7183  0.0177
 5659SOL     OW28612   0.361   3.729   9.881 -0.0694  0.3081  0.2203
 5659SOL    HW128613   0.317   3.719   9.965  0.2435 -0.6460  0.2736
 5659SOL    HW228614   0.287   3.750   9.824  0.4335  0.8614 -0.2285
 5660SOL     OW28615   0.355   0.803   6.331  0.3189  0.2622 -0.3248
 5660SOL    HW128616   0.305   0.750   6.269 -0.5011 -0.9173  1.3438
 5660SOL    HW228617   0.385   0.737   6.393 -1.0392 -1.6551 -1.7161
 5661SOL     OW28618   4.418   1.490   4.745 -0.7835  0.0471  0.0888
 5661SOL    HW128619   4.419   1.581   4.776 -1.3690  0.5572 -1.3935
 5661SOL    HW228620   4.327   1.463   4.751 -0.2402 -1.7496  0.2125
 5662SOL     OW28621   4.207   2.623   0.239 -0.1412  0.3471 -0.9836
 5662SOL    HW128622   4.155   2.675   0.300  2.4144  1.0369  0.6470
 5662SOL    HW228623   4.140   2.592   0.178 -0.3432  0.0942 -0.6337
 5663SOL     OW28624   0.367   1.008  12.688  0.1406  0.3278 -0.8273
 5663SOL    HW128625   0.337   0.921  12.713  0.8915  0.2887 -0.0405
 5663SOL    HW228626   0.282   1.047  12.667 -0.1736 -0.0633 -0.2838
 5664SOL     OW28627   0.648   1.550   6.643  0.5014 -0.3935  0.3993
 5664SOL    HW128628   0.584   1.621   6.634  0.6913 -0.5878 -2.5107
 5664SOL    HW228629   0.668   1.553   6.737 -2.0049 -2.2940  0.9822
 5665SOL     OW28630   2.625   4.467  16.385  0.1822  0.0687 -0.2872
 5665SOL    HW128631   2.609   4.433  16.296  3.2717 -1.2469 -0.3475
 5665SOL    HW228632   2.641   4.557  16.358  1.7204  0.4262  1.8461
 5666SOL     OW28633   1.572   1.598  11.440  0.3245 -0.0825  0.2969
 5666SOL    HW128634   1.622   1.568  11.365  1.8942 -1.1989  1.7790
 5666SOL    HW228635   1.627   1.565  11.511  0.1895 -1.6293 -0.3181
 5667SOL     OW28636   0.732   3.040   4.780  0.2297 -0.6208 -0.1741
 5667SOL    HW128637   0.809   3.001   4.823  0.4029 -0.3509 -0.2373
 5667SOL    HW228638   0.762   3.053   4.690  0.0976  0.6910 -0.0240
 5668SOL     OW28639   0.579   2.713   5.443  0.4017 -0.7917 -0.2225
 5668SOL    HW128640   0.636   2.783   5.474 -0.2051  0.4025 -1.8400
 5668SOL    HW228641   0.618   2.701   5.357  1.3154  0.5034  0.0148
 5669SOL     OW28642   0.329   2.262   5.740  0.1867 -0.6039  0.3135
 5669SOL    HW128643   0.291   2.343   5.706 -0.8152  0.3188  3.5788
 5669SOL    HW228644   0.257   2.228   5.794 -0.1228 -0.2549  0.1188
 5670SOL     OW28645   1.507   1.359   2.154  0.6860  0.0157  0.2046
 5670SOL    HW128646   1.445   1.292   2.126 -1.4561  1.9904  0.2748
 5670SOL    HW228647   1.582   1.341   2.097 -0.3374 -2.4900 -0.3544
 5671SOL     OW28648   1.258   0.796   2.045 -0.0233 -0.5188  0.6945
 5671SOL    HW128649   1.302   0.757   1.969  1.0639  3.8580 -0.8832
 5671SOL    HW228650   1.181   0.829   1.999  1.5185  2.2984  0.1329
 5672SOL     OW28651   1.001   0.535   6.156 -0.2161 -0.4803  0.0306
 5672SOL    HW128652   0.969   0.483   6.083  0.5962  0.9889 -1.3750
 5672SOL    HW228653   1.074   0.484   6.191  0.6023  0.5084 -0.2344
 5673SOL     OW28654   0.111   2.666  14.728 -0.4964 -0.0061  0.0614
 5673SOL    HW128655   0.146   2.751  14.700 -2.0272  0.4965 -0.3378
 5673SOL    HW228656   0.128   2.621  14.645  1.5789 -0.4258  0.7062
 5674SOL     OW28657   0.823   0.899   1.308  0.4468 -0.2633 -0.3948
 5674SOL    HW128658   0.735   0.874   1.281 -0.0717 -0.0283  1.0438
 5674SOL    HW228659   0.851   0.822   1.359  0.0358  0.0400  0.2877
 5675SOL     OW28660   0.092   0.288   3.532 -0.2524  0.1896  0.3294
 5675SOL    HW128661   0.007   0.309   3.493 -0.1342 -1.6855 -0.9523
 5675SOL    HW228662   0.120   0.374   3.563  3.4690 -0.1926 -1.8956
 5676SOL     OW28663   0.222   0.297  11.662 -0.3027  0.4862  0.4374
 5676SOL    HW128664   0.183   0.216  11.627  0.4052 -0.0453  0.8652
 5676SOL    HW228665   0.293   0.307  11.598  0.4876  0.7624  1.3712
 5677SOL     OW28666   3.310   3.396   7.686 -0.6502 -0.3589 -0.6704
 5677SOL    HW128667   3.262   3.478   7.690  3.8223  2.1913  0.7677
 5677SOL    HW228668   3.403   3.417   7.685 -0.6549 -0.2838 -0.0327
 5678SOL     OW28669   1.654   3.101   4.214  0.0113 -0.3041 -0.1895
 5678SOL    HW128670   1.613   3.129   4.296 -0.1090 -0.8122 -0.0770
 5678SOL    HW228671   1.583   3.050   4.177  1.1267 -2.9092  1.2451
 5679SOL     OW28672   0.800   0.539   7.867  0.6109 -0.0633  0.0822
 5679SOL    HW128673   0.846   0.598   7.808  1.0443 -0.1778  0.3093
 5679SOL    HW228674   0.712   0.577   7.864  0.4227 -0.5343 -0.4832
 5680SOL     OW28675   2.196   0.292  14.573 -0.4325  0.2921  0.3817
 5680SOL    HW128676   2.261   0.328  14.513  0.5856 -1.0488  0.6906
 5680SOL    HW228677   2.150   0.221  14.528  1.6276  0.8537 -2.6420
 5681SOL     OW28678   2.463   0.586   5.424 -0.6344  0.1954  0.7660
 5681SOL    HW128679   2.395   0.525   5.452 -1.5537  1.1470  0.6132
 5681SOL    HW228680   2.479   0.642   5.500 -1.0242  1.7341 -0.2974
 5682SOL     OW28681   3.482   1.364   7.031  0.1233 -0.2124  0.0419
 5682SOL    HW128682   3.441   1.438   6.987  2.1284  0.4989 -0.6301
 5682SOL    HW228683   3.496   1.302   6.960 -1.5165 -0.4303 -0.1023
 5683SOL     OW28684   3.719   2.892   7.892 -0.2173  0.1271  0.2289
 5683SOL    HW128685   3.688   2.802   7.903 -0.4222  0.0675 -0.7850
 5683SOL    HW228686   3.706   2.931   7.978 -0.2805  1.5028 -0.4005
 5684SOL     OW28687   2.069   0.471   4.908 -0.4011 -0.4836  0.4077
 5684SOL    HW128688   2.148   0.480   4.960  0.4419  2.4633 -1.3783
 5684SOL    HW228689   2.042   0.561   4.889 -0.3519 -0.4477  0.5129
 5685SOL     OW28690   0.694   4.479   1.183  0.0677 -0.4880 -0.7065
 5685SOL    HW128691   0.762   4.511   1.243 -1.9706  1.0963  0.7857
 5685SOL    HW228692   0.741   4.453   1.104 -0.3520 -0.0105 -1.1119
 5686SOL     OW28693   2.680   2.280   3.427 -0.1610 -0.4119  0.1713
 5686SOL    HW128694   2.649   2.222   3.357 -1.3953 -1.1046  1.2950
 5686SOL    HW228695   2.773   2.262   3.413 -0.7347 -0.0048 -4.1703
 5687SOL     OW28696   1.610   4.620   8.907  0.4824  0.1231  0.0902
 5687SOL    HW128697   1.641   4.677   8.836  1.9708 -0.1883  0.4933
 5687SOL    HW228698   1.693   4.596   8.950  0.3169 -3.3187 -1.5428
 5688SOL     OW28699   4.392   3.943   3.798  0.1970 -0.3692  0.0847
 5688SOL    HW128700   4.400   4.037   3.814 -2.3330 -0.6642  3.0204
 5688SOL    HW228701   4.486   3.929   3.786  0.1726 -1.0697  0.7099
 5689SOL     OW28702   4.405   1.119   3.782 -0.0001 -0.5817  0.0403
 5689SOL    HW128703   4.480   1.147   3.834  0.6652 -0.7056 -0.8649
 5689SOL    HW228704   4.419   1.025   3.794  1.6750 -0.4604 -1.1164
 5690SOL     OW28705   1.280   4.030   2.675 -0.6561 -0.4538 -0.5430
 5690SOL    HW128706   1.299   4.032   2.769 -0.2335  3.7565 -0.6756
 5690SOL    HW228707   1.360   4.057   2.630 -0.3629  1.6867  1.2186
 5691SOL     OW28708   0.723   3.136   6.947  0.1118 -0.3925 -0.5940
 5691SOL    HW128709   0.746   3.214   6.897  0.7211  0.3347  0.7952
 5691SOL    HW228710   0.768   3.064   6.903  0.8359 -0.5716  0.4152
 5692SOL     OW28711   1.893   2.704  16.777 -0.0895 -0.3478  0.0964
 5692SOL    HW128712   1.826   2.703  16.709 -2.4487 -1.9540  2.4337
 5692SOL    HW228713   1.939   2.627  16.744  3.3708  1.1561  1.4136
 5693SOL     OW28714   4.180   3.955   5.754  0.0674  0.0585  0.8049
 5693SOL    HW128715   4.084   3.960   5.757  0.0100 -1.0395  0.5303
 5693SOL    HW228716   4.198   4.028   5.695  3.0039  0.1666  1.8434
 5694SOL     OW28717   0.143   2.143   8.961  0.0369  0.3106 -0.0864
 5694SOL    HW128718   0.102   2.083   8.899  0.6697  1.2736 -1.4387
 5694SOL    HW228719   0.142   2.227   8.915 -2.5923 -1.5740 -3.4708
 5695SOL     OW28720   2.416   1.919   1.572 -0.3273  0.0357  0.3527
 5695SOL    HW128721   2.409   1.957   1.485  0.2238 -0.1677  0.2206
 5695SOL    HW228722   2.472   1.982   1.619  2.3110 -1.2087 -1.1282
 5696SOL     OW28723   2.803   4.088  14.195  0.3778 -0.1025  0.0119
 5696SOL    HW128724   2.802   4.103  14.100  4.6264 -0.0556 -0.0011
 5696SOL    HW228725   2.846   4.002  14.196  0.0536 -0.2616  0.2306
 5697SOL     OW28726   3.748   3.668   6.746  0.4086  0.0464  0.4455
 5697SOL    HW128727   3.717   3.751   6.782  3.6522  1.5454 -0.2505
 5697SOL    HW228728   3.736   3.616   6.825  2.3018 -0.5825  0.3121
 5698SOL     OW28729   1.690   4.432   2.429  0.0006  0.6313  0.6258
 5698SOL    HW128730   1.773   4.394   2.460 -0.1230 -0.6285 -0.5996
 5698SOL    HW228731   1.720   4.518   2.400  0.4155 -0.1314 -1.1543
 5699SOL     OW28732   1.195   1.820  12.435  0.1115  0.5442 -0.1990
 5699SOL    HW128733   1.284   1.849  12.414  1.4450 -4.7920 -1.8653
 5699SOL    HW228734   1.145   1.902  12.434 -0.4769  0.2093  1.5480
 5700SOL     OW28735   2.688   2.030   6.905 -0.2131  0.7286  0.2148
 5700SOL    HW128736   2.617   2.084   6.940  1.7196  4.4686 -1.6747
 5700SOL    HW228737   2.762   2.090   6.904  1.6564 -1.5873 -0.1319
 5701SOL     OW28738   1.984   0.614   7.602  0.1243  0.6069  0.4986
 5701SOL    HW128739   2.073   0.601   7.568  0.1889  0.7928  0.5934
 5701SOL    HW228740   2.001   0.678   7.672 -0.2555  2.0681 -0.7481
 5702SOL     OW28741   3.693   0.053   3.408  0.0588 -0.4312 -0.2883
 5702SOL    HW128742   3.778   0.009   3.413 -1.6838 -3.5852  1.4865
 5702SOL    HW228743   3.686   0.064   3.313  0.9158 -1.5945 -0.4910
 5703SOL     OW28744   2.188   2.394  14.910 -0.2273  0.2715  0.6679
 5703SOL    HW128745   2.171   2.349  14.827  1.0870  1.5442 -0.3040
 5703SOL    HW228746   2.213   2.480  14.875 -1.9797  0.5899  0.1848
 5704SOL     OW28747   4.583   1.627   7.501  0.0030 -0.6564  0.2625
 5704SOL    HW128748   4.537   1.696   7.454 -3.4114 -1.0772  3.0096
 5704SOL    HW228749   4.600   1.666   7.587  1.7317 -0.3551 -0.2269
 5705SOL     OW28750   3.564   3.391   9.831  0.5099  0.3682 -0.4526
 5705SOL    HW128751   3.563   3.456   9.761 -2.4338 -0.6707 -1.3834
 5705SOL    HW228752   3.654   3.411   9.856 -0.0103  1.6194  0.3603
 5706SOL     OW28753   2.157   2.963   0.309  0.1339 -0.3389 -0.6954
 5706SOL    HW128754   2.141   2.889   0.367 -2.6130  0.9801  0.2480
 5706SOL    HW228755   2.069   2.976   0.274 -1.3900 -0.7217  3.0199
 5707SOL     OW28756   4.305   1.067  11.133  0.7833  0.0189  0.2032
 5707SOL    HW128757   4.261   0.982  11.128  0.2282  0.2785  0.6035
 5707SOL    HW228758   4.319   1.077  11.227  0.9865 -0.8246  0.2639
 5708SOL     OW28759   0.834   4.058   9.594  0.2146  0.8553  0.0364
 5708SOL    HW128760   0.913   4.101   9.628  0.2862  0.3271  0.5431
 5708SOL    HW228761   0.768   4.104   9.647 -1.3539 -0.7105 -0.5780
 5709SOL     OW28762   3.501   2.525   8.566 -0.2091  0.0366  0.0710
 5709SOL    HW128763   3.543   2.606   8.537  0.6078  0.0515  1.3219
 5709SOL    HW228764   3.438   2.558   8.630  2.2385 -1.7778  3.3603
 5710SOL     OW28765   0.355   4.095  10.291 -0.0233 -0.3225  1.0938
 5710SOL    HW128766   0.425   4.082  10.226 -1.3511 -1.4693 -0.1238
 5710SOL    HW228767   0.404   4.086  10.372 -2.6786 -1.1468  2.5975
 5711SOL     OW28768   3.195   2.028   9.097 -0.4828 -0.1231  0.1508
 5711SOL    HW128769   3.164   2.106   9.050  0.4011  0.1168 -0.0325
 5711SOL    HW228770   3.216   2.078   9.175 -0.7258 -1.0278  0.7908
 5712SOL     OW28771   1.333   4.360   5.516  0.0347 -0.2141 -0.2643
 5712SOL    HW128772   1.266   4.427   5.497 -0.0757  0.0454  1.0234
 5712SOL    HW228773   1.284   4.284   5.546  2.8432 -1.4433  1.1159
 5713SOL     OW28774   3.077   4.272   8.600 -0.1950  0.2934 -0.2309
 5713SOL    HW128775   3.155   4.328   8.606  0.9627 -1.5340  1.6321
 5713SOL    HW228776   3.011   4.329   8.640 -0.7112  0.8614 -1.9120
 5714SOL     OW28777   1.619   1.808  12.906  0.2234 -0.5731 -0.3328
 5714SOL    HW128778   1.679   1.774  12.839  0.8295 -1.0035  0.4417
 5714SOL    HW228779   1.551   1.851  12.854 -0.7529 -0.6681  0.8776
 5715SOL     OW28780   3.505   0.671  16.212 -0.5682 -0.4079  0.1885
 5715SOL    HW128781   3.431   0.640  16.265 -0.4856 -1.8153 -0.5178
 5715SOL    HW228782   3.561   0.594  16.203 -0.9960 -0.6351 -0.5154
 5716SOL     OW28783   4.603   3.365   3.835  0.3355 -0.0302 -0.2817
 5716SOL    HW128784   4.517   3.332   3.810  0.1137 -0.5550  1.1361
 5716SOL    HW228785   4.651   3.309   3.774 -0.7189 -0.2173 -0.9376
 5717SOL     OW28786   2.099   4.037   2.168  0.4967 -0.6590  0.0668
 5717SOL    HW128787   2.140   3.952   2.184 -1.4351 -1.6022  0.0894
 5717SOL    HW228788   2.115   4.051   2.075  0.2113  2.9260  0.5906
 5718SOL     OW28789   1.999   1.299   0.469 -0.2859 -0.2164  0.0360
 5718SOL    HW128790   2.054   1.289   0.391  1.7330 -1.8138  1.6914
 5718SOL    HW228791   1.981   1.393   0.477  0.8066  0.1251 -1.4730
 5719SOL     OW28792   2.173   3.761  13.713 -0.6975  0.1924 -0.0243
 5719SOL    HW128793   2.241   3.810  13.667 -0.2791 -0.5379 -0.1909
 5719SOL    HW228794   2.119   3.725  13.643  1.3507 -0.2817 -1.3657
 5720SOL     OW28795   4.400   1.187   3.300 -0.1652  0.0816  0.8004
 5720SOL    HW128796   4.317   1.228   3.322 -0.7612 -1.1877  0.8556
 5720SOL    HW228797   4.391   1.098   3.332  1.6679 -0.1408  0.6989
 5721SOL     OW28798   1.207   4.230   2.134  0.2651 -0.2190  0.1444
 5721SOL    HW128799   1.257   4.269   2.205 -1.7185  2.1170  0.2299
 5721SOL    HW228800   1.183   4.159   2.193  0.6801 -0.2143  0.3228
 5722SOL     OW28801   1.840   0.238   7.048 -0.1620 -0.0341  0.5005
 5722SOL    HW128802   1.883   0.237   7.133 -1.1495 -2.8251  0.9496
 5722SOL    HW228803   1.816   0.329   7.031  1.1975  0.1240 -0.6505
 5723SOL     OW28804   0.775   0.662   8.327  0.1247 -0.2429 -0.3566
 5723SOL    HW128805   0.755   0.646   8.420  1.8207 -1.5527 -0.2072
 5723SOL    HW228806   0.720   0.737   8.307  1.3262 -0.0496 -2.8791
 5724SOL     OW28807   0.086   2.533   9.292 -0.0752  0.2414 -0.1140
 5724SOL    HW128808   0.076   2.439   9.277 -1.5496  0.3590  0.1300
 5724SOL    HW228809   0.131   2.554   9.210 -0.1787 -0.0264 -0.2383
 5725SOL     OW28810   2.413   2.070   8.891  0.0188 -0.3987  0.0340
 5725SOL    HW128811   2.346   2.028   8.837 -0.0996  0.4934 -0.5042
 5725SOL    HW228812   2.497   2.038   8.856  0.1672  0.6568 -0.5722
 5726SOL     OW28813   3.211   4.064   6.747  0.5765 -0.3837  0.2888
 5726SOL    HW128814   3.222   4.124   6.673 -1.0011  0.3927  0.6716
 5726SOL    HW228815   3.215   3.980   6.701 -1.5885 -1.2210  1.6119
 5727SOL     OW28816   1.624   4.039  15.529  0.1625  0.4221  0.1636
 5727SOL    HW128817   1.677   4.101  15.478 -2.2684  3.1946  1.0195
 5727SOL    HW228818   1.569   4.017  15.453  0.3361  1.6466 -0.3233
 5728SOL     OW28819   4.678   3.508  12.187  0.8498  0.1777 -0.3697
 5728SOL    HW128820   4.600   3.456  12.210  1.1148 -0.0872 -0.0661
 5728SOL    HW228821   0.008   3.438  12.189 -1.8516 -2.3730 -0.4363
 5729SOL     OW28822   2.564   3.250  15.775  0.1486 -0.1380 -0.0263
 5729SOL    HW128823   2.478   3.269  15.737  0.5459  0.1350 -0.7916
 5729SOL    HW228824   2.544   3.185  15.842 -0.2337 -0.2834 -0.2778
 5730SOL     OW28825   0.041   4.423  15.173 -0.1236 -0.1998  0.2289
 5730SOL    HW128826   0.130   4.429  15.138  0.5642 -2.0818  1.6031
 5730SOL    HW228827   0.039   4.504  15.225  0.3861 -0.9493  1.4294
 5731SOL     OW28828   4.144   1.946   3.519  0.2545 -0.8609 -0.0691
 5731SOL    HW128829   4.103   2.031   3.527  0.5584 -0.5968 -1.2555
 5731SOL    HW228830   4.208   1.969   3.451  1.0464 -1.9584  0.3004
 5732SOL     OW28831   2.453   1.448   8.386  0.3408  0.3167  0.6317
 5732SOL    HW128832   2.498   1.496   8.317  1.0408 -0.9269  0.2349
 5732SOL    HW228833   2.512   1.449   8.461  1.4698  0.1566 -0.2695
 5733SOL     OW28834   2.365   1.197   8.323  0.3195 -0.3912 -0.8044
 5733SOL    HW128835   2.366   1.287   8.355 -0.4218 -0.4565 -0.5872
 5733SOL    HW228836   2.402   1.216   8.236 -2.2086 -1.6278 -2.1771
 5734SOL     OW28837   2.012   0.230   2.030 -0.0960 -0.2606  0.4331
 5734SOL    HW128838   2.034   0.323   2.035  1.0405 -0.4894 -0.2568
 5734SOL    HW228839   1.998   0.224   1.935 -1.4158 -1.2346  0.6886
 5735SOL     OW28840   1.155   2.197   8.780  0.1959 -0.1431  0.3157
 5735SOL    HW128841   1.189   2.114   8.746 -1.3028 -0.9412  0.7430
 5735SOL    HW228842   1.157   2.251   8.701  2.1399 -0.0046  0.4491
 5736SOL     OW28843   2.783   3.421  12.889  0.2051  0.3749  0.1303
 5736SOL    HW128844   2.745   3.496  12.934 -1.2302 -0.1352 -0.2457
 5736SOL    HW228845   2.731   3.415  12.809 -1.2223 -1.7468  1.2296
 5737SOL     OW28846   1.786   0.258   8.801 -0.1703  0.1580  0.3075
 5737SOL    HW128847   1.755   0.172   8.772  0.7974 -0.4833  1.1860
 5737SOL    HW228848   1.795   0.234   8.893 -1.2813 -1.9785 -0.1269
 5738SOL     OW28849   4.728   1.986   8.812  0.1868 -0.6268  0.0074
 5738SOL    HW128850   4.645   1.943   8.835 -0.1562 -1.0580 -2.0514
 5738SOL    HW228851   4.733   1.961   8.720 -0.3475  0.3608 -0.2850
 5739SOL     OW28852   2.226   2.669   1.795  0.4631  0.3640 -0.5640
 5739SOL    HW128853   2.161   2.642   1.859  0.8335  1.8048  0.4155
 5739SOL    HW228854   2.289   2.597   1.782  1.0377  0.6262  0.7976
 5740SOL     OW28855   2.002   2.637   6.342 -0.5783 -0.1066  0.0427
 5740SOL    HW128856   1.927   2.679   6.384 -0.3634 -0.5754  0.8971
 5740SOL    HW228857   2.001   2.552   6.387 -1.1280  0.0701  0.3660
 5741SOL     OW28858   3.697   0.617   2.702 -0.5351  0.1533  0.2302
 5741SOL    HW128859   3.614   0.585   2.737 -0.7470 -0.2863 -0.6699
 5741SOL    HW228860   3.694   0.584   2.612  2.2506  2.1909 -0.6261
 5742SOL     OW28861   0.623   1.179   2.959 -0.0396 -0.0712  0.1710
 5742SOL    HW128862   0.688   1.248   2.945 -0.9270  0.9146  0.8898
 5742SOL    HW228863   0.592   1.197   3.048  3.1843  0.1604  1.2632
 5743SOL     OW28864   1.064   0.357   4.791  0.5763 -0.5296 -0.0641
 5743SOL    HW128865   1.092   0.313   4.711 -0.3414 -0.2038 -0.5529
 5743SOL    HW228866   1.007   0.431   4.770  1.3900  0.6808  1.9709
 5744SOL     OW28867   2.553   1.479  12.840 -0.4670  0.2919 -0.0491
 5744SOL    HW128868   2.564   1.536  12.763  0.2100 -0.0260 -0.1808
 5744SOL    HW228869   2.536   1.538  12.913 -0.7390 -0.6245  0.6231
 5745SOL     OW28870   4.297   2.001   1.594 -0.6455 -0.3514 -0.3897
 5745SOL    HW128871   4.348   2.005   1.675 -4.2921 -0.2085  1.9074
 5745SOL    HW228872   4.283   2.094   1.577 -1.8400 -0.1687  1.6344
 5746SOL     OW28873   4.126   2.887  17.566 -0.0108 -0.5197  0.0244
 5746SOL    HW128874   4.148   2.809  17.515 -2.5555 -0.8055 -0.6625
 5746SOL    HW228875   4.049   2.918  17.518  0.9039  2.0464  0.2106
 5747SOL     OW28876   3.783   2.185   8.916  0.5363 -0.2478  0.4696
 5747SOL    HW128877   3.815   2.209   8.829 -0.1263  0.6893  0.4804
 5747SOL    HW228878   3.688   2.187   8.905  0.8759  1.1035 -2.3062
 5748SOL     OW28879   4.692   3.336  14.625  0.1221  0.1775 -0.0724
 5748SOL    HW128880   4.668   3.398  14.556  3.1833  3.4236  1.7978
 5748SOL    HW228881   4.702   3.392  14.702 -0.5851 -0.6486  0.6188
 5749SOL     OW28882   2.583   4.396  13.624  0.1640  0.3715  0.1188
 5749SOL    HW128883   2.515   4.333  13.602  1.0587  0.1771 -2.1855
 5749SOL    HW228884   2.555   4.482  13.591 -1.0136 -0.8215 -1.9999
 5750SOL     OW28885   2.190   0.286   4.165 -0.2485 -0.1088 -0.0972
 5750SOL    HW128886   2.109   0.322   4.129 -1.3786 -2.0649  0.4848
 5750SOL    HW228887   2.218   0.367   4.207 -0.0791 -0.5383  0.6280
 5751SOL     OW28888   0.259   0.677   2.210 -0.4376 -0.2779 -0.1885
 5751SOL    HW128889   0.275   0.627   2.289 -1.1786  0.7876  0.6297
 5751SOL    HW228890   0.205   0.614   2.161  1.1601 -0.9926 -1.0619
 5752SOL     OW28891   2.037   4.051   7.925 -0.2200 -0.6105 -0.1727
 5752SOL    HW128892   2.037   4.013   7.837  3.4072  1.2471 -0.9672
 5752SOL    HW228893   2.129   4.035   7.948  0.3782  1.2478 -1.2524
 5753SOL     OW28894   2.182   1.830   1.352  0.3223 -0.2886  0.1654
 5753SOL    HW128895   2.154   1.921   1.353  1.4584  0.0574  0.7769
 5753SOL    HW228896   2.227   1.811   1.270 -1.7037  0.6861 -1.1708
 5754SOL     OW28897   3.499   1.345  10.702 -0.3997  0.1579  0.1172
 5754SOL    HW128898   3.580   1.357  10.752 -0.6415  0.1125  0.5116
 5754SOL    HW228899   3.498   1.422  10.645 -0.7114 -0.0135 -0.1106
 5755SOL     OW28900   2.635   2.477  15.249 -0.3370 -0.4452 -0.0247
 5755SOL    HW128901   2.589   2.422  15.312  0.2706  0.2382  1.0115
 5755SOL    HW228902   2.728   2.470  15.270 -0.1075  0.5994 -0.6961
 5756SOL     OW28903   4.367   1.985  16.704  0.2869  0.3034 -0.3688
 5756SOL    HW128904   4.401   2.052  16.645  1.7579 -1.7025 -1.7806
 5756SOL    HW228905   4.441   1.969  16.762  0.9261  1.2615 -0.9207
 5757SOL     OW28906   2.039   2.812   4.703  0.8587 -0.1209 -0.3244
 5757SOL    HW128907   1.997   2.745   4.757 -0.5037 -0.2671 -1.5520
 5757SOL    HW228908   2.115   2.828   4.759  0.6072 -2.1576  0.5902
 5758SOL     OW28909   3.640   0.804  11.539 -0.0675  0.7239  0.1125
 5758SOL    HW128910   3.725   0.841  11.564  0.6743 -1.0942  0.2779
 5758SOL    HW228911   3.641   0.788  11.445  0.6773  1.7291 -0.0583
 5759SOL     OW28912   1.082   0.634   7.485  0.1013 -0.3381  0.7315
 5759SOL    HW128913   1.131   0.661   7.563  0.0431 -1.1141  1.0367
 5759SOL    HW228914   1.077   0.714   7.432 -0.6517  0.1974  1.6046
 5760SOL     OW28915   3.557   0.667   7.469  0.4455  0.2765  0.4478
 5760SOL    HW128916   3.619   0.645   7.399 -3.8828  1.5047 -3.7225
 5760SOL    HW228917   3.552   0.763   7.465 -0.6433  0.1483 -1.2789
 5761SOL     OW28918   2.340   2.019   2.670 -0.7102 -0.0119 -0.5551
 5761SOL    HW128919   2.350   2.011   2.765 -2.8692  1.8397 -0.1745
 5761SOL    HW228920   2.260   1.968   2.654 -0.1031 -1.1380  0.0471
 5762SOL     OW28921   0.915   2.239   8.856  0.3366 -0.2379  0.2377
 5762SOL    HW128922   0.912   2.173   8.926 -1.0329  0.6444  1.0071
 5762SOL    HW228923   1.009   2.231   8.839  0.7554  1.8358  1.7030
 5763SOL     OW28924   0.440   1.673   4.897 -0.0041 -0.1595 -0.4252
 5763SOL    HW128925   0.427   1.740   4.830 -3.6710 -2.5921 -2.1063
 5763SOL    HW228926   0.473   1.601   4.842 -1.9008 -1.9850  0.8651
 5764SOL     OW28927   0.795   0.878   7.165  0.3115 -0.0565  0.0223
 5764SOL    HW128928   0.891   0.886   7.160  0.3148  0.0879  0.2965
 5764SOL    HW228929   0.794   0.837   7.252 -3.0670 -1.7876 -0.8397
 5765SOL     OW28930   3.908   0.376   2.460  0.1189 -0.0426  0.1756
 5765SOL    HW128931   3.853   0.455   2.456  1.2070  0.6133 -2.0009
 5765SOL    HW228932   3.979   0.398   2.399  0.1145  1.0526  0.5605
 5766SOL     OW28933   4.733   4.049   4.068 -0.7183 -0.3927  0.5374
 5766SOL    HW128934   0.076   4.102   4.088 -1.4618  0.7554  0.3966
 5766SOL    HW228935   4.707   4.094   3.988  1.3461  0.7284  0.4770
 5767SOL     OW28936   2.801   2.060   8.493  0.0845 -0.2958  0.5113
 5767SOL    HW128937   2.822   2.093   8.581 -2.0183  0.0625  0.8585
 5767SOL    HW228938   2.889   2.064   8.455 -0.4482 -0.3619 -0.7378
 5768SOL     OW28939   3.093   0.182   9.215  0.8414 -0.4881  0.0595
 5768SOL    HW128940   3.033   0.108   9.200  0.9221 -0.3259 -1.1223
 5768SOL    HW228941   3.037   0.260   9.210  0.0050 -1.0842  0.0917
 5769SOL     OW28942   0.117   2.414  14.818 -0.3467 -0.2216 -0.0570
 5769SOL    HW128943   0.181   2.398  14.887 -0.0825  0.2809 -0.1824
 5769SOL    HW228944   0.118   2.509  14.805 -1.6605 -0.3868 -1.3660
 5770SOL     OW28945   2.114   4.113   5.449 -0.2475 -0.2513 -0.3416
 5770SOL    HW128946   2.201   4.083   5.423 -1.3025 -1.0955 -2.8345
 5770SOL    HW228947   2.070   4.064   5.380 -1.2410 -0.2618  0.2956
 5771SOL     OW28948   0.094   2.896   2.805  0.3842  0.3419  0.9949
 5771SOL    HW128949   0.040   2.902   2.883 -1.0788  3.1901 -0.2278
 5771SOL    HW228950   0.088   2.983   2.765 -1.8684 -1.3477 -2.2973
 5772SOL     OW28951   2.376   1.167  12.545  0.0584 -0.1111  0.0234
 5772SOL    HW128952   2.402   1.102  12.610 -2.5793 -1.2299 -0.0393
 5772SOL    HW228953   2.458   1.162  12.495  0.3569 -0.4212  0.5390
 5773SOL     OW28954   3.696   3.182  16.853  0.2224 -0.7284 -0.3115
 5773SOL    HW128955   3.664   3.250  16.912 -0.8922 -0.3718 -1.3150
 5773SOL    HW228956   3.612   3.156  16.815 -0.5232  1.3362 -0.0730
 5774SOL     OW28957   0.756   0.740   9.180 -0.0846  0.0050 -0.3274
 5774SOL    HW128958   0.675   0.713   9.224  0.6647  1.1425  1.7693
 5774SOL    HW228959   0.810   0.782   9.247 -0.2420  0.1747 -0.3097
 5775SOL     OW28960   1.022   2.679   6.591  0.2450 -0.2636  0.1643
 5775SOL    HW128961   0.932   2.664   6.618 -0.6183  0.4282 -2.3042
 5775SOL    HW228962   1.036   2.610   6.527 -0.3667 -1.3592  1.2293
 5776SOL     OW28963   1.569   4.585   5.280  0.5185  0.1305 -0.0713
 5776SOL    HW128964   1.474   4.596   5.277  0.6101  0.4843 -1.4345
 5776SOL    HW228965   1.581   4.490   5.276  0.4157  0.0631  1.2015
 5777SOL     OW28966   3.634   1.986  16.025  0.3025  0.1033  0.1486
 5777SOL    HW128967   3.547   2.023  16.008  0.5637  0.9886  0.7446
 5777SOL    HW228968   3.692   2.060  16.042 -0.7892  1.3580 -1.5411
 5778SOL     OW28969   1.579   0.985   2.259 -1.4375 -0.4103 -0.5452
 5778SOL    HW128970   1.606   0.997   2.168 -1.0536  1.9891 -0.1155
 5778SOL    HW228971   1.545   0.896   2.250  0.1775 -0.8659 -2.3698
 5779SOL     OW28972   3.053   3.379   6.509  0.5233  0.1803 -0.2489
 5779SOL    HW128973   3.120   3.359   6.575  1.5892 -1.2956 -1.7858
 5779SOL    HW228974   3.082   3.324   6.436 -1.0195 -0.9621 -0.0032
 5780SOL     OW28975   0.604   4.189   2.961  0.6484  0.0734 -0.2604
 5780SOL    HW128976   0.690   4.217   2.993  0.7555 -0.5039 -0.0443
 5780SOL    HW228977   0.619   4.095   2.974  2.1861  0.0191 -2.2815
 5781SOL     OW28978   1.644   4.656   8.152  0.0936  0.0295 -0.1039
 5781SOL    HW128979   1.585   4.727   8.175  1.6638  1.4854 -0.6108
 5781SOL    HW228980   1.697   4.675   8.230 -2.2169 -0.3051  1.5503
 5782SOL     OW28981   1.851   4.171   1.957  0.0869 -0.2860  0.6321
 5782SOL    HW128982   1.896   4.108   1.901  0.6211 -2.1585  3.1765
 5782SOL    HW228983   1.760   4.167   1.926 -0.3702  0.8460  1.8433
 5783SOL     OW28984   3.818   2.140   4.949  0.3730  0.0525  0.3037
 5783SOL    HW128985   3.770   2.073   4.901  0.8182 -1.7842  2.4020
 5783SOL    HW228986   3.804   2.119   5.042  0.8647  2.1077  0.8306
 5784SOL     OW28987   3.187   2.582   2.471  0.3230 -0.3149  0.4616
 5784SOL    HW128988   3.124   2.639   2.427 -1.3286 -0.2642  2.8527
 5784SOL    HW228989   3.220   2.635   2.543  1.8030 -0.5443 -0.0661
 5785SOL     OW28990   4.422   2.926   5.334  0.4514 -0.4508  0.0439
 5785SOL    HW128991   4.368   2.926   5.256  1.1010 -1.3656 -0.4037
 5785SOL    HW228992   4.381   2.861   5.391  1.6515 -1.0247  0.2638
 5786SOL     OW28993   0.704   3.930   4.839  0.2062 -0.2123  0.3588
 5786SOL    HW128994   0.781   3.924   4.897  0.6809  0.3470 -0.2037
 5786SOL    HW228995   0.690   3.842   4.805  1.3516 -0.2711  0.0360
 5787SOL     OW28996   0.421   0.970  15.711 -0.0441  0.6232  0.1112
 5787SOL    HW128997   0.337   1.011  15.691  1.1174  1.6964 -2.5412
 5787SOL    HW228998   0.415   0.937  15.801 -2.0734  1.4176  0.2724
 5788SOL     OW28999   3.408   0.233  12.684 -0.1465 -0.4421 -0.5926
 5788SOL    HW129000   3.442   0.314  12.647 -1.4076 -0.1281 -1.0745
 5788SOL    HW229001   3.394   0.258  12.776  1.1026 -2.6863  0.2043
 5789SOL     OW29002   1.421   0.598   5.815  0.0179 -0.1589  0.0704
 5789SOL    HW129003   1.428   0.633   5.726  0.2077  2.5541  1.1394
 5789SOL    HW229004   1.351   0.534   5.803 -2.7255  2.7306  0.6758
 5790SOL     OW29005   4.101   1.301   8.453  0.4853 -0.0240 -0.7369
 5790SOL    HW129006   4.069   1.345   8.532  0.6858 -2.8832  0.9471
 5790SOL    HW229007   4.196   1.298   8.463  0.4087 -5.4479 -1.6120
 5791SOL     OW29008   3.033   3.955   7.888  0.4263  0.3076  0.3284
 5791SOL    HW129009   3.068   4.044   7.889  0.9752  0.0850  0.9978
 5791SOL    HW229010   2.940   3.972   7.905  0.1396  1.6285 -2.6513
 5792SOL     OW29011   4.424   4.399   7.224  0.3880  0.2298 -0.2205
 5792SOL    HW129012   4.336   4.400   7.261 -0.2073  0.5254 -1.6505
 5792SOL    HW229013   4.460   4.473   7.273  0.2881 -0.1380  0.4035
 5793SOL     OW29014   4.234   2.866  15.109  0.3562  0.4142  0.2374
 5793SOL    HW129015   4.145   2.851  15.077 -0.1562  0.1123  1.7982
 5793SOL    HW229016   4.285   2.863  15.028 -0.9491  1.4083 -0.6170
 5794SOL     OW29017   2.789   0.663   4.340 -0.1238  0.5266  0.2469
 5794SOL    HW129018   2.826   0.576   4.351  0.9686  0.6340 -2.5225
 5794SOL    HW229019   2.752   0.679   4.427  0.3704  1.3853  0.3034
 5795SOL     OW29020   0.808   0.475  10.441 -0.0207 -0.3281  0.4460
 5795SOL    HW129021   0.870   0.409  10.474 -0.6197 -1.5933 -0.9875
 5795SOL    HW229022   0.816   0.543  10.508 -0.1264  2.4052 -2.3607
 5796SOL     OW29023   4.383   0.591   4.531 -0.0138  0.0987  0.3996
 5796SOL    HW129024   4.420   0.665   4.483  0.3587  0.0018  0.5316
 5796SOL    HW229025   4.461   0.569   4.582  0.0549  0.3259  0.3939
 5797SOL     OW29026   1.131   3.366   5.350 -0.0843 -0.2692  0.3627
 5797SOL    HW129027   1.162   3.285   5.310 -2.3964 -1.0113  0.1229
 5797SOL    HW229028   1.198   3.424   5.313  0.2519 -1.3714 -0.7685
 5798SOL     OW29029   1.844   4.597   9.755  0.0477 -0.7901  0.1131
 5798SOL    HW129030   1.827   4.564   9.667 -1.5867 -0.6785  0.3975
 5798SOL    HW229031   1.927   4.555   9.778  0.2805 -0.3058  0.1788
 5799SOL     OW29032   3.885   1.857   4.008  0.2265 -0.3430  0.3848
 5799SOL    HW129033   3.847   1.885   4.091  1.2584 -0.2099  0.8101
 5799SOL    HW229034   3.932   1.778   4.036 -2.1169 -1.6465  0.6638
 5800SOL     OW29035   1.607   3.662   4.126  0.0937 -0.3394 -0.2650
 5800SOL    HW129036   1.602   3.757   4.116 -0.4569 -0.2335  1.0391
 5800SOL    HW229037   1.519   3.632   4.106  0.9479 -2.6819 -0.5544
 5801SOL     OW29038   1.423   4.128  12.722  0.2408 -0.4173 -0.2328
 5801SOL    HW129039   1.438   4.163  12.810 -0.4295 -0.1094 -0.2393
 5801SOL    HW229040   1.447   4.038  12.742 -2.0163 -0.9428  0.0388
 5802SOL     OW29041   0.260   3.884   5.339  0.2556  0.4369 -0.1222
 5802SOL    HW129042   0.278   3.975   5.315 -0.5897 -0.1596 -3.0324
 5802SOL    HW229043   0.180   3.895   5.391 -0.3328  1.7698 -1.3148
 5803SOL     OW29044   1.471   2.312  17.599 -0.1322  0.3400  0.3864
 5803SOL    HW129045   1.473   2.390  17.544 -2.1533 -0.4282 -0.7886
 5803SOL    HW229046   1.550   2.268  17.567  1.5836  2.9825  1.0558
 5804SOL     OW29047   0.879   2.587   4.440  0.3619 -0.0712  0.4323
 5804SOL    HW129048   0.940   2.561   4.508  1.8897  0.2096 -0.8122
 5804SOL    HW229049   0.874   2.497   4.408 -1.5143  0.0740  0.3536
 5805SOL     OW29050   4.070   0.886   7.492  0.1510 -0.5020  0.7210
 5805SOL    HW129051   4.008   0.909   7.562 -0.8747  2.7495 -1.2723
 5805SOL    HW229052   4.077   0.971   7.448  3.8318 -0.5681  1.1714
 5806SOL     OW29053   1.040   1.150   3.498 -0.3444  0.0766  0.1708
 5806SOL    HW129054   1.000   1.234   3.471  0.7620  0.5450  0.0098
 5806SOL    HW229055   1.082   1.133   3.414  0.5867 -0.2831  0.7190
 5807SOL     OW29056   3.140   2.894  16.291 -0.3239 -0.2101  0.1923
 5807SOL    HW129057   3.231   2.866  16.276  0.0601  0.9590  0.3355
 5807SOL    HW229058   3.139   2.976  16.241 -0.3089 -0.9631 -1.0291
 5808SOL     OW29059   0.789   3.721   5.630  0.2303  0.2228 -0.1570
 5808SOL    HW129060   0.798   3.689   5.719  1.4800  1.1528  0.0508
 5808SOL    HW229061   0.719   3.785   5.645 -1.5475 -1.6628 -0.3797
 5809SOL     OW29062   1.037   0.553   3.992  0.0546  0.3297  0.7146
 5809SOL    HW129063   0.991   0.622   4.040  2.0696  2.4450 -0.3467
 5809SOL    HW229064   1.075   0.609   3.924  0.2110 -0.6959 -0.0337
 5810SOL     OW29065   2.722   0.162   3.830  0.4588  0.3500 -0.3940
 5810SOL    HW129066   2.701   0.226   3.762 -1.5705 -0.2465 -0.3400
 5810SOL    HW229067   2.721   0.080   3.780 -0.2041 -0.1599  0.4522
 5811SOL     OW29068   1.990   0.049   7.478  0.1123 -0.6128 -0.6808
 5811SOL    HW129069   1.992   0.117   7.410  1.1185 -0.0102 -0.0567
 5811SOL    HW229070   2.030   0.097   7.551 -1.8891 -1.1108  0.7220
 5812SOL     OW29071   3.521   4.549   2.962  0.7816  1.3656  0.1419
 5812SOL    HW129072   3.556   4.631   2.995  2.4376  1.3348 -1.5375
 5812SOL    HW229073   3.521   4.566   2.868  1.0992 -0.8417 -0.2537
 5813SOL     OW29074   2.605   4.508   7.871 -0.0539 -0.2424 -0.5623
 5813SOL    HW129075   2.542   4.456   7.920  1.9375 -0.0864  2.1592
 5813SOL    HW229076   2.666   4.440   7.840 -0.1559 -0.4994 -0.1992
 5814SOL     OW29077   3.041   1.370   5.615  0.4115 -0.0587  0.2154
 5814SOL    HW129078   2.958   1.373   5.566  0.4565  0.4759  0.1710
 5814SOL    HW229079   3.101   1.393   5.543  1.4836  0.3284  1.2373
 5815SOL     OW29080   3.753   0.908   5.107 -0.0840  0.4327  0.0012
 5815SOL    HW129081   3.705   0.867   5.179  2.9819  0.0812  1.8247
 5815SOL    HW229082   3.739   0.839   5.042  2.9427 -0.0553 -0.1085
 5816SOL     OW29083   4.707   0.694   8.467 -0.6350 -0.2654 -0.3324
 5816SOL    HW129084   0.040   0.741   8.514  0.2808  0.7240 -2.6396
 5816SOL    HW229085   4.692   0.616   8.521  1.5874  0.1466  0.8742
 5817SOL     OW29086   0.271   2.288  12.854  0.3860 -0.6788 -0.6479
 5817SOL    HW129087   0.279   2.193  12.840 -1.3879 -0.7464 -1.1378
 5817SOL    HW229088   0.363   2.315  12.864 -0.2167  1.5434 -1.1561
 5818SOL     OW29089   1.493   3.337   3.300  0.1139  0.0377  0.2197
 5818SOL    HW129090   1.525   3.424   3.322  2.1761 -0.7178  0.1895
 5818SOL    HW229091   1.474   3.312   3.391 -0.4568 -0.6186 -0.0784
 5819SOL     OW29092   0.248   1.402   2.232  0.2698  0.1280  0.1341
 5819SOL    HW129093   0.330   1.355   2.243  0.4230 -0.2868 -2.6190
 5819SOL    HW229094   0.266   1.466   2.162 -1.1665  0.2903 -0.0837
 5820SOL     OW29095   4.178   4.352  10.314 -0.2067  0.1186 -0.1704
 5820SOL    HW129096   4.093   4.391  10.334 -0.9611 -1.3961 -0.4643
 5820SOL    HW229097   4.156   4.322  10.227 -0.0446  1.5493 -0.7028
 5821SOL     OW29098   2.963   2.278   2.734  0.0293 -0.1431 -0.9635
 5821SOL    HW129099   3.001   2.296   2.649 -1.8582  0.2865 -1.7290
 5821SOL    HW229100   3.022   2.218   2.780  1.3062  0.9443 -1.1906
 5822SOL     OW29101   4.330   1.582   3.308 -0.6144 -0.4801 -0.4131
 5822SOL    HW129102   4.344   1.616   3.396 -3.2019  0.0112 -0.1886
 5822SOL    HW229103   4.265   1.515   3.329 -0.4453 -0.0037  1.6256
 5823SOL     OW29104   2.803   1.686   9.251 -0.0573 -0.3146  0.1942
 5823SOL    HW129105   2.815   1.777   9.222  1.7800  0.2376  2.7211
 5823SOL    HW229106   2.808   1.639   9.168 -0.7309 -0.0124 -0.0241
 5824SOL     OW29107   4.000   2.131  16.496 -0.6973  0.1429 -0.1765
 5824SOL    HW129108   3.909   2.108  16.513 -0.2785 -2.3245 -1.2540
 5824SOL    HW229109   4.045   2.051  16.524  1.1072  0.4427 -2.3066
 5825SOL     OW29110   0.705   1.579   9.975  0.2917  0.2274 -0.9605
 5825SOL    HW129111   0.737   1.590   9.885 -2.2426  1.2603 -1.7162
 5825SOL    HW229112   0.623   1.533   9.963  0.9585 -1.1630 -0.2301
 5826SOL     OW29113   2.410   4.570   5.198 -0.1173  0.0507 -0.1233
 5826SOL    HW129114   2.376   4.541   5.282  0.2271 -1.0856 -0.3776
 5826SOL    HW229115   2.483   4.624   5.225 -0.6040 -0.5826  2.4566
 5827SOL     OW29116   0.771   0.544  11.321 -0.3035 -0.2182  0.2076
 5827SOL    HW129117   0.697   0.575  11.269 -0.3784  1.7522  1.5117
 5827SOL    HW229118   0.787   0.620  11.376  4.7259 -1.2611  0.1975
 5828SOL     OW29119   3.492   1.507   7.267 -0.1989 -0.1824 -0.0489
 5828SOL    HW129120   3.517   1.450   7.340 -0.3717 -1.2532 -0.8146
 5828SOL    HW229121   3.487   1.451   7.189 -1.0173  0.0337 -0.1477
 5829SOL     OW29122   1.522   4.204   8.523 -0.3115  0.1914 -0.0278
 5829SOL    HW129123   1.511   4.267   8.452 -1.0162  1.1801  0.9633
 5829SOL    HW229124   1.554   4.268   8.587 -0.0551 -0.1126  0.1504
 5830SOL     OW29125   1.783   3.054   7.638 -0.9043  0.6667 -0.7921
 5830SOL    HW129126   1.691   3.042   7.661 -0.8214  0.9483 -0.3134
 5830SOL    HW229127   1.776   3.075   7.545 -0.5102  3.6123 -0.1539
 5831SOL     OW29128   3.959   2.367  16.044  0.6002 -0.2193 -0.2820
 5831SOL    HW129129   3.949   2.421  15.965  1.5839  0.1919 -0.1258
 5831SOL    HW229130   4.041   2.320  16.027  0.0571 -0.4656 -2.2046
 5832SOL     OW29131   0.208   4.576  17.572  0.0277 -0.5550 -0.1070
 5832SOL    HW129132   0.202   4.496  17.624 -0.3562  1.5226  3.0713
 5832SOL    HW229133   0.256   4.540  17.497  0.1422 -0.6785  0.0252
 5833SOL     OW29134   1.419   4.485  14.550 -0.3894  0.0870 -0.1649
 5833SOL    HW129135   1.497   4.437  14.521 -0.2082 -0.9049  1.9458
 5833SOL    HW229136   1.365   4.409  14.571  1.9760 -1.2766  1.0684
 5834SOL     OW29137   4.067   1.812   4.634  0.1770  0.4048 -0.0002
 5834SOL    HW129138   4.154   1.844   4.609  1.3007 -2.1079  0.7419
 5834SOL    HW229139   4.017   1.891   4.610 -0.1245  0.3096  0.3130
 5835SOL     OW29140   2.448   2.495   3.780 -0.0607  0.0298  0.2023
 5835SOL    HW129141   2.543   2.491   3.767  0.0038  0.0117  0.7102
 5835SOL    HW229142   2.404   2.472   3.698 -0.5054 -1.2844  0.8083
 5836SOL     OW29143   3.073   4.318  15.929 -0.0486  0.4336  0.4451
 5836SOL    HW129144   3.166   4.334  15.949 -0.1721 -0.1914  1.4852
 5836SOL    HW229145   3.057   4.388  15.865 -1.3831 -0.0452  0.2594
 5837SOL     OW29146   4.682   0.862   7.174 -0.3216 -0.7405  0.1365
 5837SOL    HW129147   4.611   0.898   7.120 -0.7284  0.3991  1.4364
 5837SOL    HW229148   0.020   0.918   7.148 -0.6670  0.3485  1.5050
 5838SOL     OW29149   1.187   4.730   3.132  0.2632 -0.0233  0.5362
 5838SOL    HW129150   1.133   4.676   3.075  1.1660 -0.2065 -0.1439
 5838SOL    HW229151   1.169   4.687   3.216  0.4488  0.7722  0.9909
 5839SOL     OW29152   3.678   4.119   3.948 -0.0739 -0.6726 -0.0154
 5839SOL    HW129153   3.646   4.042   3.995 -2.8662  0.9302  0.7880
 5839SOL    HW229154   3.625   4.117   3.868 -0.7455 -0.3817  0.4114
 5840SOL     OW29155   1.626   3.581   8.991  0.0395  0.3717 -0.3043
 5840SOL    HW129156   1.546   3.623   8.960 -0.9137 -0.4150  1.0682
 5840SOL    HW229157   1.634   3.504   8.935 -0.3172 -0.7344  1.1614
 5841SOL     OW29158   4.356   3.701   7.717 -0.8630 -0.0747 -0.1362
 5841SOL    HW129159   4.415   3.650   7.662 -0.0330  1.5410 -0.7337
 5841SOL    HW229160   4.382   3.786   7.684  0.3173 -0.8555 -1.2041
 5842SOL     OW29161   3.587   1.181   2.724 -0.1079 -0.4926 -0.6026
 5842SOL    HW129162   3.673   1.222   2.715  0.5176 -0.9111  3.5303
 5842SOL    HW229163   3.615   1.100   2.766 -0.4342 -0.3382 -0.0763
 5843SOL     OW29164   3.339   2.595   7.220 -0.7837  0.2881  0.1360
 5843SOL    HW129165   3.283   2.639   7.156  1.1717  1.2608 -0.8869
 5843SOL    HW229166   3.404   2.664   7.232  1.7656 -2.2095  0.5557
 5844SOL     OW29167   3.532   2.931   9.218  0.5301 -0.7626  0.4251
 5844SOL    HW129168   3.453   2.985   9.218  1.2853  0.3561 -1.0149
 5844SOL    HW229169   3.591   3.007   9.225 -1.7890  1.1211 -0.2997
 5845SOL     OW29170   3.738   1.389   2.942  0.8706 -0.2320 -0.2890
 5845SOL    HW129171   3.756   1.395   2.848 -0.4413  0.2496 -0.5061
 5845SOL    HW229172   3.661   1.445   2.942  0.7917 -0.3343 -0.7620
 5846SOL     OW29173   0.141   3.904   0.183  0.4827 -0.3006  0.0326
 5846SOL    HW129174   0.196   3.944   0.250  2.6995 -1.1978 -1.2572
 5846SOL    HW229175   0.094   3.842   0.239  1.4716  0.3854  1.5930
 5847SOL     OW29176   0.324   3.825   9.043 -0.7462 -0.4408 -0.2430
 5847SOL    HW129177   0.346   3.733   9.027  0.0803 -0.6871  2.2093
 5847SOL    HW229178   0.396   3.867   8.995 -1.2029  0.8621  0.2039
 5848SOL     OW29179   2.336   3.458   0.158 -0.0141 -0.4527 -0.2642
 5848SOL    HW129180   2.301   3.370   0.169 -0.7250 -0.2469 -0.8441
 5848SOL    HW229181   2.318   3.488   0.247  1.1805  0.1059 -0.2027
 5849SOL     OW29182   2.626   2.791   6.082  0.0463  0.1052  0.2663
 5849SOL    HW129183   2.652   2.877   6.050 -0.1285  0.1390  0.2144
 5849SOL    HW229184   2.614   2.799   6.176 -0.3316  1.4345  0.1000
 5850SOL     OW29185   2.516   3.261  10.947 -0.4119  0.8834 -0.5396
 5850SOL    HW129186   2.526   3.174  10.985 -1.1705 -0.1822 -2.8215
 5850SOL    HW229187   2.560   3.295  11.025  1.8405 -2.3881 -0.3982
 5851SOL     OW29188   2.662   4.279   6.159 -0.9302 -0.2768 -0.0867
 5851SOL    HW129189   2.739   4.290   6.104 -1.4493 -1.3716 -1.0297
 5851SOL    HW229190   2.655   4.184   6.164 -2.0628 -0.2128 -0.4698
 5852SOL     OW29191   3.315   3.205   8.267 -0.5014  0.2834 -0.6783
 5852SOL    HW129192   3.370   3.190   8.344 -1.5197 -4.0926 -0.8468
 5852SOL    HW229193   3.246   3.266   8.291  1.1154  1.6303  0.6008
 5853SOL     OW29194   3.702   1.543   3.178 -0.2031 -0.0358 -0.1000
 5853SOL    HW129195   3.767   1.499   3.232  0.0639  1.3156  0.6891
 5853SOL    HW229196   3.729   1.503   3.095  1.1573 -1.5361  1.0929
 5854SOL     OW29197   2.268   2.379   5.800 -0.4520 -0.7930  0.3591
 5854SOL    HW129198   2.278   2.306   5.861  0.4154  0.8791  2.2650
 5854SOL    HW229199   2.289   2.446   5.866 -0.2450  0.6492 -1.1865
 5855SOL     OW29200   4.356   3.862   7.177  0.9210  0.7822 -0.2558
 5855SOL    HW129201   4.347   3.956   7.192 -0.5160  0.5627  0.1997
 5855SOL    HW229202   4.436   3.840   7.225  1.0615  1.9398  0.0421
 5856SOL     OW29203   3.512   3.462   8.686  0.6125  0.0689  0.7488
 5856SOL    HW129204   3.603   3.492   8.686  0.8018 -0.4883  0.1612
 5856SOL    HW229205   3.485   3.485   8.775  0.5387  0.9265  0.5073
 5857SOL     OW29206   3.808   0.087   4.693 -0.1250 -0.7106 -0.1558
 5857SOL    HW129207   3.886   0.142   4.684 -1.4266  1.6051  2.8201
 5857SOL    HW229208   3.821   0.077   4.787 -0.0591  2.7206  0.1873
 5858SOL     OW29209   2.557   1.742   9.063  0.1897  0.4148 -0.2660
 5858SOL    HW129210   2.485   1.787   9.107  0.3819  0.7910 -0.3410
 5858SOL    HW229211   2.578   1.684   9.136  0.3888 -0.9948 -1.4382
 5859SOL     OW29212   0.520   0.328   7.121 -0.6305  0.7019 -0.0749
 5859SOL    HW129213   0.505   0.340   7.027  0.6458 -0.4224 -0.4129
 5859SOL    HW229214   0.504   0.415   7.157 -1.5120  0.9355 -1.0480
 5860SOL     OW29215   0.851   1.972  15.525  0.0551  0.4648 -0.1415
 5860SOL    HW129216   0.925   1.921  15.491 -0.7734 -0.2972 -0.8051
 5860SOL    HW229217   0.829   1.932  15.609 -0.5468  2.2142  0.5290
 5861SOL     OW29218   4.506   0.135  17.078 -0.0488 -0.1527  0.3140
 5861SOL    HW129219   4.518   0.184  17.160  1.1069 -0.4110  0.3078
 5861SOL    HW229220   4.597   0.112  17.058 -0.2670  1.8025 -2.8140
 5862SOL     OW29221   1.091   3.209  12.865 -0.4168  0.4299 -0.3420
 5862SOL    HW129222   0.996   3.218  12.874 -0.4028  1.9235 -1.6834
 5862SOL    HW229223   1.096   3.122  12.828 -0.5295  0.2341  0.1000
 5863SOL     OW29224   1.033   2.382   7.065  0.7669 -0.1795  0.0378
 5863SOL    HW129225   0.942   2.353   7.063  0.4781  0.6577  0.7134
 5863SOL    HW229226   1.066   2.314   7.124  0.0348 -1.1505 -0.6769
 5864SOL     OW29227   1.260   0.121   4.233 -0.1611  0.7046 -0.1366
 5864SOL    HW129228   1.245   0.086   4.321  0.4092 -0.8656 -0.6588
 5864SOL    HW229229   1.302   0.204   4.256 -0.1921  0.9752 -1.0401
 5865SOL     OW29230   1.557   0.672   3.848 -0.1899 -0.0064  0.2874
 5865SOL    HW129231   1.493   0.727   3.892 -0.8967 -0.6104  0.0189
 5865SOL    HW229232   1.618   0.738   3.814 -0.8122  0.5215  0.1955
 5866SOL     OW29233   3.259   2.381   5.037  0.3868 -0.2831 -0.2213
 5866SOL    HW129234   3.346   2.344   5.025  0.8233  0.2993  1.2255
 5866SOL    HW229235   3.207   2.303   5.056 -0.2232 -0.0391 -0.8635
 5867SOL     OW29236   4.375   1.511   6.922 -0.4372  0.4142  0.0401
 5867SOL    HW129237   4.461   1.554   6.917  0.1418 -0.6432  0.7670
 5867SOL    HW229238   4.389   1.425   6.960 -3.2325  0.3593  0.9465
 5868SOL     OW29239   1.752   0.733   2.164  0.2180 -0.6184 -0.0715
 5868SOL    HW129240   1.657   0.729   2.150 -0.1714 -0.6821  2.6092
 5868SOL    HW229241   1.763   0.691   2.249 -1.6281  0.8301  0.8682
 5869SOL     OW29242   2.752   2.455   6.912 -0.3118 -0.1543 -0.2447
 5869SOL    HW129243   2.681   2.396   6.937 -1.3362  1.4412  0.6258
 5869SOL    HW229244   2.818   2.387   6.896 -2.5641 -2.1914 -0.8761
 5870SOL     OW29245   1.919   1.733   3.939 -0.1702  0.1545 -0.2475
 5870SOL    HW129246   1.861   1.664   3.971 -1.3784  0.0555 -2.6499
 5870SOL    HW229247   1.900   1.721   3.846  1.8539  3.0423 -1.0265
 5871SOL     OW29248   4.575   1.293   5.473 -0.0036 -0.0016 -0.1107
 5871SOL    HW129249   4.530   1.335   5.400  0.2022  0.2058 -0.1201
 5871SOL    HW229250   4.594   1.205   5.439  2.0939  1.3968 -2.5790
 5872SOL     OW29251   1.622   2.556   6.800  0.1842  0.6990 -0.0852
 5872SOL    HW129252   1.555   2.608   6.844 -1.8944 -1.0274 -1.1877
 5872SOL    HW229253   1.705   2.601   6.816  0.6074 -0.0904 -0.0222
 5873SOL     OW29254   3.056   4.053   8.762 -0.7000  0.0416 -0.0287
 5873SOL    HW129255   3.088   3.978   8.712 -1.8060 -0.4136 -0.0415
 5873SOL    HW229256   3.043   4.118   8.693  2.0723  1.2921  0.6432
 5874SOL     OW29257   0.987   4.696   2.026  0.4524 -0.2547  0.7019
 5874SOL    HW129258   0.891   4.690   2.023  0.7835 -4.9483  0.0191
 5874SOL    HW229259   0.986   0.053   2.055  2.5385 -0.1529  0.4140
 5875SOL     OW29260   1.644   2.976  11.547  0.1118  0.5294 -0.5456
 5875SOL    HW129261   1.563   2.934  11.516  0.2906 -1.6594  1.9892
 5875SOL    HW229262   1.682   2.996  11.461 -1.4528  0.9443 -1.1440
 5876SOL     OW29263   2.331   2.896   3.340 -0.6291  0.2186  0.4537
 5876SOL    HW129264   2.332   2.986   3.306 -1.5598 -0.3158 -1.0156
 5876SOL    HW229265   2.415   2.861   3.310 -0.2925  0.6044  0.9517
 5877SOL     OW29266   0.467   3.035  11.273  0.2321 -0.0719 -0.5972
 5877SOL    HW129267   0.524   3.024  11.350 -1.2613  0.3551  0.5774
 5877SOL    HW229268   0.454   2.944  11.247  0.5034 -0.3651  0.2795
 5878SOL     OW29269   2.256   2.111   2.430 -0.3719  0.0074 -0.3409
 5878SOL    HW129270   2.309   2.101   2.509 -0.1590  1.4893 -0.2854
 5878SOL    HW229271   2.168   2.116   2.468 -0.7814 -0.7399 -1.2136
 5879SOL     OW29272   1.354   2.820   1.767  0.3730  0.5515 -0.7011
 5879SOL    HW129273   1.369   2.727   1.779 -1.1773  0.3655 -0.2184
 5879SOL    HW229274   1.444   2.842   1.741  0.0561  1.7017 -0.8145
 5880SOL     OW29275   4.087   2.768   0.445 -0.1765  0.1151  0.0040
 5880SOL    HW129276   4.006   2.774   0.496  0.3688 -0.1082  0.9086
 5880SOL    HW229277   4.141   2.720   0.508 -0.9448  0.4583  0.9427
 5881SOL     OW29278   2.050   3.311   3.787 -0.3378  0.2792 -0.0608
 5881SOL    HW129279   2.021   3.313   3.696 -0.4553  0.6826 -0.0150
 5881SOL    HW229280   1.965   3.316   3.830 -0.4387  0.0099 -0.2274
 5882SOL     OW29281   4.665   1.383   2.531  0.5153  0.4909 -0.1469
 5882SOL    HW129282   4.617   1.321   2.477 -1.1953  0.1357  1.7779
 5882SOL    HW229283   4.619   1.388   2.614 -0.9006 -0.3954 -0.8904
 5883SOL     OW29284   2.350   1.721  11.944 -1.1710  0.5412 -0.2337
 5883SOL    HW129285   2.275   1.695  11.891  0.3304 -2.0643 -1.0997
 5883SOL    HW229286   2.357   1.810  11.909 -0.8515 -0.0284 -1.6430
 5884SOL     OW29287   4.493   4.541  12.470  0.0539 -0.3758 -0.2179
 5884SOL    HW129288   4.563   4.492  12.513  1.8301 -0.3815 -3.1548
 5884SOL    HW229289   4.494   4.619  12.526 -1.1078  1.2945 -2.5525
 5885SOL     OW29290   3.832   4.563   1.988 -0.3303 -0.2603 -0.0737
 5885SOL    HW129291   3.777   4.641   1.984  2.0993  1.5294  1.3570
 5885SOL    HW229292   3.873   4.569   1.902  0.4109  1.5287  0.4125
 5886SOL     OW29293   1.672   1.007   1.711  0.1582  0.2991 -0.1721
 5886SOL    HW129294   1.637   1.096   1.708  0.5262  0.5423  3.3084
 5886SOL    HW229295   1.757   1.027   1.672  0.4656  0.2749  0.4992
 5887SOL     OW29296   4.564   2.128   6.679  0.0827 -0.0162  0.1373
 5887SOL    HW129297   4.572   2.091   6.591  0.3883  0.3504  0.0056
 5887SOL    HW229298   4.491   2.190   6.680 -0.1259 -0.2453 -1.3173
 5888SOL     OW29299   0.820   0.323   8.935 -0.1603  0.1989  0.0435
 5888SOL    HW129300   0.769   0.380   8.877  0.1232  0.3852 -0.0238
 5888SOL    HW229301   0.849   0.388   8.999  2.3232 -0.7283 -0.1494
 5889SOL     OW29302   3.494   1.197   3.479 -0.2748 -0.3733 -0.1628
 5889SOL    HW129303   3.485   1.268   3.415 -1.0004 -0.0780  0.2671
 5889SOL    HW229304   3.490   1.245   3.562  0.2488 -0.5260 -0.0472
 5890SOL     OW29305   0.900   0.494   0.033  1.1969  0.2272 -0.6426
 5890SOL    HW129306   0.922   0.502   0.125 -1.7205  0.8722 -0.0077
 5890SOL    HW229307   0.819   0.541   0.010  1.4591  0.6707 -0.6527
 5891SOL     OW29308   4.467   1.747   0.084 -0.3852 -0.0504 -0.0137
 5891SOL    HW129309   4.530   1.696   0.136  0.4334  0.7062 -0.2613
 5891SOL    HW229310   4.391   1.743   0.142  1.0085 -1.0937  1.7433
 5892SOL     OW29311   3.066   2.299   6.519  0.0312 -0.3434 -0.2185
 5892SOL    HW129312   3.116   2.221   6.494  1.4853  1.4151 -2.8308
 5892SOL    HW229313   2.979   2.265   6.539  0.0911 -1.1214 -1.2580
 5893SOL     OW29314   3.309   1.442   3.123  0.2693 -0.1383  0.3657
 5893SOL    HW129315   3.356   1.457   3.204 -2.4665  0.9979  1.7610
 5893SOL    HW229316   3.287   1.349   3.134 -1.3804  0.2224  0.1343
 5894SOL     OW29317   3.891   4.309   6.727 -0.0333  0.4869  0.6300
 5894SOL    HW129318   3.846   4.242   6.675 -0.3901  1.4302 -0.3038
 5894SOL    HW229319   3.977   4.269   6.730  0.0636  0.4449 -2.1397
 5895SOL     OW29320   0.519   4.660  16.688 -0.6309  0.0508  0.3788
 5895SOL    HW129321   0.448   4.714  16.655 -1.0252 -1.2818 -0.9757
 5895SOL    HW229322   0.475   4.585  16.728  0.4794 -0.1751  1.1929
 5896SOL     OW29323   0.426   4.711   7.123  0.1690  0.1348 -0.2433
 5896SOL    HW129324   0.430   4.711   7.028  0.8394 -0.1448 -0.2114
 5896SOL    HW229325   0.339   0.012   7.141  0.1996  0.5928 -1.0284
 5897SOL     OW29326   2.236   2.563   4.250 -1.2917 -0.1935  0.4059
 5897SOL    HW129327   2.288   2.615   4.311 -0.5458 -2.7289  1.9255
 5897SOL    HW229328   2.241   2.474   4.285  1.8452 -0.1029  0.1632
 5898SOL     OW29329   3.080   0.167  12.697  0.1920  0.3255  0.0019
 5898SOL    HW129330   3.136   0.203  12.628  0.9787  0.8389  0.9162
 5898SOL    HW229331   3.139   0.154  12.770 -1.5288 -2.1337  0.9609
 5899SOL     OW29332   0.640   2.551   8.619  0.3099  0.2205  0.2119
 5899SOL    HW129333   0.557   2.506   8.603  0.3285  0.5626 -0.8165
 5899SOL    HW229334   0.626   2.557   8.713  0.9391 -1.0205  0.3923
 5900SOL     OW29335   3.172   2.847  12.908 -0.3750  0.8843 -0.0176
 5900SOL    HW129336   3.153   2.940  12.911  0.0412  0.9859 -0.6628
 5900SOL    HW229337   3.180   2.833  13.003 -1.6985  3.4535  0.4478
 5901SOL     OW29338   0.891   0.340   3.126  1.3235  0.1079 -0.6604
 5901SOL    HW129339   0.911   0.429   3.155 -1.1484  0.5343 -0.2219
 5901SOL    HW229340   0.954   0.328   3.055  0.1364 -2.3173 -1.3109
 5902SOL     OW29341   0.297   3.031   3.181  0.6443 -0.8728  0.3269
 5902SOL    HW129342   0.378   3.059   3.224  1.4137 -0.9552 -1.0768
 5902SOL    HW229343   0.263   2.966   3.243  0.1077 -1.7565 -0.9019
 5903SOL     OW29344   2.694   1.342   6.567  0.0084 -0.5036 -0.0185
 5903SOL    HW129345   2.760   1.278   6.541 -1.5721 -2.0907 -0.1024
 5903SOL    HW229346   2.683   1.306   6.656  0.5288 -0.3856  0.0954
 5904SOL     OW29347   4.670   2.278   3.888 -0.6582 -0.3108 -0.7888
 5904SOL    HW129348   4.678   2.374   3.884 -2.8924 -0.0790  0.1177
 5904SOL    HW229349   4.611   2.283   3.964  1.9935 -0.3636  1.2857
 5905SOL     OW29350   0.589   0.603  12.116 -0.0004 -0.5658 -0.2572
 5905SOL    HW129351   0.573   0.642  12.030 -0.0350  0.6452  0.3007
 5905SOL    HW229352   0.501   0.610  12.153 -0.2290 -2.7476 -0.4039
 5906SOL     OW29353   2.884   4.430   8.763 -0.2002 -0.6802  0.0919
 5906SOL    HW129354   2.819   4.468   8.703  0.3488 -0.4203 -0.3411
 5906SOL    HW229355   2.837   4.368   8.818  0.3883  0.2303  1.6324
 5907SOL     OW29356   4.265   2.538   6.196 -0.7055  0.2200 -0.3287
 5907SOL    HW129357   4.199   2.572   6.256  1.1142  1.9245  0.6806
 5907SOL    HW229358   4.246   2.444   6.205 -3.5079  0.9108  1.0199
 5908SOL     OW29359   3.272   2.004   7.940 -0.1890 -0.4150 -0.4218
 5908SOL    HW129360   3.325   1.992   7.862 -1.7379  0.0539 -1.5442
 5908SOL    HW229361   3.187   2.016   7.898 -0.1671  1.1947 -0.0372
 5909SOL     OW29362   2.446   2.953   5.804 -0.5190  0.1121  0.4542
 5909SOL    HW129363   2.469   3.045   5.815 -1.2347  0.1525  1.5360
 5909SOL    HW229364   2.413   2.937   5.892  2.6084 -1.6402  1.3262
 5910SOL     OW29365   2.004   2.511   7.816  0.6487  0.6875 -0.7245
 5910SOL    HW129366   1.988   2.588   7.762 -0.2347 -0.8093 -2.5825
 5910SOL    HW229367   1.946   2.444   7.781 -0.3461 -0.8738  3.8236
 5911SOL     OW29368   1.321   4.448  13.237 -0.3285  0.0849 -0.0596
 5911SOL    HW129369   1.356   4.453  13.326 -0.3584 -1.2963  0.0161
 5911SOL    HW229370   1.237   4.405  13.252 -0.2665  0.1722  0.5157
 5912SOL     OW29371   4.268   0.880   8.271  0.3784  0.1482 -0.1783
 5912SOL    HW129372   4.179   0.869   8.239  0.7257  1.6284 -1.6242
 5912SOL    HW229373   4.285   0.787   8.251  0.8667  0.3394 -0.6531
 5913SOL     OW29374   3.499   0.242  14.001 -0.1287  0.2012 -0.1619
 5913SOL    HW129375   3.492   0.147  14.013  1.1073 -0.0284 -1.2920
 5913SOL    HW229376   3.566   0.270  14.064  1.9423  0.0126 -2.2717
 5914SOL     OW29377   1.200   4.315  15.562 -0.0845 -0.6486  0.8954
 5914SOL    HW129378   1.291   4.332  15.536 -0.6107  0.7900 -0.0299
 5914SOL    HW229379   1.193   4.241  15.622 -2.2582  0.7691  2.3844
 5915SOL     OW29380   2.753   0.237   4.632 -0.5148  0.2732 -0.4960
 5915SOL    HW129381   2.789   0.249   4.544  0.5152 -2.7785 -0.4880
 5915SOL    HW229382   2.839   0.242   4.674 -0.2009  1.3173 -1.2437
 5916SOL     OW29383   3.634   1.882  16.785  0.4397  0.4098  0.3278
 5916SOL    HW129384   3.698   1.891  16.855  0.2733  1.6677  0.3191
 5916SOL    HW229385   3.560   1.832  16.820 -0.0299  0.9099  0.0509
 5917SOL     OW29386   4.138   2.384   8.060  0.4853 -0.3922  0.9198
 5917SOL    HW129387   4.208   2.380   7.995 -1.0772 -2.7569 -0.6350
 5917SOL    HW229388   4.103   2.296   8.048  2.2042 -0.7395 -1.6283
 5918SOL     OW29389   3.402   1.489   1.627 -0.2938  0.1007 -0.3644
 5918SOL    HW129390   3.489   1.465   1.659 -0.2987 -1.2081 -1.3641
 5918SOL    HW229391   3.356   1.431   1.688  1.4274  0.3041  1.1294
 5919SOL     OW29392   1.431   1.442   2.793 -0.1692  0.6516 -0.8405
 5919SOL    HW129393   1.426   1.347   2.783  0.7990  0.6717 -1.4633
 5919SOL    HW229394   1.400   1.468   2.706  0.3225  1.1748 -0.8590
 5920SOL     OW29395   2.665   2.417   8.068 -0.2245  0.1235  0.1718
 5920SOL    HW129396   2.590   2.443   8.014  0.5156  0.7906 -0.5426
 5920SOL    HW229397   2.718   2.377   8.000 -0.2544  0.9455 -0.3370
 5921SOL     OW29398   3.597   1.133  11.026  0.3179  0.4773  0.2291
 5921SOL    HW129399   3.565   1.069  11.090  0.1291  0.7510  0.4062
 5921SOL    HW229400   3.513   1.155  10.987  0.1414 -1.5743 -0.5779
 5922SOL     OW29401   1.457   0.259   2.296  0.3487  0.0196  0.0802
 5922SOL    HW129402   1.519   0.259   2.369 -0.4760 -0.3240  0.7799
 5922SOL    HW229403   1.508   0.218   2.226 -1.0556 -2.8660  0.7186
 5923SOL     OW29404   1.073   0.418  16.148 -0.3744  0.3375 -0.5266
 5923SOL    HW129405   1.047   0.485  16.211  0.1389 -0.6263  0.6976
 5923SOL    HW229406   1.148   0.458  16.104 -0.6209  0.1780 -1.0996
 5924SOL     OW29407   3.774   1.212   7.992 -0.0809 -0.2221 -0.4841
 5924SOL    HW129408   3.748   1.257   7.912  1.2258  0.6139 -0.4343
 5924SOL    HW229409   3.865   1.242   7.998  0.8558 -3.3269  1.4811
 5925SOL     OW29410   2.740   0.288  11.864 -0.2672 -0.2937  0.5342
 5925SOL    HW129411   2.669   0.346  11.835 -1.3622 -3.1883 -2.5834
 5925SOL    HW229412   2.695   0.262  11.945 -0.5757  4.3354  1.8268
 5926SOL     OW29413   2.826   1.005   8.159 -0.1743 -0.1566 -0.0989
 5926SOL    HW129414   2.791   1.094   8.150 -1.8967 -0.8188  0.0040
 5926SOL    HW229415   2.791   0.969   8.240 -0.3473  0.4867  0.1147
 5927SOL     OW29416   2.674   2.520  15.641 -0.4503  0.8599 -0.4019
 5927SOL    HW129417   2.748   2.475  15.601 -1.3073 -1.0624  0.1811
 5927SOL    HW229418   2.600   2.468  15.611  0.3883 -2.0314  2.6041
 5928SOL     OW29419   4.633   2.062   1.034  0.7555  0.3614 -0.1792
 5928SOL    HW129420   4.710   2.091   1.084 -1.2802  2.4734  1.6871
 5928SOL    HW229421   4.681   2.037   0.955  0.6986 -1.1790  0.2793
 5929SOL     OW29422   4.366   4.028   1.640 -0.3190 -0.2746 -0.2646
 5929SOL    HW129423   4.449   3.980   1.641 -1.0644 -1.4371  3.0409
 5929SOL    HW229424   4.321   3.987   1.714  0.8957  0.1260  0.6978
 5930SOL     OW29425   3.453   1.394   4.130  0.3014  0.1241 -0.2741
 5930SOL    HW129426   3.527   1.368   4.186 -0.5596  1.0111  1.2743
 5930SOL    HW229427   3.449   1.490   4.129 -1.7609  0.0565  2.7666
 5931SOL     OW29428   2.491   2.804  12.865  0.0847 -0.2591 -0.2096
 5931SOL    HW129429   2.472   2.897  12.879 -0.3743 -0.5234  0.8950
 5931SOL    HW229430   2.587   2.805  12.868  0.1823 -1.1084 -3.5424
 5932SOL     OW29431   0.733   1.384   7.529 -0.3095  0.5782  0.2138
 5932SOL    HW129432   0.748   1.295   7.498  1.2628  0.5589  1.0273
 5932SOL    HW229433   0.644   1.376   7.564 -0.2207 -0.3258  0.2552
 5933SOL     OW29434   3.526   3.207  11.089  0.4107  0.1837  0.3139
 5933SOL    HW129435   3.450   3.164  11.129 -1.1012 -0.0449 -2.7743
 5933SOL    HW229436   3.598   3.145  11.096 -0.3972 -0.7063  0.8075
 5934SOL     OW29437   1.197   0.128  15.778 -0.4620 -0.2135  0.1912
 5934SOL    HW129438   1.207   0.040  15.816 -1.0280 -0.0570  0.6906
 5934SOL    HW229439   1.280   0.169  15.802 -0.3082 -0.4071  0.0011
 5935SOL     OW29440   4.160   0.244   6.544 -0.2393  0.1638  0.2432
 5935SOL    HW129441   4.066   0.247   6.563 -0.0033 -1.9910  1.6733
 5935SOL    HW229442   4.173   0.330   6.505  0.7153 -0.5971 -1.1065
 5936SOL     OW29443   4.537   3.405  17.537  0.0237 -0.4899  0.0868
 5936SOL    HW129444   4.501   3.329  17.490  1.9048 -0.5555 -1.2078
 5936SOL    HW229445   4.472   3.415  17.607  0.0814 -1.3830  0.2738
 5937SOL     OW29446   1.101   4.251  12.561 -0.8568 -0.9997  0.1775
 5937SOL    HW129447   1.032   4.316  12.573  0.0956  0.1925 -0.8577
 5937SOL    HW229448   1.083   4.251  12.468 -0.8793  0.3013  0.1878
 5938SOL     OW29449   3.551   2.640  16.070 -0.1437  0.1125 -0.1622
 5938SOL    HW129450   3.594   2.596  15.996 -0.4828  1.8144 -1.3685
 5938SOL    HW229451   3.556   2.566  16.131 -0.2619  1.2418  1.1915
 5939SOL     OW29452   3.674   1.609  15.934  0.4347  0.2392  0.0513
 5939SOL    HW129453   3.741   1.624  16.001 -0.6440 -1.0138  1.4107
 5939SOL    HW229454   3.725   1.574  15.861 -0.6421  1.6742 -1.3878
 5940SOL     OW29455   0.258   4.452   1.935  0.1943  0.1346  0.0833
 5940SOL    HW129456   0.256   4.378   1.874 -0.8374  0.7444 -0.6092
 5940SOL    HW229457   0.177   4.439   1.985  0.9271 -0.0821  1.2303
 5941SOL     OW29458   3.785   0.065   8.446  0.1322 -0.4438  0.2195
 5941SOL    HW129459   3.789   4.733   8.514  0.9489 -1.5182 -0.8920
 5941SOL    HW229460   3.856   0.031   8.391 -0.3810  1.5616 -1.6994
 5942SOL     OW29461   4.666   4.389   7.926  0.1649  0.1592  0.5291
 5942SOL    HW129462   4.715   4.310   7.951  0.0117 -1.2840 -3.6397
 5942SOL    HW229463   0.002   4.453   7.927  0.3628  0.0155 -3.7454
 5943SOL     OW29464   0.984   3.137   5.127  0.1774 -0.2665  0.3568
 5943SOL    HW129465   0.999   3.221   5.171  1.0859 -0.0020 -0.4728
 5943SOL    HW229466   1.067   3.132   5.081  1.2462 -0.7627  2.3546
 5944SOL     OW29467   0.250   2.604   4.183 -0.1496 -0.1149  0.1601
 5944SOL    HW129468   0.235   2.639   4.271  2.2480 -0.7238  0.8230
 5944SOL    HW229469   0.299   2.677   4.144 -0.9154 -0.1787 -0.9022
 5945SOL     OW29470   0.211   0.437   7.795 -0.3498  0.0799  0.2477
 5945SOL    HW129471   0.298   0.398   7.805 -0.0813  0.4129 -0.8617
 5945SOL    HW229472   0.233   0.528   7.780 -1.2997 -0.0230 -1.7958
 5946SOL     OW29473   1.600   2.494   2.143  0.1496  0.4474 -0.2873
 5946SOL    HW129474   1.652   2.535   2.073  0.8870 -2.0825 -1.2166
 5946SOL    HW229475   1.526   2.460   2.092  0.1591  0.7886 -0.5276
 5947SOL     OW29476   4.558   1.181  12.853 -0.3740  0.2923 -0.1970
 5947SOL    HW129477   4.540   1.100  12.806 -0.6396  0.9268 -1.1879
 5947SOL    HW229478   4.559   1.147  12.943 -1.7366  1.8454  0.4055
 5948SOL     OW29479   0.913   3.970   5.055  0.5252  0.0964  0.0238
 5948SOL    HW129480   0.991   3.960   5.110 -1.4291  2.5132  3.2095
 5948SOL    HW229481   0.847   3.914   5.096 -0.3260  0.9779 -0.1516
 5949SOL     OW29482   0.969   1.629   5.444 -0.8054 -0.0525  0.7084
 5949SOL    HW129483   0.936   1.717   5.425  2.4915  0.9539 -0.3848
 5949SOL    HW229484   0.920   1.579   5.379 -1.2688  0.9789  0.2578
 5950SOL     OW29485   4.138   3.314   8.499 -0.3778 -0.3986  0.3717
 5950SOL    HW129486   4.184   3.389   8.536  0.4453 -0.6917 -0.0584
 5950SOL    HW229487   4.048   3.343   8.512  0.0039  0.7117  0.5555
 5951SOL     OW29488   1.600   3.078   6.605  0.4200 -0.1635  0.0253
 5951SOL    HW129489   1.570   2.991   6.633  0.9895 -0.5591 -0.5987
 5951SOL    HW229490   1.690   3.047   6.607  1.1365  2.1217  1.8188
 5952SOL     OW29491   3.595   3.499  13.375 -0.3298  0.4000 -0.0420
 5952SOL    HW129492   3.597   3.594  13.390  1.8699  0.1217  1.4068
 5952SOL    HW229493   3.623   3.477  13.464 -0.5099  1.0760  0.1812
 5953SOL     OW29494   0.463   1.579   7.159 -0.5214 -0.2196 -0.2544
 5953SOL    HW129495   0.463   1.486   7.137  0.5015 -0.7614  2.0737
 5953SOL    HW229496   0.371   1.598   7.143 -0.4556  0.8126  0.6040
 5954SOL     OW29497   1.267   1.515  17.320 -0.0190 -0.5108  0.1382
 5954SOL    HW129498   1.184   1.500  17.275 -0.8587  2.2702  0.7619
 5954SOL    HW229499   1.275   1.444  17.384  0.7187  0.6793  1.3565
 5955SOL     OW29500   2.406   0.240   8.173 -0.1298  0.0589 -0.8217
 5955SOL    HW129501   2.399   0.149   8.143 -0.5465  0.4749 -1.9859
 5955SOL    HW229502   2.322   0.262   8.214 -0.3920  1.0227 -1.8772
 5956SOL     OW29503   0.426   4.677  15.269 -0.1479  0.5318 -0.6051
 5956SOL    HW129504   0.446   0.025  15.224 -0.7426  0.0469 -1.7644
 5956SOL    HW229505   0.509   4.676  15.317 -0.8794  1.9684  0.6616
 5957SOL     OW29506   1.126   4.060   9.743 -0.9926 -0.0572 -0.2180
 5957SOL    HW129507   1.146   4.011   9.823  0.3297  1.7222  0.5458
 5957SOL    HW229508   1.181   4.014   9.680 -0.3460  1.0748 -0.4751
 5958SOL     OW29509   2.825   1.051   3.712 -0.0244  0.7339  0.2890
 5958SOL    HW129510   2.889   1.102   3.761  1.0679  1.3412 -1.7820
 5958SOL    HW229511   2.825   1.112   3.639  0.4249 -1.0017 -1.1602
 5959SOL     OW29512   2.544   3.250   2.544 -0.1802 -0.3356  0.7797
 5959SOL    HW129513   2.542   3.228   2.637 -2.5163  0.1885  0.8367
 5959SOL    HW229514   2.454   3.280   2.537  0.0823  0.2151 -0.1522
 5960SOL     OW29515   1.071   0.192   8.864 -0.0624 -0.0345 -0.4472
 5960SOL    HW129516   1.134   0.239   8.919  0.6465 -2.2812  0.6549
 5960SOL    HW229517   0.990   0.236   8.890  0.7435  1.0266  0.2473
 5961SOL     OW29518   2.929   2.902   0.175 -0.1339 -0.5308 -0.3118
 5961SOL    HW129519   2.903   2.947   0.255  0.4288  0.7315 -0.8376
 5961SOL    HW229520   2.847   2.867   0.141 -0.2164 -2.1437  1.5420
 5962SOL     OW29521   3.181   4.523   7.909 -0.4045  0.3833 -0.1241
 5962SOL    HW129522   3.251   4.588   7.912  1.0218 -1.1519 -0.1430
 5962SOL    HW229523   3.226   4.459   7.854  0.0659  0.5281  0.0944
 5963SOL     OW29524   2.175   4.463   8.352  0.2432  0.0682 -0.1826
 5963SOL    HW129525   2.203   4.516   8.426  0.1004 -1.0336  0.6593
 5963SOL    HW229526   2.081   4.478   8.347 -0.0026 -1.2233  0.5714
 5964SOL     OW29527   4.435   0.861  13.192 -0.2561 -0.3603 -0.2187
 5964SOL    HW129528   4.451   0.856  13.286 -0.5996 -1.5711 -0.2122
 5964SOL    HW229529   4.388   0.942  13.172  0.8552 -0.3454 -2.8038
 5965SOL     OW29530   3.664   1.484   6.158 -0.1464  0.2762  0.2625
 5965SOL    HW129531   3.606   1.516   6.227 -0.1997 -1.3115  0.9371
 5965SOL    HW229532   3.736   1.547   6.156 -1.5330  1.8905  0.7580
 5966SOL     OW29533   4.431   0.904  16.851 -0.0069  0.1102 -0.2326
 5966SOL    HW129534   4.355   0.846  16.848 -1.1291  1.6166 -0.6495
 5966SOL    HW229535   4.385   0.985  16.829  1.3810  1.0011  0.1385
 5967SOL     OW29536   4.620   1.199   1.409  0.3818  0.0239 -0.0869
 5967SOL    HW129537   4.585   1.143   1.478 -0.5654  2.1546  1.1918
 5967SOL    HW229538   4.563   1.171   1.337  0.4106  1.4516 -0.6672
 5968SOL     OW29539   0.028   4.073   0.559 -0.0254 -0.6443  0.2058
 5968SOL    HW129540   0.107   4.042   0.515 -0.7518 -0.2232 -1.3816
 5968SOL    HW229541   4.722   4.007   0.615 -0.0062 -0.0529  0.9182
 5969SOL     OW29542   4.006   0.972   8.186 -0.4162 -0.0042 -0.1530
 5969SOL    HW129543   4.034   0.989   8.096  0.5474 -0.0950  0.1261
 5969SOL    HW229544   3.927   0.922   8.168 -0.7863  0.6909 -0.4737
 5970SOL     OW29545   3.393   0.352  12.935  0.1685  0.1624  0.0601
 5970SOL    HW129546   3.363   0.346  13.026 -0.7927 -0.7448 -0.3157
 5970SOL    HW229547   3.483   0.323  12.952  0.3666  0.5590 -0.3192
 5971SOL     OW29548   1.474   3.453   4.369 -0.3632 -0.7171 -0.0028
 5971SOL    HW129549   1.483   3.534   4.419  0.4255 -1.2010  0.6411
 5971SOL    HW229550   1.564   3.421   4.372  0.3171  1.3273  1.4659
 5972SOL     OW29551   3.972   4.232   8.327  0.2059 -0.3980 -0.0422
 5972SOL    HW129552   3.914   4.167   8.288  0.3116 -0.7217  0.3460
 5972SOL    HW229553   3.966   4.305   8.265 -1.2201 -1.3220 -1.0133
 5973SOL     OW29554   0.558   4.253   2.147  0.4732  0.5062 -0.1924
 5973SOL    HW129555   0.515   4.241   2.232  1.5337  2.0175  0.5740
 5973SOL    HW229556   0.624   4.184   2.150 -3.4958 -3.2090  0.2161
 5974SOL     OW29557   3.067   3.352   5.194 -0.5111 -0.1293 -0.1338
 5974SOL    HW129558   3.144   3.406   5.177 -0.8303  0.3556 -0.0284
 5974SOL    HW229559   3.031   3.395   5.271 -1.1047  0.0759 -0.5231
 5975SOL     OW29560   3.224   2.996   2.890 -0.3700  0.1126  0.2992
 5975SOL    HW129561   3.308   2.979   2.847  0.2760 -1.9394  2.4062
 5975SOL    HW229562   3.192   2.906   2.883  0.4245 -0.2299  1.0695
 5976SOL     OW29563   0.818   3.653   4.987  0.2677  0.4532  0.3107
 5976SOL    HW129564   0.892   3.656   5.048  0.6072  1.4081 -0.1537
 5976SOL    HW229565   0.867   3.657   4.905  1.8948  0.8024  1.3049
 5977SOL     OW29566   2.572   1.744   8.443 -0.1069  0.9589  0.0419
 5977SOL    HW129567   2.629   1.681   8.487 -2.5115 -0.5589  0.9324
 5977SOL    HW229568   2.628   1.814   8.409  1.4425 -0.3655 -0.1298
 5978SOL     OW29569   1.983   4.078  15.225 -0.3376  0.2784 -0.3544
 5978SOL    HW129570   2.052   4.052  15.164  0.5864 -0.6116  1.0613
 5978SOL    HW229571   1.905   4.073  15.170  0.3201 -1.5398 -1.1254
 5979SOL     OW29572   1.864   1.813  10.932  0.1438 -0.2483  0.1606
 5979SOL    HW129573   1.862   1.718  10.942 -0.1892 -0.1531  0.9888
 5979SOL    HW229574   1.928   1.843  10.996 -1.0757 -1.7451  2.0907
 5980SOL     OW29575   4.663   3.667   5.717 -0.3065  0.9711  0.5174
 5980SOL    HW129576   4.587   3.720   5.741 -1.3945  0.1098 -0.9546
 5980SOL    HW229577   4.719   3.698   5.788  1.2197 -1.0317  0.1844
 5981SOL     OW29578   4.298   3.411  10.490 -0.3967 -0.3850 -0.1775
 5981SOL    HW129579   4.234   3.343  10.508 -1.3858  0.6112  0.1138
 5981SOL    HW229580   4.263   3.445  10.407  0.6303 -0.7651 -0.7711
 5982SOL     OW29581   0.125   3.556   2.745 -0.1490  0.0438 -0.2245
 5982SOL    HW129582   0.208   3.604   2.748  0.5683 -1.1993 -0.4772
 5982SOL    HW229583   0.101   3.576   2.654 -0.8289  1.4137  0.2556
 5983SOL     OW29584   0.373   0.134  11.334  0.0785 -0.7465  0.2578
 5983SOL    HW129585   0.378   0.094  11.421 -2.4597  0.7883  1.1157
 5983SOL    HW229586   0.373   0.228  11.354  0.7731 -0.9819  1.3807
 5984SOL     OW29587   0.606   0.362   3.138 -0.1601 -0.3642 -0.2623
 5984SOL    HW129588   0.683   0.341   3.190 -1.4495 -1.2802  1.2874
 5984SOL    HW229589   0.538   0.343   3.203 -0.3567  1.8064  0.1915
 5985SOL     OW29590   0.327   0.678  12.233  0.0664  0.2009  0.4603
 5985SOL    HW129591   0.313   0.683  12.327 -1.5972  1.1782  0.1519
 5985SOL    HW229592   0.243   0.701  12.193  0.8960  0.7359 -0.9764
 5986SOL     OW29593   1.130   4.124   9.153 -0.2016  0.0950  0.0135
 5986SOL    HW129594   1.154   4.126   9.060 -3.6993  2.1520 -0.8326
 5986SOL    HW229595   1.067   4.052   9.152 -0.3015  0.1891 -0.6876
 5987SOL     OW29596   1.387   1.932   4.749 -1.1757 -0.5734 -0.0542
 5987SOL    HW129597   1.351   2.001   4.693 -3.3565  1.1051  3.4524
 5987SOL    HW229598   1.356   1.942   4.839 -0.0790  0.0137  0.2468
 5988SOL     OW29599   4.009   3.096  14.560  0.3593  0.5167 -0.8462
 5988SOL    HW129600   4.065   3.018  14.554 -0.5671 -0.3801  1.9718
 5988SOL    HW229601   3.954   3.071  14.634 -2.2380  0.0634 -2.9400
 5989SOL     OW29602   0.852   0.824   9.845  0.3613 -0.2566  0.5328
 5989SOL    HW129603   0.886   0.758   9.904 -2.0625 -0.4858  1.6446
 5989SOL    HW229604   0.770   0.791   9.809 -0.0855 -1.2528  2.4588
 5990SOL     OW29605   0.013   2.366  16.184 -0.1667 -0.0587  0.6501
 5990SOL    HW129606   4.677   2.304  16.199 -0.2022 -0.5174 -1.5049
 5990SOL    HW229607   4.703   2.435  16.135  1.2785 -0.2226 -0.8830
 5991SOL     OW29608   2.585   3.673   7.544 -0.6733 -0.0499  0.0400
 5991SOL    HW129609   2.514   3.632   7.594 -1.6602  0.3753 -0.9888
 5991SOL    HW229610   2.636   3.731   7.600  1.8695 -0.9929 -1.2934
 5992SOL     OW29611   2.228   3.207  17.410 -0.2264 -0.2032 -0.2227
 5992SOL    HW129612   2.177   3.237  17.485  0.2211  0.4113 -0.1659
 5992SOL    HW229613   2.311   3.253  17.420 -0.3019 -0.2500  0.6262
 5993SOL     OW29614   3.816   2.660   9.083 -0.0212  0.2275  0.2620
 5993SOL    HW129615   3.770   2.656   9.167  0.0911 -1.4416  0.2562
 5993SOL    HW229616   3.906   2.680   9.108  0.7388 -0.4598 -1.9174
 5994SOL     OW29617   2.856   0.192   5.667  0.1026 -0.1330  0.4400
 5994SOL    HW129618   2.802   0.263   5.633  0.0797  0.3554  1.4995
 5994SOL    HW229619   2.924   0.187   5.600 -0.9791 -1.8383 -0.5310
 5995SOL     OW29620   2.665   3.261   1.139  0.3451 -0.6146  0.4767
 5995SOL    HW129621   2.592   3.244   1.198 -1.5931  2.0005 -1.1661
 5995SOL    HW229622   2.617   3.286   1.060  3.5232 -0.1680 -1.3396
 5996SOL     OW29623   2.706   2.563  10.504  0.6711 -0.0840 -0.0855
 5996SOL    HW129624   2.655   2.574  10.585  0.0175  2.5758 -0.8363
 5996SOL    HW229625   2.674   2.645  10.465  0.7598  0.5599  1.1738
 5997SOL     OW29626   0.488   3.588   4.046 -0.4560 -0.2568 -0.0722
 5997SOL    HW129627   0.509   3.597   4.139 -2.7164  1.3639  0.2667
 5997SOL    HW229628   0.393   3.595   4.046 -0.4854 -0.6643 -1.3226
 5998SOL     OW29629   2.762   3.043   9.435 -0.4535  0.0917 -0.2321
 5998SOL    HW129630   2.791   3.124   9.393 -0.2004 -0.2166 -0.6562
 5998SOL    HW229631   2.768   2.975   9.368  0.5169 -2.6771  2.6483
 5999SOL     OW29632   2.335   4.365  17.116 -0.0286 -0.1823  0.2380
 5999SOL    HW129633   2.315   4.399  17.029 -0.0548 -0.0885  0.2808
 5999SOL    HW229634   2.261   4.392  17.170  0.4579  2.0470 -0.2088
 6000SOL     OW29635   2.995   2.640   9.220  0.3097 -0.0849  0.2082
 6000SOL    HW129636   2.915   2.689   9.240 -0.1557 -0.3999 -0.8820
 6000SOL    HW229637   3.059   2.699   9.179  0.8482  0.2359  1.4933
 6001SOL     OW29638   0.674   4.058  15.089  0.5553 -0.1484 -0.7345
 6001SOL    HW129639   0.633   4.016  15.164  2.2070  0.1152  0.3158
 6001SOL    HW229640   0.721   3.987  15.044  1.7606  0.0926  0.1536
 6002SOL     OW29641   1.358   3.161   1.803 -0.0862 -0.2904  0.3085
 6002SOL    HW129642   1.416   3.188   1.874 -1.6672  3.5024  0.1397
 6002SOL    HW229643   1.271   3.148   1.841 -0.7081 -2.6157 -1.9194
 6003SOL     OW29644   0.153   4.394  16.498  0.0143 -0.3441  0.1127
 6003SOL    HW129645   0.175   4.487  16.493 -0.7981 -0.2272 -1.2104
 6003SOL    HW229646   0.063   4.396  16.531 -0.3435 -0.0775 -0.8861
 6004SOL     OW29647   2.121   2.495   2.440 -0.1947  0.0137  0.0582
 6004SOL    HW129648   2.137   2.587   2.459 -1.4721  0.4183 -0.8479
 6004SOL    HW229649   2.066   2.496   2.361 -1.6903 -1.4510  1.0882
 6005SOL     OW29650   1.297   3.102   8.228 -0.3414 -0.2820 -0.6718
 6005SOL    HW129651   1.328   3.146   8.308  1.2155 -1.3643 -0.6801
 6005SOL    HW229652   1.334   3.150   8.154 -1.6315 -1.9918 -2.3972
 6006SOL     OW29653   2.555   0.385   8.501 -0.2626  0.0777  0.4052
 6006SOL    HW129654   2.643   0.422   8.502 -0.7670  1.3196  0.0552
 6006SOL    HW229655   2.572   0.293   8.517  0.8428  0.3871  0.9912
 6007SOL     OW29656   2.405   2.977   3.007 -0.5223 -0.3886 -0.8151
 6007SOL    HW129657   2.339   2.914   3.036 -1.6716  1.9765  1.6222
 6007SOL    HW229658   2.434   3.024   3.085  0.1278 -2.1836  0.0443
 6008SOL     OW29659   2.968   2.574   7.125  1.1800 -0.4884 -0.2067
 6008SOL    HW129660   2.891   2.632   7.124 -0.0545 -2.1598 -0.7420
 6008SOL    HW229661   2.957   2.539   7.214 -0.0984  0.2905 -0.0550
 6009SOL     OW29662   0.370   0.149  16.896 -0.5193  0.3878  0.5056
 6009SOL    HW129663   0.455   0.131  16.936  0.0629 -0.3485 -1.0591
 6009SOL    HW229664   0.393   0.237  16.867  2.6739 -0.3579  0.8451
 6010SOL     OW29665   4.336   1.151   0.910  0.0320 -0.3877 -0.2091
 6010SOL    HW129666   4.333   1.173   0.816  0.3005  2.1495  0.3700
 6010SOL    HW229667   4.381   1.226   0.949 -0.1758 -1.1890  1.5625
 6011SOL     OW29668   2.404   2.158  11.990 -0.2248 -0.6205 -0.3759
 6011SOL    HW129669   2.496   2.163  12.015  0.2476 -1.1724 -1.9870
 6011SOL    HW229670   2.366   2.159  12.077 -0.3677 -0.4342 -0.4391
 6012SOL     OW29671   2.515   0.852   5.793  0.4438  0.5987  0.5435
 6012SOL    HW129672   2.530   0.895   5.877  2.0794  2.5418 -0.7508
 6012SOL    HW229673   2.569   0.899   5.730  2.6432  0.3077  2.2169
 6013SOL     OW29674   1.291   1.739   1.732  0.2741 -0.2913  0.7401
 6013SOL    HW129675   1.254   1.665   1.780 -0.5697 -0.8930 -0.8117
 6013SOL    HW229676   1.227   1.774   1.670  0.9435 -1.9505 -0.8856
 6014SOL     OW29677   2.596   3.532   5.661  0.6062  0.0359 -0.0700
 6014SOL    HW129678   2.658   3.473   5.705  0.6746 -1.3838 -2.0644
 6014SOL    HW229679   2.622   3.518   5.570 -1.1086 -3.4153 -0.0501
 6015SOL     OW29680   3.358   3.331   5.050  0.9554  0.1045 -0.7128
 6015SOL    HW129681   3.359   3.410   5.104 -0.1326 -0.5613  0.2952
 6015SOL    HW229682   3.390   3.273   5.119  0.0136  0.5006  0.0589
 6016SOL     OW29683   2.602   1.857  12.064  0.2372 -0.3154  0.2579
 6016SOL    HW129684   2.615   1.929  12.127  1.2458  0.0361 -0.3567
 6016SOL    HW229685   2.661   1.885  11.994 -2.4764 -1.0162 -2.2656
 6017SOL     OW29686   0.388   3.562   4.787  0.0960 -0.5469  0.3833
 6017SOL    HW129687   0.448   3.552   4.861  0.9867  1.5527 -0.0560
 6017SOL    HW229688   0.305   3.574   4.833 -0.5990 -0.6988 -0.8326
 6018SOL     OW29689   3.008   1.624  11.416  0.2264 -0.2774  0.2911
 6018SOL    HW129690   2.975   1.689  11.478 -0.7453  0.0175 -0.5349
 6018SOL    HW229691   2.960   1.545  11.440 -0.5914  0.4924  1.2343
 6019SOL     OW29692   2.401   4.511   0.474  0.7107 -0.0219  0.3933
 6019SOL    HW129693   2.368   4.524   0.562  1.2264  0.4634  0.5146
 6019SOL    HW229694   2.354   4.434   0.440  1.1698 -0.1334  0.0088
 6020SOL     OW29695   1.935   1.831   7.205  0.1324 -0.0736  0.2090
 6020SOL    HW129696   1.873   1.802   7.272  2.2759 -2.3715  1.1725
 6020SOL    HW229697   2.016   1.793   7.238 -0.5255 -2.2866 -0.7530
 6021SOL     OW29698   3.861   4.233   9.467 -0.3829  0.5223 -0.1111
 6021SOL    HW129699   3.833   4.291   9.397  1.8223 -1.3381 -2.5220
 6021SOL    HW229700   3.946   4.201   9.438 -0.8331 -0.2598 -0.5935
 6022SOL     OW29701   2.510   0.085   8.871 -0.0988  0.3820  0.0400
 6022SOL    HW129702   2.587   0.140   8.854 -2.3553  3.2487 -0.9889
 6022SOL    HW229703   2.561   0.005   8.882 -1.7551 -1.0616 -2.6909
 6023SOL     OW29704   1.112   1.078   6.040 -0.2867 -0.1110  0.4789
 6023SOL    HW129705   1.060   1.159   6.043 -0.8016 -0.4512  0.6777
 6023SOL    HW229706   1.087   1.032   6.120  2.5865 -1.5606  0.5522
 6024SOL     OW29707   0.010   2.762   0.841 -0.2069  0.5686 -0.2188
 6024SOL    HW129708   0.013   2.667   0.830 -0.5748  0.2198  2.5227
 6024SOL    HW229709   4.679   2.768   0.910 -1.4067  0.4460 -1.3533
 6025SOL     OW29710   2.326   0.415   1.189 -0.4640  0.6014 -0.2708
 6025SOL    HW129711   2.382   0.492   1.199 -0.3779  0.6159 -0.8475
 6025SOL    HW229712   2.262   0.456   1.131 -0.5948  0.3427 -0.3102
 6026SOL     OW29713   4.000   2.789   4.940 -0.4066 -0.1728 -0.0408
 6026SOL    HW129714   4.055   2.788   4.861  1.3610  1.5297  1.1888
 6026SOL    HW229715   4.011   2.875   4.981 -0.3830 -0.7640  1.1856
 6027SOL     OW29716   3.289   2.494   3.641 -0.7550 -0.0378  0.0112
 6027SOL    HW129717   3.287   2.452   3.727 -2.5236  1.6870  0.8205
 6027SOL    HW229718   3.383   2.493   3.625 -0.7426 -0.3829  0.0992
 6028SOL     OW29719   3.181   2.535   8.960 -0.1211 -0.5608  1.0893
 6028SOL    HW129720   3.093   2.512   8.990 -0.0605 -0.9625  0.9610
 6028SOL    HW229721   3.174   2.630   8.949  0.6953 -0.3148  2.6857
 6029SOL     OW29722   3.009   2.014   7.843  0.3891  0.2324  0.0211
 6029SOL    HW129723   2.989   1.951   7.774  0.2189  2.8530 -2.3477
 6029SOL    HW229724   2.978   2.098   7.809 -0.7496 -0.2371 -0.1003
 6030SOL     OW29725   0.705   1.371  17.627  0.1715  0.1172  0.2924
 6030SOL    HW129726   0.620   1.414  17.613 -0.8931 -1.9864  0.2776
 6030SOL    HW229727   0.726   1.380  17.720 -2.1642  3.2722  0.5385
 6031SOL     OW29728   0.228   2.296  14.459  0.0238 -0.2639 -0.3550
 6031SOL    HW129729   0.319   2.303  14.487  0.6181 -0.3378 -2.2555
 6031SOL    HW229730   0.225   2.202  14.444  1.7904 -0.4479  0.5213
 6032SOL     OW29731   1.680   0.870  16.183 -0.1920 -0.3668 -0.1582
 6032SOL    HW129732   1.623   0.866  16.106 -0.0455 -2.8750 -0.1413
 6032SOL    HW229733   1.760   0.829  16.152 -0.9457 -0.9362 -1.3557
 6033SOL     OW29734   3.889   1.387   0.473  0.0018  0.8849  0.5165
 6033SOL    HW129735   3.970   1.439   0.471  0.2640  0.4134 -1.1748
 6033SOL    HW229736   3.833   1.441   0.418 -0.4646  0.4758  0.5948
 6034SOL     OW29737   4.682   4.671  16.747  0.2074  0.1065 -0.2107
 6034SOL    HW129738   4.607   4.721  16.778 -0.0006  0.1904 -0.8439
 6034SOL    HW229739   4.731   0.016  16.731 -0.3528  0.2801 -1.1120
 6035SOL     OW29740   0.002   0.315   5.361  0.3637  0.4006  0.1817
 6035SOL    HW129741   4.708   0.350   5.277  1.2785  3.8970  1.3551
 6035SOL    HW229742   0.093   0.344   5.356  1.5699 -3.1026  1.5164
 6036SOL     OW29743   3.996   2.724   4.043  0.4372  0.1909  0.4650
 6036SOL    HW129744   3.995   2.673   4.124  3.8307  1.5900  1.3874
 6036SOL    HW229745   4.017   2.807   4.085  2.1762  0.1863 -0.4141
 6037SOL     OW29746   0.320   4.152  17.205 -0.6780  0.1262 -0.1601
 6037SOL    HW129747   0.260   4.224  17.224  0.1739  0.2472  2.1477
 6037SOL    HW229748   0.318   4.109  17.291 -0.0230  1.4841  0.5456
 6038SOL     OW29749   4.541   4.171  11.078  0.3134 -0.2241  0.0865
 6038SOL    HW129750   4.622   4.177  11.130  0.6174 -1.3288 -0.2603
 6038SOL    HW229751   4.565   4.113  11.006 -1.3868 -0.1338 -0.5532
 6039SOL     OW29752   3.269   2.429   9.394 -0.3487 -0.0728 -0.4906
 6039SOL    HW129753   3.174   2.442   9.406 -0.5732 -0.6641 -1.6730
 6039SOL    HW229754   3.285   2.482   9.472 -0.6936 -0.6150 -0.0562
 6040SOL     OW29755   2.283   0.948  10.542 -0.2212  0.2831  0.3305
 6040SOL    HW129756   2.378   0.943  10.531 -0.1361 -1.0574  1.5810
 6040SOL    HW229757   2.260   0.912  10.456  0.0314 -0.5073  0.5964
 6041SOL     OW29758   3.368   0.463   8.324  0.5088 -0.3773  0.0663
 6041SOL    HW129759   3.333   0.496   8.406 -0.3690  1.9944 -1.2827
 6041SOL    HW229760   3.462   0.456   8.342  0.3009  3.6703  2.6902
 6042SOL     OW29761   3.231   3.311   9.174 -0.2049 -0.0386 -0.1176
 6042SOL    HW129762   3.325   3.309   9.191 -0.5099  0.4714  1.5321
 6042SOL    HW229763   3.221   3.275   9.085  0.3567 -1.5735  0.4458
 6043SOL     OW29764   4.722   3.611   7.343 -0.1426  0.0172  0.4150
 6043SOL    HW129765   4.688   3.545   7.283  1.4221 -2.1549  1.9296
 6043SOL    HW229766   0.063   3.639   7.292  2.2885 -3.1527  2.3555
 6044SOL     OW29767   0.881   4.570   2.354 -0.0095 -0.3892 -0.2486
 6044SOL    HW129768   0.964   4.613   2.333 -0.1457  0.5401  1.1402
 6044SOL    HW229769   0.825   4.621   2.295  0.0063 -0.7603 -0.5805
 6045SOL     OW29770   2.314   1.969   1.145  0.8401  0.4365  0.1475
 6045SOL    HW129771   2.370   2.032   1.190  1.7246 -0.3206  0.0840
 6045SOL    HW229772   2.238   2.019   1.114  1.0179 -0.4589 -1.7187
 6046SOL     OW29773   3.224   0.719  15.203 -0.2792 -0.3543  0.7227
 6046SOL    HW129774   3.255   0.689  15.118 -0.8958  0.8022  0.1034
 6046SOL    HW229775   3.299   0.684  15.252 -0.0030 -1.1111 -0.2469
 6047SOL     OW29776   3.875   0.226   6.660  0.6947 -0.1703 -1.3414
 6047SOL    HW129777   3.913   0.146   6.694  0.5346 -1.0446 -3.2399
 6047SOL    HW229778   3.817   0.255   6.730  0.9686  1.3468 -1.7433
 6048SOL     OW29779   1.846   3.885  17.279 -0.4626  0.0645 -0.2548
 6048SOL    HW129780   1.853   3.952  17.211  2.2790 -0.8451 -0.8678
 6048SOL    HW229781   1.929   3.840  17.264  0.1923  0.2308  2.8052
 6049SOL     OW29782   0.294   0.735   5.419  0.1907 -0.3493 -0.0155
 6049SOL    HW129783   0.326   0.796   5.353 -0.1074  0.8898  0.9859
 6049SOL    HW229784   0.323   0.789   5.493  0.4117  0.7672 -0.9239
 6050SOL     OW29785   1.446   2.154   5.742 -0.2228  0.0339 -0.4973
 6050SOL    HW129786   1.376   2.217   5.726 -0.6026 -0.6379 -1.4994
 6050SOL    HW229787   1.396   2.072   5.750  0.2331 -0.1152  0.9124
 6051SOL     OW29788   4.457   1.892   7.771  0.4329 -0.0167  0.2516
 6051SOL    HW129789   4.449   1.975   7.818  0.3912  0.5043 -0.6946
 6051SOL    HW229790   4.376   1.887   7.720 -0.1495  2.2535  0.9610
 6052SOL     OW29791   3.265   2.993   6.395 -0.1874 -0.0476  0.5877
 6052SOL    HW129792   3.286   2.924   6.332  3.1148  1.2596  0.2383
 6052SOL    HW229793   3.205   2.943   6.450 -0.5579 -1.1477 -0.8404
 6053SOL     OW29794   1.719   1.098  16.310  0.8489  0.7459  0.4704
 6053SOL    HW129795   1.696   1.007  16.294 -0.8827  1.2845 -0.0812
 6053SOL    HW229796   1.802   1.105  16.264  0.0728 -2.3588 -1.3673
 6054SOL     OW29797   2.166   0.467   3.375 -0.3132  0.1788 -0.1916
 6054SOL    HW129798   2.223   0.473   3.452  1.5434  0.9768 -1.6410
 6054SOL    HW229799   2.154   0.372   3.373  0.6616  0.0600 -0.1794
 6055SOL     OW29800   3.505   4.137   4.716 -0.0455 -0.3605  0.4327
 6055SOL    HW129801   3.478   4.212   4.662 -2.2985 -1.1108  0.5169
 6055SOL    HW229802   3.522   4.178   4.800  1.5862 -0.2734  0.0596
 6056SOL     OW29803   3.722   3.382   5.338  0.1894  0.3145  0.5465
 6056SOL    HW129804   3.644   3.375   5.393  1.8953 -0.1848  2.8857
 6056SOL    HW229805   3.692   3.448   5.275 -1.0907 -1.3197 -0.5417
 6057SOL     OW29806   0.560   4.113   5.000  0.9680 -0.3797 -0.1912
 6057SOL    HW129807   0.627   4.055   4.963  0.2241 -0.4450 -1.4315
 6057SOL    HW229808   0.533   4.146   4.914 -1.9731  2.8302  2.0116
 6058SOL     OW29809   1.254   3.481   1.144  0.2054 -0.1890  0.6566
 6058SOL    HW129810   1.208   3.559   1.113  0.7750 -1.1876 -2.7393
 6058SOL    HW229811   1.291   3.510   1.227  0.7054 -0.9406  0.6976
 6059SOL     OW29812   3.612   0.634   6.330  1.1275  0.1316  0.3487
 6059SOL    HW129813   3.689   0.581   6.308  0.7763 -0.6072  0.9403
 6059SOL    HW229814   3.586   0.652   6.240  2.0628 -2.5821 -0.4534
 6060SOL     OW29815   0.449   1.237   2.264  0.0972 -0.1736 -0.0472
 6060SOL    HW129816   0.528   1.248   2.318 -0.0930  1.1204 -0.0345
 6060SOL    HW229817   0.429   1.149   2.295  1.1826 -0.2184  0.5477
 6061SOL     OW29818   0.807   0.017   7.663 -0.0683  0.1119  0.3247
 6061SOL    HW129819   0.762   4.722   7.742 -1.3467 -0.1719 -0.5096
 6061SOL    HW229820   0.896   0.039   7.692 -0.5258 -0.0677  1.8615
 6062SOL     OW29821   1.076   3.603   8.953  0.0617  0.1329 -0.4167
 6062SOL    HW129822   1.130   3.597   9.031  1.2964 -0.4994 -1.3156
 6062SOL    HW229823   0.989   3.583   8.985  0.5818  0.2889  1.0929
 6063SOL     OW29824   0.813   3.805  11.144  0.0024  0.5811 -0.2227
 6063SOL    HW129825   0.856   3.857  11.212 -0.7256  0.8943 -0.0013
 6063SOL    HW229826   0.733   3.857  11.150  0.1192  0.8191 -0.7005
 6064SOL     OW29827   3.404   4.526  15.714 -0.4401  0.6965  0.0039
 6064SOL    HW129828   3.409   4.589  15.643  0.9429  1.8633  1.1200
 6064SOL    HW229829   3.495   4.505  15.736  0.1384  0.8296 -2.2760
 6065SOL     OW29830   3.639   2.129   3.233  0.0831  0.0267  0.4807
 6065SOL    HW129831   3.730   2.122   3.206 -0.4112 -1.2812 -0.7984
 6065SOL    HW229832   3.661   2.140   3.326  0.4825 -1.4562  0.5670
 6066SOL     OW29833   3.472   1.292   5.006 -0.4571 -0.5472  0.5863
 6066SOL    HW129834   3.529   1.232   4.958  0.3581  1.3748 -0.8613
 6066SOL    HW229835   3.536   1.337   5.060 -2.2104  3.1982 -0.4800
 6067SOL     OW29836   2.407   4.158   6.575 -0.0691  0.2379  0.1450
 6067SOL    HW129837   2.429   4.183   6.665 -2.0299  0.4716  0.5499
 6067SOL    HW229838   2.401   4.241   6.526  0.6189 -1.1958 -2.3903
 6068SOL     OW29839   0.025   3.831   5.486  0.1072 -0.2309 -0.7396
 6068SOL    HW129840   4.720   3.769   5.548 -0.2652 -1.0447 -1.8028
 6068SOL    HW229841   4.725   3.915   5.515  0.0815 -0.8667  1.1022
 6069SOL     OW29842   1.428   1.216   5.616  0.3901 -0.3714  0.0647
 6069SOL    HW129843   1.433   1.190   5.524  0.4528 -2.7682  0.7587
 6069SOL    HW229844   1.477   1.148   5.663  0.9679 -0.4853 -0.6941
 6070SOL     OW29845   0.730   2.770   6.247 -0.1964  0.5002  0.0440
 6070SOL    HW129846   0.787   2.733   6.179  0.4115  0.0625  0.7981
 6070SOL    HW229847   0.756   2.715   6.321 -0.2516  0.5538  0.1035
 6071SOL     OW29848   0.804   4.617   3.653 -0.1736 -0.9753  0.4674
 6071SOL    HW129849   0.895   4.624   3.682  0.0502  1.5916 -0.8446
 6071SOL    HW229850   0.801   4.619   3.557  1.9272 -0.7251  0.4224
 6072SOL     OW29851   1.924   0.989   5.813 -0.1600  0.1456 -0.7102
 6072SOL    HW129852   1.952   1.036   5.735 -1.9270  1.2423 -0.6709
 6072SOL    HW229853   1.991   1.011   5.878  0.4155 -0.3218 -1.1461
 6073SOL     OW29854   4.078   2.644   6.582 -1.0696 -0.0618 -0.2119
 6073SOL    HW129855   4.099   2.735   6.560 -2.4308 -0.2331 -2.2954
 6073SOL    HW229856   4.060   2.638   6.676  4.0268  0.7476  0.7748
 6074SOL     OW29857   1.659   0.849  12.557  0.4509  0.1724 -0.3288
 6074SOL    HW129858   1.616   0.934  12.548 -0.4501 -0.3840 -1.3054
 6074SOL    HW229859   1.722   0.858  12.486  0.1106 -0.2799 -0.6894
 6075SOL     OW29860   3.895   3.823   8.656 -0.3714 -0.3666  0.4854
 6075SOL    HW129861   3.938   3.865   8.582 -2.0758  1.4991  0.5609
 6075SOL    HW229862   3.813   3.871   8.669  0.6109  1.2441  0.8137
 6076SOL     OW29863   2.407   2.308   0.161 -0.4843  0.1390  0.1471
 6076SOL    HW129864   2.319   2.281   0.135 -0.3442  2.4869 -2.6701
 6076SOL    HW229865   2.399   2.373   0.231 -2.6760  1.2381 -1.1574
 6077SOL     OW29866   0.404   0.559   0.717  0.5457  0.1104 -0.2950
 6077SOL    HW129867   0.459   0.538   0.792  0.3943  1.7580  0.2750
 6077SOL    HW229868   0.458   0.532   0.643  2.3785  1.0261  0.7230
 6078SOL     OW29869   4.055   0.391   8.279 -0.1364 -0.0681 -0.1205
 6078SOL    HW129870   3.982   0.400   8.218  1.6121 -0.4463 -2.2758
 6078SOL    HW229871   4.014   0.368   8.362 -0.9521 -0.1661 -0.5525
 6079SOL     OW29872   2.081   2.574  17.479 -0.6300 -0.5901  0.8138
 6079SOL    HW129873   2.139   2.499  17.466 -0.0304  0.4957 -2.7516
 6079SOL    HW229874   2.015   2.553  17.412  1.3730 -0.4150 -1.2394
 6080SOL     OW29875   0.366   3.558   0.940  0.5952 -0.6654  0.1395
 6080SOL    HW129876   0.277   3.526   0.922  0.4565  0.4815 -1.1973
 6080SOL    HW229877   0.402   3.614   0.871  0.1003  0.2058  0.5848
 6081SOL     OW29878   3.288   1.962   3.653 -0.3144  0.0387 -0.0362
 6081SOL    HW129879   3.233   2.026   3.607 -2.7686 -1.8512  0.3103
 6081SOL    HW229880   3.376   1.975   3.616 -0.3026  2.7485  0.9623
 6082SOL     OW29881   4.053   3.877  14.086  0.4623  0.4250 -0.0298
 6082SOL    HW129882   3.995   3.815  14.130  0.4205 -0.8174 -1.8202
 6082SOL    HW229883   4.137   3.848  14.122  0.3232 -1.0425 -0.8644
 6083SOL     OW29884   4.012   4.733   6.269  0.4747  0.2587  0.1813
 6083SOL    HW129885   3.943   4.734   6.335 -0.1118  1.8377 -0.4674
 6083SOL    HW229886   4.072   4.662   6.294  0.5267  0.3967  0.4496
 6084SOL     OW29887   4.391   1.462   0.247 -0.4119  0.5652 -0.0216
 6084SOL    HW129888   4.405   1.471   0.153  2.3656 -0.3323  0.3039
 6084SOL    HW229889   4.460   1.398   0.264  1.8333  2.7693 -0.7770
 6085SOL     OW29890   0.473   2.628  10.980 -0.2713 -0.2877 -0.5590
 6085SOL    HW129891   0.395   2.579  10.953 -0.2661 -1.0634  0.8599
 6085SOL    HW229892   0.521   2.595  10.904  0.7369  2.2123 -1.0011
 6086SOL     OW29893   3.730   2.782   6.378  0.1726  0.2255 -0.2751
 6086SOL    HW129894   3.767   2.694   6.385 -1.8255 -0.4977  1.1388
 6086SOL    HW229895   3.641   2.755   6.355 -0.0257  0.7998 -0.1791
 6087SOL     OW29896   2.618   2.373   1.759  0.6156  1.2960 -0.2034
 6087SOL    HW129897   2.683   2.331   1.815  0.3436  2.0004  0.6355
 6087SOL    HW229898   2.676   2.404   1.689 -0.6976  1.0698 -1.4009
 6088SOL     OW29899   2.349   0.003  16.056 -0.1254 -0.3532  0.8350
 6088SOL    HW129900   2.257   0.000  16.084 -0.5440  1.8275 -0.3684
 6088SOL    HW229901   2.341   4.691  15.973  0.4363  0.3801  0.3741
 6089SOL     OW29902   3.970   1.428   6.517  0.0541  0.2757 -0.3925
 6089SOL    HW129903   4.000   1.494   6.581 -0.5127  1.0971 -0.9696
 6089SOL    HW229904   3.888   1.474   6.498 -0.3696  0.0033  0.7709
 6090SOL     OW29905   2.399   2.157  17.415 -0.3543  0.0520 -0.2183
 6090SOL    HW129906   2.485   2.154  17.457 -0.7085  1.4913  0.5921
 6090SOL    HW229907   2.422   2.133  17.325 -2.1642  1.9167 -1.1881
 6091SOL     OW29908   1.117   2.924  12.756  0.2296  0.2433  0.4906
 6091SOL    HW129909   1.105   2.856  12.822 -2.3228  0.2629  0.0511
 6091SOL    HW229910   1.152   2.872  12.684 -1.0211  0.6665 -0.4180
 6092SOL     OW29911   4.040   1.553   6.760 -0.0708 -0.5372  0.0520
 6092SOL    HW129912   4.132   1.531   6.749  0.5819  1.6822  1.0082
 6092SOL    HW229913   4.051   1.592   6.847 -1.5200  0.8055 -0.3629
 6093SOL     OW29914   3.881   2.054   3.070 -0.4416 -0.7627 -0.8487
 6093SOL    HW129915   3.942   2.011   3.130  0.5708  0.3743 -1.0639
 6093SOL    HW229916   3.873   1.991   2.998  1.0381  0.2179 -1.8739
 6094SOL     OW29917   1.095   1.813   1.569  0.2090  0.3548 -0.2411
 6094SOL    HW129918   1.035   1.826   1.495  2.6092  1.9986 -1.8885
 6094SOL    HW229919   1.127   1.899   1.595 -0.9658  0.1713  1.7662
 6095SOL     OW29920   1.448   3.876   1.496 -0.0777 -0.0455  0.0272
 6095SOL    HW129921   1.416   3.953   1.543 -4.0710 -1.6845 -0.0320
 6095SOL    HW229922   1.539   3.902   1.482  0.0991 -0.3982  0.5331
 6096SOL     OW29923   0.437   1.990   8.701 -0.3345 -0.2831  0.0797
 6096SOL    HW129924   0.363   1.985   8.640  0.8465 -0.3284 -1.3397
 6096SOL    HW229925   0.464   1.898   8.697  0.9856  0.1117 -0.0704
 6097SOL     OW29926   2.764   4.225   2.698 -0.4403  0.0924  0.7334
 6097SOL    HW129927   2.803   4.304   2.736  0.5839  0.6737 -1.4910
 6097SOL    HW229928   2.756   4.168   2.774  0.0170  0.0041  0.7156
 6098SOL     OW29929   0.345   2.709   7.272  0.2820 -0.0010 -0.0927
 6098SOL    HW129930   0.346   2.796   7.310  1.9612 -0.5368  1.1083
 6098SOL    HW229931   0.297   2.657   7.336 -1.2490 -0.3677 -1.5384
 6099SOL     OW29932   2.583   2.949   0.288 -0.5346  0.8935  0.3320
 6099SOL    HW129933   2.547   2.996   0.363 -1.0415 -1.6850  1.7265
 6099SOL    HW229934   2.578   3.022   0.226 -0.6837  0.8961  0.3478
 6100SOL     OW29935   1.474   0.956   0.080  0.0105 -0.3229  0.7494
 6100SOL    HW129936   1.443   0.887   0.022  2.5812 -0.4553 -0.4612
 6100SOL    HW229937   1.567   0.941   0.068 -0.1498 -2.7123  2.4113
 6101SOL     OW29938   1.425   1.529   5.462 -0.0325 -0.6434 -0.6449
 6101SOL    HW129939   1.403   1.618   5.490 -2.3405 -1.3899 -0.1293
 6101SOL    HW229940   1.343   1.485   5.483  0.0271  1.3798  3.9659
 6102SOL     OW29941   0.786   3.121   7.232 -0.7660  0.0122 -0.0235
 6102SOL    HW129942   0.786   3.166   7.148  0.1452  2.8541  1.5107
 6102SOL    HW229943   0.871   3.078   7.224 -0.7575 -0.1437  0.9356
 6103SOL     OW29944   4.266   3.771   2.310  0.7911 -0.1739  0.1822
 6103SOL    HW129945   4.280   3.866   2.305  0.2853 -0.1223 -0.2088
 6103SOL    HW229946   4.291   3.727   2.392  0.1760  1.5680  1.3071
 6104SOL     OW29947   3.975   0.080   6.014  0.0001  0.1763  0.1600
 6104SOL    HW129948   4.002   0.170   6.031  1.5208 -0.0226 -1.1316
 6104SOL    HW229949   4.002   0.037   6.095 -1.9125  1.1367  1.3017
 6105SOL     OW29950   2.943   2.118   2.240 -0.0588  0.3536  0.7129
 6105SOL    HW129951   3.033   2.145   2.258  0.4739 -1.7072  1.2195
 6105SOL    HW229952   2.950   2.022   2.235  0.3191  0.3999  0.3907
 6106SOL     OW29953   3.730   1.934   3.781  0.0716  0.9957 -0.0813
 6106SOL    HW129954   3.764   1.914   3.869  0.4741  0.3299 -0.3907
 6106SOL    HW229955   3.776   2.016   3.765 -1.1708  1.1367 -2.8955
 6107SOL     OW29956   0.402   2.889  12.091 -0.3417 -0.6587 -0.2877
 6107SOL    HW129957   0.492   2.908  12.066 -0.3063 -0.9785 -0.4062
 6107SOL    HW229958   0.416   2.821  12.158 -2.3079 -0.9220 -0.1301
 6108SOL     OW29959   0.926   1.672   6.845 -0.1420 -0.0328 -0.3625
 6108SOL    HW129960   0.992   1.714   6.791  1.9206 -2.0433  0.5614
 6108SOL    HW229961   0.977   1.668   6.926 -2.8961  0.3482  1.3903
 6109SOL     OW29962   4.201   3.733   8.245 -0.6175  0.0114 -0.9686
 6109SOL    HW129963   4.283   3.683   8.251 -0.9773 -0.6242 -1.3917
 6109SOL    HW229964   4.224   3.772   8.161 -1.7877  0.8483 -0.8958
 6110SOL     OW29965   2.162   2.070   4.711 -0.4764 -0.0725  0.4217
 6110SOL    HW129966   2.113   2.000   4.667  0.3186 -0.0873 -0.4394
 6110SOL    HW229967   2.149   2.042   4.802  0.4180  0.8659  0.8436
 6111SOL     OW29968   0.266   1.030   6.446 -0.4818  0.3893  0.0075
 6111SOL    HW129969   0.273   1.030   6.541 -0.4970  0.3670  0.0087
 6111SOL    HW229970   0.276   0.936   6.429 -4.0032  0.2316 -1.2471
 6112SOL     OW29971   2.769   0.937   4.533 -0.3537  0.1452 -0.0241
 6112SOL    HW129972   2.816   1.016   4.505  2.1310 -1.5979 -0.6959
 6112SOL    HW229973   2.841   0.875   4.538 -1.5013 -1.3294 -1.7453
 6113SOL     OW29974   2.467   2.050   8.016  0.1810 -0.0061 -0.1800
 6113SOL    HW129975   2.420   2.035   7.934  1.6520 -0.1296 -1.0092
 6113SOL    HW229976   2.431   2.134   8.044  1.7786 -0.6922  3.8842
 6114SOL     OW29977   0.166   3.535   1.758  0.4367  0.1660 -0.2724
 6114SOL    HW129978   0.133   3.588   1.685  1.4296  0.4630 -0.5109
 6114SOL    HW229979   0.253   3.571   1.778  0.9030 -1.6651  1.0241
 6115SOL     OW29980   2.910   4.268  11.476 -0.1819 -0.0757 -0.0357
 6115SOL    HW129981   2.971   4.325  11.522  1.3700 -0.8487 -1.1537
 6115SOL    HW229982   2.849   4.233  11.540 -0.2903 -0.2029 -0.2081
 6116SOL     OW29983   2.345   3.473  12.313 -0.4025  0.3035 -0.1326
 6116SOL    HW129984   2.260   3.429  12.306  1.7284 -3.4707 -2.2313
 6116SOL    HW229985   2.393   3.452  12.233  1.7210 -0.3356  1.3146
 6117SOL     OW29986   4.593   0.475  16.698 -0.2615  0.3456 -0.4235
 6117SOL    HW129987   4.606   0.552  16.754 -2.2173 -0.0549  0.5630
 6117SOL    HW229988   4.681   0.446  16.674 -0.2321 -0.0607  0.1840
 6118SOL     OW29989   2.514   1.161   2.471  0.1706 -0.6390  0.2629
 6118SOL    HW129990   2.561   1.237   2.506 -1.1062  0.3502 -0.1739
 6118SOL    HW229991   2.426   1.196   2.480  0.4520  1.1456 -3.7962
 6119SOL     OW29992   3.050   1.308   8.935  0.4726  0.0576  0.1808
 6119SOL    HW129993   3.101   1.331   9.012  0.5566 -0.5225  0.3014
 6119SOL    HW229994   3.076   1.376   8.872  2.7259 -0.8683  0.1023
 6120SOL     OW29995   1.156   0.289  11.631  0.0426 -0.3251 -0.0278
 6120SOL    HW129996   1.068   0.273  11.666 -1.4955  0.7688 -3.4246
 6120SOL    HW229997   1.124   0.277  11.541 -1.5621 -1.5164  0.6868
 6121SOL     OW29998   2.105   1.422  16.041 -0.1730 -0.5235 -0.5360
 6121SOL    HW129999   2.018   1.462  16.048 -0.5249 -1.4721  0.7064
 6121SOL    HW230000   2.156   1.496  16.011  1.3323 -1.9302 -1.4437
 6122SOL     OW30001   0.167   1.254  16.915 -0.5963 -0.0908 -1.0694
 6122SOL    HW130002   0.094   1.240  16.976  0.4937  0.9023  0.4723
 6122SOL    HW230003   0.183   1.162  16.894 -2.8022 -1.0188  1.2701
 6123SOL     OW30004   0.401   0.538  13.054  0.3579  0.1355 -0.3979
 6123SOL    HW130005   0.496   0.553  13.057  0.3345 -0.1024  1.7622
 6123SOL    HW230006   0.405   0.456  13.005 -0.2597 -1.4338  2.1478
 6124SOL     OW30007   4.044   2.051   4.216 -0.0527 -0.0181  0.4057
 6124SOL    HW130008   4.041   2.107   4.294  0.8075 -0.4160  0.7330
 6124SOL    HW230009   3.965   1.999   4.225 -0.1203  0.0339  0.0971
 6125SOL     OW30010   3.731   2.679  17.535  0.2491  0.6253 -0.4226
 6125SOL    HW130011   3.676   2.695  17.458  0.0377 -0.0622 -0.4189
 6125SOL    HW230012   3.715   2.754  17.592  2.8310 -0.5975  1.9273
 6126SOL     OW30013   3.151   4.401   0.755  0.0346  0.1243 -0.2775
 6126SOL    HW130014   3.208   4.372   0.827  0.0469 -0.3117 -0.4631
 6126SOL    HW230015   3.219   4.400   0.688 -0.8996  0.3701 -1.2324
 6127SOL     OW30016   3.544   3.083   9.793  0.7869  0.0628 -0.3058
 6127SOL    HW130017   3.476   3.101   9.728 -1.1484 -4.0571  0.5183
 6127SOL    HW230018   3.583   3.169   9.806 -0.8009  0.9959 -1.7205
 6128SOL     OW30019   3.172   3.056   5.029  0.3716 -0.2141  0.1473
 6128SOL    HW130020   3.127   3.068   5.113 -1.0292  0.1662 -0.6583
 6128SOL    HW230021   3.142   3.127   4.972  2.1906 -0.7752 -1.5058
 6129SOL     OW30022   3.235   4.639   6.654 -0.6753  0.0997 -0.4543
 6129SOL    HW130023   3.289   4.624   6.732  0.7098  1.6574 -1.1126
 6129SOL    HW230024   3.202   4.551   6.635  1.1721 -1.0349  1.6537
 6130SOL     OW30025   2.949   3.377   9.000  0.1104  0.1329 -1.0663
 6130SOL    HW130026   3.018   3.436   8.970 -0.4781  2.5004  2.2415
 6130SOL    HW230027   2.902   3.435   9.060  1.2880  0.7904 -0.7964
 6131SOL     OW30028   3.014   3.721   6.791 -0.4836 -0.2960  0.8428
 6131SOL    HW130029   2.956   3.664   6.840  0.1518 -0.1147  1.8199
 6131SOL    HW230030   2.983   3.809   6.811  0.0006  0.1301 -0.2571
 6132SOL     OW30031   1.603   1.922   5.447  0.6433  0.3033  0.4676
 6132SOL    HW130032   1.635   1.867   5.375 -0.6263 -1.1829  1.0436
 6132SOL    HW230033   1.624   2.010   5.418 -0.0685  0.2074 -0.3373
 6133SOL     OW30034   2.661   1.525  11.643 -0.5197  0.0669  0.1001
 6133SOL    HW130035   2.652   1.542  11.737  1.2678 -0.6403  0.4051
 6133SOL    HW230036   2.690   1.610  11.610  0.8566 -0.0588  0.9858
 6134SOL     OW30037   2.486   4.136  15.783  0.7338 -0.0155  0.2349
 6134SOL    HW130038   2.437   4.173  15.857  2.9635  1.9310  0.7195
 6134SOL    HW230039   2.420   4.095  15.726 -0.8607 -0.7880  2.6194
 6135SOL     OW30040   0.243   4.603   2.290  0.3078 -0.0167  0.6481
 6135SOL    HW130041   0.295   4.563   2.220 -0.4720 -0.6485  0.4230
 6135SOL    HW230042   0.301   4.582   2.363 -0.8548 -1.5115  1.1192
 6136SOL     OW30043   2.607   1.868  14.184 -0.5460 -0.3055 -0.2176
 6136SOL    HW130044   2.617   1.813  14.106 -1.1056 -1.5073  0.5545
 6136SOL    HW230045   2.613   1.954  14.142  0.5906  0.6882  2.0169
 6137SOL     OW30046   3.784   2.907   9.764  0.1024 -0.3037  0.4282
 6137SOL    HW130047   3.723   2.978   9.787 -0.3007 -0.3620 -0.4870
 6137SOL    HW230048   3.841   2.947   9.699 -0.7478 -0.1007 -0.1902
 6138SOL     OW30049   3.816   3.312  13.540  0.0988 -0.5104  0.1576
 6138SOL    HW130050   3.837   3.231  13.586 -0.6762 -0.3940  0.7015
 6138SOL    HW230051   3.764   3.359  13.605  1.3532  0.8215  0.1998
 6139SOL     OW30052   2.429   0.973   7.195 -0.2579 -0.1696  0.2371
 6139SOL    HW130053   2.357   0.919   7.163  0.2118 -1.7083  1.7408
 6139SOL    HW230054   2.443   1.028   7.118  1.6008 -1.7345 -0.5316
 6140SOL     OW30055   1.069   4.356  11.137 -0.4453 -0.5525  0.3794
 6140SOL    HW130056   1.100   4.446  11.154  1.6674 -1.3688  0.8575
 6140SOL    HW230057   0.978   4.369  11.162 -1.2967 -2.7106 -1.6427
 6141SOL     OW30058   2.987   0.894   0.714  0.9169  0.1481  0.2707
 6141SOL    HW130059   2.921   0.845   0.763  2.0864 -0.6992  1.0042
 6141SOL    HW230060   3.065   0.873   0.765 -0.1749 -0.9873  1.4933
 6142SOL     OW30061   2.305   2.361   7.323  0.4263  0.4842  0.2684
 6142SOL    HW130062   2.225   2.404   7.294  0.7553  1.4373  0.7556
 6142SOL    HW230063   2.344   2.404   7.399  0.8308  0.7961 -0.1218
 6143SOL     OW30064   2.909   2.026  17.592  0.7568 -0.2779  0.4650
 6143SOL    HW130065   2.916   1.942  17.547  0.9832  0.2235 -0.4429
 6143SOL    HW230066   2.903   1.992  17.681 -1.7365 -1.3196 -0.0920
 6144SOL     OW30067   1.238   4.053  14.425  0.3783 -0.0469 -0.1827
 6144SOL    HW130068   1.227   4.007  14.508 -1.2948 -0.0514 -0.3975
 6144SOL    HW230069   1.186   3.996  14.368 -1.9564  1.7129  0.2003
 6145SOL     OW30070   0.898   0.877  12.968 -0.2620 -0.0044  0.2869
 6145SOL    HW130071   0.951   0.927  13.030 -0.4677  0.9396 -0.2964
 6145SOL    HW230072   0.908   0.918  12.883 -1.0121 -1.1340 -0.3507
 6146SOL     OW30073   0.727   2.345   4.317  0.0466 -0.4797 -1.1156
 6146SOL    HW130074   0.750   2.253   4.310  0.9707 -0.5012  2.4999
 6146SOL    HW230075   0.634   2.339   4.339  0.0171 -0.0409 -1.1055
 6147SOL     OW30076   3.264   1.564   5.078  0.1663 -0.1340  0.6401
 6147SOL    HW130077   3.187   1.608   5.114 -1.5450 -1.2438 -1.6186
 6147SOL    HW230078   3.259   1.592   4.986  1.3253  0.0354  0.6356
 6148SOL     OW30079   3.729   2.834   5.514 -0.0374 -0.7197  0.2057
 6148SOL    HW130080   3.751   2.913   5.463  0.1555 -0.0932  1.2451
 6148SOL    HW230081   3.772   2.862   5.595  0.0287  0.1440 -0.1228
 6149SOL     OW30082   3.240   4.649   2.107  1.0830 -0.3774 -0.8982
 6149SOL    HW130083   3.273   4.569   2.149 -1.1137 -0.2632  1.0524
 6149SOL    HW230084   3.313   4.710   2.102  1.2412 -0.7008 -2.6309
 6150SOL     OW30085   2.677   1.750   2.736 -0.1165  0.0255 -0.2369
 6150SOL    HW130086   2.587   1.775   2.755 -0.2667 -1.7487  1.3577
 6150SOL    HW230087   2.685   1.657   2.756  2.2353  0.4948  0.9426
 6151SOL     OW30088   1.058   2.377   3.745  0.1288 -0.4939 -0.3624
 6151SOL    HW130089   0.981   2.405   3.795 -1.0813 -0.9304 -1.9495
 6151SOL    HW230090   1.022   2.370   3.656 -0.1191  1.6992 -0.4138
 6152SOL     OW30091   0.951   2.088   2.503 -0.2097 -0.0032 -0.4732
 6152SOL    HW130092   0.998   2.113   2.423  1.1605 -1.3692 -0.0717
 6152SOL    HW230093   0.978   2.159   2.561  0.7339 -0.5294 -0.2803
 6153SOL     OW30094   3.209   3.809   3.318  0.1123  0.3387  0.2008
 6153SOL    HW130095   3.113   3.806   3.326 -0.0314 -1.0310 -1.9101
 6153SOL    HW230096   3.230   3.720   3.291  2.1504  1.2096 -1.0927
 6154SOL     OW30097   0.633   2.810   7.481 -0.0016  0.2171 -0.3058
 6154SOL    HW130098   0.579   2.877   7.441 -2.0442 -0.6957  0.9229
 6154SOL    HW230099   0.656   2.751   7.408 -0.0481  0.3412 -0.4203
 6155SOL     OW30100   4.082   2.737   9.594  0.0821  0.5657 -0.4699
 6155SOL    HW130101   4.012   2.800   9.582  0.7157  1.2328 -0.6628
 6155SOL    HW230102   4.149   2.802   9.615 -0.3852  0.3774  1.6119
 6156SOL     OW30103   2.923   4.707   9.150 -0.1419  0.1912  0.1180
 6156SOL    HW130104   2.962   4.623   9.173 -2.6428 -0.3697  2.1950
 6156SOL    HW230105   2.927   4.711   9.054  0.6149 -2.8559  0.0142
 6157SOL     OW30106   0.034   3.414   7.882 -0.0792  0.3098 -0.1913
 6157SOL    HW130107   0.098   3.437   7.949 -1.1893  1.7882  0.3653
 6157SOL    HW230108   0.065   3.476   7.817  0.7150  1.0796  0.9346
 6158SOL     OW30109   1.513   3.205   3.851  0.1534 -0.6467 -0.2405
 6158SOL    HW130110   1.494   3.129   3.906 -2.5119  0.4954  0.4113
 6158SOL    HW230111   1.537   3.273   3.914  0.7241 -0.8186 -0.2702
 6159SOL     OW30112   3.529   2.738   2.551 -0.4657 -0.1002 -0.5059
 6159SOL    HW130113   3.509   2.666   2.612 -0.2546  0.1669 -0.1173
 6159SOL    HW230114   3.619   2.717   2.526 -0.2106  2.0831 -1.4484
 6160SOL     OW30115   4.672   1.908   1.735  0.1257  0.5677  0.0514
 6160SOL    HW130116   4.636   1.912   1.824  1.3355  2.1612  0.4713
 6160SOL    HW230117   0.008   1.971   1.747  0.6606  0.4970 -2.7905
 6161SOL     OW30118   2.803   2.651   1.438 -0.2614  0.3602 -0.0935
 6161SOL    HW130119   2.725   2.707   1.441  1.7667  3.3370 -2.9556
 6161SOL    HW230120   2.870   2.700   1.485 -0.7423  0.1377  0.8057
 6162SOL     OW30121   3.305   2.737   7.549 -0.1604  0.1064  0.3781
 6162SOL    HW130122   3.353   2.796   7.491 -1.6632 -1.6300 -2.6296
 6162SOL    HW230123   3.257   2.806   7.596 -1.7801 -0.8605  0.1400
 6163SOL     OW30124   3.813   3.785   7.686  0.2318 -0.4453 -0.4215
 6163SOL    HW130125   3.823   3.729   7.609 -0.1551  3.0043 -2.9892
 6163SOL    HW230126   3.783   3.867   7.645 -0.7880 -0.3157  0.5918
 6164SOL     OW30127   2.069   0.938   5.116  0.4519 -0.0297 -0.0770
 6164SOL    HW130128   1.990   0.920   5.065  1.1959 -2.6791 -0.2722
 6164SOL    HW230129   2.140   0.904   5.063  1.7483  1.6131  0.6185
 6165SOL     OW30130   3.465   0.148   6.046 -0.4924  0.3454  0.2738
 6165SOL    HW130131   3.478   0.152   6.141 -1.5349  0.5993  0.4054
 6165SOL    HW230132   3.542   0.099   6.019 -0.8970  0.3774 -0.9556
 6166SOL     OW30133   1.280   4.320   5.973 -0.6087  0.2534  0.4285
 6166SOL    HW130134   1.348   4.264   5.935 -0.7917 -1.4253  2.5501
 6166SOL    HW230135   1.203   4.273   5.943 -0.8317  2.3420 -2.2900
 6167SOL     OW30136   4.270   0.739   8.753  0.0935  0.5345 -0.2736
 6167SOL    HW130137   4.332   0.792   8.704  1.6904 -1.6869 -0.6599
 6167SOL    HW230138   4.249   0.674   8.685  0.4009 -2.0419  2.0887
 6168SOL     OW30139   0.973   3.339   7.471 -0.1624 -0.1258  0.0334
 6168SOL    HW130140   1.065   3.331   7.449 -0.0363  0.3355  0.3931
 6168SOL    HW230141   0.957   3.390   7.392  0.5643  0.8839  0.5489
 6169SOL     OW30142   0.454   1.119  16.806  0.0932 -0.1286  0.3914
 6169SOL    HW130143   0.447   1.197  16.752  1.8753 -2.3561 -3.1173
 6169SOL    HW230144   0.375   1.075  16.772 -0.4314  0.7251  0.5087
 6170SOL     OW30145   1.454   1.297  10.162 -0.8963 -0.5413  0.5527
 6170SOL    HW130146   1.445   1.287  10.257  0.8690  0.4519  0.8276
 6170SOL    HW230147   1.536   1.248  10.150 -0.6342 -0.4650  1.9545
 6171SOL     OW30148   4.181   1.048   9.307 -0.3456  0.3051 -0.7987
 6171SOL    HW130149   4.145   1.015   9.389  1.9028 -1.0781 -0.3785
 6171SOL    HW230150   4.122   1.120   9.285 -1.8564 -0.8295 -0.4426
 6172SOL     OW30151   3.626   0.416  13.479  0.0144  0.2012 -0.0497
 6172SOL    HW130152   3.720   0.427  13.487  0.2347 -0.1943 -2.0653
 6172SOL    HW230153   3.603   0.475  13.407  2.2785  0.6667 -0.3754
 6173SOL     OW30154   1.632   1.280   1.726 -0.1737  0.3177 -0.5402
 6173SOL    HW130155   1.561   1.344   1.736  0.9099  1.9414 -3.2559
 6173SOL    HW230156   1.689   1.343   1.682  1.7964 -0.6764  0.6039
 6174SOL     OW30157   4.252   1.319   9.648 -0.4966 -0.1169 -0.0631
 6174SOL    HW130158   4.320   1.372   9.691 -1.0485  0.6787 -0.1695
 6174SOL    HW230159   4.180   1.381   9.660  2.4584  3.1847  0.7313
 6175SOL     OW30160   0.805   2.062  15.983 -0.3621  0.1394 -0.2420
 6175SOL    HW130161   0.864   2.106  15.921 -1.8921 -2.6358 -3.6238
 6175SOL    HW230162   0.831   1.970  15.977  1.9592  0.7261  0.9177
 6176SOL     OW30163   4.719   2.574   4.887 -0.2939 -0.1375  0.0086
 6176SOL    HW130164   4.629   2.563   4.916 -0.6133 -0.8439 -1.2819
 6176SOL    HW230165   0.028   2.611   4.964  0.5733 -0.0085 -0.5440
 6177SOL     OW30166   0.365   0.951   1.489  0.8006  0.2381 -0.6301
 6177SOL    HW130167   0.336   0.997   1.567 -0.4455  0.5039 -1.2490
 6177SOL    HW230168   0.292   0.973   1.431 -2.8769  0.0183  3.9561
 6178SOL     OW30169   1.331   4.711   8.419 -0.3007  0.0403  0.2422
 6178SOL    HW130170   1.404   4.655   8.444  0.3881  0.8293 -0.0237
 6178SOL    HW230171   1.307   0.024   8.498 -0.8452  1.7063 -0.9337
 6179SOL     OW30172   3.965   3.318   7.110  0.2790  0.0295 -0.0331
 6179SOL    HW130173   4.048   3.352   7.142  0.4529 -0.6641  0.2606
 6179SOL    HW230174   3.980   3.321   7.015 -1.4677 -1.3529 -0.3558
 6180SOL     OW30175   1.091   0.846   2.885  0.8389  0.5393 -0.5851
 6180SOL    HW130176   1.028   0.774   2.878  0.2587  1.1226 -1.3133
 6180SOL    HW230177   1.107   0.831   2.978  0.8524  0.4948 -0.5947
 6181SOL     OW30178   3.466   3.692   7.665 -0.1470 -0.4047 -0.0182
 6181SOL    HW130179   3.551   3.654   7.687  0.1301  0.0641 -0.2809
 6181SOL    HW230180   3.454   3.764   7.728 -0.6005 -0.4560 -0.0410
 6182SOL     OW30181   4.032   2.966  10.666  0.5490  0.4098  0.2518
 6182SOL    HW130182   3.988   2.904  10.608 -0.6186  1.7160 -0.2583
 6182SOL    HW230183   3.991   2.944  10.749  0.4771  1.9625  0.6286
 6183SOL     OW30184   0.158   0.673   0.676 -0.0403  0.2293  0.2197
 6183SOL    HW130185   0.105   0.632   0.745 -0.2061 -1.4474 -0.8856
 6183SOL    HW230186   0.246   0.646   0.703  1.3765  1.3006 -3.2256
 6184SOL     OW30187   0.218   2.852   1.202 -0.4543 -0.3871 -0.2528
 6184SOL    HW130188   0.230   2.794   1.126 -1.1966  0.2501 -0.8501
 6184SOL    HW230189   0.147   2.912   1.179  2.9677  3.3897 -0.7831
 6185SOL     OW30190   3.281   2.704  10.031 -0.0754  0.2829  0.3562
 6185SOL    HW130191   3.345   2.770  10.003  0.1400 -0.1741 -0.2410
 6185SOL    HW230192   3.339   2.635  10.063 -2.3559 -0.5123  2.7888
 6186SOL     OW30193   0.722   4.186   0.670  0.4698 -0.3133 -0.3804
 6186SOL    HW130194   0.757   4.175   0.582 -1.6806 -0.7342 -1.1883
 6186SOL    HW230195   0.746   4.277   0.690 -1.5413 -0.3443  2.2389
 6187SOL     OW30196   4.092   1.659   2.830  0.7146 -0.1628 -0.0415
 6187SOL    HW130197   4.076   1.565   2.826 -1.2455  0.2367 -1.6771
 6187SOL    HW230198   4.090   1.677   2.924 -1.2523  0.4846 -0.2082
 6188SOL     OW30199   2.350   4.552  12.418 -0.1350 -0.5793  0.1981
 6188SOL    HW130200   2.313   4.477  12.466 -1.2012 -1.4643 -1.9845
 6188SOL    HW230201   2.419   4.563  12.482  1.9697  0.0371 -2.1821
 6189SOL     OW30202   1.557   0.771  13.879 -0.6286 -0.9291 -0.1687
 6189SOL    HW130203   1.649   0.751  13.861 -1.3897 -1.8692 -3.0355
 6189SOL    HW230204   1.520   0.683  13.887  0.6956 -1.3353  1.5621
 6190SOL     OW30205   0.287   3.454   2.062  0.2234 -0.5262  0.4429
 6190SOL    HW130206   0.306   3.547   2.075  1.5147 -0.7091 -0.1727
 6190SOL    HW230207   0.356   3.431   2.000  1.3899 -0.6248  1.7672
 6191SOL     OW30208   0.194   2.368   6.468  0.0876  0.1406 -0.0797
 6191SOL    HW130209   0.215   2.453   6.430  0.6139 -0.8847 -2.0943
 6191SOL    HW230210   0.158   2.401   6.550  1.6942 -0.3260  0.8070
 6192SOL     OW30211   3.099   0.268  11.238 -0.4452  0.5726 -0.0989
 6192SOL    HW130212   3.165   0.199  11.232 -0.1946  0.8834 -0.9454
 6192SOL    HW230213   3.049   0.254  11.157  0.5282 -0.6458 -0.4871
 6193SOL     OW30214   1.235   2.184   6.780  0.1166  0.1771 -0.1997
 6193SOL    HW130215   1.150   2.164   6.818 -0.0629  0.7360 -0.3027
 6193SOL    HW230216   1.293   2.114   6.811 -1.0730 -1.1268 -0.9211
 6194SOL     OW30217   2.669   3.177   5.242 -0.0564 -0.2101 -0.3256
 6194SOL    HW130218   2.649   3.271   5.243 -1.7953 -0.6035  1.1681
 6194SOL    HW230219   2.700   3.159   5.330 -1.7472  0.5221  0.4124
 6195SOL     OW30220   3.328   1.142   7.550 -0.0591  0.2503  0.3344
 6195SOL    HW130221   3.320   1.050   7.576  1.0370  0.2048  0.4754
 6195SOL    HW230222   3.237   1.171   7.543  0.3934  1.1559 -1.8897
 6196SOL     OW30223   0.848   2.867   8.081 -0.1366  0.1322  0.0910
 6196SOL    HW130224   0.823   2.958   8.093 -1.6344 -0.3452  0.5940
 6196SOL    HW230225   0.937   2.852   8.114  0.5843  2.0999 -0.9482
 6197SOL     OW30226   1.209   2.098  14.404 -0.3030 -0.2571  0.0673
 6197SOL    HW130227   1.183   2.187  14.428 -2.7451 -1.2671  1.1216
 6197SOL    HW230228   1.297   2.095  14.443  0.2900  1.7424 -1.0806
 6198SOL     OW30229   0.196   1.205   1.504  0.2370 -0.1148  0.7146
 6198SOL    HW130230   0.157   1.284   1.466 -0.7329 -0.2157  1.5196
 6198SOL    HW230231   0.148   1.140   1.452  0.1030 -1.7607  2.9025
 6199SOL     OW30232   3.412   2.945   7.945 -0.5656  0.4835  0.5387
 6199SOL    HW130233   3.377   3.034   7.949  1.4131  1.4622 -4.3525
 6199SOL    HW230234   3.487   2.950   7.887 -0.4720 -2.0644  0.4610
 6200SOL     OW30235   2.323   3.166  15.304  0.2576 -0.7138  0.5082
 6200SOL    HW130236   2.238   3.171  15.348 -0.5481 -0.5492 -1.0856
 6200SOL    HW230237   2.336   3.071  15.302  1.1118 -0.6516  3.3673
 6201SOL     OW30238   3.342   1.544   6.849  0.0587 -0.4473 -0.3267
 6201SOL    HW130239   3.341   1.482   6.776 -1.5331  0.0683 -0.7500
 6201SOL    HW230240   3.287   1.616   6.817 -0.3011 -1.3086 -1.6379
 6202SOL     OW30241   3.893   4.383  11.899  0.0849  0.0076  0.2968
 6202SOL    HW130242   3.861   4.340  11.979 -0.4883  0.6532  0.4160
 6202SOL    HW230243   3.986   4.376  11.919  0.0902  0.4501  0.4170
 6203SOL     OW30244   4.637   4.087   3.065 -0.3075  0.4248 -0.2016
 6203SOL    HW130245   4.545   4.064   3.078 -0.2101  0.3378  0.3062
 6203SOL    HW230246   4.635   4.177   3.095  0.0812  0.4293 -0.1900
 6204SOL     OW30247   1.911   2.128   0.838 -0.0675 -0.0632  0.3068
 6204SOL    HW130248   1.858   2.158   0.912  0.0273  1.6351 -0.2983
 6204SOL    HW230249   1.846   2.129   0.768  0.8396  1.9091 -0.5130
 6205SOL     OW30250   1.568   1.837   1.670  0.0838  0.3355 -0.1450
 6205SOL    HW130251   1.476   1.824   1.695  0.9171 -0.9191  2.3023
 6205SOL    HW230252   1.568   1.821   1.576 -1.4768  1.8041 -0.3995
 6206SOL     OW30253   4.543   0.076   4.413  0.1327 -0.1343 -0.0541
 6206SOL    HW130254   4.559   0.020   4.337  0.7058  2.2600 -1.7052
 6206SOL    HW230255   4.514   0.155   4.366  0.7702  0.2295  0.1685
 6207SOL     OW30256   4.057   3.029   8.338  0.1140  0.6056 -0.9690
 6207SOL    HW130257   4.151   3.046   8.342 -0.0011  1.6608 -2.9746
 6207SOL    HW230258   4.027   3.075   8.417  1.5508  2.2843 -1.4154
 6208SOL     OW30259   4.152   1.667   7.901  0.1335  0.6014  0.7532
 6208SOL    HW130260   4.212   1.741   7.907  1.4174 -0.2665 -1.6243
 6208SOL    HW230261   4.079   1.694   7.956 -0.6353 -1.7867  0.9165
 6209SOL     OW30262   4.609   0.713  16.841 -0.2913  0.2036  0.3523
 6209SOL    HW130263   4.554   0.791  16.829 -0.0724 -0.1230 -2.6829
 6209SOL    HW230264   4.585   0.698  16.933 -0.6016 -0.2470  0.2000
 6210SOL     OW30265   2.216   1.975   9.713  0.0834 -0.7140  0.1397
 6210SOL    HW130266   2.225   1.909   9.781  1.6797  0.1654  0.7837
 6210SOL    HW230267   2.156   2.037   9.754 -0.8925 -1.3434 -0.3494
 6211SOL     OW30268   1.307   0.148   9.193  0.2263 -0.1010  0.1996
 6211SOL    HW130269   1.295   0.074   9.253  0.0501 -1.6030 -1.6833
 6211SOL    HW230270   1.338   0.103   9.114  1.5295 -0.1814  0.7608
 6212SOL     OW30271   2.028   3.613   7.259  0.1583 -0.0284  0.0360
 6212SOL    HW130272   1.980   3.599   7.177 -0.3520  0.8461  0.1880
 6212SOL    HW230273   1.960   3.610   7.326  0.0562  0.2704 -0.0553
 6213SOL     OW30274   1.413   4.241  14.360  0.7927  0.2534  0.1323
 6213SOL    HW130275   1.342   4.301  14.335  0.6172 -0.4100 -0.9599
 6213SOL    HW230276   1.366   4.160  14.378 -3.1180  1.5521 -4.1125
 6214SOL     OW30277   4.049   1.926   1.677 -0.5812  0.1728 -0.1082
 6214SOL    HW130278   4.079   1.952   1.764 -0.2548  0.4738 -0.3118
 6214SOL    HW230279   4.126   1.944   1.624 -0.1844  1.7897  1.0139
 6215SOL     OW30280   0.447   2.605   8.810 -0.1928 -0.4713 -0.5457
 6215SOL    HW130281   0.445   2.679   8.871  0.0478 -1.2278  0.3703
 6215SOL    HW230282   0.408   2.530   8.854  0.7201  0.4381  1.8015
 6216SOL     OW30283   3.582   1.559  12.559  0.0322 -0.1474 -0.2013
 6216SOL    HW130284   3.581   1.621  12.632 -0.3474  0.6871 -0.9205
 6216SOL    HW230285   3.488   1.545  12.544  0.3310 -0.4754 -1.7182
 6217SOL     OW30286   0.844   1.184  15.766 -0.6880 -0.2664  0.2175
 6217SOL    HW130287   0.750   1.181  15.749 -0.5733  0.6017 -0.5239
 6217SOL    HW230288   0.864   1.237  15.689 -1.7977  0.3704  0.3701
 6218SOL     OW30289   2.476   0.247   7.249 -0.7312 -0.2487  0.3955
 6218SOL    HW130290   2.476   0.154   7.230 -1.4603  0.1582 -1.6133
 6218SOL    HW230291   2.497   0.282   7.163  0.8228 -1.4896  0.2803
 6219SOL     OW30292   1.472   2.129   2.998 -0.3263  0.0412 -0.1538
 6219SOL    HW130293   1.446   2.134   2.906 -0.7574  1.0249  0.0122
 6219SOL    HW230294   1.394   2.179   3.025 -0.6051 -0.5965  0.2189
 6220SOL     OW30295   2.340   2.331  14.429  0.0218  0.0671 -0.1271
 6220SOL    HW130296   2.435   2.336  14.437  0.2603  0.4714 -3.2566
 6220SOL    HW230297   2.328   2.292  14.343 -2.0731 -1.9439  1.0881
 6221SOL     OW30298   1.691   3.727   1.557  0.0094 -0.4616 -0.4049
 6221SOL    HW130299   1.623   3.660   1.564 -1.7289  1.2371 -1.2387
 6221SOL    HW230300   1.685   3.742   1.463  0.3935 -0.6662 -0.4619
 6222SOL     OW30301   3.416   0.138   0.758 -0.3440 -0.1649  0.0266
 6222SOL    HW130302   3.414   0.233   0.761  1.1233 -0.1687  1.0082
 6222SOL    HW230303   3.469   0.121   0.836 -0.6553  1.7388  0.6411
 6223SOL     OW30304   1.170   0.714   3.449 -0.0841  0.2436 -0.4713
 6223SOL    HW130305   1.165   0.644   3.384 -0.6698 -0.3550  0.2114
 6223SOL    HW230306   1.262   0.714   3.475 -0.4031  0.2884  0.6507
 6224SOL     OW30307   3.163   1.269  15.000  0.8187  0.0294 -0.3054
 6224SOL    HW130308   3.239   1.213  15.016  0.3858 -0.1241  1.2617
 6224SOL    HW230309   3.127   1.284  15.087 -1.2600 -2.4597 -0.7211
 6225SOL     OW30310   0.378   4.646  15.885 -0.3092 -0.2058  0.0112
 6225SOL    HW130311   0.356   4.734  15.854  1.7041  0.1463 -0.3860
 6225SOL    HW230312   0.467   4.641  15.852  0.3155 -0.5439  1.7406
 6226SOL     OW30313   0.154   2.331   5.137 -0.3552 -0.1362  0.4900
 6226SOL    HW130314   0.138   2.397   5.069  0.8651 -1.1882 -0.8249
 6226SOL    HW230315   0.246   2.345   5.160  0.1683 -1.7242 -0.6715
 6227SOL     OW30316   0.686   2.306   6.207  0.3591 -0.0617 -0.0234
 6227SOL    HW130317   0.692   2.375   6.142  1.5016 -0.0412  0.0996
 6227SOL    HW230318   0.667   2.230   6.152 -0.8934  0.1838  0.0638
 6228SOL     OW30319   3.670   4.450  15.719  0.0546 -0.1376 -0.1037
 6228SOL    HW130320   3.735   4.510  15.681  0.1572  0.4141  0.9458
 6228SOL    HW230321   3.682   4.375  15.661  1.3214  0.0029 -0.0290
 6229SOL     OW30322   3.764   3.531   9.529  0.0626  0.1321  0.0857
 6229SOL    HW130323   3.719   3.581   9.597  0.0414 -0.5250  0.5461
 6229SOL    HW230324   3.856   3.534   9.556  0.3611  0.3540 -0.9389
 6230SOL     OW30325   0.494   3.315   6.320 -0.5217  0.4376  0.1046
 6230SOL    HW130326   0.541   3.258   6.260  0.4041  1.5092 -0.1895
 6230SOL    HW230327   0.426   3.253   6.348 -0.1100  0.4811  1.1950
 6231SOL     OW30328   0.821   1.256   9.204 -0.0060  0.2315 -0.2817
 6231SOL    HW130329   0.889   1.277   9.140  0.2989  0.8740  0.2606
 6231SOL    HW230330   0.748   1.308   9.171  0.4529  0.2699 -1.2367
 6232SOL     OW30331   2.179   0.273   6.898  0.1113  0.0740  0.1102
 6232SOL    HW130332   2.272   0.294   6.895  0.8346 -3.1553 -0.5970
 6232SOL    HW230333   2.134   0.355   6.919  0.5117  0.7136 -1.5804
 6233SOL     OW30334   4.220   1.312   7.489  0.1452  0.0627  0.1763
 6233SOL    HW130335   4.233   1.390   7.543  0.7283 -0.8942  1.4214
 6233SOL    HW230336   4.300   1.317   7.437 -0.5301  0.1869 -0.8457
 6234SOL     OW30337   2.602   3.596   4.896 -1.0251  0.1023  0.3227
 6234SOL    HW130338   2.543   3.520   4.893 -1.0392  0.1520 -0.8142
 6234SOL    HW230339   2.591   3.616   4.989  0.1864 -0.5109  0.6011
 6235SOL     OW30340   0.555   0.356   8.396  0.5073 -0.1976 -0.2637
 6235SOL    HW130341   0.549   0.449   8.417 -0.1016 -0.5164  0.9395
 6235SOL    HW230342   0.504   0.313   8.464  0.2022 -0.8212 -0.8899
 6236SOL     OW30343   3.240   2.732  12.171 -0.5216 -0.0598 -0.1664
 6236SOL    HW130344   3.303   2.804  12.174 -2.3072  1.4753  0.7627
 6236SOL    HW230345   3.273   2.673  12.238 -0.0385 -1.4558 -1.6406
 6237SOL     OW30346   3.359   4.417  16.235 -0.3487 -0.1781  0.3653
 6237SOL    HW130347   3.321   4.329  16.241  0.7634 -0.5933  1.3146
 6237SOL    HW230348   3.327   4.448  16.150  3.6644  1.8123 -0.4078
 6238SOL     OW30349   4.259   2.211  12.746 -0.1363  0.2206  0.6667
 6238SOL    HW130350   4.321   2.204  12.674 -0.2940  0.9812  0.4509
 6238SOL    HW230351   4.192   2.265  12.703 -0.3757  0.5216  1.4185
 6239SOL     OW30352   2.117   4.035  13.519 -0.4706 -0.7440 -0.0483
 6239SOL    HW130353   2.068   4.115  13.540  1.4482 -0.4131  3.2692
 6239SOL    HW230354   2.047   3.971  13.536 -0.2752 -0.8847  0.2280
 6240SOL     OW30355   2.300   3.899  12.443 -0.8214  0.1538  0.2137
 6240SOL    HW130356   2.265   3.972  12.494  0.6352  0.3826  0.8759
 6240SOL    HW230357   2.339   3.946  12.370 -0.1236  0.4298  0.7702
 6241SOL     OW30358   1.243   2.072   4.426 -0.3975  0.1899  0.9005
 6241SOL    HW130359   1.314   2.016   4.394 -0.1009  0.9891  0.1785
 6241SOL    HW230360   1.213   2.107   4.342  0.1255  1.1042  1.1006
 6242SOL     OW30361   2.878   1.844   2.923 -0.1531 -0.2853 -0.2714
 6242SOL    HW130362   2.871   1.749   2.922  0.8494 -0.3862  1.7434
 6242SOL    HW230363   2.821   1.862   2.848 -1.1884 -0.1371  0.5446
 6243SOL     OW30364   2.884   2.181   0.739 -0.3235  0.4905  0.1194
 6243SOL    HW130365   2.812   2.202   0.798  0.1837  0.6473  0.6805
 6243SOL    HW230366   2.950   2.240   0.774  0.3619  0.6539 -1.4366
 6244SOL     OW30367   3.070   2.809   8.460 -0.2565 -0.1138  0.1427
 6244SOL    HW130368   2.984   2.829   8.498 -1.2402 -2.5851 -0.7623
 6244SOL    HW230369   3.121   2.874   8.508  0.6381 -1.6180  1.2118
 6245SOL     OW30370   0.138   1.746   9.589  0.3386 -0.0643 -0.1976
 6245SOL    HW130371   0.179   1.774   9.507 -2.5023  0.6214 -1.3967
 6245SOL    HW230372   0.149   1.822   9.645  0.2761  0.4770 -0.9283
 6246SOL     OW30373   4.386   1.827  16.241  0.2179 -0.3826 -0.6126
 6246SOL    HW130374   4.465   1.882  16.234  0.8937 -1.5340 -2.0988
 6246SOL    HW230375   4.388   1.788  16.153 -0.0945 -0.4540 -0.5860
 6247SOL     OW30376   1.805   3.153   6.965  0.0016 -0.1794  0.3265
 6247SOL    HW130377   1.822   3.073   6.916 -0.2183 -0.4396  0.6752
 6247SOL    HW230378   1.882   3.158   7.021 -0.4338  1.1257  0.8214
 6248SOL     OW30379   0.742   1.788  13.621  0.2312  0.2969 -0.0549
 6248SOL    HW130380   0.767   1.722  13.685  0.7564  1.4625  0.9383
 6248SOL    HW230381   0.812   1.787  13.555  0.1004  1.2740 -0.2102
 6249SOL     OW30382   3.290   3.971   3.654  0.5147  0.0104  0.5405
 6249SOL    HW130383   3.344   3.994   3.730 -0.1618 -1.5323  1.4859
 6249SOL    HW230384   3.335   3.892   3.626  0.6796  0.4290 -0.3742
 6250SOL     OW30385   4.194   0.138  12.743  1.2973 -0.0751 -0.3006
 6250SOL    HW130386   4.250   0.115  12.816  2.4315  0.1167 -1.1102
 6250SOL    HW230387   4.213   0.231  12.729 -0.4395 -0.0616 -2.5486
 6251SOL     OW30388   0.311   0.816   1.816 -0.5251 -0.6535  0.1041
 6251SOL    HW130389   0.358   0.801   1.898 -1.4108 -0.0724  0.7141
 6251SOL    HW230390   0.331   0.908   1.800  0.2245 -1.3078 -2.6994
 6252SOL     OW30391   4.034   0.952   3.899  0.8519  0.9909  0.8826
 6252SOL    HW130392   4.084   0.894   3.957  2.8005 -0.6314 -2.4103
 6252SOL    HW230393   4.060   1.033   3.942  0.7176  1.1386  0.6872
 6253SOL     OW30394   4.478   2.325   4.783 -0.5655 -0.1067  0.9245
 6253SOL    HW130395   4.553   2.275   4.815 -0.7551  1.2420  3.4600
 6253SOL    HW230396   4.507   2.412   4.810  0.1037 -0.7359  2.2128
 6254SOL     OW30397   4.608   2.512   2.248 -0.2301 -0.1328 -0.4725
 6254SOL    HW130398   4.626   2.449   2.179 -0.9077  1.5489 -2.1829
 6254SOL    HW230399   4.692   2.541   2.282 -0.2936  2.0936 -2.2679
 6255SOL     OW30400   1.415   2.278   7.566  0.0896  0.0917  0.5902
 6255SOL    HW130401   1.407   2.328   7.647 -0.7698  0.7212  0.1195
 6255SOL    HW230402   1.423   2.347   7.501 -1.0874  0.3816  0.7474
 6256SOL     OW30403   1.922   4.690  11.525  0.0079  0.2176 -0.2936
 6256SOL    HW130404   1.911   4.679  11.431  0.8474  0.2089 -0.3933
 6256SOL    HW230405   2.002   0.008  11.525  0.0317  0.1820 -0.3017
 6257SOL     OW30406   0.453   2.851  16.890 -0.3391  0.4779 -0.1933
 6257SOL    HW130407   0.446   2.825  16.982 -2.5662  2.0790  0.1018
 6257SOL    HW230408   0.437   2.770  16.841 -0.3186 -0.1795  0.8875
 6258SOL     OW30409   0.128   0.363   2.637 -0.0551  0.8099 -0.1253
 6258SOL    HW130410   0.052   0.308   2.618  0.6779 -0.6667  1.2131
 6258SOL    HW230411   0.199   0.302   2.618 -0.3369  0.7850 -1.0907
 6259SOL     OW30412   2.390   4.353   7.916 -0.0274 -0.4808  0.1704
 6259SOL    HW130413   2.422   4.263   7.922  0.2645 -0.4582 -1.1556
 6259SOL    HW230414   2.372   4.370   8.008 -1.7423  1.7524 -0.5874
 6260SOL     OW30415   0.739   4.292  13.245  0.4510 -0.3079  0.2387
 6260SOL    HW130416   0.646   4.317  13.245  0.4336 -0.3765  0.5381
 6260SOL    HW230417   0.755   4.248  13.328  0.2728 -0.1671  0.3475
 6261SOL     OW30418   1.043   2.376   0.028 -0.2595  0.1116 -0.5654
 6261SOL    HW130419   1.070   2.468   0.026  0.3887 -0.0904 -1.1298
 6261SOL    HW230420   1.041   2.359   0.122  1.0964 -2.0970 -0.9212
 6262SOL     OW30421   0.655   1.050   4.654  0.4178 -0.0461 -0.1199
 6262SOL    HW130422   0.694   0.995   4.722 -0.8443 -1.6187 -0.6957
 6262SOL    HW230423   0.597   1.105   4.707 -0.7700 -1.3148 -0.1124
 6263SOL     OW30424   4.054   3.775   2.573 -0.7220  0.3095  0.1839
 6263SOL    HW130425   3.996   3.788   2.649 -0.4301  2.6265  0.0041
 6263SOL    HW230426   4.010   3.841   2.521  0.9734  0.4640 -1.0518
 6264SOL     OW30427   0.189   4.519   4.891 -0.5593  0.8213  0.0218
 6264SOL    HW130428   0.144   4.463   4.955  0.7318 -2.3116 -1.8087
 6264SOL    HW230429   0.264   4.545   4.945 -1.5566  1.4417  1.1176
 6265SOL     OW30430   1.096   0.266   7.050  0.0887  0.3727 -0.5639
 6265SOL    HW130431   1.120   0.307   7.133 -0.0771  0.5748 -0.6153
 6265SOL    HW230432   1.043   0.190   7.075 -0.3904  1.9857  3.3822
 6266SOL     OW30433   2.453   3.471   4.569  0.2194  0.4032  0.3662
 6266SOL    HW130434   2.545   3.459   4.594  1.2409  2.0164 -2.6325
 6266SOL    HW230435   2.459   3.565   4.554 -0.1993  0.1758 -1.1845
 6267SOL     OW30436   1.778   0.955  11.852  0.7355 -0.5568 -0.4591
 6267SOL    HW130437   1.795   0.861  11.857 -0.7076 -0.8345 -0.9368
 6267SOL    HW230438   1.862   0.976  11.811 -0.3027 -0.3552 -2.5078
 6268SOL     OW30439   1.537   2.376   5.553 -0.3516  0.0694 -0.5045
 6268SOL    HW130440   1.598   2.317   5.597 -0.5122  0.4514  0.2363
 6268SOL    HW230441   1.529   2.441   5.623 -2.4217 -1.6579  0.8270
 6269SOL     OW30442   0.408   1.154   0.683  0.0393 -0.1821  0.8410
 6269SOL    HW130443   0.458   1.180   0.606 -2.2057 -0.9866 -0.8808
 6269SOL    HW230444   0.404   1.060   0.663 -0.6005  0.5179 -2.3412
 6270SOL     OW30445   1.194   3.956   7.136 -0.6387 -0.0136 -0.1525
 6270SOL    HW130446   1.264   3.956   7.070 -1.5665  1.4016 -1.1462
 6270SOL    HW230447   1.181   4.051   7.144 -0.2805  0.1274 -1.1510
 6271SOL     OW30448   0.418   2.215   8.138 -0.0991 -0.3710  0.1144
 6271SOL    HW130449   0.438   2.141   8.194 -0.6032 -0.4392  0.2047
 6271SOL    HW230450   0.492   2.270   8.164  0.2317  0.0260 -1.6656
 6272SOL     OW30451   2.385   3.548  15.961  0.3366  0.5668  0.4970
 6272SOL    HW130452   2.325   3.567  15.888  0.1806 -2.0850 -0.0764
 6272SOL    HW230453   2.467   3.544  15.913 -1.5668  0.1101 -2.7528
 6273SOL     OW30454   4.351   4.224   4.358 -0.2967  0.4131 -0.8892
 6273SOL    HW130455   4.375   4.221   4.450 -2.7018 -1.4653 -0.3221
 6273SOL    HW230456   4.427   4.258   4.311  0.0578 -0.6416 -1.0880
 6274SOL     OW30457   4.606   1.886  13.888  0.2939  0.0156  0.2400
 6274SOL    HW130458   4.511   1.886  13.876  0.4509 -0.7085 -1.0068
 6274SOL    HW230459   4.633   1.887  13.797 -0.1147  0.8535  0.1353
 6275SOL     OW30460   3.510   2.707   3.420  0.2999 -0.2440 -0.4042
 6275SOL    HW130461   3.475   2.698   3.332 -2.9992  0.1306  0.8613
 6275SOL    HW230462   3.549   2.621   3.437 -1.5773 -0.7503  1.3247
 6276SOL     OW30463   3.362   3.789   8.345  0.7477 -0.0378  0.6358
 6276SOL    HW130464   3.429   3.786   8.413  1.6045  0.6580 -0.1904
 6276SOL    HW230465   3.372   3.879   8.315 -1.5550  0.5853  1.7112
 6277SOL     OW30466   0.998   2.486   6.416 -0.1285 -0.4225  0.2369
 6277SOL    HW130467   1.034   2.478   6.328  0.2835 -2.7552  0.6129
 6277SOL    HW230468   0.940   2.410   6.417 -2.0244  1.0527  0.9791
 6278SOL     OW30469   3.801   2.295  15.154 -0.2289  0.2511 -0.3880
 6278SOL    HW130470   3.747   2.217  15.170 -0.6754  0.6804  0.2202
 6278SOL    HW230471   3.885   2.250  15.149  0.2969  1.4257 -2.1870
 6279SOL     OW30472   2.942   3.493   7.554 -0.2619 -0.4061 -0.3032
 6279SOL    HW130473   3.034   3.470   7.568  0.1615 -0.4784 -3.2181
 6279SOL    HW230474   2.912   3.455   7.471 -0.9153  1.5419 -0.9822
 6280SOL     OW30475   0.720   0.984  11.258  0.5249  0.1460  0.1645
 6280SOL    HW130476   0.701   1.011  11.168 -0.3912  0.0062  0.3172
 6280SOL    HW230477   0.656   1.031  11.311  1.2029 -1.3424  2.2815
 6281SOL     OW30478   1.962   3.930   1.406 -0.2892  0.5170 -0.0508
 6281SOL    HW130479   2.027   3.979   1.357  1.1371 -0.9140  0.3902
 6281SOL    HW230480   1.897   3.910   1.339  2.0002  0.3684 -2.1757
 6282SOL     OW30481   4.610   2.447   7.638 -0.3091  0.3126  0.2824
 6282SOL    HW130482   4.523   2.457   7.598  0.1159  0.5543 -0.6017
 6282SOL    HW230483   4.630   2.354   7.643 -1.4569  0.0176 -0.5742
 6283SOL     OW30484   1.498   3.924   3.547  0.2083 -0.3069 -0.0821
 6283SOL    HW130485   1.466   3.909   3.636  0.8098  1.7464  0.4748
 6283SOL    HW230486   1.590   3.897   3.551  0.7407  1.9508  2.6219
 6284SOL     OW30487   4.531   1.111   6.052  0.1133  0.1747  0.9647
 6284SOL    HW130488   4.519   1.032   6.000  0.4441  0.3407  0.6465
 6284SOL    HW230489   4.460   1.171   6.029 -0.3254 -1.0948 -0.9872
 6285SOL     OW30490   4.557   0.538   4.878 -0.5658  0.2316 -0.1043
 6285SOL    HW130491   4.603   0.529   4.795 -0.2189  0.3393  0.0800
 6285SOL    HW230492   4.485   0.597   4.856 -0.0666  0.7052 -0.4624
 6286SOL     OW30493   4.562   0.226   9.129 -0.2824 -0.7081  0.2489
 6286SOL    HW130494   4.556   0.255   9.220  0.8017 -0.2789  0.1844
 6286SOL    HW230495   4.517   0.297   9.084  0.5644 -1.3661 -1.6726
 6287SOL     OW30496   2.741   2.199  14.264  0.4573  0.2782  0.0418
 6287SOL    HW130497   2.732   2.199  14.169 -0.0309  0.5303  0.0870
 6287SOL    HW230498   2.694   2.282  14.279 -0.4622 -0.3836  0.8212
 6288SOL     OW30499   4.323   1.984   1.325  0.2745  0.3879 -0.0282
 6288SOL    HW130500   4.314   1.994   1.420  0.9447 -1.0380  0.1837
 6288SOL    HW230501   4.240   1.937   1.313  2.7028 -3.5997 -1.1518
 6289SOL     OW30502   1.030   3.906  12.576 -0.0124 -0.7839  0.0776
 6289SOL    HW130503   0.992   3.818  12.581 -0.3366 -0.6978 -0.9616
 6289SOL    HW230504   0.958   3.952  12.534 -0.0003  0.5343  1.4911
 6290SOL     OW30505   1.225   4.409   8.873  0.7288  0.3295 -0.4785
 6290SOL    HW130506   1.260   4.329   8.911  1.8316  0.6426 -0.8419
 6290SOL    HW230507   1.199   4.452   8.955  2.2504  1.7823 -0.7409
 6291SOL     OW30508   0.455   2.362   4.007  0.2536 -0.1684 -0.2708
 6291SOL    HW130509   0.420   2.277   3.978  1.8376 -0.1754 -2.0954
 6291SOL    HW230510   0.378   2.419   4.016 -0.3548 -1.4028  2.4981
 6292SOL     OW30511   2.271   3.324  14.175  0.3228 -0.4537  0.0040
 6292SOL    HW130512   2.254   3.274  14.095  2.4945 -1.1835  0.0097
 6292SOL    HW230513   2.196   3.383  14.185  2.1974  1.6258  1.8040
 6293SOL     OW30514   3.575   1.995  16.355 -0.2963 -0.4072  0.6930
 6293SOL    HW130515   3.562   1.913  16.307 -1.7986  0.4419 -0.3318
 6293SOL    HW230516   3.529   2.057  16.299 -1.3018 -1.2880  0.5501
 6294SOL     OW30517   2.597   1.617  11.900 -0.0955  0.0886  0.4504
 6294SOL    HW130518   2.519   1.671  11.906 -0.8154 -0.8442 -0.4332
 6294SOL    HW230519   2.653   1.642  11.973  0.5633  2.1750 -0.7853
 6295SOL     OW30520   0.810   1.695  15.067  0.5575  0.0431  0.1264
 6295SOL    HW130521   0.856   1.643  15.001  0.1438 -1.2410  0.8520
 6295SOL    HW230522   0.739   1.734  15.016 -1.7975 -1.8472  1.9832
 6296SOL     OW30523   4.691   4.364  12.852  0.2791 -0.2463 -0.4997
 6296SOL    HW130524   4.707   4.379  12.759 -1.6231 -0.0321 -0.7821
 6296SOL    HW230525   4.605   4.322  12.847 -1.0001  2.3644 -0.4824
 6297SOL     OW30526   3.428   4.305   8.985 -0.3538  0.4442 -0.5433
 6297SOL    HW130527   3.396   4.253   8.912 -2.0624  1.6522 -0.6549
 6297SOL    HW230528   3.364   4.377   8.980 -1.1617 -0.2180  0.2100
 6298SOL     OW30529   4.670   0.540   4.631  0.2338 -0.6395  0.3058
 6298SOL    HW130530   4.727   0.606   4.669  1.5381 -1.5831 -0.0364
 6298SOL    HW230531   4.723   0.480   4.579 -0.1065 -1.0968  0.4844
 6299SOL     OW30532   4.344   3.094  14.140  0.1942 -0.0593 -0.1639
 6299SOL    HW130533   4.431   3.060  14.164 -0.8128 -2.3132  0.3162
 6299SOL    HW230534   4.352   3.185  14.167 -0.6338 -0.8481  2.7763
 6300SOL     OW30535   3.888   4.620   3.452 -0.2889  0.6589  0.8242
 6300SOL    HW130536   3.929   4.609   3.538 -1.5761 -0.1190  1.3445
 6300SOL    HW230537   3.961   4.621   3.391  2.0910  0.7099  3.6775
 6301SOL     OW30538   4.565   4.224   7.491  0.5353 -0.0653  0.3338
 6301SOL    HW130539   4.614   4.301   7.462  2.4558 -1.4408 -0.0448
 6301SOL    HW230540   4.630   4.193   7.554  2.9925  1.4690 -1.4868
 6302SOL     OW30541   1.831   3.149  17.094  0.0465 -0.0385 -0.0324
 6302SOL    HW130542   1.846   3.078  17.032 -1.0308  0.1523 -0.5157
 6302SOL    HW230543   1.736   3.155  17.104 -0.3302 -3.5135 -1.4268
 6303SOL     OW30544   2.823   4.677   4.075 -0.4014  0.2613 -0.5700
 6303SOL    HW130545   2.738   4.674   4.119  0.0245  3.0237  0.4096
 6303SOL    HW230546   2.882   4.667   4.150 -1.9107  0.6971  0.6528
 6304SOL     OW30547   4.464   2.265   6.091  0.0534 -0.0267  0.0478
 6304SOL    HW130548   4.527   2.331   6.121  0.1397 -0.3476  0.5823
 6304SOL    HW230549   4.426   2.226   6.170  0.7217 -0.6558  0.0682
 6305SOL     OW30550   0.542   4.534   7.494 -0.6221  0.2183 -0.7299
 6305SOL    HW130551   0.471   4.599   7.493 -1.7236 -1.0031 -1.9669
 6305SOL    HW230552   0.599   4.564   7.423 -1.2970 -0.0884 -1.4067
 6306SOL     OW30553   2.645   3.228   0.736  0.0738 -0.0843  0.1249
 6306SOL    HW130554   2.738   3.249   0.744  0.4239 -1.1809 -1.0525
 6306SOL    HW230555   2.601   3.313   0.738  0.9047  0.2947  2.0280
 6307SOL     OW30556   3.374   1.811   3.271  0.6933  0.0047 -0.0808
 6307SOL    HW130557   3.282   1.819   3.295  0.6250 -0.7462 -0.0769
 6307SOL    HW230558   3.394   1.738   3.330  0.2824 -0.0938 -0.0667
 6308SOL     OW30559   2.423   4.229   3.248  0.2883 -0.5645  0.1073
 6308SOL    HW130560   2.416   4.308   3.196  0.4665 -0.6392 -0.0298
 6308SOL    HW230561   2.439   4.270   3.333  0.9884  0.8584 -0.7094
 6309SOL     OW30562   1.406   4.643   6.861 -0.1586 -0.7555  0.1378
 6309SOL    HW130563   1.400   4.715   6.797 -1.0916 -0.8403  0.1319
 6309SOL    HW230564   1.470   4.680   6.922 -1.2533 -1.4052  1.6571
 6310SOL     OW30565   4.056   2.193   3.495 -0.3815 -0.5235  0.3888
 6310SOL    HW130566   4.061   2.233   3.408  1.0633 -4.0377 -1.1394
 6310SOL    HW230567   4.111   2.247   3.551 -0.7894 -0.6701  0.9378
 6311SOL     OW30568   4.594   0.830  10.324 -0.1338  0.5229 -0.3120
 6311SOL    HW130569   4.600   0.755  10.385 -0.1708 -0.4169 -1.4694
 6311SOL    HW230570   4.664   0.821  10.260 -1.3005  0.5642 -1.5788
 6312SOL     OW30571   4.612   3.562   9.991 -0.3740 -0.3721  0.2830
 6312SOL    HW130572   4.522   3.532  10.003 -0.6620 -0.5594 -2.4057
 6312SOL    HW230573   4.649   3.506   9.922  1.1881  2.7172 -1.3601
 6313SOL     OW30574   4.323   1.283   2.984  0.2009 -0.5425 -0.0644
 6313SOL    HW130575   4.264   1.208   2.983 -0.4003 -0.0622 -0.2553
 6313SOL    HW230576   4.360   1.271   3.072  2.4330  1.5427 -0.7126
 6314SOL     OW30577   4.076   1.017   4.503  0.1653 -0.3563 -0.0021
 6314SOL    HW130578   4.093   1.044   4.593 -1.6271  3.0525 -0.6980
 6314SOL    HW230579   4.142   1.070   4.458  1.0405 -2.2435 -0.9480
 6315SOL     OW30580   3.799   0.989   1.311 -0.1850 -0.2373 -0.3228
 6315SOL    HW130581   3.813   1.014   1.220 -0.6224 -0.4901 -0.4581
 6315SOL    HW230582   3.800   0.894   1.306 -0.5428 -0.3570  1.8409
 6316SOL     OW30583   2.512   3.209  17.548  0.2562 -0.1741 -0.1048
 6316SOL    HW130584   2.472   3.122  17.558 -1.0380  0.2852 -1.3334
 6316SOL    HW230585   2.444   3.273  17.565  0.9927  0.4980  0.3287
 6317SOL     OW30586   3.357   3.577  13.703  0.4513 -0.3535 -0.0639
 6317SOL    HW130587   3.304   3.639  13.651  1.2216  1.4257  1.2751
 6317SOL    HW230588   3.365   3.616  13.790 -1.3982 -1.2617  0.5165
 6318SOL     OW30589   4.118   4.006   5.293 -0.7531  0.2962 -0.1069
 6318SOL    HW130590   4.022   3.998   5.297 -0.5016 -0.7715  3.7320
 6318SOL    HW230591   4.126   3.912   5.278 -0.1290  0.5569 -1.3939
 6319SOL     OW30592   4.528   2.305   4.145  1.0523  0.5146 -0.3584
 6319SOL    HW130593   4.544   2.256   4.226  2.8752  0.4075 -0.7930
 6319SOL    HW230594   4.433   2.299   4.135  0.9327  2.2389 -0.3766
 6320SOL     OW30595   4.197   2.860  17.251 -0.5874  0.0137 -0.1998
 6320SOL    HW130596   4.123   2.861  17.191  0.6856  2.5795 -1.7079
 6320SOL    HW230597   4.199   2.771  17.287  2.2726  0.3726  0.4788
 6321SOL     OW30598   0.558   2.878  16.492  0.0618  0.4803 -0.1349
 6321SOL    HW130599   0.516   2.812  16.438 -1.5039 -2.6101  4.8476
 6321SOL    HW230600   0.588   2.940  16.426 -1.3352  1.1486 -0.1366
 6322SOL     OW30601   3.338   2.475   7.465  0.2094 -0.1502 -0.3307
 6322SOL    HW130602   3.354   2.481   7.371 -0.9625 -1.7070 -0.6290
 6322SOL    HW230603   3.332   2.569   7.482  0.0117 -0.3231  0.5414
 6323SOL     OW30604   2.388   2.705   4.419 -0.1831 -0.1617 -0.6531
 6323SOL    HW130605   2.435   2.762   4.357  2.2820 -2.5674 -0.9746
 6323SOL    HW230606   2.349   2.780   4.464 -2.8255 -1.9619  0.0353
 6324SOL     OW30607   0.284   0.314   2.045  0.2206  0.4098  0.3483
 6324SOL    HW130608   0.308   0.344   2.133  1.8493 -0.0622  0.0610
 6324SOL    HW230609   0.224   0.242   2.066  1.5146 -0.9999 -0.7836
 6325SOL     OW30610   4.154   0.742   7.926 -0.4921 -0.3979 -0.5086
 6325SOL    HW130611   4.065   0.711   7.942 -0.8359  1.0602  0.4479
 6325SOL    HW230612   4.129   0.835   7.923  0.8963 -0.0328 -0.4169
 6326SOL     OW30613   0.652   0.692   5.329  0.2137  0.0633 -0.1966
 6326SOL    HW130614   0.643   0.737   5.413 -0.5753  1.5739 -1.0885
 6326SOL    HW230615   0.685   0.764   5.276 -0.4114  1.4830  1.3217
 6327SOL     OW30616   0.274   2.213   1.559 -0.4608  0.2503  0.5340
 6327SOL    HW130617   0.328   2.185   1.485  1.6052  0.6383  1.8821
 6327SOL    HW230618   0.206   2.259   1.509  0.0684 -1.1827 -1.5191
 6328SOL     OW30619   2.366   1.484   9.541 -0.8923  0.7456 -0.5199
 6328SOL    HW130620   2.283   1.531   9.552 -0.3644  1.4927  0.2953
 6328SOL    HW230621   2.429   1.538   9.492  1.1341  0.8703  2.2177
 6329SOL     OW30622   0.293   3.682  13.862 -0.5015 -0.1795 -0.0885
 6329SOL    HW130623   0.373   3.631  13.860 -1.0879 -1.0604 -0.9729
 6329SOL    HW230624   0.294   3.699  13.956 -0.0545  0.1341 -0.1487
 6330SOL     OW30625   3.020   4.036   5.339 -0.0202 -0.3382  0.4105
 6330SOL    HW130626   3.115   4.052   5.338 -0.4116  2.1121  2.2977
 6330SOL    HW230627   2.987   4.125   5.325  0.6451  0.0025  0.9709
 6331SOL     OW30628   1.911   4.094  14.184  0.0739 -0.3053 -0.0968
 6331SOL    HW130629   1.887   4.026  14.121  1.7633  1.9504 -3.1740
 6331SOL    HW230630   1.891   4.046  14.264  0.9684 -2.1618 -0.9892
 6332SOL     OW30631   4.562   2.635   8.844 -0.1892  0.0803  0.1604
 6332SOL    HW130632   4.528   2.563   8.897 -1.5158 -1.3207 -2.6214
 6332SOL    HW230633   4.496   2.660   8.780 -2.3282 -1.6104  1.7311
 6333SOL     OW30634   2.637   1.752  13.481  0.3209  0.1016 -0.4295
 6333SOL    HW130635   2.566   1.766  13.544  0.0946 -3.3265  0.1020
 6333SOL    HW230636   2.690   1.830  13.495 -1.8295  1.4918 -0.0924
 6334SOL     OW30637   2.415   4.414  16.555 -0.3743 -0.1490  0.2873
 6334SOL    HW130638   2.327   4.429  16.519 -0.2975 -0.3805  0.0091
 6334SOL    HW230639   2.459   4.408  16.471 -0.0808  0.4087  0.4041
 6335SOL     OW30640   1.715   3.445  16.572  0.5658  0.4210 -0.5882
 6335SOL    HW130641   1.721   3.490  16.488 -3.3237  0.1518 -1.0133
 6335SOL    HW230642   1.657   3.510  16.611  0.8700 -1.4671  2.9756
 6336SOL     OW30643   2.847   3.801   7.633  0.2857  0.0031 -0.1111
 6336SOL    HW130644   2.906   3.744   7.682  2.3121  0.3878 -2.0906
 6336SOL    HW230645   2.811   3.849   7.708 -1.5346 -5.0069  2.1690
 6337SOL     OW30646   3.305   1.874   2.770 -0.2287  0.2181 -0.2146
 6337SOL    HW130647   3.346   1.854   2.854 -1.1101  0.0197  0.1730
 6337SOL    HW230648   3.374   1.844   2.711 -1.5568 -3.6200  0.1838
 6338SOL     OW30649   3.678   4.585   3.859  0.2371  0.4524  0.2306
 6338SOL    HW130650   3.697   4.675   3.833  1.5089 -0.4982 -2.2004
 6338SOL    HW230651   3.630   4.559   3.780  0.3752 -0.4810  0.4516
 6339SOL     OW30652   1.204   3.630  15.728 -0.3384  0.4903 -0.2815
 6339SOL    HW130653   1.187   3.615  15.635 -2.9809  1.0326  0.1032
 6339SOL    HW230654   1.220   3.725  15.728 -0.5986  0.5372  0.1091
 6340SOL     OW30655   0.894   3.643  11.986  0.0211  0.2567 -0.1528
 6340SOL    HW130656   0.859   3.558  12.015 -0.8877  0.3307 -1.0299
 6340SOL    HW230657   0.946   3.655  12.066 -1.7667 -0.3326  1.1050
 6341SOL     OW30658   3.885   1.078   1.588 -0.8880  0.0880 -0.2755
 6341SOL    HW130659   3.840   1.012   1.642 -2.2119  1.6703  0.5574
 6341SOL    HW230660   3.844   1.049   1.506 -1.8867  0.5598  0.0567
 6342SOL     OW30661   3.757   4.076   8.222  0.2795 -0.1086 -0.5674
 6342SOL    HW130662   3.781   4.000   8.169  2.4961 -0.6263  1.2014
 6342SOL    HW230663   3.661   4.069   8.227  0.4362 -0.3289  1.9105
 6343SOL     OW30664   1.954   4.091  16.854  0.3717 -0.0831 -0.1973
 6343SOL    HW130665   1.937   4.012  16.802  1.1154  0.1823 -0.8382
 6343SOL    HW230666   2.011   4.135  16.791  0.5889  0.5663  0.4598
 6344SOL     OW30667   0.388   0.108   4.324  0.0453 -0.1374 -0.1926
 6344SOL    HW130668   0.399   0.160   4.243  1.4495 -0.6958 -0.3609
 6344SOL    HW230669   0.478   0.079   4.340 -0.2876 -2.0567 -1.8488
 6345SOL     OW30670   4.392   3.231   3.801 -0.0908 -0.3704  0.4989
 6345SOL    HW130671   4.333   3.271   3.736 -1.7393 -0.0963  2.1614
 6345SOL    HW230672   4.321   3.212   3.862 -0.8416 -0.9043 -0.5405
 6346SOL     OW30673   4.198   1.217  14.737 -0.0801  0.3620 -0.3044
 6346SOL    HW130674   4.245   1.167  14.671  0.3266 -0.7492  0.8322
 6346SOL    HW230675   4.113   1.174  14.740  0.2638 -0.3849 -1.2737
 6347SOL     OW30676   0.422   0.052   7.509  0.1050 -0.1235  0.3462
 6347SOL    HW130677   0.387   0.118   7.448  0.7164  0.9937  1.2160
 6347SOL    HW230678   0.482   0.104   7.562  0.9740 -0.5846 -0.1912
 6348SOL     OW30679   2.006   0.201   2.591  0.4474 -0.0596 -0.3252
 6348SOL    HW130680   2.067   0.258   2.638  0.7204 -1.3071  0.8189
 6348SOL    HW230681   2.023   0.116   2.631  0.9485  0.5909  0.8381
 6349SOL     OW30682   2.253   3.269   3.954 -0.5514  0.2391 -0.2662
 6349SOL    HW130683   2.208   3.213   4.017  0.8925 -0.3634  0.2295
 6349SOL    HW230684   2.183   3.291   3.892  0.5368 -0.3644 -1.7184
 6350SOL     OW30685   1.805   4.499   7.482 -0.1833 -0.3611  0.2682
 6350SOL    HW130686   1.710   4.504   7.479 -0.1023  0.8717 -0.2975
 6350SOL    HW230687   1.833   4.586   7.513  1.4484 -0.5412 -0.6617
 6351SOL     OW30688   2.774   1.268   5.715 -0.0400  0.1808  0.2110
 6351SOL    HW130689   2.730   1.221   5.644  0.2329  2.3557 -1.3844
 6351SOL    HW230690   2.778   1.351   5.669 -1.0518  0.9662  1.5413
 6352SOL     OW30691   2.068   2.524   8.565 -0.0665 -0.2946  0.1868
 6352SOL    HW130692   1.984   2.481   8.554  0.5263 -2.2219  3.2365
 6352SOL    HW230693   2.103   2.524   8.476  0.7099  1.2063  0.4864
 6353SOL     OW30694   0.226   1.420   7.094 -0.1430 -0.1584 -0.0399
 6353SOL    HW130695   0.216   1.449   7.185  3.0411  2.7693 -0.6364
 6353SOL    HW230696   0.145   1.374   7.073 -0.1242  0.0612 -0.5812
 6354SOL     OW30697   0.281   1.961   7.776  0.4613  0.3690  0.3034
 6354SOL    HW130698   0.318   2.045   7.751 -0.6092  0.0454 -2.4018
 6354SOL    HW230699   0.339   1.938   7.848  1.0829 -0.4999 -0.4618
 6355SOL     OW30700   0.173   3.101  16.085  0.7174  0.5949  0.6710
 6355SOL    HW130701   0.100   3.091  16.023  0.2627  1.3595  1.1007
 6355SOL    HW230702   0.160   3.025  16.142 -0.1754 -0.5548 -1.0322
 6356SOL     OW30703   4.194   1.087   6.105 -0.2182 -0.9648 -0.4326
 6356SOL    HW130704   4.245   1.130   6.037  0.5789 -1.6378 -0.2655
 6356SOL    HW230705   4.130   1.155   6.122  1.2428  0.0423  1.0974
 6357SOL     OW30706   0.055   3.074   9.418 -0.0399 -0.0872 -0.0628
 6357SOL    HW130707   0.120   3.022   9.371 -0.9580 -0.6480 -0.7179
 6357SOL    HW230708   4.720   3.013   9.441  0.5570 -0.7333  0.0407
 6358SOL     OW30709   3.868   3.388   8.538 -0.0832  0.0333  0.1892
 6358SOL    HW130710   3.821   3.322   8.589  0.7576 -1.7916 -1.4210
 6358SOL    HW230711   3.832   3.470   8.572  1.2990 -0.0257  1.7791
 6359SOL     OW30712   1.378   2.410   0.108 -0.0683  0.3989  0.0354
 6359SOL    HW130713   1.452   2.472   0.113 -0.2562  0.6723 -0.6289
 6359SOL    HW230714   1.397   2.354   0.033  0.2410  0.8530 -0.2331
 6360SOL     OW30715   3.283   1.416   3.656 -0.3619 -0.2464 -0.0875
 6360SOL    HW130716   3.267   1.387   3.746  0.7899 -1.2064 -0.1928
 6360SOL    HW230717   3.211   1.477   3.645  0.6651  1.2105  1.2155
 6361SOL     OW30718   0.784   3.790  15.233 -0.2890  0.3815  0.0056
 6361SOL    HW130719   0.756   3.741  15.155  1.2927 -0.4546 -0.0305
 6361SOL    HW230720   0.697   3.822  15.255 -1.0529 -1.3892 -0.4515
 6362SOL     OW30721   0.623   1.600  17.068 -0.7077  0.3921  0.1150
 6362SOL    HW130722   0.707   1.612  17.024 -0.1099 -0.5314  1.0094
 6362SOL    HW230723   0.641   1.515  17.109  0.7816 -0.2279 -1.8300
 6363SOL     OW30724   1.948   2.976  10.247 -0.1754 -0.4591 -0.1133
 6363SOL    HW130725   2.040   3.000  10.241 -0.4677  0.6387 -0.3764
 6363SOL    HW230726   1.948   2.938  10.334  0.8179 -0.4694 -0.1245
 6364SOL     OW30727   0.389   2.402   1.735 -0.5882  0.0330  0.2540
 6364SOL    HW130728   0.340   2.347   1.673  1.2037 -0.1775 -0.9872
 6364SOL    HW230729   0.413   2.476   1.679  0.1706 -0.7817 -0.5010
 6365SOL     OW30730   2.162   1.181   7.207 -0.6634 -0.5065 -0.0305
 6365SOL    HW130731   2.179   1.095   7.247  1.4462 -0.3858 -0.6705
 6365SOL    HW230732   2.069   1.192   7.226 -0.7995 -1.8989  0.1141
 6366SOL     OW30733   4.660   4.283  13.150  0.5530 -0.1108  0.0925
 6366SOL    HW130734   4.617   4.288  13.236  0.0004  3.9368 -0.4454
 6366SOL    HW230735   4.618   4.198  13.133  0.1475  0.3762 -1.3206
 6367SOL     OW30736   2.052   2.964  14.221  0.1501  0.2552  0.0780
 6367SOL    HW130737   2.075   2.896  14.158  0.8611 -0.4735  1.1174
 6367SOL    HW230738   2.111   3.036  14.199 -3.2976  2.9743 -0.1911
 6368SOL     OW30739   0.288   4.113   6.185 -0.0218 -0.0331 -0.5132
 6368SOL    HW130740   0.376   4.087   6.159 -1.2064 -1.4575 -3.1356
 6368SOL    HW230741   0.308   4.132   6.276  0.5906 -2.8354 -0.0859
 6369SOL     OW30742   4.014   1.033  14.003 -0.1953 -0.2939  0.1755
 6369SOL    HW130743   3.992   1.104  13.943  0.8007  2.2293  2.8528
 6369SOL    HW230744   3.931   1.016  14.047 -0.0084  0.0886  0.6679
 6370SOL     OW30745   1.607   4.672   1.961 -0.8488  0.2964  0.6223
 6370SOL    HW130746   1.614   4.579   1.940 -1.8916  0.6529 -1.2675
 6370SOL    HW230747   1.524   4.694   1.919 -0.1924 -0.3544 -1.0281
 6371SOL     OW30748   2.802   4.490   5.830 -0.1707 -0.1976  0.0033
 6371SOL    HW130749   2.836   4.536   5.754 -1.7420  1.0379  0.0422
 6371SOL    HW230750   2.762   4.565   5.876  0.2834 -0.8739  1.5046
 6372SOL     OW30751   4.584   0.999  12.578 -1.2485  0.2846  0.2829
 6372SOL    HW130752   4.489   1.001  12.590 -1.3553  0.9807 -0.7223
 6372SOL    HW230753   4.599   1.083  12.535  3.3955 -1.2403 -1.1086
 6373SOL     OW30754   3.639   3.541  13.631 -0.1031 -0.0272 -0.0684
 6373SOL    HW130755   3.717   3.593  13.652  1.2503 -2.3089  0.5706
 6373SOL    HW230756   3.564   3.600  13.643  0.6363  0.8212  0.3920
 6374SOL     OW30757   3.891   0.798  11.658  0.9217 -0.1937  0.5266
 6374SOL    HW130758   3.899   0.746  11.578  1.9523  2.7686 -1.2537
 6374SOL    HW230759   3.979   0.807  11.696  0.8212  1.2533  0.3968
 6375SOL     OW30760   3.599   3.241  10.828  0.1682  0.1255  0.3711
 6375SOL    HW130761   3.563   3.225  10.916 -1.3163 -0.3191 -0.3221
 6375SOL    HW230762   3.672   3.296  10.856  2.0445 -0.9005 -2.5461
 6376SOL     OW30763   0.437   0.071   1.726 -0.0125 -0.0633  0.2369
 6376SOL    HW130764   0.487   4.726   1.706  1.1480  0.5792  0.5804
 6376SOL    HW230765   0.418   0.041   1.815 -0.8552 -1.6721 -0.4705
 6377SOL     OW30766   4.228   3.723   9.905 -0.0057  0.0218  0.4004
 6377SOL    HW130767   4.243   3.632   9.878 -0.2851  0.1027 -0.0295
 6377SOL    HW230768   4.133   3.725   9.910 -0.1510 -1.3860 -1.5444
 6378SOL     OW30769   4.714   1.506  13.645  0.0333 -0.4822 -0.0142
 6378SOL    HW130770   0.064   1.548  13.656  0.3814 -1.4718  1.0582
 6378SOL    HW230771   4.669   1.569  13.589  1.6728 -0.9286 -1.8307
 6379SOL     OW30772   3.021   1.738   4.088  0.4114  0.3471 -0.1908
 6379SOL    HW130773   2.934   1.758   4.124  0.9486  2.0391  0.1424
 6379SOL    HW230774   3.021   1.767   3.997 -0.2303 -0.4839 -0.4605
 6380SOL     OW30775   2.287   4.440  12.151 -0.3714 -0.2861  0.5240
 6380SOL    HW130776   2.313   4.460  12.241  0.2851  0.9288  0.0680
 6380SOL    HW230777   2.203   4.398  12.166 -0.1931 -1.5276 -1.9413
 6381SOL     OW30778   1.434   2.716   5.210  0.3144  0.3160 -0.3674
 6381SOL    HW130779   1.395   2.705   5.296  0.1172  2.3487 -0.2058
 6381SOL    HW230780   1.388   2.643   5.168 -0.7851  0.6372  0.3053
 6382SOL     OW30781   1.435   0.813   5.596  0.4877  0.0808 -0.1137
 6382SOL    HW130782   1.417   0.796   5.503 -0.2110  0.9291 -0.1374
 6382SOL    HW230783   1.530   0.804   5.600  0.7380  3.4021  1.0582
 6383SOL     OW30784   2.750   4.335   7.271  0.0612 -0.7731  0.6069
 6383SOL    HW130785   2.656   4.338   7.252  0.3303  1.1800 -0.4223
 6383SOL    HW230786   2.757   4.428   7.293 -0.9165 -0.3804 -0.7274
 6384SOL     OW30787   4.143   1.116   7.321 -0.2512 -0.6019  0.3455
 6384SOL    HW130788   4.221   1.070   7.289  1.1058  0.3556  2.2173
 6384SOL    HW230789   4.168   1.189   7.378  0.6942 -1.1395  0.6288
 6385SOL     OW30790   1.312   3.652   1.382 -0.0787 -0.0614 -0.1392
 6385SOL    HW130791   1.334   3.745   1.391 -0.1443 -0.2386  1.9912
 6385SOL    HW230792   1.393   3.629   1.429 -0.1165 -2.0276 -1.0598
 6386SOL     OW30793   2.976   3.865  10.353 -0.0872  0.2304  0.1977
 6386SOL    HW130794   2.949   3.775  10.340  0.3446  0.2341 -0.6845
 6386SOL    HW230795   2.934   3.887  10.436  0.0984  2.1237 -0.1942
 6387SOL     OW30796   0.408   3.572   6.475  0.0278  0.4470  0.9026
 6387SOL    HW130797   0.450   3.648   6.517 -0.0662  0.9475  0.0929
 6387SOL    HW230798   0.390   3.602   6.386  0.2377  0.9557  1.0312
 6388SOL     OW30799   3.292   3.731   8.726  0.1247  0.2136  0.2272
 6388SOL    HW130800   3.375   3.738   8.679  0.5420 -3.8596  0.3627
 6388SOL    HW230801   3.234   3.791   8.679 -1.8462 -1.0561  1.0068
 6389SOL     OW30802   2.869   0.839   9.644  0.6570  0.4498  0.5355
 6389SOL    HW130803   2.822   0.915   9.608 -1.0781 -0.7435  0.2506
 6389SOL    HW230804   2.807   0.809   9.711  0.3192 -1.9751 -0.8588
 6390SOL     OW30805   2.403   3.854   5.109 -0.0956  0.3273  0.1813
 6390SOL    HW130806   2.395   3.949   5.109 -1.1983  0.2383 -2.5751
 6390SOL    HW230807   2.352   3.826   5.033  2.1940 -0.8461 -0.9280
 6391SOL     OW30808   0.603   1.077   7.392  0.1172  0.6239 -0.0597
 6391SOL    HW130809   0.602   1.032   7.476 -0.4947 -2.4613 -1.7280
 6391SOL    HW230810   0.529   1.137   7.404  0.7649  1.5825 -0.8215
 6392SOL     OW30811   2.967   0.553  10.089 -0.1663  0.5498 -0.1648
 6392SOL    HW130812   2.899   0.537  10.024 -0.2568 -2.0454  0.5882
 6392SOL    HW230813   2.972   0.463  10.122 -0.8362  1.1932  1.7457
 6393SOL     OW30814   2.419   3.834  11.601 -0.2090  0.5358 -0.5121
 6393SOL    HW130815   2.412   3.830  11.506 -0.8937  0.5074 -0.4543
 6393SOL    HW230816   2.334   3.802  11.631 -0.6689  1.1514 -1.1714
 6394SOL     OW30817   2.411   4.598   8.544 -0.3291 -0.8437 -0.1004
 6394SOL    HW130818   2.367   4.621   8.626  0.8236  0.3720  0.1702
 6394SOL    HW230819   2.393   4.681   8.499  0.5743 -0.1667  0.8129
 6395SOL     OW30820   4.651   2.940  12.238 -0.7569  0.3911  0.4196
 6395SOL    HW130821   4.708   2.926  12.161 -1.3322 -0.4896  0.1573
 6395SOL    HW230822   4.704   3.008  12.280 -0.5224 -0.4316  1.4614
 6396SOL     OW30823   0.950   3.494  15.235 -0.7218 -0.7007  0.6106
 6396SOL    HW130824   0.973   3.573  15.186 -0.6473 -0.5136  0.9418
 6396SOL    HW230825   0.917   3.450  15.157 -1.0131 -1.2632  1.0448
 6397SOL     OW30826   0.181   1.769  16.242 -0.3176 -0.8834  0.2125
 6397SOL    HW130827   0.206   1.690  16.195  0.8077 -0.8153  0.6926
 6397SOL    HW230828   0.222   1.753  16.327  1.5066 -3.0839 -1.0724
 6398SOL     OW30829   4.387   3.403  12.155  0.1214 -1.2018  0.1657
 6398SOL    HW130830   4.297   3.396  12.187 -0.0327  0.7660  0.1861
 6398SOL    HW230831   4.392   3.350  12.075  0.7347  0.3081 -0.8075
 6399SOL     OW30832   1.885   3.568   8.844 -0.4824 -0.2219 -0.0569
 6399SOL    HW130833   1.889   3.478   8.878 -1.1980  1.0806  3.4739
 6399SOL    HW230834   1.790   3.579   8.835 -0.6924 -1.9993 -0.0518
 6400SOL     OW30835   2.143   3.279   5.742  0.7610 -0.3165 -0.1228
 6400SOL    HW130836   2.136   3.298   5.836  0.1152 -0.2071 -0.1960
 6400SOL    HW230837   2.235   3.252   5.734  0.8024 -0.7135  1.5245
 6401SOL     OW30838   4.015   4.014  17.471 -0.2096  0.4110  0.5137
 6401SOL    HW130839   3.940   3.993  17.414  0.0467 -0.7230  0.5993
 6401SOL    HW230840   4.078   3.992  17.403 -2.4319  0.0668 -1.4579
 6402SOL     OW30841   3.664   2.007   7.956 -0.1119 -0.0307 -0.2678
 6402SOL    HW130842   3.608   1.960   7.894 -1.3382 -2.4602  2.6654
 6402SOL    HW230843   3.642   1.958   8.036  1.1408 -0.1483 -0.0011
 6403SOL     OW30844   0.910   0.752  12.337 -0.8578 -0.7568 -0.4632
 6403SOL    HW130845   0.973   0.697  12.383  1.2650  1.6272 -0.5273
 6403SOL    HW230846   0.845   0.777  12.404 -0.5455 -2.5669  0.5122
 6404SOL     OW30847   2.439   2.930   5.371 -0.1006  0.4550 -0.6224
 6404SOL    HW130848   2.507   2.940   5.437 -1.2655  0.8166  0.5221
 6404SOL    HW230849   2.380   2.995   5.411 -1.0299 -1.3114  0.8531
 6405SOL     OW30850   2.184   2.685   2.152  0.3906 -0.0827 -0.2827
 6405SOL    HW130851   2.160   2.715   2.240  1.4081 -0.4737  0.1362
 6405SOL    HW230852   2.161   2.761   2.099  1.3123  0.4802  0.1240
 6406SOL     OW30853   3.120   2.716   2.948 -0.5367  0.2701 -0.2991
 6406SOL    HW130854   3.139   2.687   3.037 -2.2384  0.7744  0.2261
 6406SOL    HW230855   3.077   2.637   2.916  1.8698 -0.1635 -2.4257
 6407SOL     OW30856   0.445   3.431   5.903 -0.0481  0.1890  0.0194
 6407SOL    HW130857   0.380   3.472   5.846  0.2675 -1.5815 -1.6210
 6407SOL    HW230858   0.440   3.465   5.993 -0.3958 -1.7829  0.7444
 6408SOL     OW30859   1.216   0.458   7.798  0.4283  0.2735 -0.0950
 6408SOL    HW130860   1.291   0.487   7.850  1.0225  4.4413 -3.1884
 6408SOL    HW230861   1.210   0.366   7.821 -2.0860  0.4973  0.1421
 6409SOL     OW30862   4.618   2.012   1.367  0.3861  0.4703 -0.4957
 6409SOL    HW130863   4.525   2.004   1.389  0.0041  0.8934 -1.9816
 6409SOL    HW230864   4.628   2.097   1.325  2.7013 -0.5278 -2.0040
 6410SOL     OW30865   0.903   2.857   2.173  0.4035 -0.3952  0.0760
 6410SOL    HW130866   0.880   2.817   2.257  1.1170 -1.9017 -0.4572
 6410SOL    HW230867   0.998   2.857   2.182  0.6228 -0.5721 -2.2327
 6411SOL     OW30868   1.264   1.477   5.196  0.1889 -0.0259  0.3404
 6411SOL    HW130869   1.233   1.447   5.281  0.4296 -0.5677  0.2418
 6411SOL    HW230870   1.190   1.530   5.169  1.5601  0.8383 -1.7022
 6412SOL     OW30871   0.570   3.219   8.755  0.4426 -0.0773 -0.1405
 6412SOL    HW130872   0.652   3.243   8.799 -1.4393 -0.4552  3.6174
 6412SOL    HW230873   0.610   3.186   8.675  1.8911  1.1264  0.0724
 6413SOL     OW30874   1.587   3.062   4.935  0.0064 -0.4357  0.4125
 6413SOL    HW130875   1.504   3.017   4.952 -0.9274  1.1012 -0.1136
 6413SOL    HW230876   1.638   2.989   4.900 -0.8826 -0.7525 -0.2480
 6414SOL     OW30877   1.877   1.777   3.648 -0.6275  0.6392  0.8704
 6414SOL    HW130878   1.923   1.772   3.564 -0.3178 -1.0430  1.1342
 6414SOL    HW230879   1.797   1.827   3.631 -0.5027 -0.3483 -2.6738
 6415SOL     OW30880   0.105   1.098  12.658  0.4059  0.2929 -0.0787
 6415SOL    HW130881   0.050   1.021  12.671 -0.9418  1.5335  1.6477
 6415SOL    HW230882   0.047   1.165  12.696  0.1040  0.4439 -0.8154
 6416SOL     OW30883   2.994   0.177  15.640 -0.1668 -0.1390  0.1060
 6416SOL    HW130884   3.006   0.272  15.638  2.1156 -0.4425 -0.6956
 6416SOL    HW230885   3.087   0.157  15.632 -0.1595 -0.3921  0.8447
 6417SOL     OW30886   3.788   2.830  16.130  0.0420  0.7925 -0.2907
 6417SOL    HW130887   3.735   2.753  16.112 -1.0667  1.6920 -0.8808
 6417SOL    HW230888   3.776   2.841  16.225 -0.5993 -2.3603 -0.0157
 6418SOL     OW30889   3.887   2.919   9.526  0.0924  0.0009  0.2005
 6418SOL    HW130890   3.801   2.882   9.546 -0.2831  0.6120 -0.3057
 6418SOL    HW230891   3.881   2.922   9.431 -0.9852  2.6808  0.3540
 6419SOL     OW30892   3.664   4.243   5.616  0.7875 -0.4516  0.3138
 6419SOL    HW130893   3.742   4.275   5.661  0.3790 -0.2937  0.9073
 6419SOL    HW230894   3.694   4.152   5.611  0.0700 -0.6404 -0.7145
 6420SOL     OW30895   2.468   4.187   2.885  0.3709  0.2425 -0.3208
 6420SOL    HW130896   2.527   4.253   2.920 -1.0617  2.3946 -2.0133
 6420SOL    HW230897   2.383   4.224   2.906  1.6984  2.7504  0.5727
 6421SOL     OW30898   4.559   4.609  13.370 -0.3629 -0.0311  0.4906
 6421SOL    HW130899   4.470   4.645  13.377  0.5073  2.2903 -0.5041
 6421SOL    HW230900   4.603   4.683  13.411  0.4086 -0.1933 -0.0510
 6422SOL     OW30901   1.545   2.929  14.921 -0.0772  0.5167 -0.1288
 6422SOL    HW130902   1.616   2.955  14.979  0.5204  0.7914 -0.9915
 6422SOL    HW230903   1.466   2.951  14.971 -0.4563 -0.0654 -0.4672
 6423SOL     OW30904   4.417   2.816   4.860 -0.0325 -0.4144  0.0860
 6423SOL    HW130905   4.347   2.876   4.835 -0.9709 -0.9693  1.4142
 6423SOL    HW230906   4.473   2.873   4.912  0.5285 -0.7277 -0.1719
 6424SOL     OW30907   4.029   2.355   1.985 -0.2321  0.3556  0.0967
 6424SOL    HW130908   3.954   2.296   1.995  2.1655 -2.7949 -0.5096
 6424SOL    HW230909   4.086   2.323   2.054  0.1415  2.1868  0.6501
 6425SOL     OW30910   3.288   4.256   6.478  0.3567 -0.1450 -0.0378
 6425SOL    HW130911   3.227   4.294   6.541  1.4399 -0.4398  1.1784
 6425SOL    HW230912   3.262   4.284   6.390 -0.9106  0.4995  0.5380
 6426SOL     OW30913   4.042   0.310   5.613  0.3115 -0.3757 -0.4381
 6426SOL    HW130914   4.054   0.352   5.699  1.2071  2.6404 -2.0247
 6426SOL    HW230915   4.091   0.369   5.555  0.6412  1.4456  1.6941
 6427SOL     OW30916   1.644   1.361  11.013  0.0012 -0.5115  0.6568
 6427SOL    HW130917   1.651   1.405  11.098 -0.5373  3.0488 -1.1033
 6427SOL    HW230918   1.691   1.283  11.042  0.0053 -0.7613 -0.0189
 6428SOL     OW30919   0.829   2.758   2.411 -0.2607  0.3265  0.2967
 6428SOL    HW130920   0.836   2.662   2.405 -0.5337  0.2856  0.5998
 6428SOL    HW230921   0.768   2.751   2.485  0.8936 -2.3829  1.0003
 6429SOL     OW30922   0.967   2.812   2.862 -0.4461 -0.1330  0.3979
 6429SOL    HW130923   1.048   2.762   2.869 -1.4246 -1.6453  0.9123
 6429SOL    HW230924   0.998   2.901   2.846 -0.5646  0.0164  0.9992
 6430SOL     OW30925   2.436   3.552   6.622 -0.6359 -0.6221  0.4239
 6430SOL    HW130926   2.432   3.644   6.648  3.6668 -0.0250 -1.0358
 6430SOL    HW230927   2.523   3.543   6.583  0.2147  0.7363  2.0186
 6431SOL     OW30928   3.893   2.945  10.899  0.4585  0.6479  0.1381
 6431SOL    HW130929   3.822   2.893  10.863  2.4549 -2.0237  0.0161
 6431SOL    HW230930   3.853   2.966  10.984  2.0654  1.4219  0.7096
 6432SOL     OW30931   3.496   3.119   3.006 -0.3433 -0.3689  0.1662
 6432SOL    HW130932   3.471   3.202   2.965  0.2092 -0.9454 -1.3345
 6432SOL    HW230933   3.486   3.055   2.935 -0.0870 -0.1421 -0.0750
 6433SOL     OW30934   4.371   3.716   3.118  0.5704 -0.0543 -0.2333
 6433SOL    HW130935   4.287   3.761   3.113  0.7015  0.2363  0.1452
 6433SOL    HW230936   4.418   3.756   3.045  2.9546 -0.9345  0.8105
 6434SOL     OW30937   0.441   2.467   8.001 -0.3859 -0.1405  0.3727
 6434SOL    HW130938   0.351   2.478   7.971 -1.2887 -0.7687  2.8260
 6434SOL    HW230939   0.441   2.377   8.035  1.3243 -0.3811 -0.2587
 6435SOL     OW30940   2.856   0.347   2.969 -0.1536 -0.4818  0.0936
 6435SOL    HW130941   2.914   0.378   3.038  0.5560  0.6964 -1.0115
 6435SOL    HW230942   2.775   0.359   3.018 -0.1334  0.3548 -0.0758
 6436SOL     OW30943   4.328   4.313   6.674  0.2617 -0.3852 -0.1050
 6436SOL    HW130944   4.353   4.403   6.695  0.2961 -1.0100  2.5141
 6436SOL    HW230945   4.413   4.272   6.657  0.0587 -1.6296  1.9546
 6437SOL     OW30946   4.426   4.492  16.122  0.0160 -0.2437 -0.2965
 6437SOL    HW130947   4.470   4.460  16.201  0.5801 -1.5807 -1.1468
 6437SOL    HW230948   4.349   4.537  16.156 -0.3974 -0.1963 -1.2916
 6438SOL     OW30949   4.625   4.034  10.876  0.3854 -0.6836 -0.0765
 6438SOL    HW130950   4.595   4.067  10.792  1.6801  0.0161 -0.2650
 6438SOL    HW230951   4.606   3.941  10.863  1.7703 -0.7770 -1.4153
 6439SOL     OW30952   3.696   1.808   3.278 -0.5003  0.3382  0.0156
 6439SOL    HW130953   3.606   1.817   3.247 -1.1860 -3.4564  0.8887
 6439SOL    HW230954   3.733   1.736   3.227 -1.1626 -1.8531  2.6474
 6440SOL     OW30955   3.924   4.264  11.197 -0.2408 -0.1124 -0.3402
 6440SOL    HW130956   3.984   4.309  11.139 -1.6840  0.1526 -1.6259
 6440SOL    HW230957   3.948   4.301  11.282  1.1514  1.4621 -1.4216
 6441SOL     OW30958   1.962   0.031   3.478 -0.2406  0.1623  0.1517
 6441SOL    HW130959   1.885   4.735   3.430 -0.3440  0.5255  0.0744
 6441SOL    HW230960   1.918   0.079   3.549  0.7445 -1.0074  1.5433
 6442SOL     OW30961   2.621   3.593  15.866 -0.3524 -0.3578 -0.4553
 6442SOL    HW130962   2.714   3.603  15.846 -0.1304 -3.3020 -0.8617
 6442SOL    HW230963   2.582   3.651  15.801 -0.0358 -0.2833 -0.5824
 6443SOL     OW30964   4.240   0.018   8.956 -0.0064 -0.4289  0.2636
 6443SOL    HW130965   4.334   0.003   8.967 -0.1102 -0.9683  0.3869
 6443SOL    HW230966   4.204   4.666   8.971 -0.5239  0.0525  1.8106
 6444SOL     OW30967   3.768   4.127   6.572 -0.2969 -0.3509 -0.0986
 6444SOL    HW130968   3.726   4.073   6.640 -0.6167  0.4644  0.3453
 6444SOL    HW230969   3.683   4.157   6.539 -1.0751  0.2175  2.4238
 6445SOL     OW30970   0.652   2.657   2.593  1.0752  0.4442 -0.0113
 6445SOL    HW130971   0.657   2.627   2.683 -0.1266 -1.7398 -0.6706
 6445SOL    HW230972   0.673   2.581   2.539 -0.1513  0.7674 -0.9610
 6446SOL     OW30973   4.711   0.624  12.852 -0.4636 -0.0374 -0.4012
 6446SOL    HW130974   0.010   0.641  12.939 -0.5199 -1.2334 -0.1462
 6446SOL    HW230975   4.689   0.531  12.853  1.1327 -0.4500 -2.2262
 6447SOL     OW30976   0.722   1.401   8.896  0.1736  0.7968  0.2373
 6447SOL    HW130977   0.655   1.424   8.960  0.2606 -0.6523  0.8632
 6447SOL    HW230978   0.667   1.402   8.818 -1.3911 -0.4469  1.3364
 6448SOL     OW30979   1.150   2.121   6.036  0.0373 -0.0496 -0.1859
 6448SOL    HW130980   1.189   2.068   5.967 -1.5470 -1.6473  0.1300
 6448SOL    HW230981   1.057   2.106   6.017  0.4953  1.2086 -3.3584
 6449SOL     OW30982   0.703   2.508   4.081 -0.1599 -0.3058  0.1114
 6449SOL    HW130983   0.697   2.472   4.170 -0.4574  2.2340  1.1373
 6449SOL    HW230984   0.623   2.474   4.041 -0.6770  0.9389  0.0853
 6450SOL     OW30985   3.315   0.999   3.016 -0.7745  0.0180  0.4504
 6450SOL    HW130986   3.307   0.961   2.929 -0.6811  2.5902 -0.6825
 6450SOL    HW230987   3.373   1.072   2.997 -2.2977  0.8082 -1.1559
 6451SOL     OW30988   1.463   0.294   5.317  0.2903  0.3461  0.1395
 6451SOL    HW130989   1.461   0.253   5.230  0.2997 -1.9820  1.2524
 6451SOL    HW230990   1.512   0.236   5.375  0.7032 -0.4260 -0.9797
 6452SOL     OW30991   0.801   2.813  10.457  0.4453  0.0836 -0.3154
 6452SOL    HW130992   0.755   2.865  10.524  0.7940 -0.2573  0.1836
 6452SOL    HW230993   0.782   2.722  10.479 -0.6869  0.0047 -1.6076
 6453SOL     OW30994   1.005   2.838   0.419  0.5759 -0.3699  0.5651
 6453SOL    HW130995   1.026   2.878   0.335 -0.9496 -0.3677  0.1850
 6453SOL    HW230996   0.919   2.878   0.433  1.1544  1.4666 -1.0921
 6454SOL     OW30997   4.552   0.729  12.661  0.7037 -0.7975 -0.4822
 6454SOL    HW130998   4.623   0.709  12.723  0.7641 -2.6379 -1.1548
 6454SOL    HW230999   4.571   0.820  12.637 -1.2374  0.1145  1.4365
 6455SOL     OW31000   1.528   3.763  13.376 -0.2654 -0.1214 -0.0772
 6455SOL    HW131001   1.534   3.838  13.435  0.7223 -2.2569  2.5250
 6455SOL    HW231002   1.623   3.753  13.367 -0.0328 -0.1089  2.3311
 6456SOL     OW31003   2.858   4.612   3.268 -0.0956 -0.1377 -0.7430
 6456SOL    HW131004   2.793   4.642   3.332 -0.5031 -0.7799 -0.8537
 6456SOL    HW231005   2.926   4.562   3.314 -2.3385 -3.6022 -1.2032
 6457SOL     OW31006   1.913   4.311   7.659 -0.1335 -0.0214 -0.3938
 6457SOL    HW131007   2.005   4.336   7.661  0.1706 -1.4280  2.3490
 6457SOL    HW231008   1.874   4.381   7.606 -0.9724  0.9005  1.4247
 6458SOL     OW31009   2.194   1.487   8.303  0.3235 -0.3276 -0.4828
 6458SOL    HW131010   2.199   1.464   8.395 -2.5898  4.3640  0.8586
 6458SOL    HW231011   2.286   1.477   8.280  0.7632  0.7294  0.8340
 6459SOL     OW31012   0.073   2.728   5.771 -0.2879  0.1677  0.1949
 6459SOL    HW131013   0.054   2.724   5.865 -1.9596  2.8938 -0.0509
 6459SOL    HW231014   4.720   2.749   5.741 -0.3483  0.8082  0.8320
 6460SOL     OW31015   4.450   2.582   5.855  0.5041 -0.1913  0.8770
 6460SOL    HW131016   4.483   2.646   5.917  1.3455  0.1892  0.0241
 6460SOL    HW231017   4.532   2.538   5.834 -0.0779 -1.4335  1.1749
 6461SOL     OW31018   2.175   3.039   4.278 -0.1122  0.1688  0.3179
 6461SOL    HW131019   2.220   3.036   4.194 -0.5364 -3.3190  0.2255
 6461SOL    HW231020   2.085   3.068   4.260 -0.0094  1.0571  1.2114
 6462SOL     OW31021   3.361   3.193   9.628  0.5886  0.0261  0.6416
 6462SOL    HW131022   3.423   3.233   9.567  1.1696 -2.4485 -0.3704
 6462SOL    HW231023   3.308   3.270   9.651  2.1511  1.4029 -0.3141
 6463SOL     OW31024   1.068   2.184   7.306  0.1879 -0.2865  0.4957
 6463SOL    HW131025   1.076   2.177   7.401 -1.7187 -1.7824  0.5500
 6463SOL    HW231026   0.982   2.144   7.290  0.2621  0.3853 -1.5570
 6464SOL     OW31027   3.362   3.605   6.480  0.1381 -0.2909  0.4977
 6464SOL    HW131028   3.415   3.553   6.419 -1.4735 -2.1602  0.7071
 6464SOL    HW231029   3.318   3.537   6.530 -0.7840 -1.0922 -1.3918
 6465SOL     OW31030   0.748   1.101   9.406  0.0997  0.2267 -0.1864
 6465SOL    HW131031   0.768   1.159   9.332  2.9641 -0.4210  0.0697
 6465SOL    HW231032   0.724   1.159   9.478 -2.2025  0.0204 -0.7996
 6466SOL     OW31033   2.543   0.912   5.277  0.3085  0.4298 -0.0473
 6466SOL    HW131034   2.450   0.901   5.300  1.0302 -2.1659  1.5974
 6466SOL    HW231035   2.576   0.931   5.365  1.4096 -3.4960  0.3552
 6467SOL     OW31036   3.087   2.153   3.122  0.0200  0.2618  0.2438
 6467SOL    HW131037   3.105   2.188   3.034 -1.9540  0.0821 -0.2232
 6467SOL    HW231038   3.070   2.062   3.095  0.3123  0.3831 -0.3592
 6468SOL     OW31039   0.400   1.532   1.294  0.1366 -0.1137 -0.7585
 6468SOL    HW131040   0.431   1.528   1.203  1.8099 -0.2884 -0.1815
 6468SOL    HW231041   0.305   1.546   1.293  0.3586  1.4697  0.2930
 6469SOL     OW31042   3.794   0.948   4.442  0.1893 -0.0363  0.2158
 6469SOL    HW131043   3.783   0.937   4.348  0.2130  1.0856  0.0799
 6469SOL    HW231044   3.888   0.965   4.450 -0.3162  1.7142  2.3588
 6470SOL     OW31045   1.748   1.140   2.877  0.5271  0.1277  0.1616
 6470SOL    HW131046   1.687   1.095   2.935 -1.3962  0.2609 -1.7474
 6470SOL    HW231047   1.762   1.226   2.916  1.2809 -0.1454  0.4927
 6471SOL     OW31048   4.201   1.203  15.008 -0.1527  0.2257 -0.2783
 6471SOL    HW131049   4.293   1.180  15.022  0.4864  2.5067 -0.7257
 6471SOL    HW231050   4.203   1.203  14.912  0.3855  0.1898 -0.2706
 6472SOL     OW31051   0.106   1.000   7.970  0.2329  0.2471  0.4452
 6472SOL    HW131052   0.059   0.956   8.040  0.9939 -0.8457  0.2656
 6472SOL    HW231053   0.124   1.087   8.005  2.6587 -0.8676  1.9270
 6473SOL     OW31054   1.610   2.996  17.534 -0.0674  0.3038  0.4156
 6473SOL    HW131055   1.706   3.001  17.532 -0.1056  1.5496  1.2526
 6473SOL    HW231056   1.595   2.903  17.548 -1.2375  0.2399 -1.2806
 6474SOL     OW31057   1.942   3.483   1.543 -0.1215 -0.2914 -0.1169
 6474SOL    HW131058   1.913   3.560   1.493  0.0992 -1.9751 -2.8348
 6474SOL    HW231059   1.859   3.462   1.585 -0.1065  0.7697  0.4353
 6475SOL     OW31060   4.007   1.811   9.604  0.5004 -0.5229  0.1358
 6475SOL    HW131061   4.093   1.821   9.564  0.3616 -2.2579 -0.5551
 6475SOL    HW231062   4.016   1.732   9.656 -0.0358 -0.1612  0.7759
 6476SOL     OW31063   0.721   0.440   5.184  0.1007  0.3472  0.3801
 6476SOL    HW131064   0.678   0.510   5.233  1.2770 -2.3820  5.2099
 6476SOL    HW231065   0.747   0.491   5.107 -2.2282  0.0158 -0.6188
 6477SOL     OW31066   0.310   2.156  10.130  0.2592  0.2028  0.0106
 6477SOL    HW131067   0.393   2.183  10.090  1.0307  0.5229  1.8470
 6477SOL    HW231068   0.260   2.237  10.133 -0.8194 -0.3592 -2.1506
 6478SOL     OW31069   2.750   3.505   3.127  0.5597  0.0872  0.7679
 6478SOL    HW131070   2.697   3.547   3.195 -0.8819 -0.4985  0.0061
 6478SOL    HW231071   2.736   3.417   3.162 -1.1824 -0.0632 -0.2940
 6479SOL     OW31072   3.492   3.008   3.744 -0.3702 -0.9983  0.3232
 6479SOL    HW131073   3.550   2.970   3.679 -1.3774 -0.0260 -1.1310
 6479SOL    HW231074   3.555   3.034   3.812 -1.5060  2.2603  0.1253
 6480SOL     OW31075   3.165   0.017   6.213  0.1302  0.2358  0.0205
 6480SOL    HW131076   3.126   0.092   6.169  0.1995 -0.1343 -0.6710
 6480SOL    HW231077   3.133   0.025   6.303  1.8645  0.4074  0.6111
 6481SOL     OW31078   2.374   0.116  13.216 -0.5711 -0.8362 -0.3466
 6481SOL    HW131079   2.288   0.084  13.242 -0.9368  0.1931 -0.3145
 6481SOL    HW231080   2.397   0.142  13.305 -0.9973  0.2780 -0.5631
 6482SOL     OW31081   2.828   2.360   2.185  0.1895  0.6157  0.2285
 6482SOL    HW131082   2.871   2.282   2.221  0.6691  0.1480 -1.3555
 6482SOL    HW231083   2.891   2.405   2.128  0.6497 -0.6007 -0.2248
 6483SOL     OW31084   3.743   0.868   1.707  0.8447 -0.1069  0.0181
 6483SOL    HW131085   3.744   0.865   1.803  0.3876  2.4789  0.1049
 6483SOL    HW231086   3.651   0.847   1.696  1.0973 -0.7548 -0.8111
 6484SOL     OW31087   2.064   2.095  17.263  0.2341 -0.7560  1.0090
 6484SOL    HW131088   2.096   2.066  17.178 -0.7027  1.6337 -0.1763
 6484SOL    HW231089   2.099   2.024  17.316  2.7178  0.7529  1.4086
 6485SOL     OW31090   0.396   1.766   2.125 -0.0771  0.1059 -0.5306
 6485SOL    HW131091   0.321   1.712   2.147  2.3000 -2.4663  1.2338
 6485SOL    HW231092   0.393   1.765   2.029 -0.1039 -1.1607 -0.5120
 6486SOL     OW31093   4.671   3.001   4.561 -0.2018  0.2466 -0.1726
 6486SOL    HW131094   4.640   2.922   4.605 -2.6695  1.1267 -0.3616
 6486SOL    HW231095   4.720   2.964   4.487  2.3382 -0.0998  1.6774
 6487SOL     OW31096   0.338   3.595   3.733  0.2856  0.0410  0.2987
 6487SOL    HW131097   0.271   3.660   3.714  1.1882  1.2382  1.2788
 6487SOL    HW231098   0.309   3.574   3.822  1.0952 -1.2233  0.2649
 6488SOL     OW31099   1.914   2.589   4.838 -0.1986 -0.7928  0.2480
 6488SOL    HW131100   1.862   2.539   4.775 -1.9420  2.2156 -0.7121
 6488SOL    HW231101   1.867   2.571   4.920  1.4472  0.5098  1.4955
 6489SOL     OW31102   3.538   0.916   3.731 -0.2461  0.7180  0.1566
 6489SOL    HW131103   3.596   0.960   3.794  0.2883 -1.6068  1.2703
 6489SOL    HW231104   3.547   0.827   3.765 -1.3405 -0.0933 -1.6607
 6490SOL     OW31105   1.182   3.624   3.838  0.6615  0.4384  0.0507
 6490SOL    HW131106   1.202   3.718   3.841 -2.3387  1.0575  0.7240
 6490SOL    HW231107   1.215   3.597   3.752 -0.0344 -0.8557  0.1894
 6491SOL     OW31108   2.740   2.731   8.648 -0.1417 -0.1831 -0.2186
 6491SOL    HW131109   2.745   2.709   8.741  3.4897 -1.7808 -0.7960
 6491SOL    HW231110   2.662   2.681   8.623 -1.8667  1.9846  0.8228
 6492SOL     OW31111   2.188   0.054   2.261 -0.0412 -0.2153 -0.1552
 6492SOL    HW131112   2.213   0.141   2.290 -0.7091 -0.3804  0.9252
 6492SOL    HW231113   2.126   0.063   2.188 -1.0143 -1.3339  0.5381
 6493SOL     OW31114   1.841   0.645  11.200 -0.0283 -0.6161  0.1703
 6493SOL    HW131115   1.776   0.642  11.271 -0.9178  1.4734 -0.5528
 6493SOL    HW231116   1.915   0.700  11.227 -0.9831  0.3856  0.7470
 6494SOL     OW31117   1.883   0.873   1.830  0.2919 -0.0287  0.1961
 6494SOL    HW131118   1.831   0.812   1.779 -0.2783  1.1798 -0.6645
 6494SOL    HW231119   1.946   0.902   1.764  1.5539 -2.9567  0.1217
 6495SOL     OW31120   4.477   0.421   6.257  0.1792 -0.2132  0.5525
 6495SOL    HW131121   4.437   0.345   6.214  0.1324  0.1824 -0.1115
 6495SOL    HW231122   4.439   0.500   6.219  1.9076  0.3530  0.0040
 6496SOL     OW31123   0.888   4.008   8.151 -0.1113 -0.5732  0.1588
 6496SOL    HW131124   0.821   3.988   8.216  0.6100 -2.5445  0.3177
 6496SOL    HW231125   0.852   3.966   8.073 -1.3407 -0.0481  0.4424
 6497SOL     OW31126   2.267   4.079   6.343 -0.0627 -0.2646  0.5683
 6497SOL    HW131127   2.317   4.114   6.416  0.4209 -1.9909  1.0664
 6497SOL    HW231128   2.176   4.064   6.368 -0.2580  1.0543  0.6346
 6498SOL     OW31129   3.613   2.770  17.312 -0.6868  0.3221  0.3121
 6498SOL    HW131130   3.606   2.863  17.334 -0.5348  0.1428  1.0969
 6498SOL    HW231131   3.577   2.761  17.223  1.3036  0.2448 -0.4844
 6499SOL     OW31132   3.091   1.786   1.485 -0.0489  0.5011  0.0233
 6499SOL    HW131133   3.115   1.695   1.504 -0.8934  0.2270 -0.2470
 6499SOL    HW231134   3.064   1.771   1.394  3.5882 -0.1894 -0.9391
 6500SOL     OW31135   4.073   2.336   3.261 -0.2586 -0.5941  0.1297
 6500SOL    HW131136   4.113   2.420   3.241  2.7257 -2.2663 -0.9213
 6500SOL    HW231137   4.016   2.322   3.185  0.2955  0.6753 -0.5126
 6501SOL     OW31138   1.131   2.910  11.446 -0.5192  0.0334  0.3487
 6501SOL    HW131139   1.087   2.888  11.528  0.8003  2.3002  1.6766
 6501SOL    HW231140   1.051   2.918  11.395 -2.2968 -3.1840  2.5771
 6502SOL     OW31141   0.310   1.866   8.441 -0.0235 -0.0688  0.0584
 6502SOL    HW131142   0.357   1.897   8.364 -1.2169 -0.2858 -0.7577
 6502SOL    HW231143   0.323   1.771   8.438 -1.2058 -0.1677 -1.8174
 6503SOL     OW31144   1.609   1.987   1.907 -0.1798  0.0525  0.1304
 6503SOL    HW131145   1.610   1.909   1.962  1.8662 -0.5346 -0.7534
 6503SOL    HW231146   1.567   1.952   1.829  1.1754  0.4844 -0.7878
 6504SOL     OW31147   3.864   0.423  14.416 -0.2542  0.0426  0.5807
 6504SOL    HW131148   3.869   0.518  14.406  0.3455  0.3219  3.5013
 6504SOL    HW231149   3.913   0.411  14.498  0.2997  0.6140  0.3325
 6505SOL     OW31150   3.282   0.174   8.388 -0.7060  0.2398 -0.1341
 6505SOL    HW131151   3.309   0.261   8.416  1.1039 -1.2015  2.5689
 6505SOL    HW231152   3.370   0.135   8.388 -1.0092 -0.4692  2.1750
 6506SOL     OW31153   1.798   3.334   3.859  0.1986 -0.5932 -0.6072
 6506SOL    HW131154   1.731   3.358   3.923  1.6880  0.5970  0.5130
 6506SOL    HW231155   1.802   3.240   3.878 -1.5103 -0.2817  1.2643
 6507SOL     OW31156   2.570   3.370  10.244  0.3785  0.8184 -0.0284
 6507SOL    HW131157   2.637   3.431  10.213  0.3370  0.8908  0.0260
 6507SOL    HW231158   2.593   3.384  10.335 -0.6494 -0.7328  0.4797
 6508SOL     OW31159   0.013   2.300   6.283  0.1136 -0.1116 -0.1013
 6508SOL    HW131160   0.086   2.316   6.341  0.5032 -1.0378 -0.3382
 6508SOL    HW231161   4.686   2.249   6.335  2.0746 -0.1699  2.1487
 6509SOL     OW31162   2.185   2.727   2.879  0.5396 -0.0370 -1.2297
 6509SOL    HW131163   2.172   2.740   2.973 -2.3252  2.7343 -2.0247
 6509SOL    HW231164   2.100   2.758   2.849  0.2373 -1.3571 -1.7294
 6510SOL     OW31165   3.389   3.112  13.411 -0.2792 -0.0271 -0.9499
 6510SOL    HW131166   3.294   3.105  13.401 -0.5774  0.2411  1.6061
 6510SOL    HW231167   3.374   3.186  13.470  2.2451  1.5552 -2.3131
 6511SOL     OW31168   1.612   0.047   5.460 -0.3830  0.4662 -0.3775
 6511SOL    HW131169   1.679   0.034   5.526 -0.9220 -0.5216 -0.0140
 6511SOL    HW231170   1.630   4.712   5.397  3.4077 -0.6667  1.9687
 6512SOL     OW31171   0.124   0.308   7.585  0.5193  0.3731 -0.3089
 6512SOL    HW131172   0.139   0.365   7.660  0.3897 -1.4699  1.1259
 6512SOL    HW231173   0.115   0.229   7.638 -0.9147  2.3384  2.3596
 6513SOL     OW31174   2.306   3.912  12.772 -0.1060  0.1385 -0.1876
 6513SOL    HW131175   2.315   3.954  12.686  2.1555  1.8290  0.8891
 6513SOL    HW231176   2.378   3.953  12.820  0.5297 -0.9131 -0.2309
 6514SOL     OW31177   2.981   1.000   2.835  0.5486 -0.0842  0.6937
 6514SOL    HW131178   3.029   1.081   2.818  0.4082 -0.4892 -1.5846
 6514SOL    HW231179   2.910   1.034   2.889 -2.5504 -0.7514 -2.9698
 6515SOL     OW31180   2.504   3.291   8.371  0.5939 -0.3796  0.2205
 6515SOL    HW131181   2.539   3.336   8.294 -0.5079  2.7735  1.5375
 6515SOL    HW231182   2.589   3.287   8.414  1.0886 -1.8336 -0.8779
 6516SOL     OW31183   2.851   0.236   7.978  0.3666  0.1313  0.3922
 6516SOL    HW131184   2.803   0.157   7.956 -0.9805  1.6435 -2.1830
 6516SOL    HW231185   2.783   0.276   8.031  0.4391  0.1626  0.4625
 6517SOL     OW31186   2.483   3.395   2.010  0.6263 -0.2086 -0.4996
 6517SOL    HW131187   2.498   3.386   2.104 -0.9037 -3.0064 -0.5138
 6517SOL    HW231188   2.436   3.314   1.994 -0.1033  0.1802 -0.3356
 6518SOL     OW31189   3.202   4.069   6.170  0.2905 -0.5192 -0.0179
 6518SOL    HW131190   3.231   4.096   6.083 -0.3718  2.5797  0.7225
 6518SOL    HW231191   3.126   4.015   6.147  1.7541 -2.3496 -0.5572
 6519SOL     OW31192   4.732   3.128   7.048  0.9540 -0.0165 -0.2492
 6519SOL    HW131193   0.020   3.142   6.957 -1.3014  0.5215 -0.7310
 6519SOL    HW231194   0.072   3.163   7.097 -0.1939  0.2544  1.3488
 6520SOL     OW31195   1.764   2.960  15.290 -0.4112  0.0915  0.5460
 6520SOL    HW131196   1.680   2.915  15.295  0.2294 -1.2311 -0.6127
 6520SOL    HW231197   1.753   2.996  15.202 -1.7048 -3.1038 -0.5812
 6521SOL     OW31198   3.164   3.714   7.943 -0.4945  0.0591  0.0153
 6521SOL    HW131199   3.256   3.732   7.965 -1.3484  1.5924  2.3664
 6521SOL    HW231200   3.134   3.805   7.936 -0.3252  0.0512 -0.8321
 6522SOL     OW31201   4.196   2.558  16.226 -0.2640 -0.2287  0.4313
 6522SOL    HW131202   4.242   2.483  16.187  1.2774  1.0922 -0.2628
 6522SOL    HW231203   4.239   2.624  16.172 -1.3725  0.8072  0.8033
 6523SOL     OW31204   0.471   2.673   3.199  0.0381  0.1451  0.0415
 6523SOL    HW131205   0.408   2.638   3.262  1.6824  0.2638  1.7598
 6523SOL    HW231206   0.526   2.724   3.259  1.6306 -1.5425 -0.0000
 6524SOL     OW31207   4.004   2.138   8.002  1.1113  0.0182 -0.4223
 6524SOL    HW131208   3.954   2.152   7.921 -2.5684 -0.2394  1.7817
 6524SOL    HW231209   3.938   2.141   8.071  0.7147  2.5223 -0.8974
 6525SOL     OW31210   4.387   4.215   3.797 -0.2105  0.2274 -0.3105
 6525SOL    HW131211   4.333   4.253   3.728 -1.6710 -0.7419  0.2818
 6525SOL    HW231212   4.330   4.246   3.867  0.0086  0.3867 -0.2020
 6526SOL     OW31213   2.147   0.609   2.687  0.4804  0.3448 -0.2015
 6526SOL    HW131214   2.052   0.612   2.687  0.4371 -1.0187  1.0583
 6526SOL    HW231215   2.165   0.655   2.769  0.5464  0.1379 -0.1009
 6527SOL     OW31216   0.931   1.213   5.740 -0.6601 -0.3207 -0.0135
 6527SOL    HW131217   0.933   1.291   5.795 -2.3360  0.0114 -0.4288
 6527SOL    HW231218   0.905   1.145   5.802 -0.3457  0.0157  0.4859
 6528SOL     OW31219   2.997   0.731  12.763  0.0430  0.0516 -0.1305
 6528SOL    HW131220   2.928   0.744  12.827 -1.5708  3.8204 -2.6542
 6528SOL    HW231221   3.034   0.646  12.789  3.4934  1.5778 -0.0075
 6529SOL     OW31222   3.666   1.516   3.574  0.7923 -0.0477 -0.2490
 6529SOL    HW131223   3.723   1.440   3.574  0.1239 -0.5506 -0.9661
 6529SOL    HW231224   3.698   1.564   3.498  2.8235 -1.9747 -0.6035
 6530SOL     OW31225   2.999   2.535  15.572 -0.1716 -0.5445 -0.1055
 6530SOL    HW131226   2.956   2.563  15.492  1.1036  0.6519 -0.3660
 6530SOL    HW231227   3.075   2.492  15.532  2.2191  2.1748  1.5124
 6531SOL     OW31228   1.089   4.157  16.835  0.1766 -0.2127  0.7632
 6531SOL    HW131229   1.005   4.121  16.809  1.0525 -0.0040 -2.4498
 6531SOL    HW231230   1.093   4.139  16.928  0.2442 -1.7562  0.4602
 6532SOL     OW31231   3.935   0.100   2.785 -0.3177 -0.3016 -0.0498
 6532SOL    HW131232   3.922   0.048   2.706  0.1802 -0.6303  0.0858
 6532SOL    HW231233   3.856   0.153   2.794 -0.8009 -0.8358 -1.2516
 6533SOL     OW31234   2.729   1.046   7.525 -0.3160  0.3421  0.1780
 6533SOL    HW131235   2.721   0.955   7.551  0.3820  0.3939  0.5660
 6533SOL    HW231236   2.636   1.064   7.539 -0.4785  1.5220 -2.3762
 6534SOL     OW31237   1.387   2.588  17.474 -0.3527 -0.3995  0.6545
 6534SOL    HW131238   1.335   2.573  17.395 -0.4150 -2.2102  1.0360
 6534SOL    HW231239   1.464   2.537  17.450  1.3035  2.0572  0.8017
 6535SOL     OW31240   2.422   0.009  16.795  0.4952 -0.5327 -0.3070
 6535SOL    HW131241   2.412   0.060  16.714  0.0866 -0.9067 -0.4949
 6535SOL    HW231242   2.515   0.026  16.811 -0.0236  3.0687 -1.0922
 6536SOL     OW31243   0.792   2.544  10.473  0.3836  0.4254  0.0086
 6536SOL    HW131244   0.778   2.496  10.555  2.2890 -0.7276 -0.3342
 6536SOL    HW231245   0.864   2.489  10.442 -1.1696 -1.8626  0.4637
 6537SOL     OW31246   4.033   3.741  11.296 -0.2518 -0.3119  0.1137
 6537SOL    HW131247   4.043   3.833  11.272 -1.7856 -0.2207 -0.2270
 6537SOL    HW231248   3.938   3.728  11.304 -0.0575  0.2175  3.3064
 6538SOL     OW31249   2.808   1.141   6.457  0.4441  0.3505  0.1312
 6538SOL    HW131250   2.810   1.154   6.362 -0.1961  1.4630  0.2628
 6538SOL    HW231251   2.880   1.078   6.460  1.2763  1.3027  0.2996
 6539SOL     OW31252   3.187   1.148   5.397 -0.3567 -0.4917 -0.1152
 6539SOL    HW131253   3.113   1.116   5.345 -1.1074 -0.6932  1.0645
 6539SOL    HW231254   3.216   1.219   5.340 -0.6294  0.2278  0.6397
 6540SOL     OW31255   1.596   3.483   7.779 -0.1784  0.0437 -0.1945
 6540SOL    HW131256   1.515   3.431   7.783 -1.9084  2.8806  2.3442
 6540SOL    HW231257   1.569   3.561   7.827  1.4898 -0.1664  1.0803
 6541SOL     OW31258   1.513   3.392   6.244 -0.5656 -0.5263 -0.2052
 6541SOL    HW131259   1.460   3.328   6.196 -0.5165 -0.4359 -0.3845
 6541SOL    HW231260   1.480   3.376   6.332 -0.2721 -0.9648 -0.1774
 6542SOL     OW31261   1.268   2.023   7.678  0.0555  0.6061 -0.0908
 6542SOL    HW131262   1.264   1.945   7.622  2.1158  0.2086  0.2920
 6542SOL    HW231263   1.188   2.069   7.655  0.3050  1.0709 -0.0397
 6543SOL     OW31264   2.323   0.666  12.643 -0.4982  0.0195 -0.2445
 6543SOL    HW131265   2.283   0.589  12.602 -0.3549 -1.7581  2.9305
 6543SOL    HW231266   2.384   0.626  12.705  0.6912  0.1119 -1.3441
 6544SOL     OW31267   4.284   0.793   2.224 -0.1302  0.4994  0.4642
 6544SOL    HW131268   4.354   0.787   2.289 -1.7299 -1.4464  1.9922
 6544SOL    HW231269   4.320   0.756   2.144 -0.2489 -2.8360  1.9743
 6545SOL     OW31270   3.076   0.761   2.927 -0.0369 -0.0228  1.0782
 6545SOL    HW131271   3.053   0.838   2.874  0.9836  0.0223  0.7066
 6545SOL    HW231272   2.998   0.736   2.976 -0.4296 -0.4781  0.2306
 6546SOL     OW31273   1.725   0.376  10.293  0.1556  0.4158  0.5437
 6546SOL    HW131274   1.720   0.454  10.347  0.7736  0.5364  0.4368
 6546SOL    HW231275   1.821   0.372  10.285  0.0810 -0.6139  0.1393
 6547SOL     OW31276   2.158   0.735   8.462  0.0230 -0.4907 -0.7486
 6547SOL    HW131277   2.192   0.649   8.437  1.9802  0.0839 -0.0340
 6547SOL    HW231278   2.189   0.801   8.401  0.0365 -1.9575 -2.3219
 6548SOL     OW31279   3.983   0.217  10.142 -0.1065 -0.4230 -0.1514
 6548SOL    HW131280   3.982   0.137  10.196  0.7364 -1.1422 -1.1831
 6548SOL    HW231281   4.069   0.251  10.164 -0.5503  1.1774 -0.9280
 6549SOL     OW31282   3.312   3.089  12.403  0.2910 -0.4045  0.9509
 6549SOL    HW131283   3.379   3.055  12.462  0.9069  0.5585  0.8211
 6549SOL    HW231284   3.255   3.129  12.469  0.6711 -0.2427  1.1777
 6550SOL     OW31285   1.936   4.316  11.365 -0.1656  0.6248  0.1669
 6550SOL    HW131286   1.920   4.372  11.289 -4.0730 -0.8166 -0.0435
 6550SOL    HW231287   1.852   4.273  11.380  1.1412 -1.8000  0.4527
 6551SOL     OW31288   4.703   3.702   3.850  0.2921 -0.1623 -0.4331
 6551SOL    HW131289   4.700   3.785   3.803  1.4550 -0.6201 -1.3335
 6551SOL    HW231290   4.686   3.642   3.777  0.9992  1.5130 -1.9775
 6552SOL     OW31291   3.839   3.043  16.488 -0.8373 -0.0694  0.1294
 6552SOL    HW131292   3.844   3.123  16.539  1.8138 -1.0813  1.4221
 6552SOL    HW231293   3.799   2.986  16.555 -0.5583 -0.0289  0.3302
 6553SOL     OW31294   1.167   1.417   6.079  0.2922  0.4190  0.1288
 6553SOL    HW131295   1.097   1.386   6.022 -0.6174 -1.2593  2.1825
 6553SOL    HW231296   1.145   1.376   6.162  0.1206  1.1046  0.4225
 6554SOL     OW31297   2.952   2.990   2.038 -0.0704  0.1141  0.2549
 6554SOL    HW131298   3.027   2.953   2.083 -0.6964 -0.5304  0.7700
 6554SOL    HW231299   2.977   3.075   2.075 -2.0085  0.5514  0.5853
 6555SOL     OW31300   2.774   4.480  14.843  0.2438 -0.0153 -0.6410
 6555SOL    HW131301   2.843   4.413  14.841 -0.4747 -0.7840  0.3232
 6555SOL    HW231302   2.730   4.449  14.765 -3.1990 -0.8939  1.6349
 6556SOL     OW31303   4.001   4.665   5.795 -0.3798  0.5268  0.0551
 6556SOL    HW131304   3.931   4.606   5.822 -0.1839  0.6658  0.8599
 6556SOL    HW231305   4.006   4.733   5.863 -0.2456  0.5589  0.0138
 6557SOL     OW31306   2.943   4.558   0.795 -0.2654 -0.2471  0.5190
 6557SOL    HW131307   3.012   4.497   0.767  0.8988  0.8065  1.0802
 6557SOL    HW231308   2.997   4.633   0.822  1.1287 -1.5879  1.5067
 6558SOL     OW31309   3.424   4.064  15.922 -0.1353  0.7150 -0.2982
 6558SOL    HW131310   3.404   4.037  15.832  0.5819 -0.9675  0.0381
 6558SOL    HW231311   3.423   4.158  15.902  2.1787  0.9763  0.7776
 6559SOL     OW31312   4.354   1.004  15.935  0.3454 -0.7579 -0.6998
 6559SOL    HW131313   4.318   1.083  15.895  0.8505 -0.0506  0.2272
 6559SOL    HW231314   4.375   1.040  16.021  6.6878 -0.4763 -2.3848
 6560SOL     OW31315   0.613   1.784   1.357 -0.4647 -0.2654 -0.2083
 6560SOL    HW131316   0.672   1.711   1.337  1.0051  0.7622  0.4113
 6560SOL    HW231317   0.531   1.745   1.326 -0.9722 -0.9056  1.9460
 6561SOL     OW31318   1.348   4.554  16.239  0.1501 -0.4062 -0.2172
 6561SOL    HW131319   1.350   4.522  16.329  1.8769 -1.0682 -0.4963
 6561SOL    HW231320   1.276   4.617  16.246 -0.7854 -1.3973 -0.9103
 6562SOL     OW31321   1.468   2.390   3.864  0.2350  0.2572  0.2330
 6562SOL    HW131322   1.378   2.414   3.842 -0.0400 -2.7410 -1.9223
 6562SOL    HW231323   1.506   2.472   3.896 -2.3022  2.6390 -2.8692
 6563SOL     OW31324   4.619   3.115   5.938  1.2179  0.0581  0.1340
 6563SOL    HW131325   4.594   3.204   5.963 -0.5812 -0.2931 -0.3927
 6563SOL    HW231326   4.712   3.127   5.919  0.9452 -2.2182 -2.5842
 6564SOL     OW31327   3.707   1.804   5.394  0.1719  0.6192  0.2473
 6564SOL    HW131328   3.710   1.831   5.486 -2.0386  2.5097 -0.2198
 6564SOL    HW231329   3.622   1.760   5.393 -0.3837  1.6776  0.5299
 6565SOL     OW31330   4.123   0.505   0.133  0.5232 -0.1831 -0.5199
 6565SOL    HW131331   4.163   0.479   0.216  0.6034  1.5590 -0.0134
 6565SOL    HW231332   4.044   0.451   0.122  0.9029 -1.0924  1.2252
 6566SOL     OW31333   0.391   0.387   2.548 -0.4496  0.1053  0.1173
 6566SOL    HW131334   0.469   0.333   2.543 -0.5162 -0.0737  1.1437
 6566SOL    HW231335   0.410   0.435   2.628 -0.7289  1.4581 -0.6214
 6567SOL     OW31336   0.823   0.650   2.320  0.5496 -0.3500  0.4577
 6567SOL    HW131337   0.846   0.674   2.231  0.6361  1.7813  1.0514
 6567SOL    HW231338   0.911   0.623   2.347  0.4020 -1.0442  0.2607
 6568SOL     OW31339   3.120   1.223  15.268  0.0975 -0.0866 -0.0819
 6568SOL    HW131340   3.125   1.130  15.246  2.0268 -0.3929  1.6672
 6568SOL    HW231341   3.153   1.219  15.358 -1.1074  1.1945  0.4079
 6569SOL     OW31342   0.217   2.739   4.468 -0.8851  0.1788 -0.2938
 6569SOL    HW131343   0.146   2.720   4.530 -0.3662 -0.5206  0.0961
 6569SOL    HW231344   0.184   2.812   4.416  4.3075  1.7410 -1.3324
 6570SOL     OW31345   2.294   0.488   4.305 -0.3539  0.2585 -0.1211
 6570SOL    HW131346   2.368   0.489   4.366  0.4168  0.8108 -1.0600
 6570SOL    HW231347   2.266   0.580   4.303 -2.2320 -0.2777  1.4571
 6571SOL     OW31348   1.392   2.158   3.982  0.3418  0.0744 -0.2118
 6571SOL    HW131349   1.468   2.100   3.982  0.5204  0.3244 -1.8648
 6571SOL    HW231350   1.438   2.233   3.944  0.7616 -1.1814 -2.1873
 6572SOL     OW31351   1.658   0.048   8.686 -0.0536  0.2188  0.5087
 6572SOL    HW131352   1.575   0.094   8.701  0.4823  0.8300  1.5550
 6572SOL    HW231353   1.637   0.002   8.605 -0.2723 -1.1524  1.3331
 6573SOL     OW31354   3.078   2.579  12.466 -0.7459  0.4081  0.0123
 6573SOL    HW131355   3.172   2.561  12.468 -0.8971 -0.0953  3.3413
 6573SOL    HW231356   3.070   2.667  12.505  0.1913 -0.0241  1.1954
 6574SOL     OW31357   0.495   2.690  16.260 -0.5200  0.1858 -0.8055
 6574SOL    HW131358   0.414   2.676  16.211 -0.6029 -1.1563 -0.2817
 6574SOL    HW231359   0.521   2.600  16.279 -0.8806 -0.5000 -3.5893
 6575SOL     OW31360   0.142   3.844   7.626 -0.6137  0.5433 -0.2928
 6575SOL    HW131361   0.228   3.832   7.666 -0.1413  0.6817 -1.2523
 6575SOL    HW231362   0.170   3.852   7.535  1.0220 -2.0196 -0.0017
 6576SOL     OW31363   3.404   4.315   5.693  0.1476  0.3788 -0.2733
 6576SOL    HW131364   3.380   4.348   5.606 -0.2083 -2.1330 -1.1155
 6576SOL    HW231365   3.487   4.270   5.677 -0.2289  0.3201 -2.1088
 6577SOL     OW31366   2.243   2.934   1.916 -0.1641  0.0593  0.8525
 6577SOL    HW131367   2.276   2.877   1.846  1.7262  1.5966  0.4876
 6577SOL    HW231368   2.157   2.966   1.890  0.0524 -0.4846 -0.4961
 6578SOL     OW31369   1.678   1.360  14.636  0.0845 -0.4460  0.4067
 6578SOL    HW131370   1.746   1.364  14.569 -0.8365  0.9858 -0.4573
 6578SOL    HW231371   1.716   1.414  14.706  0.5851 -0.4116  0.1071
 6579SOL     OW31372   1.260   1.522   9.723  0.2885  0.5041  0.4993
 6579SOL    HW131373   1.326   1.459   9.693  0.2301  0.9959 -0.6752
 6579SOL    HW231374   1.247   1.494   9.813 -0.0593  0.0678  0.3107
 6580SOL     OW31375   2.996   0.662   5.925 -0.8514  0.1875 -0.0844
 6580SOL    HW131376   3.068   0.603   5.950 -1.1463  0.1622  0.7145
 6580SOL    HW231377   2.960   0.609   5.854  3.6033 -3.6484  0.4509
 6581SOL     OW31378   1.641   2.343   1.765  0.0798 -0.2975 -0.2360
 6581SOL    HW131379   1.629   2.419   1.709 -3.0011  0.7469  1.8511
 6581SOL    HW231380   1.551   2.322   1.789 -0.2753  0.0998 -1.2160
 6582SOL     OW31381   0.188   2.514   3.800  0.4222 -0.5748 -0.1598
 6582SOL    HW131382   0.174   2.539   3.891 -2.3224 -1.0606 -0.4610
 6582SOL    HW231383   0.133   2.582   3.760 -2.8181 -1.7472  2.3225
 6583SOL     OW31384   1.201   3.968  12.254  0.2211  0.1563  0.1307
 6583SOL    HW131385   1.233   3.954  12.165 -0.4793 -2.9850  0.3679
 6583SOL    HW231386   1.178   4.061  12.247 -3.4969 -0.7026  0.6401
 6584SOL     OW31387   1.455   2.780   3.840  0.1194  0.0308 -0.0545
 6584SOL    HW131388   1.439   2.717   3.770  0.4293 -0.4328  0.2960
 6584SOL    HW231389   1.502   2.727   3.904  1.1209  0.5062 -0.3888
 6585SOL     OW31390   3.959   1.247   6.087  0.1783 -0.6023 -0.1001
 6585SOL    HW131391   3.890   1.269   6.024 -1.0802 -2.0278  0.8002
 6585SOL    HW231392   3.981   1.334   6.120 -0.4996 -1.1249  1.6875
 6586SOL     OW31393   1.740   4.071  12.555  0.9052 -0.0332 -0.4421
 6586SOL    HW131394   1.764   4.114  12.637  1.3735 -1.1550  0.0169
 6586SOL    HW231395   1.787   4.116  12.485 -0.6706  1.6868 -0.3868
 6587SOL     OW31396   4.654   1.014  16.697  0.7433  0.1173  0.0998
 6587SOL    HW131397   4.586   0.975  16.753  0.2005 -2.7817 -2.6061
 6587SOL    HW231398   4.634   1.107  16.689 -1.2763 -0.5856 -2.7271
 6588SOL     OW31399   2.947   3.384   3.812 -0.2748 -0.3197 -1.0012
 6588SOL    HW131400   2.968   3.398   3.904 -1.8048  2.0968 -1.0321
 6588SOL    HW231401   2.888   3.458   3.802 -0.7212 -0.7853 -1.8168
 6589SOL     OW31402   4.106   2.899   8.707 -0.1598 -0.0156 -0.0112
 6589SOL    HW131403   4.160   2.951   8.646 -0.4613  1.1053  0.6737
 6589SOL    HW231404   4.023   2.908   8.661  0.4857 -0.8938 -1.3441
 6590SOL     OW31405   1.316   2.300   4.580  0.2147  0.0530 -0.0079
 6590SOL    HW131406   1.271   2.219   4.558  0.2222 -0.1913  0.8736
 6590SOL    HW231407   1.379   2.300   4.509 -0.0812  1.8374 -0.2785
 6591SOL     OW31408   1.153   1.418   5.422  0.2186  0.3290 -0.1744
 6591SOL    HW131409   1.127   1.345   5.478  2.7983 -0.5119 -0.0282
 6591SOL    HW231410   1.086   1.484   5.435  0.0234  0.3830 -1.4188
 6592SOL     OW31411   3.876   1.293   2.690 -0.4402 -0.1401 -0.2601
 6592SOL    HW131412   3.947   1.299   2.754 -0.8489 -0.8788  0.2615
 6592SOL    HW231413   3.904   1.212   2.647  0.0755  0.3204 -0.7943
 6593SOL     OW31414   3.066   4.221  11.113  0.5720  0.3289  0.1876
 6593SOL    HW131415   2.975   4.195  11.098  0.4145  1.0068 -0.0418
 6593SOL    HW231416   3.109   4.154  11.060 -1.5769 -0.2226 -0.8655
 6594SOL     OW31417   0.380   4.262   8.867 -0.1779  0.8994 -0.1251
 6594SOL    HW131418   0.449   4.322   8.837 -0.4990  1.6869  0.7389
 6594SOL    HW231419   0.303   4.309   8.834 -0.3288  1.5888  1.2285
 6595SOL     OW31420   4.469   1.505   8.994  0.0146 -0.4060  0.3901
 6595SOL    HW131421   4.506   1.422   8.965  0.8535  0.9526 -2.4930
 6595SOL    HW231422   4.374   1.497   8.984  0.2414  0.2082 -2.2918
 6596SOL     OW31423   4.597   2.825  13.945  0.2537 -0.0734  0.1621
 6596SOL    HW131424   4.693   2.825  13.943  0.2911  0.3526  2.8569
 6596SOL    HW231425   4.588   2.741  13.901  1.8035 -1.2199  2.0234
 6597SOL     OW31426   2.521   4.514  12.635  0.8664 -0.4855 -0.4103
 6597SOL    HW131427   2.518   4.444  12.700  0.2915 -0.6963 -0.6596
 6597SOL    HW231428   2.581   4.574  12.679  1.2210  0.4624 -2.2021
 6598SOL     OW31429   4.713   1.425   4.697  0.3749  0.0891 -0.0031
 6598SOL    HW131430   4.620   1.441   4.713  1.1446 -0.7231  5.5537
 6598SOL    HW231431   0.014   1.493   4.753 -0.6303  0.5660  0.0746
 6599SOL     OW31432   2.154   4.585   3.428  0.4392  0.5702  0.7851
 6599SOL    HW131433   2.076   4.637   3.448  1.1509  2.7397 -2.1259
 6599SOL    HW231434   2.143   4.528   3.504 -0.7406 -0.5082 -0.1951
 6600SOL     OW31435   4.234   3.564   4.158 -0.0545  0.0836 -0.1898
 6600SOL    HW131436   4.199   3.506   4.089  0.8836  1.7099 -2.0457
 6600SOL    HW231437   4.282   3.625   4.101  0.7872 -0.8584 -0.4959
 6601SOL     OW31438   1.028   0.156   9.347  0.3545 -0.0485 -0.2925
 6601SOL    HW131439   0.989   0.130   9.431  3.8592 -1.5544  0.8518
 6601SOL    HW231440   1.094   0.088   9.341  2.1912  1.8019 -1.1947
 6602SOL     OW31441   2.435   2.598   2.306  0.0077 -0.2768  0.0775
 6602SOL    HW131442   2.360   2.603   2.247 -0.3660  0.9451  0.6470
 6602SOL    HW231443   2.414   2.515   2.348  2.4327 -0.1538  1.5358
 6603SOL     OW31444   0.139   3.157   3.834  0.0309 -0.0230 -0.0271
 6603SOL    HW131445   0.108   3.068   3.848  0.0448 -0.2827 -1.6402
 6603SOL    HW231446   0.067   3.196   3.784 -0.9637 -2.0861 -0.1903
 6604SOL     OW31447   0.003   0.209  10.233  0.1955  0.1944 -0.1587
 6604SOL    HW131448   0.069   0.184  10.168 -0.4259  0.9468 -1.0729
 6604SOL    HW231449   4.706   0.120  10.250 -2.8585  1.0994 -1.2979
 6605SOL     OW31450   2.875   0.963   2.209 -0.3942  0.4863 -0.0175
 6605SOL    HW131451   2.912   0.925   2.130  0.4627  0.7688  0.2392
 6605SOL    HW231452   2.929   0.924   2.278  0.4724 -1.5265 -1.8314
 6606SOL     OW31453   0.656   4.416   3.179  0.2284  0.0091  0.2007
 6606SOL    HW131454   0.697   4.435   3.263  0.9971 -0.8701  0.0198
 6606SOL    HW231455   0.663   4.498   3.130  1.3561  0.3450  0.9451
 6607SOL     OW31456   0.091   2.652   8.808 -0.7514 -0.7356  0.3007
 6607SOL    HW131457   0.106   2.561   8.783  2.7396 -0.2299  0.4936
 6607SOL    HW231458   4.731   2.649   8.816 -0.5107 -1.3095  2.9778
 6608SOL     OW31459   2.260   4.393   7.132  0.2027  0.2893  0.1581
 6608SOL    HW131460   2.350   4.421   7.119  0.6859 -2.2994 -2.0637
 6608SOL    HW231461   2.262   4.332   7.205  1.7330  0.1978  0.0413
 6609SOL     OW31462   4.418   3.296   7.393 -0.1932 -0.4206  0.2824
 6609SOL    HW131463   4.471   3.329   7.320 -2.0063 -2.2297 -1.8730
 6609SOL    HW231464   4.341   3.352   7.399  0.2975  0.1545  1.1970
 6610SOL     OW31465   2.943   3.988   6.861 -0.4224  0.5648  0.5135
 6610SOL    HW131466   3.012   3.953   6.917 -1.9149  0.3667  2.2140
 6610SOL    HW231467   2.991   4.059   6.818 -2.1336  1.5238  0.2033
 6611SOL     OW31468   0.268   2.547   6.016  0.5069  0.3321 -0.3365
 6611SOL    HW131469   0.345   2.560   5.960  1.1296 -0.5425  0.3106
 6611SOL    HW231470   0.295   2.580   6.101  2.5204  1.3803 -1.3865
 6612SOL     OW31471   0.416   2.379   5.226  0.1243  0.0981 -0.0637
 6612SOL    HW131472   0.475   2.311   5.259  0.9114 -0.6776 -3.0869
 6612SOL    HW231473   0.461   2.415   5.150  0.2300  1.7343  0.7738
 6613SOL     OW31474   2.831   2.643   1.173 -0.1351  0.0530  0.3557
 6613SOL    HW131475   2.832   2.640   1.269  0.8248  0.6596  0.3721
 6613SOL    HW231476   2.758   2.702   1.155 -1.1819 -1.8089 -1.3551
 6614SOL     OW31477   1.189   3.920   5.158  0.0629  0.0231  0.6083
 6614SOL    HW131478   1.194   3.922   5.253  2.3504  1.8478  0.4602
 6614SOL    HW231479   1.235   3.838   5.136 -1.5428 -0.6457 -0.2269
 6615SOL     OW31480   2.263   2.141   5.953 -0.6587 -0.4678 -0.6170
 6615SOL    HW131481   2.244   2.182   6.038  0.5547 -0.3680 -0.3910
 6615SOL    HW231482   2.182   2.096   5.932 -1.0900  0.2521 -0.5064
 6616SOL     OW31483   1.116   4.567   0.556 -0.5349  0.4255 -0.2750
 6616SOL    HW131484   1.188   4.511   0.587 -0.9567  0.9828  1.7210
 6616SOL    HW231485   1.176   4.636   0.527  0.0365 -0.0808 -0.2930
 6617SOL     OW31486   4.319   0.288   3.395  0.1072 -0.2336 -0.1500
 6617SOL    HW131487   4.256   0.351   3.430 -1.3361 -1.2817 -0.8450
 6617SOL    HW231488   4.269   0.260   3.319  0.5627 -1.5648  0.0446
 6618SOL     OW31489   2.006   1.703   8.335 -0.4411  0.2158  0.3645
 6618SOL    HW131490   2.038   1.613   8.324 -0.2662  0.1788  1.1627
 6618SOL    HW231491   2.087   1.750   8.316 -1.1494 -0.0285 -3.3052
 6619SOL     OW31492   1.240   1.853   8.891  0.0536  0.3374 -0.2888
 6619SOL    HW131493   1.227   1.759   8.888  0.3770  0.2633  0.5284
 6619SOL    HW231494   1.225   1.876   8.799 -1.1628 -0.3990 -0.2729
 6620SOL     OW31495   3.904   2.100   2.102 -0.0898 -0.0735 -0.1212
 6620SOL    HW131496   3.813   2.070   2.098 -0.2952  0.7521 -1.5865
 6620SOL    HW231497   3.946   2.018   2.130  0.7743  0.6117  0.5921
 6621SOL     OW31498   2.990   0.598   3.953 -0.2440 -0.0990 -0.3163
 6621SOL    HW131499   2.905   0.560   3.930  0.3606 -1.5313 -0.1821
 6621SOL    HW231500   2.999   0.582   4.047 -0.0496  0.9362 -0.1628
 6622SOL     OW31501   3.265   3.468   2.132 -0.4256  0.5800  0.4797
 6622SOL    HW131502   3.215   3.398   2.089 -0.0964  0.9868 -0.5779
 6622SOL    HW231503   3.205   3.479   2.205  0.2641  1.3729  0.9195
 6623SOL     OW31504   3.014   0.555   6.359 -0.2819 -0.6021 -0.1719
 6623SOL    HW131505   3.058   0.483   6.404 -1.6449 -0.7591  0.9368
 6623SOL    HW231506   3.079   0.625   6.363 -0.1215 -0.6057 -2.3812
 6624SOL     OW31507   4.604   0.637   6.072 -0.5694 -0.8557 -0.1591
 6624SOL    HW131508   4.523   0.675   6.105 -0.3482 -0.1939 -0.3962
 6624SOL    HW231509   4.652   0.630   6.155  1.6518 -0.1066 -1.3903
 6625SOL     OW31510   2.709   1.405   1.108  0.3120 -0.1786  0.5440
 6625SOL    HW131511   2.679   1.486   1.066 -1.0006 -1.0545 -0.1914
 6625SOL    HW231512   2.757   1.437   1.184  1.4023  1.0984 -0.6728
 6626SOL     OW31513   1.375   1.828   7.469 -0.4541 -0.1987 -0.0925
 6626SOL    HW131514   1.354   1.788   7.553  0.5558 -2.2827 -0.8482
 6626SOL    HW231515   1.380   1.748   7.417 -1.0592 -1.8488  2.4062
 6627SOL     OW31516   1.665   2.287   3.117 -0.4330 -0.0142 -0.2890
 6627SOL    HW131517   1.687   2.346   3.045  1.2674 -0.8518 -0.4601
 6627SOL    HW231518   1.618   2.223   3.065  2.1663 -0.9779 -1.4505
 6628SOL     OW31519   4.586   3.432   3.389  0.1459 -0.3544  0.3469
 6628SOL    HW131520   4.623   3.460   3.305  2.3581 -1.3060  1.0182
 6628SOL    HW231521   4.610   3.340   3.398 -0.7452 -0.7187 -0.8869
 6629SOL     OW31522   3.082   0.977   8.103  0.3482 -0.3926  0.4247
 6629SOL    HW131523   2.988   0.978   8.120  0.1399  0.0139 -0.7051
 6629SOL    HW231524   3.109   1.067   8.085  0.5489 -0.3313  1.0314
 6630SOL     OW31525   4.346   2.918   7.648  0.3970  0.1630 -0.2328
 6630SOL    HW131526   4.368   2.989   7.587  1.4576 -0.0662 -0.1198
 6630SOL    HW231527   4.353   2.959   7.734 -2.0250  0.2901 -0.0905
 6631SOL     OW31528   0.042   2.924  11.989  0.8613 -0.1866  0.1968
 6631SOL    HW131529   4.694   2.907  11.945  1.6371 -0.1173 -1.2626
 6631SOL    HW231530   0.053   2.836  12.026  1.6676  0.4413  1.4546
 6632SOL     OW31531   4.478   2.499  14.054  0.2570 -0.6012  0.3122
 6632SOL    HW131532   4.425   2.551  13.994 -0.3938  1.3406  2.5199
 6632SOL    HW231533   4.408   2.482  14.118  0.3242 -1.9426  0.0204
 6633SOL     OW31534   3.320   4.429   8.565  0.2323  0.2930  0.1522
 6633SOL    HW131535   3.383   4.446   8.635  2.3196  0.0801 -1.6822
 6633SOL    HW231536   3.340   4.487   8.491  0.1276  0.8924  0.5934
 6634SOL     OW31537   3.904   0.786  14.103 -0.1127 -0.1475 -0.1547
 6634SOL    HW131538   3.876   0.701  14.071  4.3677 -1.9738  0.7902
 6634SOL    HW231539   3.963   0.820  14.035  1.0061  0.4393  1.1059
 6635SOL     OW31540   3.334   2.329  16.296 -0.2744  0.3153  0.1130
 6635SOL    HW131541   3.365   2.406  16.250 -1.0825  0.3373 -0.3945
 6635SOL    HW231542   3.326   2.350  16.389  2.0361 -0.6058  0.5187
 6636SOL     OW31543   4.477   2.145  14.725  0.2434  0.6215 -0.2085
 6636SOL    HW131544   4.544   2.204  14.691  0.5782  0.0480 -0.5328
 6636SOL    HW231545   4.398   2.189  14.692 -0.7112 -1.1799 -0.3164
 6637SOL     OW31546   0.735   1.133   3.265  0.1758  0.0106 -0.1062
 6637SOL    HW131547   0.725   1.062   3.329 -0.8503 -1.0447 -1.4262
 6637SOL    HW231548   0.806   1.107   3.206 -0.4803 -2.2204  0.0615
 6638SOL     OW31549   2.141   0.610   3.820 -0.5528 -0.3642  0.4730
 6638SOL    HW131550   2.127   0.628   3.913  0.0705 -0.1459  0.5234
 6638SOL    HW231551   2.214   0.550   3.832 -0.1502 -0.4084 -2.1771
 6639SOL     OW31552   3.286   1.538  14.067 -0.0800 -0.0530  0.7644
 6639SOL    HW131553   3.337   1.549  14.147  2.4453 -0.2159 -0.8500
 6639SOL    HW231554   3.209   1.591  14.089  0.6350  1.3786 -0.1711
 6640SOL     OW31555   3.139   4.578   9.914  0.3487 -0.0208 -0.0569
 6640SOL    HW131556   3.224   4.564   9.955  0.1405 -0.2768  0.2866
 6640SOL    HW231557   3.086   4.587   9.993  0.3739  0.3603 -0.0839
 6641SOL     OW31558   2.892   2.595   3.618  0.4091  0.4923 -0.6751
 6641SOL    HW131559   2.888   2.680   3.576 -1.6185  0.9289  0.4053
 6641SOL    HW231560   2.927   2.624   3.703 -2.7542 -0.0137  0.8004
 6642SOL     OW31561   3.503   0.324   5.194 -0.1439 -0.3809  0.4862
 6642SOL    HW131562   3.515   0.316   5.099  0.7636 -0.3484  0.5963
 6642SOL    HW231563   3.594   0.326   5.225 -0.9265  2.8079  2.5698
 6643SOL     OW31564   0.418   0.128   4.001  0.1478  0.3318 -0.4127
 6643SOL    HW131565   0.509   0.120   4.030 -0.1811  2.1038  1.1168
 6643SOL    HW231566   0.431   0.124   3.907  2.0162  2.0151 -0.2224
 6644SOL     OW31567   4.317   2.485   7.876  0.1492  0.0711 -0.9071
 6644SOL    HW131568   4.396   2.436   7.900  0.5929  1.3443  0.2630
 6644SOL    HW231569   4.357   2.572   7.881 -2.1749  1.2629 -3.3056
 6645SOL     OW31570   3.502   2.728   5.038 -0.1694  0.0588 -0.1688
 6645SOL    HW131571   3.585   2.771   5.061 -0.1863 -1.0949  2.0574
 6645SOL    HW231572   3.499   2.661   5.106  0.5821 -1.6015 -1.7685
 6646SOL     OW31573   3.679   0.413   2.965  0.2670  0.5013 -0.1727
 6646SOL    HW131574   3.620   0.485   2.942  0.3539 -0.1330 -2.3525
 6646SOL    HW231575   3.678   0.357   2.888  3.4409  0.8214 -0.4231
 6647SOL     OW31576   4.651   1.172   3.183 -0.1979 -0.4495 -0.0137
 6647SOL    HW131577   4.654   1.257   3.140  1.5218 -0.4175  0.1745
 6647SOL    HW231578   4.568   1.179   3.230 -0.2310  0.8367 -0.2648
 6648SOL     OW31579   4.068   1.851  11.003 -0.1477  0.7090 -0.0182
 6648SOL    HW131580   3.986   1.826  11.045 -0.0590  2.4823  1.2023
 6648SOL    HW231581   4.087   1.782  10.939  0.9804  1.0348 -0.0390
 6649SOL     OW31582   1.631   0.476   6.630 -0.3238  0.3214 -0.3759
 6649SOL    HW131583   1.565   0.449   6.566 -1.6474  0.7682  0.7873
 6649SOL    HW231584   1.592   0.431   6.705  0.0249  0.0744 -0.3403
 6650SOL     OW31585   0.573   0.911   5.487  0.0992  0.4214 -0.0905
 6650SOL    HW131586   0.637   0.982   5.497  0.1292  0.4749 -0.6620
 6650SOL    HW231587   0.526   0.936   5.408 -0.3346 -0.1759 -0.0220
 6651SOL     OW31588   4.264   1.682  16.442 -0.1919  0.4232 -0.0523
 6651SOL    HW131589   4.313   1.741  16.384  2.7197 -1.4332  0.5298
 6651SOL    HW231590   4.339   1.634  16.478  0.4549 -0.0233 -2.0352
 6652SOL     OW31591   2.165   0.734   4.343  0.1786  0.4937  0.4032
 6652SOL    HW131592   2.075   0.711   4.365  0.3462 -0.9897 -0.5114
 6652SOL    HW231593   2.200   0.758   4.429  0.5408  0.3659  0.2897
 6653SOL     OW31594   3.301   4.433   3.295 -0.0773 -0.2478 -0.0957
 6653SOL    HW131595   3.252   4.488   3.357  1.5477  1.5412 -0.4147
 6653SOL    HW231596   3.232   4.410   3.232 -0.2903 -0.9053  0.3812
 6654SOL     OW31597   0.678   0.844   6.773 -0.1438 -0.0578 -0.1608
 6654SOL    HW131598   0.665   0.823   6.866  0.5484  2.3284  0.4582
 6654SOL    HW231599   0.719   0.766   6.736  1.6685 -0.2758  2.2959
 6655SOL     OW31600   3.420   0.785   5.665  0.4663  0.3674 -0.4083
 6655SOL    HW131601   3.353   0.796   5.732  0.5205  2.3657 -0.6529
 6655SOL    HW231602   3.370   0.800   5.585  1.2233  0.8770 -0.7969
 6656SOL     OW31603   0.191   0.107   7.791  0.2247  0.2898 -0.2359
 6656SOL    HW131604   0.142   0.135   7.868  1.8016 -0.9337  1.2145
 6656SOL    HW231605   0.156   0.019   7.778 -1.3558  0.8178  0.4494
 6657SOL     OW31606   0.363   3.984   1.908 -0.1496  0.6967 -0.2385
 6657SOL    HW131607   0.298   4.024   1.965 -2.1690 -0.2322 -1.8925
 6657SOL    HW231608   0.385   4.061   1.857  1.1524 -0.3332 -1.2376
 6658SOL     OW31609   1.860   1.698   6.302 -0.2443 -0.3130  0.0123
 6658SOL    HW131610   1.929   1.713   6.367  0.3725 -1.1367 -0.4467
 6658SOL    HW231611   1.892   1.630   6.242 -0.7177 -0.0615 -0.5325
 6659SOL     OW31612   1.656   1.131   4.201 -0.9049  0.1679 -0.0045
 6659SOL    HW131613   1.599   1.176   4.263 -2.6376 -3.5528  1.1073
 6659SOL    HW231614   1.746   1.157   4.221 -0.7867  0.0516 -0.3785
 6660SOL     OW31615   1.295   3.872  16.949  0.0129 -0.1448  0.1034
 6660SOL    HW131616   1.371   3.859  16.893 -0.8972 -0.7143 -0.9782
 6660SOL    HW231617   1.319   3.826  17.030  1.6311  0.6961  0.1123
 6661SOL     OW31618   3.745   3.433   9.274 -0.3290 -0.6156  0.3363
 6661SOL    HW131619   3.833   3.455   9.245 -0.0383 -0.5815  1.2445
 6661SOL    HW231620   3.753   3.473   9.361 -1.6315 -1.8841  1.0546
 6662SOL     OW31621   1.660   0.152   6.392  0.1813 -0.3100 -0.4061
 6662SOL    HW131622   1.619   0.204   6.322 -0.8841  1.6645  1.6955
 6662SOL    HW231623   1.754   0.164   6.379  0.0826  0.8918 -0.0019
 6663SOL     OW31624   1.768   2.879   6.673  0.3460 -0.5237  0.0929
 6663SOL    HW131625   1.790   2.810   6.736  0.8719 -0.8972 -0.5029
 6663SOL    HW231626   1.845   2.877   6.616  0.1145  0.1578 -0.2408
 6664SOL     OW31627   2.563   3.677   3.979 -0.1012  0.1645  0.4955
 6664SOL    HW131628   2.531   3.588   3.969  0.6598 -0.1158  0.5112
 6664SOL    HW231629   2.588   3.668   4.072 -0.1819  2.5481  0.7355
 6665SOL     OW31630   1.852   4.156   1.281 -0.0314 -0.8070  0.1322
 6665SOL    HW131631   1.939   4.156   1.241 -0.7182  1.0106 -1.3447
 6665SOL    HW231632   1.876   4.166   1.374 -0.2075 -4.1820  0.5342
 6666SOL     OW31633   2.098   4.303   5.196 -0.5371 -0.1008 -0.2279
 6666SOL    HW131634   2.086   4.299   5.101 -0.0929 -0.7426 -0.2613
 6666SOL    HW231635   2.007   4.304   5.224 -0.6445 -3.1220 -0.4058
 6667SOL     OW31636   4.558   4.581  13.107 -0.4835  0.8830  0.5309
 6667SOL    HW131637   4.636   4.531  13.082  0.0100  0.4830  2.9514
 6667SOL    HW231638   4.573   4.588  13.201 -1.4895  0.5385  0.7114
 6668SOL     OW31639   2.568   3.170   3.476  0.1702 -0.4800 -0.2893
 6668SOL    HW131640   2.491   3.145   3.528  0.1438  1.1718  0.4674
 6668SOL    HW231641   2.626   3.213   3.539 -0.7802  1.6127 -0.8444
 6669SOL     OW31642   0.516   3.391  15.271 -0.0040  0.2094  0.1182
 6669SOL    HW131643   0.599   3.352  15.297  0.3580  0.4557 -0.6478
 6669SOL    HW231644   0.490   3.422  15.358  2.6516 -2.6398  1.9212
 6670SOL     OW31645   0.635   2.029   1.477  0.0577 -0.5375  0.0101
 6670SOL    HW131646   0.637   1.935   1.461  1.4596 -0.0999 -2.3619
 6670SOL    HW231647   0.567   2.033   1.544  0.0178  0.3322 -0.0777
 6671SOL     OW31648   3.405   4.534  11.034  0.4638  0.0565 -0.7078
 6671SOL    HW131649   3.324   4.497  11.070  0.1488  1.7115  0.2948
 6671SOL    HW231650   3.385   4.530  10.941  1.4596  1.4525 -0.9884
 6672SOL     OW31651   0.156   1.770   9.123 -0.6051  0.1207 -0.1527
 6672SOL    HW131652   0.065   1.743   9.115 -0.1656  0.0523 -5.0577
 6672SOL    HW231653   0.186   1.769   9.032 -1.1322  0.1236 -0.3268
 6673SOL     OW31654   4.094   3.435   8.038  0.1174 -0.2900  0.0775
 6673SOL    HW131655   4.112   3.360   7.982  1.4004  0.0904 -0.0086
 6673SOL    HW231656   4.115   3.514   7.988  1.3142  1.1675  2.8993
 6674SOL     OW31657   1.850   4.247   7.266  0.9245 -0.5875  0.2876
 6674SOL    HW131658   1.820   4.311   7.330  1.5562  0.8236 -0.7992
 6674SOL    HW231659   1.788   4.176   7.282 -1.0304  0.9845 -0.2526
 6675SOL     OW31660   0.025   4.526   3.502  0.0671 -0.0938  0.0207
 6675SOL    HW131661   0.039   4.538   3.596 -1.0456  1.3128  0.0010
 6675SOL    HW231662   0.056   4.437   3.486  0.7514  0.2506 -0.5540
 6676SOL     OW31663   4.002   0.278   4.612 -0.2641 -0.5700  0.5447
 6676SOL    HW131664   4.079   0.318   4.652  0.4304 -2.6192  1.2176
 6676SOL    HW231665   4.034   0.245   4.528  0.5064  2.2353 -0.2838
 6677SOL     OW31666   0.556   2.809   7.770  0.3153 -0.0974 -0.2437
 6677SOL    HW131667   0.618   2.840   7.704  2.5378 -0.0252  1.8484
 6677SOL    HW231668   0.616   2.754   7.821 -0.7510 -1.7993 -0.8240
 6678SOL     OW31669   4.444   2.679   7.488  0.5186 -0.3807 -0.4723
 6678SOL    HW131670   4.525   2.703   7.442 -1.3893  2.8019 -2.1372
 6678SOL    HW231671   4.423   2.768   7.514 -0.5065 -1.2826  1.7947
 6679SOL     OW31672   4.308   2.763   6.840 -0.1171  0.3368 -0.1986
 6679SOL    HW131673   4.285   2.682   6.795 -0.3512  0.1316  0.2892
 6679SOL    HW231674   4.231   2.819   6.834 -1.4126 -1.1942  2.0252
 6680SOL     OW31675   1.092   4.124   0.051  0.2859  0.3062 -0.0153
 6680SOL    HW131676   1.081   4.030   0.038 -1.5951  0.5591 -0.3100
 6680SOL    HW231677   1.149   4.143  17.716  0.1040  1.5716  0.1700
 6681SOL     OW31678   1.317   2.866   5.923 -0.5036 -0.4794 -0.0788
 6681SOL    HW131679   1.308   2.877   5.829  0.9367 -0.0738 -0.1579
 6681SOL    HW231680   1.412   2.858   5.924 -0.6584 -2.2465 -0.4947
 6682SOL     OW31681   1.606   3.329  14.865  0.6346 -0.5535 -0.4626
 6682SOL    HW131682   1.592   3.396  14.932 -0.4552 -0.9669 -0.2670
 6682SOL    HW231683   1.701   3.336  14.859  0.5245  0.6552 -0.8471
 6683SOL     OW31684   3.317   4.582   4.437  0.3805  0.4858  0.2585
 6683SOL    HW131685   3.377   4.630   4.380 -0.2837  0.0304 -0.8155
 6683SOL    HW231686   3.260   4.639   4.488  0.2277  0.7623 -0.2288
 6684SOL     OW31687   1.100   0.210   7.897  0.4582 -0.3075 -0.5025
 6684SOL    HW131688   1.012   0.229   7.931  0.3208 -0.3809 -0.8204
 6684SOL    HW231689   1.091   0.120   7.866 -1.5914 -0.9622  1.9276
 6685SOL     OW31690   0.771   1.851   2.101 -0.0439 -0.0703 -0.0325
 6685SOL    HW131691   0.762   1.820   2.191 -0.9368  2.7105  0.8406
 6685SOL    HW231692   0.678   1.861   2.085  0.2120  3.6269  0.7715
 6686SOL     OW31693   3.155   1.453   2.104  0.0387  0.2373  0.4092
 6686SOL    HW131694   3.236   1.403   2.094 -1.0502 -1.1504 -1.6144
 6686SOL    HW231695   3.163   1.483   2.195 -0.7274 -0.4624  0.7039
 6687SOL     OW31696   1.960   2.885   6.486 -1.0249  0.1296  0.0631
 6687SOL    HW131697   2.027   2.832   6.444 -0.7584  1.2005 -0.8470
 6687SOL    HW231698   1.970   2.968   6.440  0.6242  0.5034  1.1192
 6688SOL     OW31699   0.580   1.982   7.575 -0.3584 -0.1964  0.5718
 6688SOL    HW131700   0.641   2.028   7.631 -1.4810  0.7514  1.0193
 6688SOL    HW231701   0.501   2.037   7.581 -1.5905 -1.6808 -1.7740
 6689SOL     OW31702   2.967   1.317  11.778  0.4211 -0.1560  0.5361
 6689SOL    HW131703   3.027   1.367  11.835 -0.0206  0.0931  0.7780
 6689SOL    HW231704   2.943   1.251  11.843 -0.8717  0.1646  0.3678
 6690SOL     OW31705   4.035   1.937   1.320  0.1358 -0.4106  0.5427
 6690SOL    HW131706   4.007   1.847   1.338  2.9569 -1.1792  1.1092
 6690SOL    HW231707   3.957   1.982   1.353  0.2353 -0.0899  0.3354
 6691SOL     OW31708   1.663   1.410   5.346 -0.7810 -0.8103 -0.0588
 6691SOL    HW131709   1.605   1.335   5.342  0.2372 -1.5201 -1.4943
 6691SOL    HW231710   1.613   1.461   5.409 -0.3012  0.6953 -0.8916
 6692SOL     OW31711   2.976   2.792   5.274 -0.2604 -0.7640 -0.0370
 6692SOL    HW131712   2.994   2.878   5.310  0.3078 -0.8453 -0.1178
 6692SOL    HW231713   3.049   2.742   5.310  0.0162 -0.2327  0.1344
 6693SOL     OW31714   1.607   1.711  11.819 -0.1195 -0.2595  0.2747
 6693SOL    HW131715   1.540   1.657  11.779 -0.1901  0.5180 -0.6621
 6693SOL    HW231716   1.629   1.675  11.905 -0.3019 -0.8470  0.0737
 6694SOL     OW31717   3.023   0.982   6.099  0.0323 -0.2151  0.5286
 6694SOL    HW131718   3.076   1.060   6.108 -0.8894  0.5951 -1.0474
 6694SOL    HW231719   3.093   0.926   6.065 -0.8626 -0.7480 -0.4512
 6695SOL     OW31720   4.720   3.172   2.663 -0.1979 -0.3549  0.3682
 6695SOL    HW131721   4.659   3.099   2.658 -0.0152 -0.5717  1.2639
 6695SOL    HW231722   0.033   3.170   2.580 -0.8639 -1.1020  0.0057
 6696SOL     OW31723   1.960   4.626   4.749 -0.2437  0.5595  0.4110
 6696SOL    HW131724   1.868   4.630   4.722 -0.0770  2.7819  0.2121
 6696SOL    HW231725   1.998   4.566   4.685  0.8773  2.3482 -0.5853
 6697SOL     OW31726   4.450   2.924   4.326  0.3208  0.5257 -0.4128
 6697SOL    HW131727   4.522   2.979   4.295  1.7673 -1.1173  0.0316
 6697SOL    HW231728   4.406   2.992   4.376  1.2892  1.3378 -0.6698
 6698SOL     OW31729   2.319   0.316  15.379 -0.1761 -0.7720  0.0611
 6698SOL    HW131730   2.275   0.232  15.367 -1.2921 -0.3837  1.4023
 6698SOL    HW231731   2.392   0.320  15.318 -1.9237 -0.9909 -2.0629
 6699SOL     OW31732   4.455   3.518   2.182 -0.2531  0.2295  0.2642
 6699SOL    HW131733   4.505   3.447   2.141  2.0323  1.7857  0.3055
 6699SOL    HW231734   4.427   3.482   2.265  0.9443  1.2079  1.1062
 6700SOL     OW31735   4.476   2.245   5.819  0.4754 -0.4456 -0.0433
 6700SOL    HW131736   4.402   2.296   5.787  0.9243 -0.6793 -1.4271
 6700SOL    HW231737   4.460   2.261   5.912  1.3280 -1.3621  0.2653
 6701SOL     OW31738   2.660   0.114   8.496 -0.0584  0.1330  0.2010
 6701SOL    HW131739   2.692   0.106   8.406 -1.4972  0.6350 -0.3696
 6701SOL    HW231740   2.565   0.101   8.499  0.0130 -0.5016 -0.1603
 6702SOL     OW31741   4.441   0.918  17.557 -0.4126 -0.3536 -0.4216
 6702SOL    HW131742   4.421   0.979  17.628 -0.6397  1.0823 -1.7260
 6702SOL    HW231743   4.413   0.836  17.599 -0.1776 -0.3600 -0.2802
 6703SOL     OW31744   4.317   1.136  16.817  0.1846  0.6293  0.0740
 6703SOL    HW131745   4.328   1.230  16.801  1.5815  0.3563 -0.6410
 6703SOL    HW231746   4.246   1.148  16.880  1.3380  1.2690  1.2682
 6704SOL     OW31747   3.976   3.825   9.654  0.0314  0.3035 -0.0903
 6704SOL    HW131748   3.978   3.869   9.739  1.6656 -1.3095  0.6924
 6704SOL    HW231749   3.901   3.868   9.612  0.5065  0.7030 -0.5264
 6705SOL     OW31750   1.256   4.082   7.877  0.1573  0.2131 -0.2671
 6705SOL    HW131751   1.259   3.986   7.886 -1.4897  0.2140  0.1687
 6705SOL    HW231752   1.333   4.096   7.933 -0.5349 -1.5649  1.1365
 6706SOL     OW31753   0.404   4.353   6.870 -0.5406 -0.1798  0.0500
 6706SOL    HW131754   0.444   4.434   6.840 -1.0267 -0.4546 -1.3450
 6706SOL    HW231755   0.437   4.349   6.959  1.2492 -1.1452 -0.6512
 6707SOL     OW31756   0.964   4.336  10.249 -0.1274  0.5027  0.3638
 6707SOL    HW131757   1.055   4.327  10.276 -1.1745 -0.0119  3.7530
 6707SOL    HW231758   0.915   4.335  10.331 -1.2733  2.1983 -0.3013
 6708SOL     OW31759   2.787   2.476   2.524 -0.4590  0.3214 -0.5742
 6708SOL    HW131760   2.824   2.394   2.492 -2.3996 -1.2919  1.3082
 6708SOL    HW231761   2.854   2.530   2.483  1.8405 -1.4763  0.8593
 6709SOL     OW31762   2.346   4.538   4.123  0.3020 -0.4904  0.5698
 6709SOL    HW131763   2.306   4.475   4.183 -0.3908 -1.0453 -0.4866
 6709SOL    HW231764   2.274   4.591   4.088 -0.3912 -0.6768  1.7017
 6710SOL     OW31765   4.629   3.022   4.928  0.3450  0.0120  0.3304
 6710SOL    HW131766   4.658   3.093   4.985  1.8933 -1.2047  1.0679
 6710SOL    HW231767   4.709   2.976   4.902 -0.7367 -2.3530  1.1457
 6711SOL     OW31768   3.532   4.585  14.538 -0.4187  0.0727 -0.6476
 6711SOL    HW131769   3.443   4.593  14.573 -0.1449 -0.0597  0.0717
 6711SOL    HW231770   3.515   4.645  14.465  0.2864  1.4247  0.3120
 6712SOL     OW31771   1.632   2.642   3.422  0.2145 -0.8929 -0.2911
 6712SOL    HW131772   1.621   2.712   3.486 -0.0903 -1.9041  0.7597
 6712SOL    HW231773   1.602   2.573   3.481 -1.4673 -1.0614 -1.3410
 6713SOL     OW31774   1.935   4.250   4.439  0.0012 -0.8229 -0.2796
 6713SOL    HW131775   1.855   4.227   4.391 -0.0234 -0.1653 -0.5521
 6713SOL    HW231776   1.995   4.186   4.401  0.2181 -1.1570  0.6054
 6714SOL     OW31777   3.068   3.956   3.094 -0.4200  0.6510 -0.2235
 6714SOL    HW131778   2.991   3.928   3.144 -0.2200 -1.2655 -1.0264
 6714SOL    HW231779   3.093   4.039   3.135  0.3676 -0.1638  0.9555
 6715SOL     OW31780   1.128   1.176   5.544  0.2302 -0.2898  0.0989
 6715SOL    HW131781   1.084   1.189   5.629 -0.7627 -3.5401  0.0790
 6715SOL    HW231782   1.210   1.139   5.577  0.7905  1.6767  0.9422
 6716SOL     OW31783   3.262   2.986   8.572  0.2367  0.3598  0.5079
 6716SOL    HW131784   3.328   2.935   8.620  1.1927  0.7701 -0.3531
 6716SOL    HW231785   3.282   3.078   8.591  2.1252  0.2963 -1.1379
 6717SOL     OW31786   0.595   1.912   3.445 -0.0149 -0.1593  0.4755
 6717SOL    HW131787   0.605   1.818   3.430  1.6445  0.5327 -2.6729
 6717SOL    HW231788   0.546   1.931   3.364  2.8064 -0.2261 -1.2431
 6718SOL     OW31789   2.575   1.128   3.396  0.3446 -0.2975  0.0277
 6718SOL    HW131790   2.503   1.170   3.347  0.5933  0.6373  0.4568
 6718SOL    HW231791   2.530   1.078   3.463  0.2599 -0.7386 -0.3600
 6719SOL     OW31792   0.360   1.752   9.999 -0.1418  0.2547  0.2053
 6719SOL    HW131793   0.371   1.804   9.919  0.7394 -0.5248 -0.1738
 6719SOL    HW231794   0.398   1.672   9.964  1.9556  2.2211 -2.0382
 6720SOL     OW31795   0.249   3.211   8.589 -0.1654  0.1262 -0.2111
 6720SOL    HW131796   0.195   3.143   8.629  1.0767  0.0983  1.4374
 6720SOL    HW231797   0.211   3.290   8.627 -0.5283 -0.0044 -0.3019
 6721SOL     OW31798   3.499   4.640   8.957 -0.1343  0.2887  0.5525
 6721SOL    HW131799   3.482   4.605   8.869  0.8950  0.8764  0.1219
 6721SOL    HW231800   3.543   4.722   8.938 -1.3858  0.2360 -2.5978
 6722SOL     OW31801   1.345   3.508  10.697  0.5646  0.1239 -0.0144
 6722SOL    HW131802   1.309   3.593  10.722 -2.3720 -0.6856 -1.3708
 6722SOL    HW231803   1.321   3.502  10.604 -0.0085  0.4963  0.1107
 6723SOL     OW31804   2.153   4.622   6.091  0.4309 -0.0258 -0.0631
 6723SOL    HW131805   2.072   4.652   6.051  0.2160 -0.1297  0.2972
 6723SOL    HW231806   2.152   4.539   6.043 -3.0188 -1.0792  1.8564
 6724SOL     OW31807   3.603   2.336  13.810  0.3148 -0.2140 -0.7347
 6724SOL    HW131808   3.519   2.359  13.770  0.5317  1.5867 -0.1469
 6724SOL    HW231809   3.575   2.339  13.902  1.9899 -0.7718 -0.2076
 6725SOL     OW31810   2.091   4.282  14.286 -0.6909  0.1596  0.3298
 6725SOL    HW131811   2.053   4.215  14.230 -1.5941  0.7530  0.2392
 6725SOL    HW231812   2.155   4.323  14.227  1.0313 -1.1918  1.2420
 6726SOL     OW31813   0.968   3.254   6.387  0.4204  0.4842 -0.3192
 6726SOL    HW131814   1.018   3.176   6.362 -0.5678 -0.0857 -0.4979
 6726SOL    HW231815   0.883   3.216   6.365  0.6089 -0.2651  0.2422
 6727SOL     OW31816   4.408   0.026   6.959 -0.5090 -0.2318  0.6139
 6727SOL    HW131817   4.501   0.006   6.955 -0.5158  0.1504 -1.2587
 6727SOL    HW231818   4.398   0.092   7.028 -1.0077  1.5459 -1.1556
 6728SOL     OW31819   1.778   3.193  16.619  0.3250 -0.5562  0.0271
 6728SOL    HW131820   1.851   3.215  16.678 -0.4438 -0.3106  0.8787
 6728SOL    HW231821   1.752   3.284  16.609 -0.0208 -0.7322 -0.6586
 6729SOL     OW31822   3.783   1.999   1.396 -0.0595  0.5526 -0.5078
 6729SOL    HW131823   3.703   2.051   1.384 -0.3955  0.3643  0.8907
 6729SOL    HW231824   3.752   1.943   1.467 -1.2737  0.9904 -0.6878
 6730SOL     OW31825   3.982   2.259   5.581 -0.0802  0.1677  0.1885
 6730SOL    HW131826   3.928   2.265   5.502  0.6155  2.4699 -0.1094
 6730SOL    HW231827   3.973   2.345   5.621 -0.7603  0.8397 -1.3998
 6731SOL     OW31828   0.516   4.447  11.839 -0.0266 -0.0881 -0.0194
 6731SOL    HW131829   0.487   4.489  11.758  0.7101 -1.8014 -1.1513
 6731SOL    HW231830   0.429   4.421  11.871  0.1720 -0.7513 -0.0310
 6732SOL     OW31831   3.391   3.782   8.068 -0.4165 -0.1319  0.0631
 6732SOL    HW131832   3.371   3.776   8.162  1.1939  1.4164  0.4978
 6732SOL    HW231833   3.487   3.785   8.067 -0.3934 -2.0737 -1.9730
 6733SOL     OW31834   0.198   1.550  17.033  0.1043 -0.0531 -0.2107
 6733SOL    HW131835   0.278   1.600  17.017  0.0638  1.4620  4.3353
 6733SOL    HW231836   0.226   1.466  16.995  1.1070 -0.0502  0.5200
 6734SOL     OW31837   3.631   2.134   8.597 -0.1872  0.1617  0.7584
 6734SOL    HW131838   3.556   2.143   8.655 -0.6201 -1.3705  0.4109
 6734SOL    HW231839   3.659   2.226   8.596 -0.0143  0.0947 -0.0167
 6735SOL     OW31840   0.880   0.770   2.618 -0.1951 -0.7975  0.2433
 6735SOL    HW131841   0.858   0.857   2.584  2.6114  0.0135  0.4943
 6735SOL    HW231842   0.797   0.725   2.601 -0.4223 -0.6748  1.0151
 6736SOL     OW31843   2.828   4.439   2.863 -0.0966 -0.1492 -0.0761
 6736SOL    HW131844   2.802   4.522   2.824 -0.0589 -0.2828 -0.3898
 6736SOL    HW231845   2.923   4.451   2.869 -0.3712  2.2711 -0.6192
 6737SOL     OW31846   2.321   2.339   2.307 -0.2210  0.7547  0.0574
 6737SOL    HW131847   2.257   2.375   2.368  1.8917  1.9028  1.6264
 6737SOL    HW231848   2.299   2.247   2.316  2.6887  0.1805  1.4204
 6738SOL     OW31849   2.149   2.793   3.145  0.0793 -0.2658 -0.4139
 6738SOL    HW131850   2.076   2.853   3.162 -1.3645 -2.1071 -0.1210
 6738SOL    HW231851   2.204   2.801   3.222 -3.9861 -2.0993  2.7065
 6739SOL     OW31852   1.974   3.331   8.039  0.4921  0.0241  0.2980
 6739SOL    HW131853   1.977   3.303   7.947  1.6648  2.6151 -0.4686
 6739SOL    HW231854   2.068   3.331   8.056  0.4575  0.8201  0.4958
 6740SOL     OW31855   1.333   3.156   5.541  0.5223  0.2472 -0.1617
 6740SOL    HW131856   1.283   3.129   5.464 -0.2098 -0.9085  0.7069
 6740SOL    HW231857   1.311   3.089   5.606  1.6404  0.7236  0.7117
 6741SOL     OW31858   4.259   2.717   5.716  0.6803  0.0637 -0.0853
 6741SOL    HW131859   4.233   2.748   5.803  0.4370 -1.3897  0.3610
 6741SOL    HW231860   4.349   2.693   5.736  0.3516 -0.4618  0.7657
 6742SOL     OW31861   4.007   0.436   0.471 -0.2888  0.5201 -0.1408
 6742SOL    HW131862   4.036   0.519   0.433 -1.6507  1.3752  0.6716
 6742SOL    HW231863   3.945   0.398   0.409  0.3581 -0.0551 -0.4374
 6743SOL     OW31864   0.679   1.374   3.639  0.4816  0.5864  0.1118
 6743SOL    HW131865   0.584   1.377   3.650  0.0685 -2.0126 -2.6702
 6743SOL    HW231866   0.690   1.396   3.546 -0.4786  1.0848  0.1153
 6744SOL     OW31867   0.525   4.005  11.851  0.1672  0.3272 -0.7514
 6744SOL    HW131868   0.584   3.956  11.909  1.0592  0.2061 -1.7503
 6744SOL    HW231869   0.576   4.083  11.830  0.9726  0.7241  2.5998
 6745SOL     OW31870   1.416   1.855   4.394  0.5486 -0.0179 -0.1285
 6745SOL    HW131871   1.469   1.822   4.466  1.2143 -0.3230 -0.7590
 6745SOL    HW231872   1.364   1.781   4.362 -0.3131  0.2149  0.7521
 6746SOL     OW31873   0.879   2.155  15.730  0.0656 -0.0399  0.3869
 6746SOL    HW131874   0.938   2.218  15.688  1.7917 -1.4313  0.7025
 6746SOL    HW231875   0.869   2.088  15.662  2.1407  0.8171 -0.7768
 6747SOL     OW31876   0.294   2.009  13.034  0.0210  0.3784 -0.6084
 6747SOL    HW131877   0.388   1.997  13.019  0.5313  3.6071  0.1422
 6747SOL    HW231878   0.274   1.916  13.044 -0.3082  0.5442  0.2539
 6748SOL     OW31879   0.203   4.336   3.679  0.1738  0.4789  0.0909
 6748SOL    HW131880   0.144   4.262   3.690 -0.0523  0.7365  0.6556
 6748SOL    HW231881   0.267   4.296   3.621 -1.7750 -0.6190 -1.3054
 6749SOL     OW31882   0.265   3.778   4.517 -0.1641 -0.1273  0.5801
 6749SOL    HW131883   0.332   3.844   4.537  0.4873 -1.4157  2.5945
 6749SOL    HW231884   0.207   3.799   4.591  1.0858  0.7883  1.2993
 6750SOL     OW31885   2.637   0.937   2.547 -0.0513 -0.3463 -0.0244
 6750SOL    HW131886   2.624   1.025   2.512  1.2185 -0.1565 -0.0184
 6750SOL    HW231887   2.551   0.901   2.524 -0.5064 -0.0855  1.2883
 6751SOL     OW31888   0.719   2.751   4.905 -0.3014  0.5321 -0.2461
 6751SOL    HW131889   0.676   2.798   4.833  1.5760  0.1294 -1.6417
 6751SOL    HW231890   0.805   2.793   4.902  0.2265 -0.7392 -2.9136
 6752SOL     OW31891   3.327   0.579   2.602 -0.5138 -0.0861 -0.2329
 6752SOL    HW131892   3.235   0.605   2.598 -0.6343 -0.6336 -1.1313
 6752SOL    HW231893   3.340   0.530   2.521 -0.3748 -0.2009 -0.1399
 6753SOL     OW31894   2.105   3.180  15.472 -0.1462 -0.6322  0.0079
 6753SOL    HW131895   2.165   3.159  15.544  1.1351  0.5289 -0.7249
 6753SOL    HW231896   2.091   3.274  15.487 -0.4918 -1.2535  3.6078
 6754SOL     OW31897   2.729   0.251   3.349  0.4846 -0.1018  0.2892
 6754SOL    HW131898   2.819   0.255   3.383  1.0797 -2.9687 -0.8693
 6754SOL    HW231899   2.704   0.164   3.381  1.4491 -0.8570 -0.9889
 6755SOL     OW31900   3.609   3.030   6.310 -0.3155  0.6914  0.0671
 6755SOL    HW131901   3.666   2.953   6.302  0.6934  1.3562  0.7183
 6755SOL    HW231902   3.611   3.048   6.404 -1.6060  0.6361  0.1005
 6756SOL     OW31903   1.302   1.615  14.537 -0.5057  0.1325  0.3712
 6756SOL    HW131904   1.315   1.623  14.443 -1.1361 -1.4120  0.1648
 6756SOL    HW231905   1.207   1.625  14.544 -0.5264  2.1963 -2.8346
 6757SOL     OW31906   0.166   4.005  12.976 -0.6413 -0.0999 -0.5817
 6757SOL    HW131907   0.241   4.015  12.918  0.9686  2.6523  1.9178
 6757SOL    HW231908   0.195   4.020  13.067  0.2599 -1.0595 -0.7087
 6758SOL     OW31909   3.536   0.294   8.587 -0.1155 -1.0113  0.2694
 6758SOL    HW131910   3.606   0.350   8.554 -1.9783  1.0985 -0.1850
 6758SOL    HW231911   3.558   0.214   8.539 -0.4569 -2.2809  2.2540
 6759SOL     OW31912   0.467   1.714  11.740 -0.2394  0.2406  0.4241
 6759SOL    HW131913   0.478   1.766  11.820  0.0407 -1.4196  1.4503
 6759SOL    HW231914   0.404   1.649  11.771  0.5098 -0.4190  0.5724
 6760SOL     OW31915   0.677   3.142   9.175 -0.0780 -0.0170  0.3113
 6760SOL    HW131916   0.654   3.051   9.195 -3.2035  0.5279 -0.7967
 6760SOL    HW231917   0.718   3.113   9.093 -2.3521 -3.3472  0.3309
 6761SOL     OW31918   4.024   1.882  16.192  0.6427  0.0949  0.4688
 6761SOL    HW131919   3.929   1.875  16.178  0.7116 -2.3779  1.2660
 6761SOL    HW231920   4.033   1.803  16.245 -2.4059 -0.3444  0.3378
 6762SOL     OW31921   0.953   3.712   1.841 -0.3114 -0.2926  0.0069
 6762SOL    HW131922   0.869   3.722   1.796  0.1728 -1.5466 -1.1475
 6762SOL    HW231923   0.928   3.716   1.934 -0.2128 -1.7287  0.0878
 6763SOL     OW31924   4.497   2.276   7.972  0.1530 -0.3891  0.2992
 6763SOL    HW131925   4.531   2.231   7.894 -2.0939 -0.2484 -0.7527
 6763SOL    HW231926   4.493   2.204   8.034  0.3631 -1.1033 -0.5073
 6764SOL     OW31927   3.114   0.691   9.624  0.4519  0.3302  0.2249
 6764SOL    HW131928   3.037   0.746   9.638 -2.0641 -3.2100  0.2278
 6764SOL    HW231929   3.131   0.671   9.716 -0.5074 -1.8156 -0.0778
 6765SOL     OW31930   2.914   0.880   2.586  0.1835  0.1614  0.3392
 6765SOL    HW131931   2.818   0.877   2.589  0.1457  0.1648 -0.7336
 6765SOL    HW231932   2.929   0.944   2.656  3.1811 -1.0606  0.7777
 6766SOL     OW31933   0.444   3.608   8.942 -0.0040 -0.1332  0.5710
 6766SOL    HW131934   0.442   3.579   8.851 -1.4923 -3.4599  1.6324
 6766SOL    HW231935   0.532   3.647   8.945 -0.4566  0.9668 -0.7655
 6767SOL     OW31936   1.855   2.687  10.176 -0.0390 -0.1015  0.0607
 6767SOL    HW131937   1.762   2.703  10.193  0.1793  1.6195 -0.3632
 6767SOL    HW231938   1.896   2.757  10.226  1.3081  0.1333 -1.3747
 6768SOL     OW31939   2.006   1.790   5.331 -0.0943  1.4440  0.6650
 6768SOL    HW131940   1.936   1.765   5.391 -0.3719 -1.3565 -0.7861
 6768SOL    HW231941   2.001   1.884   5.346 -3.8183  0.9713  2.2685
 6769SOL     OW31942   1.389   3.777   5.784  0.2323  0.8159  0.3049
 6769SOL    HW131943   1.466   3.784   5.839  0.1011  1.2450  0.4330
 6769SOL    HW231944   1.342   3.704   5.825 -1.6158  0.6094 -2.1845
 6770SOL     OW31945   4.326   3.967   6.004 -0.0103  0.4502 -0.2430
 6770SOL    HW131946   4.275   3.937   6.079  0.5383  0.5275  0.1628
 6770SOL    HW231947   4.266   3.961   5.930  0.0543 -2.2674 -0.0712
 6771SOL     OW31948   0.137   1.588   1.232 -0.6124  0.5826 -0.1912
 6771SOL    HW131949   0.094   1.548   1.307 -0.1728 -0.1583 -0.3410
 6771SOL    HW231950   0.103   1.677   1.243  0.4712  1.2644 -2.5438
 6772SOL     OW31951   3.211   1.985   5.210  0.3503  0.1816 -0.0300
 6772SOL    HW131952   3.190   2.075   5.183  0.3887  0.6179  1.3867
 6772SOL    HW231953   3.123   1.950   5.196 -0.8946  2.3872  2.2656
 6773SOL     OW31954   0.387   3.272  11.427  0.0226 -0.4519 -0.1031
 6773SOL    HW131955   0.422   3.193  11.384  1.1286  0.7386 -1.3853
 6773SOL    HW231956   0.332   3.298  11.353  0.1590  0.4640  0.1214
 6774SOL     OW31957   2.473   4.584   7.427 -0.2294  0.0725  0.3483
 6774SOL    HW131958   2.393   4.535   7.448 -0.1534 -0.4027 -0.4576
 6774SOL    HW231959   2.456   4.612   7.337 -1.1170  1.6361  1.0034
 6775SOL     OW31960   4.620   3.125   7.824  0.4160 -0.0789 -0.2114
 6775SOL    HW131961   4.628   3.138   7.730 -0.4658 -0.4974 -0.3434
 6775SOL    HW231962   4.539   3.171   7.847  0.9682  0.7013  0.1523
 6776SOL     OW31963   3.231   4.009   4.229  0.2753  0.8228 -0.1492
 6776SOL    HW131964   3.152   4.012   4.283  1.7540 -0.6044  2.0582
 6776SOL    HW231965   3.243   4.102   4.208  2.4673  0.6254  0.3058
 6777SOL     OW31966   1.916   0.623  13.130  0.1733 -0.3606 -0.0256
 6777SOL    HW131967   2.006   0.589  13.137  1.0892  2.0122 -0.2255
 6777SOL    HW231968   1.923   0.717  13.149 -1.4670  0.0015 -1.2160
 6778SOL     OW31969   3.819   1.919   8.712 -0.0429  0.0879 -0.1955
 6778SOL    HW131970   3.783   1.875   8.790 -0.3343 -0.1023 -0.4368
 6778SOL    HW231971   3.743   1.970   8.684  0.3938 -0.0063 -1.5452
 6779SOL     OW31972   3.000   0.820  15.358 -0.1540 -0.4299  0.4517
 6779SOL    HW131973   2.943   0.887  15.319  0.4924 -0.0012  0.2396
 6779SOL    HW231974   3.036   0.776  15.281 -1.5914 -0.3671 -0.2523
 6780SOL     OW31975   1.759   0.241   6.073  0.1884 -0.2900 -0.3405
 6780SOL    HW131976   1.792   0.258   6.161 -1.3128 -0.2503  0.2206
 6780SOL    HW231977   1.677   0.291   6.071  0.0948 -0.3923  1.2183
 6781SOL     OW31978   2.309   4.549   0.974  0.1426 -0.0831 -0.0706
 6781SOL    HW131979   2.321   4.465   1.020  1.0850 -0.1750 -0.4767
 6781SOL    HW231980   2.349   4.533   0.889 -1.0919 -1.6995 -0.3576
 6782SOL     OW31981   3.832   0.959   3.421  0.1210 -0.0313  0.0163
 6782SOL    HW131982   3.854   1.001   3.504  1.1915  0.2342 -0.3982
 6782SOL    HW231983   3.794   0.876   3.449  2.4194 -0.8882  0.6340
 6783SOL     OW31984   0.892   4.373   8.378  0.4527  0.0859  0.3849
 6783SOL    HW131985   0.887   4.458   8.422 -2.1175  0.1803 -0.0609
 6783SOL    HW231986   0.817   4.384   8.319  0.0828 -1.2842  0.6007
 6784SOL     OW31987   1.591   3.291  14.581  0.3564  0.3259  0.3444
 6784SOL    HW131988   1.624   3.306  14.670  1.6550 -1.4071  0.1548
 6784SOL    HW231989   1.518   3.230  14.594  0.0132  0.8607  0.9180
 6785SOL     OW31990   2.406   0.176  13.473 -0.5008  0.6950 -0.3514
 6785SOL    HW131991   2.479   0.231  13.499 -0.0054  0.6957 -1.7332
 6785SOL    HW231992   2.342   0.225  13.524 -2.1615 -1.1346 -0.6524
 6786SOL     OW31993   0.444   2.430   6.903 -0.5686 -0.2186  0.4198
 6786SOL    HW131994   0.410   2.516   6.929 -1.4576 -0.0753 -1.2022
 6786SOL    HW231995   0.536   2.445   6.881 -0.8209 -1.0258 -1.1748
 6787SOL     OW31996   4.703   1.003   5.468 -0.2270  0.2067 -0.6180
 6787SOL    HW131997   4.734   0.938   5.405 -0.3747  0.8867 -1.3908
 6787SOL    HW231998   0.053   1.037   5.497 -0.4243  1.4506 -1.4749
 6788SOL     OW31999   3.697   0.548  15.973  0.0673 -0.2201 -0.1424
 6788SOL    HW132000   3.692   0.643  15.966  0.8960 -0.0262  1.7828
 6788SOL    HW232001   3.697   0.519  16.065 -1.1294 -1.9461 -0.6850
 6789SOL     OW32002   4.490   3.913   4.979  0.3404 -0.3452 -0.4358
 6789SOL    HW132003   4.526   3.898   4.892 -0.0906 -3.0991 -0.1322
 6789SOL    HW232004   4.520   4.004   4.983 -1.1963  0.1295  0.4626
 6790SOL     OW32005   4.568   2.665  11.242  0.5681 -0.3428  0.1281
 6790SOL    HW132006   4.561   2.748  11.196  0.9539 -0.7118 -0.5853
 6790SOL    HW232007   4.652   2.628  11.215  0.6435  0.8103 -1.1874
 6791SOL     OW32008   1.338   3.037   2.453  0.3207  0.4080 -0.2149
 6791SOL    HW132009   1.332   2.945   2.480 -1.0165 -0.2156 -2.5971
 6791SOL    HW232010   1.369   3.077   2.534  0.6176 -0.5028  0.1236
 6792SOL     OW32011   1.851   0.892   3.112  0.2358  0.3225 -0.1186
 6792SOL    HW132012   1.851   0.984   3.139 -1.1466 -0.6134  3.0039
 6792SOL    HW232013   1.775   0.894   3.055 -1.1416  0.8867  1.7514
 6793SOL     OW32014   0.531   2.090  15.788 -0.3723 -0.1110  0.1607
 6793SOL    HW132015   0.602   2.154  15.796 -0.3849 -0.1973  0.9181
 6793SOL    HW232016   0.473   2.140  15.730 -0.0849  1.0312  0.8602
 6794SOL     OW32017   1.788   1.419   3.681 -0.4860  0.1878  0.2280
 6794SOL    HW132018   1.840   1.443   3.604  0.1198 -0.5868  0.4061
 6794SOL    HW232019   1.767   1.328   3.659 -1.6987  0.3360  0.7430
 6795SOL     OW32020   1.514   2.767  17.649  0.5157  0.4941  0.2102
 6795SOL    HW132021   1.571   2.709  17.699 -0.8687 -0.5883  0.5546
 6795SOL    HW232022   1.471   2.717  17.580  0.2148  1.1035 -0.0363
 6796SOL     OW32023   4.483   3.191  15.861  0.0783 -0.0595 -0.4126
 6796SOL    HW132024   4.483   3.213  15.954  2.2864  0.0464 -0.4399
 6796SOL    HW232025   4.389   3.182  15.845  0.3392 -2.2977 -0.7541
 6797SOL     OW32026   4.624   0.699   2.771  0.3397 -0.5020  0.5593
 6797SOL    HW132027   4.578   0.627   2.729 -0.3708  0.9926 -1.1832
 6797SOL    HW232028   4.697   0.653   2.812  0.9451  1.6215  1.9116
 6798SOL     OW32029   3.378   1.000   1.627  0.7856  0.0399 -0.2136
 6798SOL    HW132030   3.297   1.010   1.676 -0.5626 -2.6226 -1.9585
 6798SOL    HW232031   3.397   1.094   1.622  2.0159 -0.0945  1.6317
 6799SOL     OW32032   3.995   4.685   6.761  0.3029  0.5967  0.5726
 6799SOL    HW132033   3.997   4.631   6.841 -0.5330 -0.9417 -0.4505
 6799SOL    HW232034   4.085   4.712   6.745  0.7322 -0.8014  0.6524
 6800SOL     OW32035   1.965   0.434  14.695  0.0962  0.2262 -0.4803
 6800SOL    HW132036   1.911   0.360  14.724  0.3820  0.8335  1.5882
 6800SOL    HW232037   2.045   0.393  14.661  0.4302 -0.6196  1.3046
 6801SOL     OW32038   4.135   1.541   0.379 -0.5227  0.8336 -0.6990
 6801SOL    HW132039   4.158   1.633   0.375  1.2392  0.3636 -1.5611
 6801SOL    HW232040   4.195   1.504   0.314  0.4708 -0.6679  1.0594
 6802SOL     OW32041   3.370   4.670   7.635  0.6885 -0.9406  0.3462
 6802SOL    HW132042   3.300   4.643   7.575 -0.4952  3.0697 -0.1122
 6802SOL    HW232043   3.401   0.013   7.588  0.8219 -0.7585  0.7348
 6803SOL     OW32044   2.364   4.197  13.580 -0.4226 -0.2683  0.2758
 6803SOL    HW132045   2.418   4.121  13.603  0.8073 -0.3389 -2.8284
 6803SOL    HW232046   2.281   4.155  13.557 -0.4813 -1.4855  2.7523
 6804SOL     OW32047   3.246   2.027  12.924 -0.0301 -0.6046  0.6672
 6804SOL    HW132048   3.323   2.065  12.881  1.0361 -0.7741  2.4105
 6804SOL    HW232049   3.283   1.969  12.990  0.3699 -0.2970  0.7132
 6805SOL     OW32050   4.378   4.466  12.959  0.7984 -0.7638  0.3961
 6805SOL    HW132051   4.432   4.445  12.882  0.3916  1.0880 -0.3970
 6805SOL    HW232052   4.435   4.519  13.015 -0.6613  0.5805  0.5929
 6806SOL     OW32053   0.828   3.680   8.311  0.1356  0.4676 -0.5810
 6806SOL    HW132054   0.886   3.622   8.360 -0.0024  0.4468 -0.4419
 6806SOL    HW232055   0.888   3.730   8.256 -0.1894  1.3525 -0.1209
 6807SOL     OW32056   4.549   0.597   5.374  0.6396  0.1345  0.1734
 6807SOL    HW132057   4.560   0.539   5.299  0.7516 -0.6694  0.8139
 6807SOL    HW232058   4.626   0.653   5.364  0.9064 -0.1975  0.3771
 6808SOL     OW32059   3.526   2.586   5.377 -0.0685  0.5220  0.2093
 6808SOL    HW132060   3.497   2.495   5.373 -1.3294  0.8742  1.5435
 6808SOL    HW232061   3.620   2.576   5.386  0.0274  1.7650  0.4917
 6809SOL     OW32062   4.657   3.062   6.361 -0.1523 -0.2136 -0.4288
 6809SOL    HW132063   0.013   3.063   6.334  0.5474  0.9047  1.9756
 6809SOL    HW232064   4.661   3.002   6.436  1.3513  0.5992  0.1418
 6810SOL     OW32065   1.252   4.417   8.094  0.9480  0.1576 -0.5634
 6810SOL    HW132066   1.216   4.472   8.163 -2.0572 -0.6805 -1.4707
 6810SOL    HW232067   1.179   4.359   8.071  0.3113  0.0827  1.6263
 6811SOL     OW32068   0.195   2.114  10.613 -0.2919 -0.5096 -1.3888
 6811SOL    HW132069   0.101   2.118  10.595 -0.3283 -2.7063 -1.6612
 6811SOL    HW232070   0.231   2.084  10.530  0.7197 -2.6559 -0.2009
 6812SOL     OW32071   1.453   4.364  15.500  0.8586 -0.0651  0.4612
 6812SOL    HW132072   1.481   4.377  15.591  0.5768 -0.0729  0.5478
 6812SOL    HW232073   1.534   4.333  15.461 -0.3133 -0.6092 -1.5385
 6813SOL     OW32074   3.066   2.521  17.052  0.0085 -0.2320  0.1760
 6813SOL    HW132075   3.009   2.474  17.114 -0.8727  1.8534  0.9629
 6813SOL    HW232076   3.004   2.579  17.008  0.8537 -0.9942 -1.9974
 6814SOL     OW32077   1.904   2.134   5.090 -0.0408  0.3734  0.2204
 6814SOL    HW132078   1.963   2.071   5.050 -1.0318 -1.4475  1.5911
 6814SOL    HW232079   1.962   2.210   5.090  0.7179 -0.1953  2.6410
 6815SOL     OW32080   2.239   1.566   4.909 -0.2965  0.0760 -0.1555
 6815SOL    HW132081   2.305   1.497   4.895  0.2612  0.7968 -1.0715
 6815SOL    HW232082   2.161   1.511   4.913  0.0987 -0.2384  2.9877
 6816SOL     OW32083   3.944   2.967   1.768 -0.1073 -0.2932 -0.4778
 6816SOL    HW132084   3.961   3.055   1.802  1.5915 -0.5964 -0.5255
 6816SOL    HW232085   4.033   2.932   1.779  0.8958  2.1072 -0.9615
 6817SOL     OW32086   4.099   3.994   7.329  0.2470 -0.5109 -0.6999
 6817SOL    HW132087   4.144   3.917   7.363  0.2030 -0.1172  0.2438
 6817SOL    HW232088   4.027   3.949   7.285  0.1721 -0.7999 -0.2802
 6818SOL     OW32089   1.812   3.069   3.925  0.1563  0.4464  0.0675
 6818SOL    HW132090   1.774   2.996   3.875  2.8270 -0.5081 -0.5691
 6818SOL    HW232091   1.868   3.019   3.984 -2.1434 -0.5056  1.4334
 6819SOL     OW32092   4.441   1.804   3.901  0.4939 -0.1220  0.6938
 6819SOL    HW132093   4.347   1.789   3.900  0.5893 -0.5977 -0.5994
 6819SOL    HW232094   4.446   1.899   3.903  0.6961 -0.1243  0.3096
 6820SOL     OW32095   2.001   2.928  15.715 -0.5398 -0.2214 -0.1741
 6820SOL    HW132096   1.936   2.998  15.720  1.7035  1.7188  1.5303
 6820SOL    HW232097   1.959   2.859  15.664 -1.2538  0.1106 -0.0352
 6821SOL     OW32098   0.584   4.252   4.339 -0.4026 -0.1697 -0.1473
 6821SOL    HW132099   0.540   4.169   4.361 -0.5935  0.3211  1.3093
 6821SOL    HW232100   0.564   4.302   4.418 -0.5751  0.3242 -0.5076
 6822SOL     OW32101   4.042   4.424   3.242 -0.6074  0.0185  0.4034
 6822SOL    HW132102   4.114   4.480   3.271  0.7917 -1.9373  0.7136
 6822SOL    HW232103   4.037   4.368   3.320 -2.0567  1.1556  1.1147
 6823SOL     OW32104   0.603   0.186  14.605  0.5007 -0.3532 -0.0637
 6823SOL    HW132105   0.523   0.196  14.656  0.3658 -1.1648 -0.1241
 6823SOL    HW232106   0.661   0.242  14.657 -1.7558  3.7679 -1.9660
 6824SOL     OW32107   4.260   1.556   2.162  0.4408 -0.2625 -0.1596
 6824SOL    HW132108   4.278   1.526   2.252  0.8206  0.3002 -0.0503
 6824SOL    HW232109   4.290   1.490   2.099 -0.9303 -0.9405 -0.1107
 6825SOL     OW32110   2.232   1.458   0.639 -0.2455 -0.0631 -0.1514
 6825SOL    HW132111   2.203   1.549   0.640  2.2092  0.7413 -1.7018
 6825SOL    HW232112   2.149   1.410   0.633 -0.1426 -0.3396  0.6361
 6826SOL     OW32113   2.109   1.997   7.585 -0.2370 -0.7224  0.3000
 6826SOL    HW132114   2.060   2.066   7.539  0.3626 -0.3997  0.1367
 6826SOL    HW232115   2.080   1.997   7.676  1.3857  3.0797  0.8292
 6827SOL     OW32116   0.114   1.238   8.110 -0.2976 -0.0186 -0.3127
 6827SOL    HW132117   0.037   1.294   8.125 -0.5853 -0.2936 -0.7751
 6827SOL    HW232118   0.180   1.305   8.092 -1.4050  1.1742 -0.0027
 6828SOL     OW32119   1.567   3.907   9.480  0.2813 -0.5219  0.2243
 6828SOL    HW132120   1.637   3.883   9.541  0.2146  1.2770  1.0107
 6828SOL    HW232121   1.584   3.859   9.399  0.1087  0.9459 -0.6957
 6829SOL     OW32122   2.360   2.622   1.061 -0.4881 -0.1689  0.1805
 6829SOL    HW132123   2.453   2.634   1.042 -0.6608 -0.6293 -0.9675
 6829SOL    HW232124   2.367   2.570   1.141  0.4024 -1.2363 -0.5982
 6830SOL     OW32125   3.736   2.532   6.077  0.8434 -0.0341 -0.2506
 6830SOL    HW132126   3.802   2.564   6.137 -0.2189 -0.1944  1.0121
 6830SOL    HW232127   3.744   2.436   6.078  0.4690 -0.0680 -0.2815
 6831SOL     OW32128   1.889   1.256  10.550  0.6048 -0.2681  0.1047
 6831SOL    HW132129   1.832   1.225  10.480  1.1445 -0.9377 -0.0445
 6831SOL    HW232130   1.845   1.214  10.623  0.4248  1.8112  1.1898
 6832SOL     OW32131   0.331   0.989   3.308 -0.9775  0.3170  0.1892
 6832SOL    HW132132   0.282   1.036   3.241  1.2298  1.8397 -0.3630
 6832SOL    HW232133   0.265   0.933   3.349  0.4106 -0.0290  1.9802
 6833SOL     OW32134   4.668   3.934   3.734 -0.0632  0.9182 -0.1476
 6833SOL    HW132135   4.675   3.954   3.640  0.0968  0.8715 -0.1449
 6833SOL    HW232136   0.004   3.988   3.768  1.9210 -0.5415 -1.8923
 6834SOL     OW32137   1.017   4.368   5.217 -0.0695 -0.4685  0.1952
 6834SOL    HW132138   1.017   4.355   5.312  0.2520  0.6079  0.3410
 6834SOL    HW232139   0.937   4.320   5.197 -0.6272  0.8923 -0.8429
 6835SOL     OW32140   4.331   1.408   3.826  0.4857 -0.0374  0.1521
 6835SOL    HW132141   4.343   1.393   3.919  0.9570  1.1308  0.2732
 6835SOL    HW232142   4.402   1.351   3.798  0.9111  0.1288  0.9172
 6836SOL     OW32143   3.331   0.417   7.450  0.2448  0.3172  0.4622
 6836SOL    HW132144   3.295   0.478   7.514 -0.5573  1.5364 -1.1441
 6836SOL    HW232145   3.318   0.453   7.362  0.4847  2.5844  1.3477
 6837SOL     OW32146   1.863   0.895   9.138  0.3863 -0.1399  0.1355
 6837SOL    HW132147   1.916   0.818   9.156  0.0920  0.2001  2.4800
 6837SOL    HW232148   1.932   0.955   9.164 -0.5325  1.2785 -0.6807
 6838SOL     OW32149   0.689   4.219  11.819 -0.0930 -0.2641  0.0834
 6838SOL    HW132150   0.644   4.303  11.810  0.2684 -0.0375  0.4071
 6838SOL    HW232151   0.765   4.228  11.762  0.6709  1.4551  1.3911
 6839SOL     OW32152   1.487   0.726   2.217  0.4262 -0.6593  0.2206
 6839SOL    HW132153   1.406   0.733   2.167 -0.2402  0.0350  1.3927
 6839SOL    HW232154   1.456   0.653   2.271 -1.7410 -0.6554 -1.0058
 6840SOL     OW32155   2.710   1.946   1.934 -0.1331  0.4920  0.2364
 6840SOL    HW132156   2.712   1.863   1.886 -2.5536  2.0117 -2.4486
 6840SOL    HW232157   2.618   1.952   1.960 -0.4051  0.8773 -0.8408
 6841SOL     OW32158   4.361   3.761   4.021  0.2672 -0.4113 -0.5434
 6841SOL    HW132159   4.391   3.835   4.073 -0.9621 -0.9717  0.9771
 6841SOL    HW232160   4.364   3.798   3.934 -2.0716  0.8622 -0.0774
 6842SOL     OW32161   2.470   2.601   2.936  0.2545  1.0333  0.7205
 6842SOL    HW132162   2.437   2.531   2.879 -0.7079  1.6143  0.5610
 6842SOL    HW232163   2.399   2.665   2.927  0.8666  1.6107  0.0636
 6843SOL     OW32164   0.714   0.604   7.041 -0.2811  0.5292  0.4491
 6843SOL    HW132165   0.762   0.525   7.016  0.4338  1.8609 -2.4122
 6843SOL    HW232166   0.781   0.672   7.050  2.8842 -2.6532  0.6656
 6844SOL     OW32167   1.558   0.004   4.230 -0.0928  0.4330 -0.6778
 6844SOL    HW132168   1.587   0.064   4.162  0.4906 -0.3168 -1.0931
 6844SOL    HW232169   1.477   4.716   4.184 -0.0458  3.0760 -2.0455
 6845SOL     OW32170   3.643   3.097   8.434  0.1390 -0.1820  0.1647
 6845SOL    HW132171   3.605   3.018   8.397 -1.7257  0.2799  1.1011
 6845SOL    HW232172   3.678   3.129   8.351 -2.1334  0.6309 -0.4813
 6846SOL     OW32173   1.887   2.972   2.972  0.3717 -0.0727 -0.1583
 6846SOL    HW132174   1.860   2.882   2.989 -1.4644  0.2525 -1.2975
 6846SOL    HW232175   1.835   3.023   3.035 -0.1565 -0.0476 -0.6177
 6847SOL     OW32176   3.249   1.972   3.945 -0.2344  0.2270  0.5573
 6847SOL    HW132177   3.210   2.058   3.930 -1.3051  0.0774  2.4724
 6847SOL    HW232178   3.307   1.959   3.870  1.7608  1.8483  1.8076
 6848SOL     OW32179   3.992   3.552   9.673  0.6368  0.4568  0.1036
 6848SOL    HW132180   4.084   3.532   9.687  0.6430  0.0183 -0.5699
 6848SOL    HW232181   3.998   3.647   9.670  0.5272  0.4696  0.2985
 6849SOL     OW32182   3.410   2.870  10.329 -0.2687  0.1539 -0.0662
 6849SOL    HW132183   3.376   2.825  10.406 -0.0808  0.0039 -0.0711
 6849SOL    HW232184   3.455   2.793  10.293  1.2894  0.6738  0.7502
 6850SOL     OW32185   3.803   3.218   2.054  0.3478  0.1928  0.2210
 6850SOL    HW132186   3.775   3.153   2.119 -0.5390 -0.0624 -0.4167
 6850SOL    HW232187   3.748   3.291   2.084 -1.7619 -1.3417  0.1247
 6851SOL     OW32188   4.263   0.967   0.135  0.1651  0.3957  0.3612
 6851SOL    HW132189   4.259   0.994   0.227  0.0017  0.4803  0.3288
 6851SOL    HW232190   4.359   0.972   0.137  0.1999 -0.0309 -0.4718
 6852SOL     OW32191   2.909   1.477   1.989  0.4966  0.5001 -0.1657
 6852SOL    HW132192   2.993   1.490   2.033  0.5299 -0.4891  0.0634
 6852SOL    HW232193   2.865   1.528   2.057  0.9247 -0.2516  0.6687
 6853SOL     OW32194   1.780   4.603   3.312  0.2368  0.0447 -0.0302
 6853SOL    HW132195   1.688   4.614   3.336  0.5981 -0.6841  1.6981
 6853SOL    HW232196   1.806   4.544   3.383 -2.5341 -1.4513 -0.2449
 6854SOL     OW32197   2.641   1.072  13.963  0.1931  0.1455 -0.0981
 6854SOL    HW132198   2.721   1.023  13.945 -0.5813 -2.2059  2.9196
 6854SOL    HW232199   2.640   1.089  14.057  0.7806  2.6587 -0.5506
 6855SOL     OW32200   2.003   2.293   7.988 -0.4559  0.4207 -0.1861
 6855SOL    HW132201   2.019   2.384   8.012 -0.2894  0.2442  0.3892
 6855SOL    HW232202   2.053   2.251   8.059  0.0350 -2.5102 -2.2584
 6856SOL     OW32203   2.541   2.826   7.540  0.0627  0.4677  0.5747
 6856SOL    HW132204   2.504   2.847   7.454 -0.0751 -1.5463  0.1243
 6856SOL    HW232205   2.487   2.878   7.599 -2.3699  0.5257 -1.6977
 6857SOL     OW32206   0.767   4.308  17.624 -0.1117 -0.1851  0.0544
 6857SOL    HW132207   0.695   4.310  17.561 -0.1532  1.4968  0.1328
 6857SOL    HW232208   0.795   4.399  17.613 -3.4247  0.6127 -1.7080
 6858SOL     OW32209   0.711   2.876   7.070  0.5478  0.4522  0.0462
 6858SOL    HW132210   0.797   2.838   7.051  0.0394 -1.3558  1.3535
 6858SOL    HW232211   0.733   2.951   7.125 -0.3094  0.9590 -0.3035
 6859SOL     OW32212   1.760   1.126   6.586  0.1659  0.5840 -0.1680
 6859SOL    HW132213   1.674   1.168   6.589 -0.3234 -0.4395  0.0052
 6859SOL    HW232214   1.819   1.195   6.554 -1.1924  2.0231  0.4008
 6860SOL     OW32215   4.486   4.372   5.208 -0.7973  0.1443 -0.5719
 6860SOL    HW132216   4.426   4.348   5.138 -0.2416 -0.5806 -0.7978
 6860SOL    HW232217   4.438   4.446   5.245 -0.3498 -0.3627  1.0189
 6861SOL     OW32218   3.453   4.366   7.154 -0.6120 -0.1509 -0.1254
 6861SOL    HW132219   3.467   4.312   7.077  0.9395 -1.0952  0.8336
 6861SOL    HW232220   3.378   4.325   7.197  0.1980  0.2597  1.6800
 6862SOL     OW32221   1.016   4.674   6.323 -0.1558  0.4156 -0.1909
 6862SOL    HW132222   1.059   4.592   6.301 -2.7888 -1.4809  1.6978
 6862SOL    HW232223   1.060   4.704   6.403 -0.4564  1.9869 -0.6067
 6863SOL     OW32224   2.062   1.611   6.783 -0.0109 -0.1216 -0.0586
 6863SOL    HW132225   2.087   1.702   6.795  2.6267 -0.9854  1.0157
 6863SOL    HW232226   1.980   1.622   6.831  0.2003  0.8300  0.0773
 6864SOL     OW32227   4.607   1.494  16.883 -0.3501  0.0621  0.3290
 6864SOL    HW132228   4.691   1.538  16.896 -0.2043  0.2634 -1.2275
 6864SOL    HW232229   4.583   1.505  16.975 -0.4890  2.2257  0.0484
 6865SOL     OW32230   2.115   0.890  12.861  0.1099 -0.4894 -0.1029
 6865SOL    HW132231   2.071   0.822  12.810  1.2594 -0.5694 -0.9853
 6865SOL    HW232232   2.176   0.925  12.796  2.0708 -1.1365  1.3993
 6866SOL     OW32233   0.446   0.346   6.009 -0.6664  0.0362 -0.2009
 6866SOL    HW132234   0.408   0.299   5.934  0.5388  0.2722 -0.9590
 6866SOL    HW232235   0.459   0.272   6.068  1.5266  1.3938  1.0138
 6867SOL     OW32236   4.445   0.868   4.443  0.2718 -0.3134 -0.0366
 6867SOL    HW132237   4.467   0.901   4.356 -0.4163 -0.6234 -0.3279
 6867SOL    HW232238   4.511   0.922   4.487  0.5217  0.9415 -1.9510
 6868SOL     OW32239   3.513   2.275   5.311 -0.0377 -0.1917  0.3969
 6868SOL    HW132240   3.467   2.191   5.304 -0.2865  0.0615 -1.1187
 6868SOL    HW232241   3.544   2.276   5.401 -0.9672 -0.0244  0.7035
 6869SOL     OW32242   0.500   2.930   4.864  0.1067 -0.0768  0.1011
 6869SOL    HW132243   0.434   2.991   4.832  0.2214  0.5749  1.0815
 6869SOL    HW232244   0.580   2.981   4.849 -0.1631  0.2956 -0.0794
 6870SOL     OW32245   3.006   0.812   4.533 -0.1710 -0.3741  1.0216
 6870SOL    HW132246   3.074   0.852   4.587  0.8255  0.3865 -0.7815
 6870SOL    HW232247   3.049   0.736   4.494 -2.7896 -0.9242 -0.7729
 6871SOL     OW32248   4.218   3.580   4.616 -0.2274 -0.9025 -0.0164
 6871SOL    HW132249   4.229   3.669   4.651  0.4614 -0.8173 -0.4391
 6871SOL    HW232250   4.308   3.547   4.619 -0.7689 -2.3724  0.0515
 6872SOL     OW32251   1.103   4.332   1.756  0.0868 -0.0956 -0.9435
 6872SOL    HW132252   1.058   4.249   1.742  0.7961 -0.7364  0.5732
 6872SOL    HW232253   1.022   4.381   1.769  0.5430  1.2779 -3.2090
 6873SOL     OW32254   1.457   2.223   8.340  0.0439  0.4054  0.6092
 6873SOL    HW132255   1.461   2.202   8.433 -0.5263  0.5428  0.6645
 6873SOL    HW232256   1.549   2.239   8.320 -0.0435 -0.4803 -0.4919
 6874SOL     OW32257   0.881   0.347  14.661 -0.1000  0.1177 -0.0624
 6874SOL    HW132258   0.966   0.384  14.685  0.4938  0.3222 -2.5360
 6874SOL    HW232259   0.911   0.275  14.606 -3.4390 -0.0335 -1.6757
 6875SOL     OW32260   1.936   0.125   7.979  0.2087  0.2255  0.2634
 6875SOL    HW132261   1.957   0.091   8.066 -2.5521  0.2933  0.9523
 6875SOL    HW232262   1.892   0.045   7.948  0.7281  0.2105 -0.4412
 6876SOL     OW32263   1.996   0.997  11.683  0.2530  0.4901  0.3157
 6876SOL    HW132264   2.060   0.939  11.723 -0.8407 -1.1772 -0.3706
 6876SOL    HW232265   1.957   0.950  11.610  0.2886  0.4093  0.3494
 6877SOL     OW32266   0.813   0.728   1.056  0.3350 -0.0189 -0.7036
 6877SOL    HW132267   0.781   0.753   0.969  0.7058 -0.2676 -0.9135
 6877SOL    HW232268   0.738   0.761   1.106  1.2000  0.3065  0.3873
 6878SOL     OW32269   4.439   3.977   8.253 -0.0529 -0.3044 -0.1381
 6878SOL    HW132270   4.461   3.962   8.345  1.4191 -2.1256 -0.7931
 6878SOL    HW232271   4.350   4.010   8.263 -0.1613 -0.1454 -1.6522
 6879SOL     OW32272   3.836   2.616   4.613  0.1046 -0.1117  0.5615
 6879SOL    HW132273   3.777   2.653   4.679 -0.0102  2.0743 -0.7489
 6879SOL    HW232274   3.912   2.670   4.631  0.9947 -0.9362 -0.7940
 6880SOL     OW32275   2.215   2.938   5.664  0.2148 -0.0306  0.3702
 6880SOL    HW132276   2.284   2.939   5.730 -1.5916 -1.2153  2.2853
 6880SOL    HW232277   2.137   2.928   5.720 -1.1066  0.4584 -1.3745
 6881SOL     OW32278   4.595   0.600  11.700  0.3133 -0.3259  0.6919
 6881SOL    HW132279   4.505   0.622  11.675 -0.2192 -3.3976 -0.0309
 6881SOL    HW232280   4.588   0.516  11.745 -0.2211 -1.6143 -1.8576
 6882SOL     OW32281   1.814   3.670  10.262 -0.0704 -0.3003 -0.5617
 6882SOL    HW132282   1.723   3.680  10.290  0.6036 -2.6739  2.4558
 6882SOL    HW232283   1.826   3.578  10.241  0.3767 -0.0849 -1.2593
 6883SOL     OW32284   2.016   0.705   5.783 -0.9529 -0.2199  0.0263
 6883SOL    HW132285   1.971   0.778   5.827  0.2829  0.0565  0.8240
 6883SOL    HW232286   2.093   0.752   5.751 -1.6456  0.2950 -0.9189
 6884SOL     OW32287   0.614   0.634   4.513 -0.5022 -0.2047  0.1776
 6884SOL    HW132288   0.697   0.599   4.480 -1.2952  0.2931 -2.3825
 6884SOL    HW232289   0.622   0.620   4.607  0.7573 -4.2036 -0.5455
 6885SOL     OW32290   2.889   1.031  16.349 -1.0789  0.0086  0.1133
 6885SOL    HW132291   2.915   0.970  16.418 -0.0992 -1.9720 -2.0077
 6885SOL    HW232292   2.964   1.091  16.347 -0.4690 -0.7872 -0.6795
 6886SOL     OW32293   2.490   3.563   1.777  0.3175 -0.3897  0.2665
 6886SOL    HW132294   2.489   3.484   1.832 -1.0846 -0.9657 -0.5732
 6886SOL    HW232295   2.413   3.610   1.809  1.0187 -0.0231  1.3984
 6887SOL     OW32296   3.972   0.874   0.708  0.0555  0.2072  0.5646
 6887SOL    HW132297   3.948   0.788   0.744 -1.3213  0.5132  0.3935
 6887SOL    HW232298   3.990   0.853   0.616  1.8340  0.9223  0.7557
 6888SOL     OW32299   3.040   0.647  16.685  0.5918  0.0785 -0.2998
 6888SOL    HW132300   3.077   0.730  16.715 -1.1172  0.1478  1.6751
 6888SOL    HW232301   3.075   0.580  16.744 -1.2681 -2.3938 -1.9784
 6889SOL     OW32302   2.251   2.256   5.537  0.1435 -0.2107  0.4125
 6889SOL    HW132303   2.266   2.276   5.629 -0.1334  1.1559  0.1577
 6889SOL    HW232304   2.217   2.333   5.491  0.9373  1.0798  2.0026
 6890SOL     OW32305   4.660   4.626   6.975  0.4757 -0.1054 -0.6247
 6890SOL    HW132306   4.689   4.659   7.060  0.3060 -0.3249 -0.4779
 6890SOL    HW232307   4.659   4.531   6.991  0.4541 -0.1503 -0.8900
 6891SOL     OW32308   0.759   3.210  17.436 -0.2839 -0.2735  0.1596
 6891SOL    HW132309   0.710   3.128  17.437  0.1838 -0.5308  1.9548
 6891SOL    HW232310   0.780   3.215  17.530 -2.2037  2.6904  0.4375
 6892SOL     OW32311   1.072   3.800  10.593  0.2378  0.2472  0.2063
 6892SOL    HW132312   1.010   3.727  10.603  1.1625 -0.5009  0.5332
 6892SOL    HW232313   1.133   3.786  10.666 -0.5219 -4.1877  0.0260
 6893SOL     OW32314   3.684   4.433   0.026 -0.2179  0.3918 -0.1345
 6893SOL    HW132315   3.765   4.431  17.716  0.1090 -2.9171  0.5927
 6893SOL    HW232316   3.710   4.387   0.106 -1.2989 -0.2584 -0.1570
 6894SOL     OW32317   4.529   0.957   0.201  0.0044 -0.1943 -0.1906
 6894SOL    HW132318   4.543   1.000   0.286  0.1404 -1.6503  0.5164
 6894SOL    HW232319   4.574   1.009   0.134  3.9561 -1.3435  1.6045
 6895SOL     OW32320   3.260   2.713   2.709 -0.3782  0.7074 -0.6011
 6895SOL    HW132321   3.250   2.725   2.804 -0.0394  1.3849 -0.6504
 6895SOL    HW232322   3.341   2.664   2.695 -1.1285 -0.9503  0.8423
 6896SOL     OW32323   3.930   0.710   8.561 -0.4919 -0.3816 -0.3852
 6896SOL    HW132324   3.894   0.683   8.645 -2.6802  0.0375 -1.1806
 6896SOL    HW232325   3.923   0.806   8.564 -0.8582 -0.4113 -0.3380
 6897SOL     OW32326   3.197   0.669   3.811  0.3667 -0.2384  0.2456
 6897SOL    HW132327   3.114   0.670   3.858  0.2379  1.3064 -0.0021
 6897SOL    HW232328   3.230   0.580   3.818  0.4230 -0.3144 -0.9697
 6898SOL     OW32329   2.534   1.731   6.271 -0.2545 -0.4428  0.0053
 6898SOL    HW132330   2.496   1.814   6.297  1.2992  0.2161  0.1965
 6898SOL    HW232331   2.600   1.714   6.339 -0.2500  3.8839  1.1099
 6899SOL     OW32332   1.543   0.077   4.859  0.1229 -0.1217 -0.6256
 6899SOL    HW132333   1.517   4.725   4.888 -0.2017  0.0322 -0.4537
 6899SOL    HW232334   1.637   0.077   4.880  0.2801 -0.7495 -1.3261
 6900SOL     OW32335   1.571   0.292   3.067  0.0235 -0.6124 -0.0651
 6900SOL    HW132336   1.518   0.218   3.097 -0.2734  0.2686  1.5583
 6900SOL    HW232337   1.501   0.342   3.024 -0.0432  1.3433  2.3459
 6901SOL     OW32338   4.228   0.719   6.927  0.2572  0.1769  0.0804
 6901SOL    HW132339   4.305   0.694   6.876  0.4634  3.0523 -1.0073
 6901SOL    HW232340   4.220   0.810   6.901  0.8170  0.0185 -0.6412
 6902SOL     OW32341   2.096   4.209  17.713 -0.8769  0.8005 -0.5624
 6902SOL    HW132342   2.044   4.151  17.658 -1.8436  0.3675  0.8008
 6902SOL    HW232343   2.134   4.270  17.650 -0.3747  1.0388 -0.0238
 6903SOL     OW32344   4.273   0.130   5.238 -0.2265  0.0422 -0.4071
 6903SOL    HW132345   4.226   0.206   5.203 -0.0741  0.2824 -0.0850
 6903SOL    HW232346   4.332   0.104   5.167  0.1225  1.5358 -0.6702
 6904SOL     OW32347   2.757   4.693   2.757 -0.0695 -0.5750 -0.1834
 6904SOL    HW132348   2.805   0.011   2.693  0.9525 -3.3747 -1.7258
 6904SOL    HW232349   2.669   4.730   2.746  0.8583  2.4258  2.1911
 6905SOL     OW32350   2.702   3.130   4.535  0.5924  0.1974 -0.3815
 6905SOL    HW132351   2.673   3.164   4.450  0.6153  1.7032  0.2028
 6905SOL    HW232352   2.727   3.212   4.579 -0.5930  0.3788 -0.0482
 6906SOL     OW32353   3.625   1.895  17.452 -0.1809 -0.1544 -0.6806
 6906SOL    HW132354   3.603   1.830  17.385 -1.0201 -1.1421  0.5600
 6906SOL    HW232355   3.549   1.914  17.506  0.7630  1.7662 -0.0338
 6907SOL     OW32356   3.189   0.354  13.820 -0.5066  0.1284  0.2149
 6907SOL    HW132357   3.257   0.341  13.887 -0.1873  0.0876 -0.1182
 6907SOL    HW232358   3.245   0.373  13.745 -1.7006  2.5546 -0.0596
 6908SOL     OW32359   2.127   2.484   5.415  0.3501 -0.5009 -0.3418
 6908SOL    HW132360   2.099   2.543   5.486  1.6371 -0.8707  0.4753
 6908SOL    HW232361   2.142   2.547   5.344  0.3886  0.2528  0.3219
 6909SOL     OW32362   4.425   1.727   6.354 -0.0728  1.2995  0.1173
 6909SOL    HW132363   4.408   1.633   6.360 -0.3746  1.3589  0.1966
 6909SOL    HW232364   4.518   1.732   6.334 -0.6394  2.5430 -2.2255
 6910SOL     OW32365   0.761   4.264   5.212  0.1923 -0.0476  0.5077
 6910SOL    HW132366   0.732   4.180   5.176 -0.1949  0.0336  0.6295
 6910SOL    HW232367   0.774   4.249   5.305  2.3233  1.3559  0.4427
 6911SOL     OW32368   1.320   2.425   2.037  0.0919  0.9835  0.2527
 6911SOL    HW132369   1.346   2.352   1.981  2.7977  2.0971  0.1065
 6911SOL    HW232370   1.226   2.413   2.056 -0.0524  0.1191 -1.0400
 6912SOL     OW32371   2.158   2.470   9.832  0.1853  0.5409 -0.4644
 6912SOL    HW132372   2.149   2.410   9.906 -0.8110  2.1314  0.7264
 6912SOL    HW232373   2.195   2.550   9.870  0.6797  0.1551 -0.1401
 6913SOL     OW32374   2.786   1.822   8.260 -0.2233 -0.1810 -0.5024
 6913SOL    HW132375   2.853   1.777   8.312 -0.2029  2.3440  1.6862
 6913SOL    HW232376   2.841   1.885   8.213  0.9660  0.0505  1.1787
 6914SOL     OW32377   1.180   1.196  13.987 -0.3294 -0.1924  0.4700
 6914SOL    HW132378   1.275   1.205  13.987 -0.4318  0.8167  1.9976
 6914SOL    HW232379   1.167   1.121  13.928  0.1140  0.4686 -0.4744
 6915SOL     OW32380   0.994   4.253   4.537  0.8775  0.2857 -0.0215
 6915SOL    HW132381   0.987   4.159   4.522 -0.8102  0.3871  0.0754
 6915SOL    HW232382   0.962   4.280   4.451 -0.0054 -3.1157 -0.7351
 6916SOL     OW32383   2.445   3.827   6.662  0.2440 -0.0193 -0.1408
 6916SOL    HW132384   2.382   3.870   6.719 -0.9766 -1.9242 -0.0420
 6916SOL    HW232385   2.526   3.877   6.675  0.4236  0.3023 -2.4030
 6917SOL     OW32386   3.761   0.062   3.711  0.2462  0.3439 -0.3656
 6917SOL    HW132387   3.719   0.045   3.627  0.0662 -0.6749 -0.0756
 6917SOL    HW232388   3.852   0.046   3.690  0.1556 -2.0665  1.0989
 6918SOL     OW32389   1.198   0.272   3.006  0.2976  0.6117  0.4858
 6918SOL    HW132390   1.174   0.192   3.053  0.1133  1.2220  1.4075
 6918SOL    HW232391   1.255   0.232   2.940 -0.1759 -1.7321  1.4924
 6919SOL     OW32392   2.636   4.699  13.884 -0.1682 -0.4995  0.3250
 6919SOL    HW132393   2.541   4.712  13.884 -0.1072 -0.0383  0.3909
 6919SOL    HW232394   2.652   4.715  13.791 -2.1619  1.7291  0.3496
 6920SOL     OW32395   1.583   4.088  14.167  0.4375  0.5256 -0.5124
 6920SOL    HW132396   1.644   4.157  14.195  1.9883 -2.0384  2.3610
 6920SOL    HW232397   1.501   4.122  14.201  0.3751  0.7115 -0.8421
 6921SOL     OW32398   4.152   3.577  12.304 -0.0996 -0.2359 -0.6541
 6921SOL    HW132399   4.118   3.541  12.386  2.0290 -3.1450 -1.0712
 6921SOL    HW232400   4.107   3.661  12.308 -1.3450 -0.9874  0.9724
 6922SOL     OW32401   0.062   4.659   8.868  0.4270 -0.3697  0.0983
 6922SOL    HW132402   0.107   0.000   8.833 -0.5333  0.3172  0.3570
 6922SOL    HW232403   0.041   4.695   8.954 -2.0002  0.8148 -0.9946
 6923SOL     OW32404   2.259   1.252  15.438 -0.2160 -0.0609 -0.4551
 6923SOL    HW132405   2.319   1.294  15.499  2.3101 -0.5025 -2.6149
 6923SOL    HW232406   2.231   1.185  15.501 -1.2409 -0.0659 -0.9154
 6924SOL     OW32407   0.834   2.716   7.864 -0.0006 -0.0035 -0.6807
 6924SOL    HW132408   0.929   2.702   7.860  0.1292  0.4672  0.6797
 6924SOL    HW232409   0.832   2.775   7.940  2.3327 -0.7074 -0.0511
 6925SOL     OW32410   3.514   0.691   9.276  0.0929 -0.4493  0.0982
 6925SOL    HW132411   3.454   0.673   9.348  1.9780  1.1377  2.0803
 6925SOL    HW232412   3.535   0.783   9.289 -2.6194  0.4238 -1.6720
 6926SOL     OW32413   1.841   3.860   2.426 -0.3771  0.6370  0.5331
 6926SOL    HW132414   1.929   3.853   2.464  0.6021  2.1298 -1.4792
 6926SOL    HW232415   1.792   3.806   2.488  0.2852  0.0880  0.5779
 6927SOL     OW32416   4.333   2.923   6.503  0.1214 -0.8804 -0.6177
 6927SOL    HW132417   4.388   2.848   6.479  1.9803 -0.2744  1.7708
 6927SOL    HW232418   4.283   2.885   6.575  1.4624 -0.7036  0.4098
 6928SOL     OW32419   3.860   3.009   5.755  0.5813  0.3967  0.5110
 6928SOL    HW132420   3.878   3.060   5.834  0.8467 -1.2929  1.5483
 6928SOL    HW232421   3.881   2.918   5.777 -1.3150 -0.4639 -1.2283
 6929SOL     OW32422   4.497   3.314   8.617 -0.2272 -0.2189  0.0381
 6929SOL    HW132423   4.513   3.339   8.708 -0.3834  0.0917 -0.0176
 6929SOL    HW232424   4.572   3.261   8.593  0.8880  1.5063 -0.3242
 6930SOL     OW32425   1.018   3.912   2.903  0.5988  0.3364  0.1501
 6930SOL    HW132426   1.085   3.880   2.842 -0.5133 -0.4616 -0.6416
 6930SOL    HW232427   0.936   3.903   2.854  0.0913 -2.8548  1.5415
 6931SOL     OW32428   0.748   4.144   1.133  0.0939  0.0395  0.1010
 6931SOL    HW132429   0.766   4.050   1.128  3.5997  0.6859  0.5772
 6931SOL    HW232430   0.659   4.151   1.098  0.8168 -1.0561 -1.9639
 6932SOL     OW32431   4.044   3.020   9.855  0.5785  1.1118 -0.5090
 6932SOL    HW132432   3.972   2.986   9.908  1.8179 -1.1934 -0.2882
 6932SOL    HW232433   4.102   2.944   9.850 -0.9455 -0.0389 -0.5128
 6933SOL     OW32434   0.258   1.702   7.448 -0.4573  0.3960  0.3114
 6933SOL    HW132435   0.210   1.739   7.522 -1.9889 -0.8471 -0.0420
 6933SOL    HW232436   0.350   1.726   7.460 -0.0709 -0.3945 -0.9588
 6934SOL     OW32437   3.180   1.546  15.447 -0.3146 -0.4571 -0.5615
 6934SOL    HW132438   3.236   1.605  15.497  0.9719 -2.6455  0.6239
 6934SOL    HW232439   3.106   1.606  15.438 -0.6581 -0.3106  2.9547
 6935SOL     OW32440   2.483   3.881  16.920 -0.1253 -0.1549  0.2917
 6935SOL    HW132441   2.527   3.964  16.933 -0.6107  0.2214 -0.4838
 6935SOL    HW232442   2.522   3.820  16.983  0.3402 -0.1704 -0.0127
 6936SOL     OW32443   4.268   3.070   8.525  0.2433  1.0675 -0.0167
 6936SOL    HW132444   4.351   3.060   8.479  0.7897  1.1967  0.9459
 6936SOL    HW232445   4.271   3.165   8.534 -0.0223  1.0668  0.0882
 6937SOL     OW32446   2.268   3.398   5.954  0.3086  0.0251 -0.0315
 6937SOL    HW132447   2.334   3.402   6.024 -1.4461  3.2114  1.4483
 6937SOL    HW232448   2.265   3.486   5.916  1.1931 -0.1279 -0.4469
 6938SOL     OW32449   4.444   2.029   6.271  0.6321  0.4284  0.3242
 6938SOL    HW132450   4.352   2.034   6.248  1.0439 -0.5484 -1.5233
 6938SOL    HW232451   4.473   1.976   6.197  0.1214  1.0327 -0.3091
 6939SOL     OW32452   3.881   2.291   4.585  0.2694 -0.1983  1.0511
 6939SOL    HW132453   3.892   2.381   4.614  1.3218 -0.0125  0.0813
 6939SOL    HW232454   3.790   2.301   4.556  1.6378  1.3294 -2.7047
 6940SOL     OW32455   4.132   0.117   4.401  0.0748 -0.6231  0.4106
 6940SOL    HW132456   4.162   0.197   4.358 -1.0402  0.0252  0.8576
 6940SOL    HW232457   4.163   0.057   4.333  1.2492 -1.6289  1.8346
 6941SOL     OW32458   0.264   3.774   8.436  0.1103  0.0522 -0.1083
 6941SOL    HW132459   0.320   3.763   8.513 -0.3124 -0.2293  0.1589
 6941SOL    HW232460   0.315   3.824   8.373  0.1492  0.3962  0.1954
 6942SOL     OW32461   4.300   2.506   6.745 -0.3006 -0.0001  0.0213
 6942SOL    HW132462   4.204   2.500   6.752 -0.3708  0.9690 -0.1062
 6942SOL    HW232463   4.324   2.490   6.836 -0.1823  1.9305  0.3295
 6943SOL     OW32464   1.901   1.769   2.342 -0.0122 -0.4065  0.6452
 6943SOL    HW132465   1.847   1.821   2.401 -1.4618  1.3892 -2.2767
 6943SOL    HW232466   1.866   1.680   2.354  0.1638 -1.0179 -3.1996
 6944SOL     OW32467   1.209   2.057   1.663 -0.6490 -0.5504  0.0940
 6944SOL    HW132468   1.259   2.098   1.593 -1.2202 -1.4881 -0.8631
 6944SOL    HW232469   1.161   2.132   1.699  0.9149  0.1173  0.7843
 6945SOL     OW32470   2.207   4.020  15.085  0.3108 -0.2048 -0.0487
 6945SOL    HW132471   2.258   3.943  15.060  1.6059  1.0003 -1.1356
 6945SOL    HW232472   2.227   4.075  15.009  1.4806  1.4777  1.4818
 6946SOL     OW32473   0.792   0.842  12.583  0.2221 -0.2184  0.2255
 6946SOL    HW132474   0.846   0.876  12.655  0.0352  0.7702 -0.1052
 6946SOL    HW232475   0.730   0.915  12.575 -1.6363 -1.7104  0.9031
 6947SOL     OW32476   3.199   0.741   6.433  0.5781  0.2681  0.0548
 6947SOL    HW132477   3.283   0.758   6.391  1.1870  1.1542  1.6077
 6947SOL    HW232478   3.162   0.829   6.436 -1.3603 -0.5577  0.5153
 6948SOL     OW32479   2.963   1.075   8.705 -0.1144 -0.4327 -0.2396
 6948SOL    HW132480   3.006   1.149   8.748 -0.0014 -0.8296  0.3327
 6948SOL    HW232481   2.975   1.096   8.612 -0.2308 -0.2772 -0.2197
 6949SOL     OW32482   0.525   0.582   7.234 -0.0812  0.7328  0.0199
 6949SOL    HW132483   0.456   0.645   7.214  0.6174  1.6323  0.4277
 6949SOL    HW232484   0.590   0.597   7.166  0.4797 -1.2437  0.1302
 6950SOL     OW32485   3.034   2.944   3.169 -0.3812  0.1201 -0.1698
 6950SOL    HW132486   2.970   2.878   3.196 -0.4280 -0.3615 -1.4327
 6950SOL    HW232487   2.996   2.991   3.095  0.1282 -1.7533 -1.6303
 6951SOL     OW32488   0.573   4.262  17.379  0.1226 -0.1103 -0.2152
 6951SOL    HW132489   0.562   4.296  17.291  0.5626  3.1616  1.0142
 6951SOL    HW232490   0.615   4.177  17.360 -3.0437 -1.1788 -2.3256
 6952SOL     OW32491   1.783   4.564   7.194 -0.0406 -0.0175  0.3711
 6952SOL    HW132492   1.731   4.561   7.274 -1.0991  0.1528 -0.3044
 6952SOL    HW232493   1.872   4.570   7.228  0.1830  1.9269 -0.5364
 6953SOL     OW32494   0.982   2.221   4.762 -0.1494 -0.0238 -0.5319
 6953SOL    HW132495   1.057   2.237   4.819 -1.0601  0.6369  0.4925
 6953SOL    HW232496   0.994   2.140   4.712 -1.0737  0.1444 -1.0281
 6954SOL     OW32497   3.271   2.772   6.151 -0.2158  0.4206  0.0032
 6954SOL    HW132498   3.334   2.715   6.108 -0.1734  1.2209 -0.9727
 6954SOL    HW232499   3.221   2.717   6.212  0.1686  0.8576  0.7184
 6955SOL     OW32500   2.528   2.402  13.136 -0.7787 -0.4225  0.6675
 6955SOL    HW132501   2.524   2.417  13.231 -3.1560 -0.7970  0.6293
 6955SOL    HW232502   2.500   2.485  13.097  2.4738  0.3762  0.0364
 6956SOL     OW32503   0.876   0.141   3.926 -0.1576 -0.0441 -0.6434
 6956SOL    HW132504   0.962   0.107   3.902 -0.3551 -2.2106  1.6454
 6956SOL    HW232505   0.884   0.225   3.883  1.5040 -0.6259 -1.4645
 6957SOL     OW32506   1.119   3.057   4.696 -0.4121  0.6712  0.5199
 6957SOL    HW132507   1.196   3.083   4.645  1.6560  0.9025  3.7742
 6957SOL    HW232508   1.054   3.098   4.638 -1.8062 -1.1398  0.8262
 6958SOL     OW32509   2.668   3.365   8.143 -0.2369  0.5036  0.4441
 6958SOL    HW132510   2.746   3.354   8.088 -0.6027 -1.5206  0.3450
 6958SOL    HW232511   2.618   3.422   8.083 -1.2475 -2.0685 -1.1334
 6959SOL     OW32512   0.099   1.970   5.420 -0.1228 -0.0050 -0.1735
 6959SOL    HW132513   0.052   1.939   5.498 -0.7304  1.9627  0.2619
 6959SOL    HW232514   0.029   1.960   5.355  0.6988 -5.6519 -0.2026
 6960SOL     OW32515   2.480   4.347   3.478  0.7064  0.5909 -0.4784
 6960SOL    HW132516   2.561   4.306   3.507 -0.0952 -0.1370  0.7293
 6960SOL    HW232517   2.490   4.441   3.492  1.7595  0.2869  0.7319
 6961SOL     OW32518   0.542   3.615   4.303 -0.5263  0.0729  0.2848
 6961SOL    HW132519   0.502   3.607   4.389  2.4325 -1.8267  1.4833
 6961SOL    HW232520   0.621   3.665   4.324 -0.0889 -0.6235  0.3280
 6962SOL     OW32521   1.082   1.723   5.675  0.0912 -0.1838 -0.1849
 6962SOL    HW132522   0.999   1.767   5.696  1.8493  3.1883 -0.3119
 6962SOL    HW232523   1.065   1.699   5.583  0.9693  0.5310 -0.5313
 6963SOL     OW32524   2.282   0.308   6.092 -0.1924 -0.5980 -0.2807
 6963SOL    HW132525   2.258   0.398   6.117 -1.6402 -0.7974 -0.9831
 6963SOL    HW232526   2.207   0.288   6.037  0.8090 -3.9916 -0.4062
 6964SOL     OW32527   1.329   0.092   1.184  0.3770  0.0675  0.1642
 6964SOL    HW132528   1.408   0.131   1.147  1.6655 -0.6024  2.2289
 6964SOL    HW232529   1.321   0.039   1.104 -1.3715  3.7273 -2.0499
 6965SOL     OW32530   1.641   1.530   5.897 -0.1046 -0.7901 -0.1831
 6965SOL    HW132531   1.569   1.566   5.948 -0.3603 -0.9377 -0.4363
 6965SOL    HW232532   1.701   1.601   5.919 -0.9364  0.4005 -1.7077
 6966SOL     OW32533   4.710   4.439   0.311  0.1267  0.0705 -0.3201
 6966SOL    HW132534   4.633   4.490   0.335  0.4998  0.1354  0.7552
 6966SOL    HW232535   0.040   4.509   0.304  1.8063 -1.7409 -2.9460
 6967SOL     OW32536   2.146   3.745  11.707  0.3177 -0.5001  0.9364
 6967SOL    HW132537   2.063   3.697  11.711 -0.0564  0.2054  1.7444
 6967SOL    HW232538   2.189   3.699  11.779  0.1494 -0.4133  1.0932
 6968SOL     OW32539   1.680   1.453   2.661  0.1449  0.1653  0.0383
 6968SOL    HW132540   1.718   1.366   2.671 -1.5790 -0.3388  2.1663
 6968SOL    HW232541   1.598   1.437   2.707 -1.8676  2.5438 -2.7204
 6969SOL     OW32542   2.452   0.536   6.268 -0.2197  0.3738  0.1178
 6969SOL    HW132543   2.359   0.538   6.245 -0.6600 -2.0076  1.7288
 6969SOL    HW232544   2.460   0.630   6.285 -1.2364  0.8840 -2.1389
 6970SOL     OW32545   2.781   1.517   1.599 -0.1775  0.3177  0.0133
 6970SOL    HW132546   2.816   1.457   1.665 -1.7025 -1.1642 -0.5230
 6970SOL    HW232547   2.796   1.605   1.633  0.8279  0.3265 -0.4628
 6971SOL     OW32548   2.546   0.946  17.450 -0.2130  0.3742  0.1138
 6971SOL    HW132549   2.548   1.028  17.402  0.0478 -1.9424 -3.7803
 6971SOL    HW232550   2.596   0.893  17.388  1.7360  0.5512  1.5145
 6972SOL     OW32551   3.573   3.079   1.695 -0.3359  0.1665  0.4646
 6972SOL    HW132552   3.650   3.033   1.664  0.2170  0.4487  1.4291
 6972SOL    HW232553   3.503   3.030   1.652  0.0732  1.3386 -1.5507
 6973SOL     OW32554   0.453   4.702   6.581 -0.5300 -0.2492  0.7702
 6973SOL    HW132555   0.544   4.671   6.580  0.5662  2.9633  0.0892
 6973SOL    HW232556   0.462   0.037   6.516  1.3474 -1.2307 -0.0389
 6974SOL     OW32557   1.470   4.250  12.472  0.4596 -0.2583 -0.2048
 6974SOL    HW132558   1.504   4.222  12.556  1.4356 -0.5781 -0.7058
 6974SOL    HW232559   1.549   4.279  12.426  0.5929 -0.2574  0.0284
 6975SOL     OW32560   2.110   0.408   4.495  0.0057 -0.5254 -0.2514
 6975SOL    HW132561   2.052   0.484   4.490 -2.5547 -2.4868  0.1107
 6975SOL    HW232562   2.182   0.425   4.434 -0.6722  0.1801 -0.8609
 6976SOL     OW32563   1.771   3.886   3.631  0.2692  0.4895  0.0395
 6976SOL    HW132564   1.813   3.937   3.561  2.7823 -1.1022  0.3978
 6976SOL    HW232565   1.833   3.813   3.634  1.6590  1.6346 -0.4598
 6977SOL     OW32566   3.580   3.020  10.169  0.1691  0.6850  0.0621
 6977SOL    HW132567   3.581   2.978  10.083 -1.5911  2.4360 -0.7952
 6977SOL    HW232568   3.509   2.982  10.221  0.5701 -2.5943 -1.7889
 6978SOL     OW32569   2.113   1.845   2.597 -0.1813  0.6287 -0.0470
 6978SOL    HW132570   2.096   1.797   2.678  2.3426  0.1510  0.1873
 6978SOL    HW232571   2.172   1.789   2.547 -1.3884 -1.7066  1.1208
 6979SOL     OW32572   4.246   1.692   4.909  0.1975  0.3051  0.5050
 6979SOL    HW132573   4.180   1.691   4.840  0.6554  0.9648  0.0642
 6979SOL    HW232574   4.217   1.773   4.952 -1.0452  0.4009 -0.5220
 6980SOL     OW32575   4.450   0.960   7.475 -0.1682 -0.0141  0.0219
 6980SOL    HW132576   4.449   0.957   7.379  1.0546 -0.0644  0.0024
 6980SOL    HW232577   4.387   0.889   7.481  1.1756 -1.0332  2.2618
 6981SOL     OW32578   1.827   1.919   5.764 -0.4881  0.2377 -0.4645
 6981SOL    HW132579   1.738   1.910   5.729  0.2693 -4.1441 -1.2182
 6981SOL    HW232580   1.864   1.831   5.765  0.2636  0.5339 -2.1849
 6982SOL     OW32581   2.685   2.941   8.490  0.2394  0.0684 -0.8804
 6982SOL    HW132582   2.598   2.963   8.522 -0.2477 -0.2480 -1.9767
 6982SOL    HW232583   2.717   2.882   8.559  0.0300 -0.8181 -1.5383
 6983SOL     OW32584   1.323   0.765   3.965 -0.5679  0.0067 -0.0641
 6983SOL    HW132585   1.258   0.785   3.897  0.4617  1.5296 -0.5954
 6983SOL    HW232586   1.324   0.845   4.017 -0.1531 -0.0285 -0.0184
 6984SOL     OW32587   1.138   3.742   8.155 -0.2308 -0.2885 -0.2507
 6984SOL    HW132588   1.192   3.791   8.217 -0.6410 -1.2242  0.8469
 6984SOL    HW232589   1.168   3.786   8.075  0.2940 -0.2049 -0.0109
 6985SOL     OW32590   0.352   1.764   8.046  0.9830  0.4542 -0.2000
 6985SOL    HW132591   0.376   1.683   8.090  2.1331 -0.4485 -2.4759
 6985SOL    HW232592   0.281   1.737   7.987  2.6192  1.8995 -2.8575
 6986SOL     OW32593   2.193   0.477   2.060 -0.0163 -0.1237 -0.1441
 6986SOL    HW132594   2.135   0.548   2.032 -0.5709  0.5397  2.6149
 6986SOL    HW232595   2.242   0.526   2.127  1.8537  0.1682 -1.7434
 6987SOL     OW32596   0.946   1.338   2.243  0.0160 -0.6990 -0.1845
 6987SOL    HW132597   1.020   1.315   2.300 -2.3586 -0.8272  2.8931
 6987SOL    HW232598   0.986   1.340   2.157 -0.5541 -0.8157 -0.4506
 6988SOL     OW32599   2.953   2.977   9.655 -0.0264  0.2987  0.4222
 6988SOL    HW132600   2.949   3.036   9.730 -1.0057 -0.8144  1.2451
 6988SOL    HW232601   2.880   3.002   9.598  0.3099 -1.0840 -0.6079
 6989SOL     OW32602   0.941   1.291   6.020  0.1036  0.6076 -0.2931
 6989SOL    HW132603   0.879   1.252   6.081 -0.3815 -0.0905 -1.2188
 6989SOL    HW232604   0.892   1.363   5.981  0.0093  0.0053 -1.2922
 6990SOL     OW32605   1.844   3.740   3.935  0.3764 -0.4258  0.0653
 6990SOL    HW132606   1.801   3.711   4.015 -0.8725  1.5934  0.1336
 6990SOL    HW232607   1.922   3.766   3.985  0.4869  0.3892 -0.5184
 6991SOL     OW32608   4.422   1.028   5.504  0.0708  0.2978  0.6272
 6991SOL    HW132609   4.516   1.013   5.513  0.1783  2.6638  3.2366
 6991SOL    HW232610   4.411   0.993   5.415  0.7141  1.3185  0.1516
 6992SOL     OW32611   1.711   0.207  16.848  0.6102  0.3160 -0.5895
 6992SOL    HW132612   1.653   0.204  16.924  0.3064  0.1941 -0.8251
 6992SOL    HW232613   1.769   0.133  16.868 -0.0835  0.4001  1.8053
 6993SOL     OW32614   1.678   0.662   8.872  0.1186 -0.3122 -0.2042
 6993SOL    HW132615   1.748   0.615   8.917  0.5712 -0.7692 -1.3624
 6993SOL    HW232616   1.718   0.683   8.787  0.4273 -2.8768 -0.6957
 6994SOL     OW32617   2.198   4.168   6.872  0.3872 -0.3334  0.1636
 6994SOL    HW132618   2.193   4.255   6.832 -2.6361 -0.2783  0.6781
 6994SOL    HW232619   2.152   4.177   6.955  2.1259 -2.1167  1.3294
 6995SOL     OW32620   4.094   1.409   1.536 -0.0792  0.4121 -0.2289
 6995SOL    HW132621   4.121   1.321   1.511 -0.5158  0.8584 -2.2597
 6995SOL    HW232622   4.078   1.459   1.456  1.4921  0.1988 -0.6760
 6996SOL     OW32623   2.869   2.928  17.400 -0.0540  0.4827  0.2505
 6996SOL    HW132624   2.823   3.004  17.435 -1.0415  0.0226 -0.0594
 6996SOL    HW232625   2.814   2.864  17.445 -0.0274  0.6109  0.4646
 6997SOL     OW32626   1.142   4.490   9.125  0.2534  0.3985 -0.1542
 6997SOL    HW132627   1.127   4.480   9.219 -0.4300 -1.3876 -0.4521
 6997SOL    HW232628   1.163   4.583   9.114  0.2281  0.4857  0.5341
 6998SOL     OW32629   3.603   2.818   4.138 -0.1535  0.8860 -0.0429
 6998SOL    HW132630   3.545   2.748   4.109 -0.2731  0.9232  0.1051
 6998SOL    HW232631   3.544   2.894   4.141  0.0432  1.1064 -1.9397
 6999SOL     OW32632   2.542   1.135   1.643 -0.5921 -0.0638 -0.4527
 6999SOL    HW132633   2.623   1.106   1.684 -0.8654 -2.3404 -1.5668
 6999SOL    HW232634   2.535   1.228   1.664 -0.0383  0.0074 -0.5906
 7000SOL     OW32635   3.956   3.863   9.240  0.0589  0.2860  0.8812
 7000SOL    HW132636   3.983   3.823   9.158  0.1017 -0.5575  1.3011
 7000SOL    HW232637   4.034   3.866   9.295  0.0968 -0.8207  0.9036
 7001SOL     OW32638   4.042   2.412  10.482  0.1146  0.3453  0.1403
 7001SOL    HW132639   3.984   2.363  10.424 -1.0107  1.7668  0.0640
 7001SOL    HW232640   4.123   2.416  10.432  1.0308  1.5793  1.7481
 7002SOL     OW32641   1.729   3.650   9.889 -1.0067  0.3256  0.3458
 7002SOL    HW132642   1.674   3.620   9.962 -1.3520 -0.4120 -0.2115
 7002SOL    HW232643   1.756   3.561   9.867  0.1566  1.0731 -1.2298
 7003SOL     OW32644   2.463   0.274   5.751  0.1605  0.0329  0.9645
 7003SOL    HW132645   2.381   0.277   5.801  0.0604  0.8103  0.7587
 7003SOL    HW232646   2.491   0.365   5.757  0.5416 -0.1590  2.1110
 7004SOL     OW32647   4.374   4.296   9.413 -0.2994  0.1871  0.1364
 7004SOL    HW132648   4.298   4.306   9.471  0.6092  0.5929  1.2553
 7004SOL    HW232649   4.338   4.349   9.341 -0.5636  0.0233  0.1465
 7005SOL     OW32650   2.256   2.118   3.279  0.5138 -0.2522  0.0832
 7005SOL    HW132651   2.209   2.184   3.230  1.6210  0.5509  0.1029
 7005SOL    HW232652   2.342   2.160   3.284 -0.2627  1.0383  2.9253
 7006SOL     OW32653   2.158   1.801  16.829 -0.3341 -0.2016 -0.1482
 7006SOL    HW132654   2.196   1.733  16.774  0.9599 -0.7164  1.3807
 7006SOL    HW232655   2.105   1.849  16.766 -2.9652 -0.7849  1.5757
 7007SOL     OW32656   4.457   2.992   8.352 -0.4079  0.6006  0.4029
 7007SOL    HW132657   4.445   2.905   8.313 -1.1627  2.6382 -3.8754
 7007SOL    HW232658   4.454   3.048   8.275  0.8327 -0.7523 -0.6297
 7008SOL     OW32659   1.423   2.202   9.571 -0.0297  0.0383  0.0445
 7008SOL    HW132660   1.393   2.121   9.530  1.7739 -0.8363  0.4368
 7008SOL    HW232661   1.368   2.215   9.648 -1.3057  0.0128 -0.8679
 7009SOL     OW32662   1.508   1.385   6.302  0.1388 -0.0004 -0.0874
 7009SOL    HW132663   1.464   1.425   6.377  2.3193 -1.1468  1.7766
 7009SOL    HW232664   1.597   1.402   6.333  0.6945 -1.5618 -0.8467
 7010SOL     OW32665   0.977   3.894   9.201 -0.0620 -0.4039  0.8525
 7010SOL    HW132666   0.969   3.881   9.107  0.5196 -0.2414  0.7786
 7010SOL    HW232667   0.902   3.843   9.232 -0.5142 -0.5072 -0.4243
 7011SOL     OW32668   0.109   1.278   3.506  0.3015 -0.2815 -0.6540
 7011SOL    HW132669   0.160   1.297   3.427  1.7262  0.0071  0.3170
 7011SOL    HW232670   0.050   1.353   3.505 -1.2755 -1.5217  0.2168
 7012SOL     OW32671   4.720   2.243   4.902 -0.0130 -0.0588 -0.2620
 7012SOL    HW132672   0.042   2.223   4.827  0.0277  1.8971 -0.7630
 7012SOL    HW232673   0.054   2.257   4.967 -1.3384  0.8235  0.9348
 7013SOL     OW32674   1.895   2.879   1.182 -0.5406 -0.0470  0.1297
 7013SOL    HW132675   1.818   2.822   1.188  0.2059 -1.0501  0.0809
 7013SOL    HW232676   1.964   2.818   1.157 -1.7663 -0.8731 -1.2783
 7014SOL     OW32677   1.924   2.694   9.893 -0.4760  0.0020 -0.0443
 7014SOL    HW132678   1.888   2.672   9.979  0.9811 -0.5163  0.4237
 7014SOL    HW232679   2.014   2.707   9.921  0.1220 -0.9835 -1.5415
 7015SOL     OW32680   4.642   2.999   2.969  0.4320  0.3044  0.1875
 7015SOL    HW132681   4.570   3.047   2.930  1.3259 -1.0583 -3.1111
 7015SOL    HW232682   4.665   3.048   3.048  0.3880  1.5000 -0.5483
 7016SOL     OW32683   3.281   1.450  16.036 -0.3135  0.1470 -0.6813
 7016SOL    HW132684   3.204   1.459  16.092 -0.0398 -1.6293 -0.0203
 7016SOL    HW232685   3.239   1.397  15.968 -1.3371 -0.0910  0.1451
 7017SOL     OW32686   0.275   0.756  10.435 -0.2472  0.0799 -0.5425
 7017SOL    HW132687   0.216   0.686  10.407 -0.5107 -0.3757  1.2071
 7017SOL    HW232688   0.360   0.723  10.403 -0.0518 -1.0237  1.1226
 7018SOL     OW32689   0.753   3.974   7.877 -0.4747  0.5593 -0.5672
 7018SOL    HW132690   0.808   4.052   7.868  1.0659 -0.6989 -1.8688
 7018SOL    HW232691   0.666   4.011   7.891 -0.3548  0.0481  1.4827
 7019SOL     OW32692   0.103   0.007   9.332  0.3194  0.8420 -0.4354
 7019SOL    HW132693   0.045   4.678   9.372  2.8502 -1.5832 -0.7115
 7019SOL    HW232694   0.179   4.732   9.391 -1.0710  1.7216  1.5360
 7020SOL     OW32695   3.642   0.142   4.474 -0.0785  0.4916 -0.5284
 7020SOL    HW132696   3.703   0.127   4.547 -2.0468  1.9035  1.3716
 7020SOL    HW232697   3.676   0.221   4.432 -0.5342  1.3170  0.6640
 7021SOL     OW32698   2.796   0.470   7.430 -0.1576  0.0082 -0.6343
 7021SOL    HW132699   2.878   0.460   7.477 -1.1845 -1.0923  0.9159
 7021SOL    HW232700   2.814   0.524   7.353  0.5588 -1.6298 -1.6158
 7022SOL     OW32701   1.613   1.597   1.820  0.1229  0.5250  0.2300
 7022SOL    HW132702   1.678   1.627   1.883  1.9200 -0.5574 -1.1273
 7022SOL    HW232703   1.620   1.671   1.761 -1.4711  0.0473 -0.5587
 7023SOL     OW32704   3.792   4.218   5.938 -0.5521 -0.0712 -0.0143
 7023SOL    HW132705   3.784   4.303   5.894  0.1396  0.2029  0.3811
 7023SOL    HW232706   3.783   4.234   6.032 -2.2535 -0.8147 -0.0543
 7024SOL     OW32707   0.402   0.874   0.709  0.5078 -0.2813  0.2188
 7024SOL    HW132708   0.382   0.795   0.661 -3.0031  1.4306 -1.1118
 7024SOL    HW232709   0.351   0.862   0.789 -0.8657 -0.8538 -0.7577
 7025SOL     OW32710   1.247   3.309  15.101 -0.1484 -0.3742  0.2607
 7025SOL    HW132711   1.194   3.309  15.022 -0.1238 -0.9480  0.2448
 7025SOL    HW232712   1.299   3.389  15.088 -2.0261  0.6628 -0.7623
 7026SOL     OW32713   1.584   4.080   1.308 -0.0397  0.4543  0.0352
 7026SOL    HW132714   1.661   4.135   1.321  1.2571 -1.4911  0.4461
 7026SOL    HW232715   1.529   4.125   1.372  0.0661  0.3631  0.1888
 7027SOL     OW32716   1.097   3.923  17.450  0.5358  0.1660 -0.3242
 7027SOL    HW132717   1.020   3.968  17.483  0.4560  0.1369 -0.4710
 7027SOL    HW232718   1.109   3.855  17.517  1.4957  0.6168 -0.0285
 7028SOL     OW32719   3.245   4.643   5.464  0.4451 -0.4101 -0.3457
 7028SOL    HW132720   3.249   4.655   5.559  0.7935 -1.0419 -0.2765
 7028SOL    HW232721   3.341   4.634   5.460  0.4623 -1.1041  1.5932
 7029SOL     OW32722   2.124   2.409   4.827  0.0159 -0.2446 -0.4731
 7029SOL    HW132723   2.076   2.492   4.825  3.4239  1.6766 -0.8413
 7029SOL    HW232724   2.098   2.371   4.911  2.0466 -1.4424 -0.4137
 7030SOL     OW32725   1.578   4.037  16.964  0.0799  0.1763 -0.2596
 7030SOL    HW132726   1.588   4.091  16.886 -1.2621  0.0592 -0.5133
 7030SOL    HW232727   1.560   3.949  16.930 -0.3871  1.1787 -2.5894
 7031SOL     OW32728   2.458   4.021   5.914 -0.0930 -0.1817  0.3186
 7031SOL    HW132729   2.373   4.001   5.874  1.1498 -1.6694 -1.5777
 7031SOL    HW232730   2.498   4.081   5.851  0.0612 -0.7159 -0.0965
 7032SOL     OW32731   2.229   0.561   7.525 -0.5138 -0.2146  0.0468
 7032SOL    HW132732   2.302   0.503   7.504  1.1052  1.5281  0.8100
 7032SOL    HW232733   2.201   0.586   7.437  2.3841  0.8545 -0.5962
 7033SOL     OW32734   4.680   0.014   5.005  0.3605  0.2196 -0.5881
 7033SOL    HW132735   0.036   0.022   5.034  0.1131 -0.9563  0.5513
 7033SOL    HW232736   4.664   0.096   4.960 -1.5121 -0.2000 -0.6873
 7034SOL     OW32737   0.951   1.353   1.203  0.3918  0.6887  0.0364
 7034SOL    HW132738   0.960   1.349   1.298 -0.5065 -2.5448 -0.0173
 7034SOL    HW232739   1.015   1.287   1.173  0.5372  1.6387 -1.7669
 7035SOL     OW32740   3.463   0.666  15.307  0.1121 -0.3195 -0.1147
 7035SOL    HW132741   3.514   0.605  15.253 -0.4343 -0.9450  0.0745
 7035SOL    HW232742   3.520   0.742  15.315  0.4740 -0.4644 -1.2746
 7036SOL     OW32743   1.155   0.118   4.990  0.2036  0.7057  0.6387
 7036SOL    HW132744   1.130   0.029   5.016 -0.3709  0.3790 -1.0319
 7036SOL    HW232745   1.083   0.137   4.931  0.0232 -1.4024  0.1904
 7037SOL     OW32746   1.679   1.277   9.240  0.1449  0.7213  0.6686
 7037SOL    HW132747   1.664   1.185   9.218  0.3257  0.9932 -0.5843
 7037SOL    HW232748   1.767   1.281   9.278  1.8193  3.0348 -3.4214
 7038SOL     OW32749   4.133   4.248  14.376 -0.6653 -0.1943  0.0676
 7038SOL    HW132750   4.053   4.209  14.412  0.6768 -0.2324  3.0094
 7038SOL    HW232751   4.098   4.300  14.304  1.1473  0.3586 -0.4059
 7039SOL     OW32752   3.596   1.309   5.292 -0.0301 -0.0212 -0.2124
 7039SOL    HW132753   3.681   1.279   5.259 -0.2682  0.1348 -0.9688
 7039SOL    HW232754   3.555   1.227   5.320  1.1776 -0.5290  0.0926
 7040SOL     OW32755   0.277   0.037   4.561 -0.2450  0.1614 -0.5426
 7040SOL    HW132756   0.307   0.042   4.471  2.1247  1.3264  0.3144
 7040SOL    HW232757   0.272   0.131   4.582  1.6115  0.2432 -0.5298
 7041SOL     OW32758   0.322   0.649  12.526  0.2133  0.1815 -0.0151
 7041SOL    HW132759   0.347   0.718  12.589  0.7202 -0.1825  0.1838
 7041SOL    HW232760   0.398   0.591  12.524  0.0940  0.0496 -0.6193
 7042SOL     OW32761   3.346   4.012  11.121 -0.2194 -0.4937 -0.3057
 7042SOL    HW132762   3.317   4.061  11.198  2.6472 -1.2149  1.2399
 7042SOL    HW232763   3.281   3.942  11.113  0.2083 -0.6651 -2.2964
 7043SOL     OW32764   4.588   3.345   4.430 -0.3748  0.2985 -0.5529
 7043SOL    HW132765   4.539   3.416   4.390  1.7145  1.9015 -0.2417
 7043SOL    HW232766   4.663   3.338   4.371  2.1574  0.5867  2.6307
 7044SOL     OW32767   4.611   3.533   4.041 -0.2002 -0.6132 -0.7513
 7044SOL    HW132768   4.588   3.474   3.969  2.6352 -1.3144 -1.0444
 7044SOL    HW232769   4.622   3.612   3.988 -0.6623  1.1122  1.7099
 7045SOL     OW32770   0.790   3.346   6.805 -0.2123  0.1594  0.2593
 7045SOL    HW132771   0.782   3.439   6.786 -0.3644 -0.5987 -3.4060
 7045SOL    HW232772   0.712   3.314   6.760  0.3727  1.1919 -1.4883
 7046SOL     OW32773   1.357   3.661   6.261 -0.3720  0.1501  0.4088
 7046SOL    HW132774   1.357   3.712   6.180 -1.6348 -1.6450 -0.7102
 7046SOL    HW232775   1.421   3.592   6.247 -0.3429  0.6293 -1.8366
 7047SOL     OW32776   1.988   0.758   5.376  0.1789 -0.0047 -0.0092
 7047SOL    HW132777   2.018   0.849   5.378 -0.0517  0.0934 -1.2691
 7047SOL    HW232778   1.922   0.764   5.307  0.5789  2.3962 -0.1901
 7048SOL     OW32779   1.759   1.521   4.934 -0.1412 -0.0604 -0.5232
 7048SOL    HW132780   1.668   1.533   4.963 -1.3992 -1.6538 -3.7404
 7048SOL    HW232781   1.780   1.440   4.981 -0.5429 -0.0676 -0.3528
 7049SOL     OW32782   2.232   3.133   1.713 -0.3433  0.5261  0.2134
 7049SOL    HW132783   2.252   3.042   1.691  2.0103  1.0085  0.3093
 7049SOL    HW232784   2.310   3.179   1.682 -0.0409 -0.6009 -0.7123
 7050SOL     OW32785   2.426   4.411   2.325  0.3977 -0.3288  0.1982
 7050SOL    HW132786   2.486   4.353   2.278  2.8387  1.3073  1.3291
 7050SOL    HW232787   2.391   4.461   2.251  0.4966  1.2646  1.2259
 7051SOL     OW32788   2.025   1.039   1.985 -0.0244  0.3728  0.3616
 7051SOL    HW132789   1.986   0.961   1.945  1.4949 -0.4879  0.5601
 7051SOL    HW232790   1.992   1.108   1.928 -0.9701  1.0894  1.7840
 7052SOL     OW32791   3.055   0.369   2.576 -0.6519 -0.4419 -0.0368
 7052SOL    HW132792   3.002   0.428   2.629 -1.5899  1.1579 -2.7228
 7052SOL    HW232793   3.120   0.339   2.639  1.4711 -0.8136 -2.3986
 7053SOL     OW32794   3.946   3.000  11.970 -0.2012  0.6059  0.3015
 7053SOL    HW132795   4.004   3.057  12.020  2.3363 -1.0748 -0.7532
 7053SOL    HW232796   3.915   3.062  11.903  0.2150 -1.4470 -1.7820
 7054SOL     OW32797   0.671   3.120   0.229 -0.3162  0.1025  0.0868
 7054SOL    HW132798   0.678   3.034   0.270  1.1246 -0.6749 -1.7829
 7054SOL    HW232799   0.616   3.161   0.296  0.5305  1.7613 -0.2132
 7055SOL     OW32800   2.198   1.939   5.182  0.1671 -0.6804  0.3587
 7055SOL    HW132801   2.211   1.863   5.238  0.5251 -0.7867  0.1321
 7055SOL    HW232802   2.248   2.001   5.235 -0.8331 -0.1766  0.7216
 7056SOL     OW32803   3.465   2.330   7.059  0.2085  0.1248  0.4972
 7056SOL    HW132804   3.472   2.421   7.030  4.4889  0.0166  1.2554
 7056SOL    HW232805   3.435   2.336   7.149  0.3070  0.3400  0.5157
 7057SOL     OW32806   4.626   1.419   3.063 -0.1485  0.2485  0.0162
 7057SOL    HW132807   4.598   1.425   2.972  0.6768  3.0028 -0.0589
 7057SOL    HW232808   4.694   1.487   3.066  0.2399 -0.0235 -3.2884
 7058SOL     OW32809   0.349   2.267   6.144 -0.3305  0.1599  0.2579
 7058SOL    HW132810   0.350   2.360   6.168  1.1440  0.5668 -1.4118
 7058SOL    HW232811   0.392   2.258   6.059 -0.6655  1.4128 -0.0396
 7059SOL     OW32812   3.316   3.844   7.503 -0.0818 -0.3269 -0.2204
 7059SOL    HW132813   3.371   3.788   7.558  3.3583  2.3682 -0.9162
 7059SOL    HW232814   3.335   3.934   7.530 -0.2077 -0.0938 -0.9093
 7060SOL     OW32815   0.461   0.901   4.524 -0.0334  0.3380 -0.4732
 7060SOL    HW132816   0.511   0.831   4.481  0.1890 -0.8812  1.7841
 7060SOL    HW232817   0.525   0.968   4.548 -0.0639 -0.1653  0.9916
 7061SOL     OW32818   4.348   0.516  16.529  0.5305  0.1118 -0.6299
 7061SOL    HW132819   4.304   0.585  16.579  0.7274 -0.1515 -0.0917
 7061SOL    HW232820   4.430   0.522  16.578  0.4071  0.2463 -0.4415
 7062SOL     OW32821   2.923   3.849   8.903 -0.6575 -0.2990 -0.3526
 7062SOL    HW132822   2.831   3.870   8.886 -0.2966  2.6964  1.3100
 7062SOL    HW232823   2.975   3.916   8.860 -1.2846 -0.4656 -1.3731
 7063SOL     OW32824   0.554   1.323   6.000 -0.0799  0.5466 -0.4699
 7063SOL    HW132825   0.609   1.353   5.928 -1.8513  0.3362 -1.8965
 7063SOL    HW232826   0.619   1.265   6.041  0.6614  0.8415 -1.2291
 7064SOL     OW32827   3.618   4.468  11.881  0.0020 -0.4085 -0.0274
 7064SOL    HW132828   3.708   4.447  11.857 -0.3352 -0.6899 -1.0668
 7064SOL    HW232829   3.624   4.549  11.932  3.3486 -1.8717  1.8841
 7065SOL     OW32830   1.070   1.033   8.844 -0.1694 -0.0482  0.2980
 7065SOL    HW132831   1.104   1.031   8.933  0.5532  2.6554  0.0818
 7065SOL    HW232832   0.982   1.070   8.847 -0.8837 -1.5154 -2.0268
 7066SOL     OW32833   0.495   3.477   8.669  0.1677  0.0844  0.1760
 7066SOL    HW132834   0.409   3.487   8.630  0.0365 -0.5966  0.2812
 7066SOL    HW232835   0.502   3.383   8.688 -0.8448  0.4538  2.4287
 7067SOL     OW32836   4.455   0.291   2.870 -0.6138 -0.2545  0.0224
 7067SOL    HW132837   4.382   0.300   2.809 -0.7358 -1.6221 -0.0370
 7067SOL    HW232838   4.428   0.349   2.941  0.4108 -0.7226  0.8071
 7068SOL     OW32839   1.359   3.349   7.818 -0.3203  0.3858 -0.2138
 7068SOL    HW132840   1.302   3.417   7.854 -1.0802 -0.9311  1.0427
 7068SOL    HW232841   1.299   3.289   7.774 -0.0113 -0.2073  0.1795
 7069SOL     OW32842   1.208   3.751   4.819  0.6372 -0.0344 -0.7188
 7069SOL    HW132843   1.177   3.805   4.746  2.4625  4.3522  1.7075
 7069SOL    HW232844   1.138   3.687   4.808  0.0377  0.5601 -0.3798
 7070SOL     OW32845   4.058   1.340   4.085  0.3857  0.5211 -0.6418
 7070SOL    HW132846   4.047   1.327   3.991 -2.0057  0.3684 -0.3363
 7070SOL    HW232847   4.115   1.265   4.106 -2.3498 -0.7218  2.2538
 7071SOL     OW32848   2.504   1.660   4.500  0.1422  0.2775 -0.1596
 7071SOL    HW132849   2.578   1.721   4.495  0.7494 -0.5361 -1.1183
 7071SOL    HW232850   2.462   1.678   4.584  0.7241 -1.4164  0.4804
 7072SOL     OW32851   4.232   0.442   3.712  0.1301 -0.0967 -0.2568
 7072SOL    HW132852   4.190   0.453   3.627 -1.7074  0.7207  0.7668
 7072SOL    HW232853   4.213   0.524   3.757  1.7367  0.7064 -1.0211
 7073SOL     OW32854   4.638   0.054   5.364 -0.6119  0.2136 -0.3870
 7073SOL    HW132855   4.725   0.014   5.367 -0.4707  0.3200 -2.6569
 7073SOL    HW232856   4.668   0.144   5.354  2.0037 -0.8597 -2.2978
 7074SOL     OW32857   1.209   1.974   5.800 -0.1609 -0.2678  0.0744
 7074SOL    HW132858   1.241   1.897   5.848  2.7454  0.6891 -0.3068
 7074SOL    HW232859   1.201   1.937   5.712 -0.8824  0.3675 -0.1262
 7075SOL     OW32860   1.038   2.046  15.235  0.5122 -0.0289  0.2455
 7075SOL    HW132861   0.990   1.964  15.244 -0.4831  0.2917 -2.0874
 7075SOL    HW232862   1.125   2.017  15.262  0.1151  1.2842  2.9295
 7076SOL     OW32863   2.253   4.625   4.966 -0.8085 -0.8488 -0.0404
 7076SOL    HW132864   2.280   4.583   5.048  0.7567  0.2095 -0.0034
 7076SOL    HW232865   2.268   4.550   4.908 -1.9710 -0.6524 -0.5974
 7077SOL     OW32866   0.491   1.407   9.878 -0.1116  0.5782  0.0523
 7077SOL    HW132867   0.532   1.343   9.936  0.5099 -1.2231 -2.3731
 7077SOL    HW232868   0.409   1.424   9.924 -0.0130 -0.8997  0.7581
 7078SOL     OW32869   1.411   3.369   6.482 -0.0278  0.3330  0.6508
 7078SOL    HW132870   1.429   3.431   6.553 -0.0471 -1.2506  2.0375
 7078SOL    HW232871   1.336   3.327   6.524 -0.5203  0.7940  0.2315
 7079SOL     OW32872   3.644   1.014  13.179  0.0642  0.8246 -0.0212
 7079SOL    HW132873   3.676   0.930  13.210 -1.0462  0.2436 -0.4249
 7079SOL    HW232874   3.555   1.013  13.214 -0.7686  0.1409 -2.1666
 7080SOL     OW32875   0.703   2.213   2.392 -0.3018 -0.0624 -0.4053
 7080SOL    HW132876   0.641   2.145   2.366 -1.2396  0.7311 -0.2189
 7080SOL    HW232877   0.734   2.164   2.469  2.1091 -0.5993 -1.7179
 7081SOL     OW32878   3.456   1.694   5.224 -0.4023  0.5547 -0.0068
 7081SOL    HW132879   3.407   1.714   5.304  2.9427 -4.2672  3.2975
 7081SOL    HW232880   3.393   1.639   5.179 -0.7338  0.6139  0.3862
 7082SOL     OW32881   3.434   2.109   6.380  0.0158  0.0241  0.2147
 7082SOL    HW132882   3.343   2.081   6.377  0.0922 -0.0331 -1.6069
 7082SOL    HW232883   3.439   2.138   6.471 -2.5235  0.4408  0.2252
 7083SOL     OW32884   2.715   3.360  16.020  0.0903  0.6358  0.2055
 7083SOL    HW132885   2.668   3.291  15.974  0.6760 -0.2950  1.0012
 7083SOL    HW232886   2.685   3.439  15.975  2.5171 -0.2830 -2.9696
 7084SOL     OW32887   1.822   3.425   3.240  0.6798 -0.0323  0.1314
 7084SOL    HW132888   1.754   3.485   3.269  0.1004 -0.4451 -0.3833
 7084SOL    HW232889   1.884   3.440   3.312  1.6208  2.6984 -1.2555
 7085SOL     OW32890   0.500   0.575   9.236  0.2916 -0.0895  0.2808
 7085SOL    HW132891   0.455   0.573   9.321  2.2653 -2.1007  1.2967
 7085SOL    HW232892   0.508   0.483   9.212  0.2251 -0.2945  1.0284
 7086SOL     OW32893   4.311   1.509  17.249 -0.1800 -0.2839  0.6227
 7086SOL    HW132894   4.321   1.434  17.307  2.2616  0.8323  1.6777
 7086SOL    HW232895   4.390   1.497  17.196  0.3170 -0.0366  1.3008
 7087SOL     OW32896   4.077   1.222  10.457 -0.2148 -0.3288  0.6221
 7087SOL    HW132897   4.120   1.170  10.389  0.1008  1.1988 -0.3278
 7087SOL    HW232898   4.080   1.169  10.537  1.3672 -0.6862  0.3290
 7088SOL     OW32899   2.378   4.547   2.101  0.0288 -0.4173  0.2384
 7088SOL    HW132900   2.417   4.631   2.077 -0.2054 -0.9340 -1.9773
 7088SOL    HW232901   2.289   4.564   2.070 -0.0376  1.0875  1.2885
 7089SOL     OW32902   3.825   1.911   4.307  0.3693 -0.5738 -0.2753
 7089SOL    HW132903   3.855   1.956   4.386  0.2784 -2.2255  0.6855
 7089SOL    HW232904   3.731   1.921   4.324  0.5313 -0.2565  0.4175
 7090SOL     OW32905   1.255   3.226  17.575 -0.0525 -0.2902 -0.0330
 7090SOL    HW132906   1.165   3.253  17.592 -0.2919 -1.9274  1.2717
 7090SOL    HW232907   1.246   3.178  17.493 -0.4789 -2.0303  1.0330
 7091SOL     OW32908   4.176   4.209   8.816 -0.4977 -0.0476 -0.2670
 7091SOL    HW132909   4.191   4.138   8.754 -3.6375 -1.6068  0.7489
 7091SOL    HW232910   4.095   4.240   8.778 -0.7285  1.4776  1.4827
 7092SOL     OW32911   2.346   2.392   2.039 -0.0050 -0.6475 -0.2074
 7092SOL    HW132912   2.349   2.354   2.127  1.5227 -0.7538 -0.3126
 7092SOL    HW232913   2.293   2.320   2.004  0.0846 -0.8506  0.0718
 7093SOL     OW32914   3.447   3.124  16.296 -0.3076  0.2402  0.3676
 7093SOL    HW132915   3.508   3.073  16.349  0.5127  0.3451 -0.4806
 7093SOL    HW232916   3.417   3.053  16.239 -0.4418  0.3475  0.3058
 7094SOL     OW32917   1.555   0.533   3.380  0.4033  0.1981  0.1628
 7094SOL    HW132918   1.595   0.575   3.457  0.1726  0.9725 -0.1442
 7094SOL    HW232919   1.614   0.558   3.310 -0.0224  1.2387  0.1802
 7095SOL     OW32920   3.332   3.659   0.089 -0.3115 -0.5978 -0.0356
 7095SOL    HW132921   3.347   3.589   0.153 -0.7964 -0.7558 -0.0920
 7095SOL    HW232922   3.331   3.731   0.152 -0.5173  0.8614 -1.7016
 7096SOL     OW32923   2.147   2.437  14.566 -0.2182 -0.1342 -0.3747
 7096SOL    HW132924   2.156   2.360  14.624 -2.6605 -1.0196 -1.1961
 7096SOL    HW232925   2.226   2.413  14.517 -0.5137 -0.8288 -0.5115
 7097SOL     OW32926   2.439   0.843  14.219  0.7353  0.4558 -0.0099
 7097SOL    HW132927   2.460   0.920  14.167  1.7103  0.2479  0.0804
 7097SOL    HW232928   2.346   0.839  14.198  0.2436  0.1571  2.1924
 7098SOL     OW32929   1.236   2.417   1.669  0.1001  0.6786 -0.7021
 7098SOL    HW132930   1.141   2.410   1.662  0.0920 -0.2523  0.2896
 7098SOL    HW232931   1.244   2.488   1.606  0.8417  2.2482  1.1759
 7099SOL     OW32932   0.372   2.057   4.256  0.4701 -0.5772  0.1282
 7099SOL    HW132933   0.299   2.104   4.217 -0.2802 -0.8595  1.2054
 7099SOL    HW232934   0.420   2.116   4.314  2.4082 -2.1498  0.1539
 7100SOL     OW32935   2.715   4.698   4.535  0.2011 -0.7748  0.3110
 7100SOL    HW132936   2.701   0.056   4.552  1.1572 -0.2213 -1.9014
 7100SOL    HW232937   2.626   4.665   4.545 -0.5099  1.1498  0.4106
 7101SOL     OW32938   2.776   1.435  14.833 -0.2552  0.0877  0.0132
 7101SOL    HW132939   2.701   1.378  14.849  0.5923 -1.0478 -0.0177
 7101SOL    HW232940   2.745   1.493  14.764  0.9496 -2.0586 -2.3422
 7102SOL     OW32941   0.806   3.987   5.377 -0.1536 -0.1623  0.3065
 7102SOL    HW132942   0.899   3.969   5.393  0.1984  2.1718  0.8889
 7102SOL    HW232943   0.794   4.075   5.411  0.1432  0.4956 -1.3283
 7103SOL     OW32944   3.283   3.438  11.336 -0.5165 -0.2649 -0.1469
 7103SOL    HW132945   3.342   3.433  11.412 -2.5249 -0.4991  1.3840
 7103SOL    HW232946   3.202   3.420  11.383 -0.8940  1.1285 -0.2478
 7104SOL     OW32947   4.578   4.382  11.518 -0.0449 -0.4713 -0.4214
 7104SOL    HW132948   4.485   4.360  11.517  0.6904 -3.4675 -1.3301
 7104SOL    HW232949   4.612   4.329  11.447  0.5629 -0.5027 -0.1033
 7105SOL     OW32950   2.615   0.728  12.196  0.5011 -0.0796 -0.2642
 7105SOL    HW132951   2.693   0.673  12.196 -0.2692 -1.1528 -0.3765
 7105SOL    HW232952   2.559   0.688  12.262 -1.4972 -1.6364 -2.8692
 7106SOL     OW32953   0.006   1.985   0.798 -0.2159  0.2574 -0.1625
 7106SOL    HW132954   0.027   1.984   0.705  1.6860 -0.5247  0.2762
 7106SOL    HW232955   0.085   1.945   0.834 -0.2892  0.4251  0.1819
 7107SOL     OW32956   1.983   2.406   2.222  0.0653  0.1652 -0.0598
 7107SOL    HW132957   2.004   2.315   2.201 -2.3295 -0.2905 -0.4806
 7107SOL    HW232958   1.893   2.394   2.252 -0.0666 -1.3222 -1.0426
 7108SOL     OW32959   1.680   2.732   5.678 -0.1058  0.3520 -0.1668
 7108SOL    HW132960   1.693   2.824   5.654 -0.9153  0.0823 -1.6430
 7108SOL    HW232961   1.748   2.726   5.745 -1.1561  0.4015  0.8904
 7109SOL     OW32962   0.749   4.515   5.537  0.1195 -0.8859  0.4925
 7109SOL    HW132963   0.717   4.565   5.613 -0.9498 -1.9319  0.7293
 7109SOL    HW232964   0.723   4.581   5.473 -0.9520 -2.6670 -0.8837
 7110SOL     OW32965   0.395   2.076  15.124 -0.2022  0.6091  0.1005
 7110SOL    HW132966   0.438   2.154  15.159  1.7557 -0.7374  0.6780
 7110SOL    HW232967   0.306   2.112  15.129  0.1757  1.3993  1.2756
 7111SOL     OW32968   0.286   0.555   9.421  0.3574 -0.6376  0.3187
 7111SOL    HW132969   0.275   0.650   9.416 -2.4340 -0.8797  2.2037
 7111SOL    HW232970   0.196   0.530   9.440 -0.2869  1.4478  0.0652
 7112SOL     OW32971   1.161   4.589   3.383  0.0912  0.6484  0.4782
 7112SOL    HW132972   1.164   4.501   3.422 -2.5127  0.8390  1.0687
 7112SOL    HW232973   1.200   4.642   3.453  1.1447 -0.2694  0.5894
 7113SOL     OW32974   3.172   2.154   5.780  0.3708  0.2543  0.2584
 7113SOL    HW132975   3.228   2.165   5.702 -2.3741 -2.2821 -2.0633
 7113SOL    HW232976   3.235   2.110   5.838  1.2765 -2.1036 -2.4688
 7114SOL     OW32977   0.415   4.257   3.516 -0.7777  0.3365  0.1417
 7114SOL    HW132978   0.453   4.173   3.543 -0.6305  0.3176 -0.1245
 7114SOL    HW232979   0.441   4.260   3.424 -1.8972 -1.5634 -0.2310
 7115SOL     OW32980   4.359   4.546   4.776 -0.4260  0.0280 -0.1719
 7115SOL    HW132981   4.278   4.591   4.750 -2.2964 -3.1802  0.1247
 7115SOL    HW232982   4.380   4.600   4.852 -1.2519  2.2571 -1.5352
 7116SOL     OW32983   2.572   0.954  10.525 -0.0627  0.2439 -0.6121
 7116SOL    HW132984   2.564   0.862  10.550 -1.8838  0.6397  0.2830
 7116SOL    HW232985   2.665   0.958  10.503 -0.1254  0.3504 -0.8622
 7117SOL     OW32986   4.202   4.604   8.188 -0.1018 -0.0478 -0.1162
 7117SOL    HW132987   4.269   4.646   8.242 -2.1414  1.4263  1.2851
 7117SOL    HW232988   4.215   4.644   8.102  1.1668  0.5517  0.3564
 7118SOL     OW32989   3.151   3.159   3.738  0.2337  0.4413  0.0025
 7118SOL    HW132990   3.139   3.106   3.817 -1.3068 -1.0402 -1.2347
 7118SOL    HW232991   3.070   3.208   3.728  0.2447  0.4236 -0.1627
 7119SOL     OW32992   2.430   1.419   0.415 -0.2619 -0.1455 -0.1562
 7119SOL    HW132993   2.355   1.440   0.471  0.4357 -1.2862  1.1819
 7119SOL    HW232994   2.426   1.324   0.423  2.6941 -0.3880 -1.7995
 7120SOL     OW32995   2.441   4.241   5.759 -0.0406 -0.0158  0.1573
 7120SOL    HW132996   2.357   4.242   5.715 -0.5276  2.5305  1.1677
 7120SOL    HW232997   2.499   4.275   5.691  0.4956  0.0212  0.6299
 7121SOL     OW32998   0.556   0.132   9.401 -0.0773 -0.1022  0.4788
 7121SOL    HW132999   0.615   0.205   9.382 -0.6481 -0.2359 -1.7603
 7121SOL    HW233000   0.619   0.059   9.408 -0.5016 -0.5818 -0.7026
 7122SOL     OW33001   3.736   2.035   0.370 -0.1038  0.6403 -0.1705
 7122SOL    HW133002   3.777   2.026   0.456  2.7722 -2.5028 -1.8980
 7122SOL    HW233003   3.681   2.113   0.367 -1.5909 -0.4629 -1.2927
 7123SOL     OW33004   2.752   4.514   9.719  0.2175 -0.4125 -0.1604
 7123SOL    HW133005   2.674   4.494   9.668  0.2071  0.1172 -0.3550
 7123SOL    HW233006   2.747   4.609   9.728  0.1514 -0.4759  0.4836
 7124SOL     OW33007   1.621   2.330   4.826  0.0575  0.0143 -0.0381
 7124SOL    HW133008   1.600   2.238   4.806 -0.0065 -0.5702  2.6628
 7124SOL    HW233009   1.632   2.360   4.736  0.6299  1.3668  0.4913
 7125SOL     OW33010   4.532   2.319  10.814 -0.6936 -0.4140 -0.4381
 7125SOL    HW133011   4.570   2.396  10.858  0.5143 -1.0029 -0.4331
 7125SOL    HW233012   4.476   2.285  10.884  0.5644  1.0466  1.2990
 7126SOL     OW33013   0.012   1.340  10.399  0.3265  0.5037 -0.1665
 7126SOL    HW133014   4.654   1.317  10.400  1.1037 -2.5829  0.9186
 7126SOL    HW233015   0.046   1.296  10.476 -2.3732  0.7273  1.1468
 7127SOL     OW33016   0.240   1.626   4.583 -0.8214 -0.0255 -0.0299
 7127SOL    HW133017   0.196   1.702   4.620 -0.6990  0.5031 -0.9867
 7127SOL    HW233018   0.257   1.661   4.496 -0.7843  2.0740  0.8155
 7128SOL     OW33019   0.428   0.700   1.568  0.7047 -0.0401 -0.1871
 7128SOL    HW133020   0.374   0.771   1.534  1.2035  0.5854  0.3502
 7128SOL    HW233021   0.476   0.749   1.634  0.3603 -1.1290  0.8614
 7129SOL     OW33022   4.595   1.195   8.377 -0.2036  0.0435  0.0403
 7129SOL    HW133023   4.558   1.129   8.318  0.8311 -2.0192  1.6969
 7129SOL    HW233024   4.637   1.254   8.314 -1.9970  0.7348 -0.5082
 7130SOL     OW33025   0.751   1.661   3.740 -0.2675  0.3656  0.0312
 7130SOL    HW133026   0.803   1.711   3.677  1.2582 -1.5362 -0.2088
 7130SOL    HW233027   0.819   1.608   3.782 -1.4292 -0.3453  1.0168
 7131SOL     OW33028   1.633   0.193   2.109 -0.3389 -0.1788  0.0025
 7131SOL    HW133029   1.671   0.243   2.036 -2.8914  0.7092 -0.7099
 7131SOL    HW233030   1.627   0.106   2.069 -2.2939 -0.1810  0.3132
 7132SOL     OW33031   1.965   3.221   0.261 -0.2657  0.4776  0.6608
 7132SOL    HW133032   1.899   3.162   0.224  1.0325  0.0671 -1.0400
 7132SOL    HW233033   1.940   3.310   0.235  0.7681  0.8608  0.9866
 7133SOL     OW33034   2.606   0.248  12.093  0.2016  0.3427 -0.7161
 7133SOL    HW133035   2.555   0.179  12.050  0.7738 -1.1007  0.9436
 7133SOL    HW233036   2.541   0.282  12.154  0.0491  1.5326 -1.5465
 7134SOL     OW33037   1.665   3.422   7.380  0.1531 -0.5634  0.4189
 7134SOL    HW133038   1.606   3.492   7.407  1.6876 -0.1220  2.5978
 7134SOL    HW233039   1.702   3.396   7.464  1.1595 -0.0676  0.1231
 7135SOL     OW33040   2.445   0.662   3.997  0.3933 -0.2889  0.3906
 7135SOL    HW133041   2.532   0.681   3.963  0.2255  1.2545  0.7995
 7135SOL    HW233042   2.430   0.730   4.064  0.3416  1.1452 -1.0764
 7136SOL     OW33043   3.300   2.499   4.685  0.8244  0.1453 -0.0002
 7136SOL    HW133044   3.388   2.495   4.723  0.5096 -0.4805  0.6723
 7136SOL    HW233045   3.316   2.547   4.604  0.6331  0.7727  0.3382
 7137SOL     OW33046   1.175   1.778  15.115 -0.1684  0.2806 -0.5262
 7137SOL    HW133047   1.135   1.850  15.067  0.0478  0.6590 -0.1386
 7137SOL    HW233048   1.231   1.825  15.177 -0.0833  0.9267 -1.1072
 7138SOL     OW33049   3.853   0.183   7.468 -0.1927 -0.3082  0.6560
 7138SOL    HW133050   3.797   0.112   7.439  0.4664 -0.6117  0.1422
 7138SOL    HW233051   3.826   0.261   7.420 -1.1404 -0.7682  0.4509
 7139SOL     OW33052   1.652   0.622  16.628 -0.1641 -0.3785 -0.2656
 7139SOL    HW133053   1.737   0.650  16.596  0.2771  0.2317  1.4313
 7139SOL    HW233054   1.671   0.575  16.709  4.0993  0.8336 -0.5548
 7140SOL     OW33055   0.618   3.143   4.293  0.0406 -0.4470  0.5945
 7140SOL    HW133056   0.667   3.130   4.212 -0.1231  2.6236  0.0103
 7140SOL    HW233057   0.560   3.212   4.261  0.8148  0.0525  0.2634
 7141SOL     OW33058   0.791   0.860   6.371 -0.2199  0.3491  0.0353
 7141SOL    HW133059   0.705   0.872   6.331  0.9576  0.5876 -2.4369
 7141SOL    HW233060   0.788   0.936   6.429 -1.5767  0.1553  0.2240
 7142SOL     OW33061   2.070   2.768   3.792  0.6934 -0.1533  0.4488
 7142SOL    HW133062   2.126   2.746   3.867  0.9536 -1.2305 -0.0657
 7142SOL    HW233063   2.093   2.698   3.731  0.0154 -1.6310  1.8939
 7143SOL     OW33064   2.726   2.271  12.392  0.3312 -0.0880 -0.5622
 7143SOL    HW133065   2.779   2.345  12.364 -0.5495  0.2062 -1.4480
 7143SOL    HW233066   2.695   2.306  12.475  1.3196  0.4276 -0.4067
 7144SOL     OW33067   4.578   0.228  10.895  0.7569  0.1845 -0.1931
 7144SOL    HW133068   4.602   0.135  10.897 -0.9438 -0.2232  1.5448
 7144SOL    HW233069   4.665   0.265  10.879  0.0365  2.4980  1.3259
 7145SOL     OW33070   2.972   0.290   3.535  0.1368 -0.2001  0.2063
 7145SOL    HW133071   3.028   0.345   3.480 -1.0272  0.1527 -0.6227
 7145SOL    HW233072   3.040   0.280   3.601 -1.9343 -0.0589  2.3667
 7146SOL     OW33073   2.020   2.215   7.449 -0.0658  0.4067  0.8077
 7146SOL    HW133074   1.942   2.175   7.412  1.1739  0.1035 -1.5208
 7146SOL    HW233075   2.040   2.284   7.386 -2.2720  0.4639  0.1904
 7147SOL     OW33076   1.121   2.164   4.163  0.3793 -0.1385 -0.7953
 7147SOL    HW133077   1.111   2.117   4.080 -1.0426  1.7362 -1.7023
 7147SOL    HW233078   1.048   2.227   4.168 -0.2951 -1.0419  0.6771
 7148SOL     OW33079   2.300   2.685   5.310  0.0026 -0.1158 -0.4234
 7148SOL    HW133080   2.330   2.775   5.307 -1.5037  0.5183  4.1766
 7148SOL    HW233081   2.370   2.660   5.370 -0.5343  0.0020  0.2481
 7149SOL     OW33082   4.219   1.202  15.273  0.6322 -0.1074  0.5938
 7149SOL    HW133083   4.210   1.203  15.178 -0.6439  2.1399  0.7458
 7149SOL    HW233084   4.222   1.295  15.294 -0.4055  0.5641 -2.3141
 7150SOL     OW33085   1.351   4.437   7.564  0.2482  0.4252  0.0598
 7150SOL    HW133086   1.277   4.462   7.509 -0.0249  1.6164  0.9766
 7150SOL    HW233087   1.327   4.486   7.642  0.2150  1.2594 -0.4762
 7151SOL     OW33088   0.731   1.764   4.029  0.2016 -0.0077 -0.1709
 7151SOL    HW133089   0.822   1.788   4.010 -0.1915  2.0206  0.4484
 7151SOL    HW233090   0.688   1.756   3.944  0.8243  1.4755 -0.6356
 7152SOL     OW33091   2.171   4.300   4.192 -0.3826 -0.0198 -0.2155
 7152SOL    HW133092   2.123   4.381   4.205  0.4304  0.5293 -0.6247
 7152SOL    HW233093   2.106   4.253   4.140 -1.0919 -0.2859  0.9232
 7153SOL     OW33094   0.359   3.977  12.430 -0.3985  0.8888 -0.6333
 7153SOL    HW133095   0.401   3.970  12.344  0.8339 -1.7975  0.2138
 7153SOL    HW233096   0.422   3.929  12.483  0.0395  2.5566  0.3726
 7154SOL     OW33097   1.893   4.619   5.390  0.2514  0.0382 -0.0850
 7154SOL    HW133098   1.908   4.535   5.434 -1.7128 -0.9586 -1.3300
 7154SOL    HW233099   1.853   4.664   5.465 -1.5586  0.0078 -1.0222
 7155SOL     OW33100   0.774   2.495   8.386  0.3355  0.4463 -0.4825
 7155SOL    HW133101   0.766   2.589   8.369 -0.8263  0.6182  1.0108
 7155SOL    HW233102   0.730   2.499   8.471  1.8381 -0.2251  0.3391
 7156SOL     OW33103   2.857   2.270  15.601 -0.3582 -0.3480  0.0364
 7156SOL    HW133104   2.847   2.175  15.589  1.5702 -0.5905  0.3510
 7156SOL    HW233105   2.942   2.274  15.644 -1.1454  0.1424  1.5384
 7157SOL     OW33106   0.934   0.017   7.051 -0.7425 -0.5556 -0.4059
 7157SOL    HW133107   0.867   0.050   7.112 -1.1380  1.8653 -2.1566
 7157SOL    HW233108   0.876   4.693   7.003 -1.2328  1.4102 -2.2428
 7158SOL     OW33109   1.962   0.959   4.269 -0.4507  0.0294  0.6611
 7158SOL    HW133110   1.872   0.928   4.268  1.0458 -4.4218  1.4360
 7158SOL    HW233111   1.977   0.985   4.178 -0.2959  3.2595  1.6274
 7159SOL     OW33112   3.110   2.268  10.539  0.0863 -0.3534 -0.7868
 7159SOL    HW133113   3.102   2.185  10.493  3.7509 -1.4542  0.5746
 7159SOL    HW233114   3.020   2.300  10.526  0.4157  1.9258  2.3527
 7160SOL     OW33115   0.311   3.740   7.926  0.1083 -0.3701 -0.4499
 7160SOL    HW133116   0.298   3.834   7.938 -0.7322 -0.3955 -1.2140
 7160SOL    HW233117   0.365   3.739   7.847  1.4633 -0.6175  0.4703
 7161SOL     OW33118   4.216   0.505  14.357  0.2831  0.4200 -0.2726
 7161SOL    HW133119   4.169   0.468  14.432 -0.6683 -0.7749 -1.4732
 7161SOL    HW233120   4.191   0.597  14.355  1.5414  0.7196 -1.7844
 7162SOL     OW33121   0.623   0.585   7.504 -0.0933  0.0222  0.0119
 7162SOL    HW133122   0.580   0.595   7.420 -1.1659  2.1036  0.7950
 7162SOL    HW233123   0.555   0.537   7.550  0.9719 -1.8015 -0.3105
 7163SOL     OW33124   1.644   2.638  14.527  0.0245 -0.2008 -0.0766
 7163SOL    HW133125   1.705   2.576  14.486  1.3464 -0.1680  1.8200
 7163SOL    HW233126   1.568   2.581  14.537  1.4257 -2.0648 -0.0435
 7164SOL     OW33127   3.409   1.675  16.018  0.7359 -0.1522  0.5196
 7164SOL    HW133128   3.371   1.590  16.040 -2.3764  0.7633 -1.3799
 7164SOL    HW233129   3.499   1.651  15.996  0.8197 -0.3370  1.0533
 7165SOL     OW33130   0.622   4.654  15.470 -0.5393 -0.2368  0.0555
 7165SOL    HW133131   0.595   4.685  15.557  0.3399  2.2929 -0.5559
 7165SOL    HW233132   0.714   4.682  15.465 -0.1774 -1.7861 -1.8261
 7166SOL     OW33133   3.686   4.672   4.267  0.1258 -0.2789 -0.6070
 7166SOL    HW133134   3.677   4.716   4.352 -2.2565 -0.9777 -0.4903
 7166SOL    HW233135   3.698   4.581   4.296 -0.5249 -0.8849 -2.2475
 7167SOL     OW33136   2.811   0.494   8.494 -0.1582 -0.5908 -0.3465
 7167SOL    HW133137   2.859   0.454   8.567 -1.3544 -2.4233 -0.5470
 7167SOL    HW233138   2.878   0.542   8.445 -1.1615  2.8520  1.6579
 7168SOL     OW33139   1.836   2.418   1.214  0.4389 -0.0243 -0.4331
 7168SOL    HW133140   1.865   2.366   1.289 -1.0754 -3.0263 -1.9288
 7168SOL    HW233141   1.850   2.357   1.141 -0.9356  2.8511 -3.1058
 7169SOL     OW33142   3.046   0.507   3.116 -0.1659  0.4952  0.0103
 7169SOL    HW133143   2.993   0.586   3.116  0.9465  1.2422  2.2072
 7169SOL    HW233144   3.062   0.520   3.209 -1.6385  0.0820  0.3126
 7170SOL     OW33145   3.988   3.564   2.966  0.1042  0.0266  0.8408
 7170SOL    HW133146   3.943   3.594   3.046 -1.5831  0.3130 -0.2259
 7170SOL    HW233147   3.913   3.554   2.907  0.6235 -0.3205  0.2478
 7171SOL     OW33148   2.081   4.052   4.363 -0.4539 -0.2566  0.1249
 7171SOL    HW133149   2.045   4.012   4.283 -0.1828 -1.1442  0.4453
 7171SOL    HW233150   2.171   4.070   4.336 -0.0533 -1.3626  0.7477
 7172SOL     OW33151   3.863   1.929  16.945  0.1279 -0.2694 -0.0800
 7172SOL    HW133152   3.877   2.023  16.953  1.8117 -0.4032 -1.5705
 7172SOL    HW233153   3.926   1.899  16.880 -1.7054 -1.8785 -1.1366
 7173SOL     OW33154   0.261   3.535   5.043 -0.0120 -0.3127  0.5637
 7173SOL    HW133155   0.354   3.511   5.038 -0.4388 -1.5725 -1.5298
 7173SOL    HW233156   0.236   3.493   5.125 -1.9593 -3.3530 -1.5770
 7174SOL     OW33157   4.700   2.601   7.848  0.4098 -0.0799 -0.3549
 7174SOL    HW133158   4.678   2.549   7.771 -0.9777 -0.2056  0.1278
 7174SOL    HW233159   4.657   2.687   7.843 -2.4324 -1.4059  1.0526
 7175SOL     OW33160   4.529   2.481  10.571 -0.3910 -0.2567  0.5513
 7175SOL    HW133161   4.449   2.512  10.614 -0.2579 -0.3285  0.8494
 7175SOL    HW233162   4.567   2.445  10.650  1.1356  0.5918  0.2001
 7176SOL     OW33163   0.139   2.082  11.326 -0.1783 -0.0158 -0.0725
 7176SOL    HW133164   0.107   2.008  11.274 -0.4876  0.8956 -1.1774
 7176SOL    HW233165   0.228   2.052  11.346 -0.2958  0.6351  1.4185
 7177SOL     OW33166   3.662   3.785   8.937 -0.1569 -0.1331  0.0172
 7177SOL    HW133167   3.611   3.707   8.959  0.5685 -1.0065 -1.4128
 7177SOL    HW233168   3.704   3.812   9.018 -0.7462  0.0668  0.2594
 7178SOL     OW33169   0.701   4.520   6.355  1.0487  0.2534  0.3418
 7178SOL    HW133170   0.725   4.565   6.275 -1.8065 -2.0489 -1.8206
 7178SOL    HW233171   0.754   4.576   6.411  0.3160 -0.2826  1.5891
 7179SOL     OW33172   0.175   0.486  10.378  0.7555  0.2261  0.1135
 7179SOL    HW133173   0.220   0.432  10.443 -1.4862 -0.7578  0.8527
 7179SOL    HW233174   0.081   0.479  10.395  0.7872  3.2224  1.5652
 7180SOL     OW33175   3.787   4.198  10.768 -0.0343 -0.1875 -0.2823
 7180SOL    HW133176   3.828   4.235  10.846 -1.0014  0.4611 -0.0900
 7180SOL    HW233177   3.697   4.230  10.781 -0.1046 -0.4310 -0.1728
 7181SOL     OW33178   4.402   2.336  16.235 -0.2646  0.2422 -0.7784
 7181SOL    HW133179   4.354   2.264  16.274 -0.3386 -0.2338 -1.7525
 7181SOL    HW233180   4.411   2.311  16.143  1.4469 -0.7367 -0.3481
 7182SOL     OW33181   2.047   4.462   4.542  0.6699  0.1116  0.1751
 7182SOL    HW133182   2.025   4.382   4.494  0.5653  0.3095 -0.1098
 7182SOL    HW233183   2.034   4.533   4.479 -1.1274  0.2229  0.6720
 7183SOL     OW33184   1.943   3.828  16.731 -0.0619  0.3640 -0.3135
 7183SOL    HW133185   1.915   3.746  16.772 -1.0084  0.4137 -0.8474
 7183SOL    HW233186   1.875   3.834  16.664 -0.5774 -0.0738  0.1791
 7184SOL     OW33187   3.659   2.542   5.785  0.3944  0.4329 -0.1175
 7184SOL    HW133188   3.732   2.572   5.731  1.2122 -0.1982  0.6259
 7184SOL    HW233189   3.703   2.532   5.870  1.7433 -1.6856 -1.0743
 7185SOL     OW33190   4.667   2.526  14.239 -0.1399  0.1993  0.7245
 7185SOL    HW133191   4.629   2.443  14.269  0.7359 -0.4774 -0.0634
 7185SOL    HW233192   4.624   2.529  14.154  0.1405  1.1384  0.6113
 7186SOL     OW33193   2.969   2.141   7.551 -0.7444 -0.6034  0.0111
 7186SOL    HW133194   3.045   2.089   7.525  1.9223  1.8853  2.9165
 7186SOL    HW233195   2.976   2.219   7.496 -2.8596 -0.2813  0.1957
 7187SOL     OW33196   2.738   0.278  11.592  0.5215 -0.7504 -0.1640
 7187SOL    HW133197   2.687   0.197  11.589 -0.7365  0.0914 -1.4290
 7187SOL    HW233198   2.777   0.275  11.680 -1.6853  0.8186  0.8532
 7188SOL     OW33199   1.007   1.109   5.297 -0.5720  0.4869 -0.2519
 7188SOL    HW133200   0.997   1.021   5.333  1.8759  0.9184  1.4685
 7188SOL    HW233201   1.039   1.154   5.374 -1.2093  1.6550 -0.6680
 7189SOL     OW33202   0.457   0.891  13.925  0.7518 -0.2470 -0.5746
 7189SOL    HW133203   0.457   0.919  14.017  0.6555 -0.8384 -0.3992
 7189SOL    HW233204   0.386   0.939  13.883  1.4193  0.7385 -0.5789
 7190SOL     OW33205   1.722   2.343   2.329  0.1471  0.4597 -0.1434
 7190SOL    HW133206   1.683   2.264   2.291  0.3555  0.9658 -1.4301
 7190SOL    HW233207   1.694   2.411   2.267 -1.7707 -0.1183  0.0983
 7191SOL     OW33208   0.137   2.240   2.023 -0.3876 -0.6197  0.0618
 7191SOL    HW133209   0.147   2.187   1.944  0.9509 -0.8541  0.3897
 7191SOL    HW233210   0.155   2.173   2.088  0.1108 -1.0844 -0.5577
 7192SOL     OW33211   1.183   0.752   3.148  0.2313 -0.2042 -0.6673
 7192SOL    HW133212   1.240   0.681   3.119 -1.1850 -0.4866 -2.7483
 7192SOL    HW233213   1.248   0.796   3.204  0.8542 -0.2233 -1.3676
 7193SOL     OW33214   0.107   2.068   7.356  0.2105 -0.2099 -0.2725
 7193SOL    HW133215   0.197   2.094   7.377 -0.4921  0.8145  1.4519
 7193SOL    HW233216   0.098   2.089   7.263  1.4224  1.1193 -0.0881
 7194SOL     OW33217   0.983   1.599  15.606 -0.2125  0.5609  0.6045
 7194SOL    HW133218   1.067   1.608  15.562 -0.2495 -0.1131  0.3918
 7194SOL    HW233219   0.938   1.529  15.558  1.0274 -0.7988  1.4678
 7195SOL     OW33220   3.786   3.660   7.450  0.1929  0.1549 -0.1175
 7195SOL    HW133221   3.696   3.627   7.452  0.5818 -0.9134 -0.3758
 7195SOL    HW233222   3.829   3.585   7.408  1.7002 -0.0511  1.7932
 7196SOL     OW33223   1.823   4.058  17.076  0.0907  0.3629  0.3511
 7196SOL    HW133224   1.874   4.050  16.995 -0.3543  3.0175 -0.1945
 7196SOL    HW233225   1.736   4.057  17.035  0.5795 -1.9179 -0.5848
 7197SOL     OW33226   3.425   1.884  15.817 -0.7175 -0.1458 -0.0810
 7197SOL    HW133227   3.425   1.815  15.883  0.6585 -0.5747 -0.5409
 7197SOL    HW233228   3.514   1.873  15.784 -0.6571 -0.1965  0.0980
 7198SOL     OW33229   4.409   4.232   5.636 -0.6174 -0.3510 -0.2887
 7198SOL    HW133230   4.326   4.210   5.595 -1.1890  1.5198 -0.1275
 7198SOL    HW233231   4.442   4.296   5.573  2.3032  0.8023  2.3813
 7199SOL     OW33232   4.715   0.407   1.677 -0.2456  0.0938  0.1295
 7199SOL    HW133233   0.033   0.472   1.723  2.6801 -0.6415 -2.1700
 7199SOL    HW233234   4.730   0.325   1.724 -1.6896  0.4933  1.2646
 7200SOL     OW33235   4.319   3.654   1.992  0.1370 -0.1504 -0.0021
 7200SOL    HW133236   4.307   3.578   1.934 -2.5443 -1.0028  1.6503
 7200SOL    HW233237   4.359   3.616   2.070 -0.2022 -1.7561 -0.6138
 7201SOL     OW33238   1.059   4.029   6.564 -0.2792 -0.6304  0.0157
 7201SOL    HW133239   1.017   4.111   6.590  0.2622 -0.2690 -0.2409
 7201SOL    HW233240   1.007   3.990   6.494 -1.6071 -1.2149  1.3385
 7202SOL     OW33241   2.675   2.029   3.008 -0.1620 -0.1853 -0.1033
 7202SOL    HW133242   2.684   2.083   2.930 -1.6056  0.1181 -0.0671
 7202SOL    HW233243   2.761   1.988   2.998 -0.1549 -0.4155  0.9256
 7203SOL     OW33244   4.182   4.588  16.216 -0.1791  0.0994  0.6696
 7203SOL    HW133245   4.141   4.608  16.132 -0.5627  2.3370  1.4053
 7203SOL    HW233246   4.170   4.670  16.263 -1.2441 -0.7404  1.8647
 7204SOL     OW33247   2.959   0.598  15.544  0.0094  0.2828  0.3887
 7204SOL    HW133248   2.866   0.582  15.530  0.3604 -1.3961 -0.0976
 7204SOL    HW233249   2.991   0.640  15.464 -0.7814 -2.2658 -1.2677
 7205SOL     OW33250   3.639   2.154   6.821  0.0024 -0.3062  0.4214
 7205SOL    HW133251   3.640   2.101   6.901  0.5542 -0.0986  0.5508
 7205SOL    HW233252   3.730   2.182   6.822  0.2487 -0.9994 -2.3938
 7206SOL     OW33253   4.455   4.020   3.456  0.0230  0.1791 -0.0445
 7206SOL    HW133254   4.518   3.948   3.466 -2.7776 -2.2748 -0.0452
 7206SOL    HW233255   4.438   4.007   3.363  0.9049  1.1067 -0.3294
 7207SOL     OW33256   4.343   3.023   7.382  0.4007  0.3648 -0.1154
 7207SOL    HW133257   4.383   3.111   7.382 -1.3395  1.1434  1.7155
 7207SOL    HW233258   4.385   2.986   7.304 -0.7391 -1.8720  0.3357
 7208SOL     OW33259   2.095   0.037  13.895 -0.2312  0.5105 -0.0528
 7208SOL    HW133260   2.055   4.711  13.834  1.5384 -0.8781  0.2044
 7208SOL    HW233261   2.019   0.076  13.939 -1.8747 -1.3356 -1.2439
 7209SOL     OW33262   2.478   1.681   5.844 -0.2905 -0.1418  0.2664
 7209SOL    HW133263   2.547   1.739   5.878 -0.3672  0.7427 -1.0535
 7209SOL    HW233264   2.527   1.625   5.785  0.0391  1.1350 -0.6784
 7210SOL     OW33265   2.420   0.237   0.203  0.9292  0.5132  0.0523
 7210SOL    HW133266   2.397   0.291   0.278  3.4300  0.7588  0.6398
 7210SOL    HW233267   2.411   0.150   0.242  0.3625  1.4689  2.0509
 7211SOL     OW33268   0.303   0.901  15.433 -0.1863  0.3323  0.2714
 7211SOL    HW133269   0.332   0.879  15.522  0.4906  2.0048  0.4539
 7211SOL    HW233270   0.241   0.831  15.410 -1.2035  1.0985  0.6875
 7212SOL     OW33271   4.101   3.201   3.263 -0.1354  0.1131 -0.5301
 7212SOL    HW133272   4.057   3.117   3.251  0.0592  0.0087 -0.5139
 7212SOL    HW233273   4.103   3.222   3.170 -2.7517  0.6951 -0.4487
 7213SOL     OW33274   3.716   0.295   6.871 -0.3223  0.2866 -0.4755
 7213SOL    HW133275   3.749   0.352   6.941 -2.8507  0.5580  0.5025
 7213SOL    HW233276   3.624   0.319   6.880 -0.7896 -0.2412 -3.8993
 7214SOL     OW33277   0.398   2.951  17.627  0.1864  0.5240 -0.1907
 7214SOL    HW133278   0.389   2.898  17.706 -1.3084 -0.3091 -0.9260
 7214SOL    HW233279   0.331   3.016  17.647  1.7046  2.6111 -1.9363
 7215SOL     OW33280   3.078   1.018  10.664 -0.2942  0.6449  0.2889
 7215SOL    HW133281   3.163   1.062  10.670  0.1229  0.3066 -3.0137
 7215SOL    HW233282   3.092   0.979  10.577 -2.3109  1.6483 -0.4838
 7216SOL     OW33283   0.547   2.542   5.688 -0.0140 -0.0295 -0.1005
 7216SOL    HW133284   0.470   2.598   5.690  1.6299  2.1131  2.7827
 7216SOL    HW233285   0.597   2.586   5.619  0.0179 -1.2123 -0.8373
 7217SOL     OW33286   2.611   4.281  14.698  0.3534  0.0402 -0.3699
 7217SOL    HW133287   2.555   4.336  14.643 -0.2266  1.0320  1.1996
 7217SOL    HW233288   2.576   4.193  14.698  1.8463 -0.5540  2.3495
 7218SOL     OW33289   3.918   0.692  11.414  0.0211 -0.3384  0.3748
 7218SOL    HW133290   3.919   0.617  11.355 -0.0694  0.3198 -0.4560
 7218SOL    HW233291   3.879   0.751  11.350  0.6723 -1.6746 -1.2435
 7219SOL     OW33292   0.755   0.943   8.120  0.4601  0.0514 -0.0947
 7219SOL    HW133293   0.689   0.915   8.057 -0.2440  0.6902  0.3479
 7219SOL    HW233294   0.835   0.921   8.072  0.5114 -1.8006  0.8488
 7220SOL     OW33295   2.484   4.030   8.694 -0.3861  0.2270  0.1964
 7220SOL    HW133296   2.472   4.050   8.601  3.5280  3.8617  0.4873
 7220SOL    HW233297   2.396   4.051   8.727 -0.9559 -1.9609  0.0634
 7221SOL     OW33298   3.962   1.391   3.105 -0.0574 -0.7680 -0.0611
 7221SOL    HW133299   3.952   1.371   3.198 -0.1190  0.0742  0.1199
 7221SOL    HW233300   3.877   1.369   3.067 -0.6884 -0.9718  1.4846
 7222SOL     OW33301   0.061   2.562  11.149  0.0022  0.2653  0.1674
 7222SOL    HW133302   0.094   2.474  11.132 -1.2320 -0.4021  1.2517
 7222SOL    HW233303   0.127   2.597  11.209  0.9880  0.8987 -1.2902
 7223SOL     OW33304   3.971   4.566   3.708 -0.4210 -0.6088  0.3412
 7223SOL    HW133305   4.066   4.560   3.719 -0.5831 -2.0425  1.0259
 7223SOL    HW233306   3.933   4.533   3.789 -2.1671 -0.1228 -0.2789
 7224SOL     OW33307   2.329   0.865  15.616 -0.2076  0.0505  0.3291
 7224SOL    HW133308   2.275   0.944  15.615  0.1814  0.3262  1.0569
 7224SOL    HW233309   2.393   0.870  15.687  1.4364 -0.6201 -1.1136
 7225SOL     OW33310   0.996   0.681   4.789 -0.2000  0.1717 -0.0663
 7225SOL    HW133311   1.076   0.720   4.755  0.9159 -1.4879  0.6522
 7225SOL    HW233312   1.007   0.662   4.882  0.3711 -0.2967 -0.2323
 7226SOL     OW33313   4.230   4.248  13.340  0.0715 -0.3292  0.5947
 7226SOL    HW133314   4.176   4.223  13.264  0.9018 -3.7933  1.1338
 7226SOL    HW233315   4.166   4.264  13.409  1.3720  1.1682  1.4292
 7227SOL     OW33316   1.178   2.006   2.899  0.3358 -0.3847 -0.3680
 7227SOL    HW133317   1.121   1.931   2.912 -2.7633  1.9580 -0.6100
 7227SOL    HW233318   1.229   1.983   2.821 -1.4610 -0.1813 -1.5910
 7228SOL     OW33319   2.538   3.654  14.642  0.0464  0.3239 -0.5692
 7228SOL    HW133320   2.487   3.722  14.598  2.2572  2.9178  0.9190
 7228SOL    HW233321   2.465   3.602  14.676  1.7397 -0.9396  1.1289
 7229SOL     OW33322   3.416   2.703   1.386  0.4847 -0.3618 -0.1128
 7229SOL    HW133323   3.331   2.679   1.422  0.5622 -0.5865 -0.0824
 7229SOL    HW233324   3.380   2.759   1.317 -2.7043 -0.0459  1.7948
 7230SOL     OW33325   0.123   0.700  16.754  0.6106  0.0271 -0.3802
 7230SOL    HW133326   0.163   0.653  16.827 -1.0315 -0.8464 -0.0449
 7230SOL    HW233327   0.029   0.698  16.769  0.7222 -0.5523  0.2403
 7231SOL     OW33328   1.187   3.316   2.358 -0.3914  0.0920  0.3186
 7231SOL    HW133329   1.119   3.347   2.297  0.3316 -0.3068 -0.6990
 7231SOL    HW233330   1.136   3.257   2.414 -3.0299 -0.0594 -2.2284
 7232SOL     OW33331   3.573   3.929   2.678 -0.2917  0.2159 -0.1700
 7232SOL    HW133332   3.485   3.919   2.715  0.2363  3.6335  2.1258
 7232SOL    HW233333   3.591   3.846   2.635 -1.4137 -0.4986  0.7237
 7233SOL     OW33334   1.156   3.005   0.548 -0.2561 -0.1802  0.0499
 7233SOL    HW133335   1.112   3.025   0.630  1.0228  0.6982  0.5128
 7233SOL    HW233336   1.105   2.933   0.511 -0.8618  0.4371 -0.3113
 7234SOL     OW33337   3.765   1.533   5.832 -0.7568 -0.6448 -0.2704
 7234SOL    HW133338   3.676   1.537   5.866 -1.0932  1.7879 -1.4384
 7234SOL    HW233339   3.769   1.460   5.770  1.1809  1.1178 -2.2495
 7235SOL     OW33340   0.124   0.285   8.010  0.4438  0.3007 -0.5612
 7235SOL    HW133341   0.140   0.355   7.947  1.2606  0.4056 -0.2386
 7235SOL    HW233342   0.206   0.285   8.060  0.6217 -2.1827 -0.8466
 7236SOL     OW33343   2.731   3.390   5.993  0.2935  0.2815  0.2161
 7236SOL    HW133344   2.781   3.451   5.939 -0.4955  0.7785  0.0441
 7236SOL    HW233345   2.777   3.397   6.077  1.1736 -0.6265 -0.1839
 7237SOL     OW33346   2.252   2.183  11.754 -0.1941 -0.1417  0.4387
 7237SOL    HW133347   2.205   2.250  11.803 -0.0337 -1.2180  2.0505
 7237SOL    HW233348   2.312   2.161  11.825  0.3176  0.4238  0.1791
 7238SOL     OW33349   2.189   3.295  14.815  0.0638  0.6113 -0.3108
 7238SOL    HW133350   2.230   3.261  14.894  0.9149 -0.3354 -1.1500
 7238SOL    HW233351   2.209   3.230  14.747  1.7868  0.3538  0.4246
 7239SOL     OW33352   1.191   3.785   4.182  0.7155  0.5059  0.0046
 7239SOL    HW133353   1.111   3.828   4.155  0.7590  1.1831  0.9546
 7239SOL    HW233354   1.159   3.732   4.256 -0.6352  0.0892 -0.8785
 7240SOL     OW33355   3.853   2.032   7.366 -0.8691 -0.4753  0.2739
 7240SOL    HW133356   3.758   2.046   7.375 -0.8939  0.4554 -1.4700
 7240SOL    HW233357   3.860   1.976   7.288 -0.4463  0.6874 -0.5334
 7241SOL     OW33358   0.847   1.385   4.402  0.2415 -0.1571 -0.5351
 7241SOL    HW133359   0.819   1.401   4.312 -0.7125  0.3619 -0.1485
 7241SOL    HW233360   0.853   1.290   4.395  1.1984  0.0288 -1.9689
 7242SOL     OW33361   3.505   2.631   6.324 -0.0607  0.4977 -0.8194
 7242SOL    HW133362   3.479   2.640   6.232  0.0991 -0.7503 -0.9873
 7242SOL    HW233363   3.510   2.536   6.331  1.9933  0.4911 -2.4797
 7243SOL     OW33364   0.484   3.937   4.604  0.4890  0.1197 -0.0943
 7243SOL    HW133365   0.508   3.992   4.678 -0.9456  1.2135 -0.4373
 7243SOL    HW233366   0.538   3.860   4.619  0.7223  0.1075 -0.9804
 7244SOL     OW33367   2.400   1.290  15.039  0.1206 -0.2611 -0.2009
 7244SOL    HW133368   2.397   1.376  14.997  0.7859  0.8619  2.1023
 7244SOL    HW233369   2.476   1.251  14.994  0.7993  0.6508  0.1492
 7245SOL     OW33370   1.968   4.388   2.973  0.4437 -0.2103  0.2374
 7245SOL    HW133371   1.933   4.341   2.898  1.9399 -1.2043  0.1665
 7245SOL    HW233372   1.893   4.444   2.997 -0.1445  0.1295 -2.4360
 7246SOL     OW33373   3.096   1.892   6.806 -0.0286 -0.2021  0.4957
 7246SOL    HW133374   3.137   1.816   6.765  0.2718 -0.3861  1.1401
 7246SOL    HW233375   3.163   1.938   6.857  0.9964 -0.8920 -0.2369
 7247SOL     OW33376   3.655   3.884   4.104  0.1696 -0.1890 -0.0019
 7247SOL    HW133377   3.732   3.840   4.138  0.4510  1.2657  1.2471
 7247SOL    HW233378   3.592   3.873   4.175 -1.7766  0.2206 -1.6371
 7248SOL     OW33379   4.297   3.441   1.815  0.2837 -0.4406  0.2913
 7248SOL    HW133380   4.203   3.428   1.827  0.8277 -2.6156  2.1613
 7248SOL    HW233381   4.329   3.355   1.842 -1.5124 -0.8516  1.1218
 7249SOL     OW33382   3.110   3.762   5.863 -0.2322 -0.0442 -0.4282
 7249SOL    HW133383   3.060   3.842   5.879 -0.2723  0.3382 -2.5570
 7249SOL    HW233384   3.197   3.777   5.900 -0.7222  0.3682  0.5792
 7250SOL     OW33385   1.596   3.591  11.519  0.2970 -0.8504 -0.0277
 7250SOL    HW133386   1.534   3.520  11.534 -0.5862  0.7567  4.0804
 7250SOL    HW233387   1.679   3.551  11.546  2.1774  3.3306  0.4262
 7251SOL     OW33388   1.457   4.088  14.665 -0.0437 -0.0818 -0.2678
 7251SOL    HW133389   1.472   4.152  14.595  0.8693  0.6735  0.6229
 7251SOL    HW233390   1.369   4.117  14.689  0.9949  1.2265  1.9645
 7252SOL     OW33391   3.471   2.848   5.437  0.1422  0.0447  0.8269
 7252SOL    HW133392   3.546   2.851   5.495  0.0368  0.4494  0.9432
 7252SOL    HW233393   3.468   2.759   5.404 -0.1821  0.8465 -1.3276
 7253SOL     OW33394   2.849   0.168  12.907  0.1682 -0.3144 -0.3286
 7253SOL    HW133395   2.918   0.205  12.962 -0.2295  0.0869 -0.0981
 7253SOL    HW233396   2.895   0.163  12.823  0.1570  1.0263 -0.4145
 7254SOL     OW33397   0.889   4.295   9.076  1.0740  0.1431  0.1229
 7254SOL    HW133398   0.881   4.279   9.170 -3.5356 -1.6202 -0.6088
 7254SOL    HW233399   0.984   4.308   9.070  1.1623 -1.1371 -1.1013
 7255SOL     OW33400   0.516   1.252  12.776  0.0276 -0.4401  0.2106
 7255SOL    HW133401   0.504   1.189  12.704  0.4628  0.8267 -0.9731
 7255SOL    HW233402   0.529   1.200  12.855  0.3268  2.2110  1.8743
 7256SOL     OW33403   2.895   0.018  17.719 -0.1137 -0.3401 -0.6184
 7256SOL    HW133404   2.893   0.108  17.686  0.2313 -0.4091 -0.8317
 7256SOL    HW233405   2.987   4.727  17.712  0.3010  0.9299 -0.0275
 7257SOL     OW33406   0.214   0.367   9.216  0.3971  0.3754 -0.1863
 7257SOL    HW133407   0.287   0.306   9.204 -0.9464 -0.9183 -1.7196
 7257SOL    HW233408   0.252   0.430   9.277  1.0711  0.1548 -0.3799
 7258SOL     OW33409   0.221   2.038   6.076 -0.5609 -0.0993  0.0597
 7258SOL    HW133410   0.260   2.121   6.102 -1.8622  0.9284 -1.2692
 7258SOL    HW233411   0.299   2.012   6.026 -0.5903 -0.3876  0.1634
 7259SOL     OW33412   3.999   2.572  15.875  0.4367 -0.2369  0.7091
 7259SOL    HW133413   4.089   2.557  15.847  0.4172 -0.4337  0.7507
 7259SOL    HW233414   3.998   2.666  15.896  1.6729 -0.5663  2.2326
 7260SOL     OW33415   1.393   0.597   7.218 -0.0968 -0.2870  0.2576
 7260SOL    HW133416   1.399   0.635   7.130  1.4448 -2.1038 -0.4221
 7260SOL    HW233417   1.384   0.663   7.286 -2.7235  1.5068 -1.8386
 7261SOL     OW33418   0.257   1.256   2.857 -0.6985  0.5151  0.2022
 7261SOL    HW133419   0.288   1.287   2.942 -1.5541  0.6990  0.4503
 7261SOL    HW233420   0.284   1.331   2.805 -0.0251  2.0751  2.8284
 7262SOL     OW33421   1.787   2.110   8.761  0.2749 -0.3995  0.7009
 7262SOL    HW133422   1.771   2.197   8.726 -1.5595 -1.0615 -0.0689
 7262SOL    HW233423   1.701   2.076   8.785  0.0706  0.7190  1.5308
 7263SOL     OW33424   2.255   1.994  10.136  0.3044 -0.2801  0.2186
 7263SOL    HW133425   2.222   1.953  10.216 -0.2338  0.8491  0.5713
 7263SOL    HW233426   2.217   1.939  10.066 -0.7867 -0.8445  1.2491
 7264SOL     OW33427   4.144   3.154   2.307  0.0750  0.7610  0.0271
 7264SOL    HW133428   4.051   3.133   2.301  0.2018  0.0807  0.3681
 7264SOL    HW233429   4.152   3.246   2.284  0.7693  0.6575 -0.1723
 7265SOL     OW33430   1.040   3.977  10.385  0.3816 -0.2788 -0.1325
 7265SOL    HW133431   1.120   4.002  10.338  0.8292 -1.4313  0.0304
 7265SOL    HW233432   1.068   3.928  10.461 -2.5105 -0.3163  0.9157
 7266SOL     OW33433   2.135   0.267   3.670 -0.0767 -0.4638 -0.2672
 7266SOL    HW133434   2.165   0.350   3.707 -0.9689  0.2217 -1.0890
 7266SOL    HW233435   2.202   0.257   3.603 -0.1253 -1.3471 -0.1851
 7267SOL     OW33436   3.394   1.217   2.349  0.0442  0.0251 -0.2350
 7267SOL    HW133437   3.328   1.148   2.341  0.6446 -0.7507  1.5145
 7267SOL    HW233438   3.371   1.281   2.281 -0.5518  0.3838  0.3114
 7268SOL     OW33439   0.790   2.819   0.725 -1.0512 -0.4117 -0.0129
 7268SOL    HW133440   0.850   2.892   0.710 -2.0047  0.2377 -0.6622
 7268SOL    HW233441   0.853   2.748   0.741  1.2780  1.5552 -0.4677
 7269SOL     OW33442   4.662   4.212   5.347 -0.6117  0.0088  0.0864
 7269SOL    HW133443   4.596   4.266   5.302 -2.1411 -2.0693 -0.1344
 7269SOL    HW233444   4.608   4.133   5.339 -0.0590 -0.1934 -1.6236
 7270SOL     OW33445   2.372   1.014  12.245  0.3048  0.1898  0.6465
 7270SOL    HW133446   2.369   1.035  12.151  1.2646  0.4823  0.6738
 7270SOL    HW233447   2.425   1.086  12.279  2.4538 -1.0458 -0.0865
 7271SOL     OW33448   3.362   2.243   9.190 -0.2582 -0.6653 -0.0339
 7271SOL    HW133449   3.342   2.309   9.256  2.4170 -0.6967  0.7678
 7271SOL    HW233450   3.454   2.259   9.173 -0.5029 -0.2320 -0.9929
 7272SOL     OW33451   2.132   4.722  13.268 -0.0972 -0.2372  0.4839
 7272SOL    HW133452   2.173   4.641  13.236  1.6099  1.3335 -1.2745
 7272SOL    HW233453   2.056   4.735  13.210  0.0260  0.7264  0.5419
 7273SOL     OW33454   3.924   3.143   5.987 -0.5246  0.4578  0.2768
 7273SOL    HW133455   4.002   3.191   5.958 -0.6484 -1.1810 -2.7979
 7273SOL    HW233456   3.913   3.185   6.072  0.6995  0.1775  0.5733
 7274SOL     OW33457   2.185   3.490   3.255 -0.3492 -0.4370  0.2829
 7274SOL    HW133458   2.184   3.586   3.257  0.7512 -0.3655 -1.4567
 7274SOL    HW233459   2.263   3.468   3.307 -0.8791 -1.4676  0.6213
 7275SOL     OW33460   3.200   1.868   8.856 -0.4949 -0.4968 -0.0322
 7275SOL    HW133461   3.197   1.919   8.776 -0.3362 -1.7679 -0.8441
 7275SOL    HW233462   3.224   1.930   8.925 -1.6022  1.2466 -1.2455
 7276SOL     OW33463   3.492   2.911   2.809  0.2308  0.6155 -0.3113
 7276SOL    HW133464   3.567   2.931   2.752 -0.9881  0.6330 -1.9212
 7276SOL    HW233465   3.518   2.832   2.856  0.7310  1.6438  1.1414
 7277SOL     OW33466   0.531   1.679   5.260 -0.4624  0.2340  0.2868
 7277SOL    HW133467   0.453   1.724   5.293 -1.3052  0.5642 -2.1090
 7277SOL    HW233468   0.588   1.756   5.263  0.2496 -0.2452 -0.9305
 7278SOL     OW33469   1.755   2.899   9.846  0.1192 -0.8062  0.1291
 7278SOL    HW133470   1.822   2.944   9.897  0.9673  0.9663 -2.5194
 7278SOL    HW233471   1.800   2.815   9.841  3.5485  1.0837 -0.5257
 7279SOL     OW33472   0.959   0.488  11.120 -0.4738  0.6229 -0.8641
 7279SOL    HW133473   0.947   0.406  11.167  0.1630  0.2830 -1.2957
 7279SOL    HW233474   0.908   0.549  11.175  1.7038  1.0032  0.7298
 7280SOL     OW33475   1.861   4.614   9.076 -0.3091  0.0040 -0.0095
 7280SOL    HW133476   1.835   4.704   9.093 -1.3490 -0.0512 -1.3270
 7280SOL    HW233477   1.929   4.603   9.142  0.7718  0.0148 -1.1195
 7281SOL     OW33478   3.045   0.393   2.292 -0.4213  0.1324 -0.0847
 7281SOL    HW133479   3.123   0.346   2.264  0.4489  2.1555 -1.1119
 7281SOL    HW233480   3.055   0.398   2.387  1.0594  0.7465 -0.2715
 7282SOL     OW33481   1.219   3.955  15.424 -0.3101 -0.0764  0.3466
 7282SOL    HW133482   1.291   3.915  15.376 -1.7560  3.0396 -4.3990
 7282SOL    HW233483   1.141   3.935  15.372 -1.5144  3.7216  0.6930
 7283SOL     OW33484   1.402   4.579   7.207  0.0537  0.3051 -0.1034
 7283SOL    HW133485   1.384   4.666   7.172 -0.8654  1.3247  2.9352
 7283SOL    HW233486   1.328   4.541   7.160 -0.1198 -2.8498  2.7307
 7284SOL     OW33487   3.416   1.531   5.595 -0.2678  0.1989  0.0924
 7284SOL    HW133488   3.388   1.595   5.660  0.4575 -2.2378  2.8218
 7284SOL    HW233489   3.334   1.519   5.546 -0.8401 -2.6733  1.7675
 7285SOL     OW33490   2.480   3.625  17.721 -0.3156 -0.1081 -0.3266
 7285SOL    HW133491   2.559   3.638   0.034 -0.9589 -1.5744  1.0200
 7285SOL    HW233492   2.416   3.592   0.045  0.1533  0.2063  0.3149
 7286SOL     OW33493   3.413   3.229   8.571 -0.2112  0.2748 -0.6238
 7286SOL    HW133494   3.446   3.314   8.599 -2.5587  0.9986 -0.1511
 7286SOL    HW233495   3.485   3.179   8.532 -0.9245 -0.6775 -0.7204
 7287SOL     OW33496   3.006   0.316   6.552 -0.4199 -0.2555  0.0952
 7287SOL    HW133497   3.093   0.355   6.546 -1.0342  1.2690  0.8685
 7287SOL    HW233498   3.021   0.227   6.521 -2.3761  0.1310 -1.9458
 7288SOL     OW33499   0.766   3.573   6.536 -0.0730  0.9221  0.1913
 7288SOL    HW133500   0.846   3.520   6.540 -0.7935 -0.2963 -1.5778
 7288SOL    HW233501   0.774   3.621   6.619  1.7068 -1.8008  1.6023
 7289SOL     OW33502   4.401   4.091  15.093 -0.3861  0.1235  0.0675
 7289SOL    HW133503   4.462   4.160  15.119 -1.3919  1.4411 -1.0831
 7289SOL    HW233504   4.407   4.045  15.177 -0.3266  0.2892  0.1538
 7290SOL     OW33505   3.180   2.443  12.164 -0.0446  0.2242 -0.3950
 7290SOL    HW133506   3.225   2.375  12.213  0.8524 -0.2695 -1.8928
 7290SOL    HW233507   3.164   2.504  12.236  0.7555 -0.0684  0.0304
 7291SOL     OW33508   3.622   0.020   1.972 -0.0242  0.1648  0.2075
 7291SOL    HW133509   3.567   4.731   1.897  0.9435 -0.9053 -0.1452
 7291SOL    HW233510   3.556   0.041   2.038 -0.4607 -0.1308 -0.1357
 7292SOL     OW33511   3.526   0.284   6.324  0.0335 -0.3933 -0.1055
 7292SOL    HW133512   3.522   0.328   6.410  0.9699  1.6654 -1.1137
 7292SOL    HW233513   3.524   0.198   6.365  2.2036  1.1373  3.2429
 7293SOL     OW33514   4.178   2.417   7.217  0.0516 -0.2085 -0.6511
 7293SOL    HW133515   4.179   2.380   7.128  0.9781  0.9794 -1.1307
 7293SOL    HW233516   4.145   2.340   7.263 -0.6143 -0.3145 -1.3069
 7294SOL     OW33517   4.542   1.519   6.016 -0.2124  0.5102  0.1088
 7294SOL    HW133518   4.517   1.521   6.109 -1.6907  0.9044 -0.2979
 7294SOL    HW233519   4.457   1.502   5.974 -0.2415 -1.2347  0.8614
 7295SOL     OW33520   3.213   1.419   9.395 -0.2421  0.1780 -0.0276
 7295SOL    HW133521   3.262   1.502   9.400 -1.9871  1.1876  0.4862
 7295SOL    HW233522   3.191   1.418   9.488  0.7706  0.8128  0.2240
 7296SOL     OW33523   2.002   3.223   0.713 -0.3981  0.4755  0.3250
 7296SOL    HW133524   1.972   3.149   0.660  1.4288 -0.0997  0.0607
 7296SOL    HW233525   2.019   3.284   0.641 -0.6265  0.3237  0.1431
 7297SOL     OW33526   2.000   2.078  10.625 -0.2736  0.0912 -0.0561
 7297SOL    HW133527   2.076   2.107  10.575 -1.3022 -0.2402 -1.8237
 7297SOL    HW233528   2.029   2.089  10.715  3.2682 -1.2975 -1.0540
 7298SOL     OW33529   4.211   0.911   0.907 -0.0874 -0.0404 -0.7084
 7298SOL    HW133530   4.206   0.941   0.817 -3.7522 -1.4047 -0.9707
 7298SOL    HW233531   4.232   0.994   0.950 -2.1916 -0.2850  0.8268
 7299SOL     OW33532   2.737   3.340  13.151 -0.4270  0.0000 -0.5193
 7299SOL    HW133533   2.769   3.426  13.178 -0.2614 -0.5403  1.0127
 7299SOL    HW233534   2.766   3.337  13.060 -1.1891  1.9947 -0.8278
 7300SOL     OW33535   4.044   2.477   6.820 -0.6497  0.2783 -0.0378
 7300SOL    HW133536   3.965   2.515   6.858 -0.3713  0.9190 -0.1070
 7300SOL    HW233537   4.015   2.386   6.828  1.6415 -0.4546 -0.0704
 7301SOL     OW33538   4.219   4.607   3.340  0.1457  0.1260 -0.0330
 7301SOL    HW133539   4.261   4.660   3.408  2.5115 -0.6301 -0.9312
 7301SOL    HW233540   4.261   4.633   3.258  0.2347 -1.2309 -0.4231
 7302SOL     OW33541   0.105   2.976   1.886 -0.4069 -0.3159 -0.1264
 7302SOL    HW133542   0.129   2.884   1.900  1.5029  0.0283 -1.1374
 7302SOL    HW233543   0.185   3.013   1.849 -1.4499  0.2411 -1.8618
 7303SOL     OW33544   3.632   3.107   3.488 -0.6108 -0.1039  0.2892
 7303SOL    HW133545   3.653   3.171   3.555  0.4318  1.1159 -1.2104
 7303SOL    HW233546   3.665   3.028   3.532  0.1799 -0.8050 -1.5446
 7304SOL     OW33547   4.341   0.786  10.242  0.0028 -0.8325 -0.0831
 7304SOL    HW133548   4.423   0.807  10.288 -1.6194 -0.0003  2.4671
 7304SOL    HW233549   4.333   0.860  10.182  0.2386  0.6497  1.7052
 7305SOL     OW33550   3.688   0.486   8.462  0.3290  0.6477 -0.0978
 7305SOL    HW133551   3.762   0.432   8.436  0.1372  1.3161 -1.9761
 7305SOL    HW233552   3.723   0.574   8.478  1.6034  0.0200  0.6093
 7306SOL     OW33553   3.565   3.338  10.140  0.1620  0.0831 -0.6602
 7306SOL    HW133554   3.584   3.245  10.129 -2.5154 -0.5811  0.3224
 7306SOL    HW233555   3.501   3.333  10.210  0.0077 -2.6794 -0.9908
 7307SOL     OW33556   1.935   3.161   4.216  0.3597  0.3424 -0.1654
 7307SOL    HW133557   1.843   3.148   4.239  0.3057  1.2986  0.1509
 7307SOL    HW233558   1.942   3.252   4.189 -0.0355  0.3113 -0.3706
 7308SOL     OW33559   3.753   2.142   1.773  0.3104  0.0390  0.1606
 7308SOL    HW133560   3.752   2.238   1.765  2.1693  0.1268  0.9952
 7308SOL    HW233561   3.811   2.107   1.706  1.0768  1.3450  0.1337
 7309SOL     OW33562   2.577   1.651   2.281  0.2225 -0.8853 -0.1433
 7309SOL    HW133563   2.514   1.638   2.351  0.9649  1.9528  1.0634
 7309SOL    HW233564   2.570   1.746   2.282 -1.0770 -1.0150  2.1899
 7310SOL     OW33565   3.215   4.278   4.145  0.3216  0.6096  0.0094
 7310SOL    HW133566   3.202   4.361   4.100  0.6011 -0.8003 -2.6377
 7310SOL    HW233567   3.285   4.289   4.211  0.5155  0.0933 -0.1144
 7311SOL     OW33568   0.906   0.868  15.560 -0.2450  0.0440  0.0803
 7311SOL    HW133569   0.811   0.871  15.559 -0.2080  0.7110 -2.0230
 7311SOL    HW233570   0.919   0.876  15.654  2.1422  1.5374 -0.3643
 7312SOL     OW33571   1.536   2.805   7.984 -0.2666  0.4207 -0.3481
 7312SOL    HW133572   1.566   2.892   8.011  2.2664 -0.5114 -0.1441
 7312SOL    HW233573   1.461   2.803   8.043  0.3602 -0.8917  0.4116
 7313SOL     OW33574   3.357   2.370  16.594  0.0650  0.2567  0.0461
 7313SOL    HW133575   3.310   2.307  16.649  0.4019  0.1502  0.2161
 7313SOL    HW233576   3.443   2.328  16.584 -0.7018 -0.8815 -1.7368
 7314SOL     OW33577   4.587   0.256   4.902  0.3071 -0.3814 -0.5800
 7314SOL    HW133578   4.538   0.215   4.830  1.7575 -0.9137 -1.2676
 7314SOL    HW233579   4.541   0.340   4.902 -1.3993 -1.2913  1.5553
 7315SOL     OW33580   4.249   4.347   3.599 -0.0226 -0.1013  0.6801
 7315SOL    HW133581   4.163   4.336   3.559 -0.2765 -0.5530  1.3518
 7315SOL    HW233582   4.252   4.435   3.637  0.1005 -0.3753  1.3115
 7316SOL     OW33583   1.338   0.145   4.625  0.3370 -0.0266 -0.3805
 7316SOL    HW133584   1.362   0.074   4.566 -1.3651 -0.4853 -0.5235
 7316SOL    HW233585   1.366   0.117   4.712 -2.5125 -0.0799  0.5296
 7317SOL     OW33586   0.864   1.529   2.441  0.1823  0.2652  0.2708
 7317SOL    HW133587   0.880   1.490   2.355  0.9391 -1.5842  1.2289
 7317SOL    HW233588   0.857   1.622   2.424 -0.4985  0.3484  1.0037
 7318SOL     OW33589   3.506   1.726   2.585 -0.0073  0.2229  0.2518
 7318SOL    HW133590   3.567   1.696   2.517 -1.0229  0.0309 -0.5842
 7318SOL    HW233591   3.508   1.821   2.574 -0.0569  0.0093 -1.7341
 7319SOL     OW33592   2.291   0.306   2.366 -0.3836 -0.4221  0.3658
 7319SOL    HW133593   2.342   0.361   2.306 -0.3324 -1.2134 -0.3167
 7319SOL    HW233594   2.329   0.333   2.450  2.4210  0.9907 -1.3505
 7320SOL     OW33595   1.553   1.323   8.009 -0.6078 -0.0376  0.4691
 7320SOL    HW133596   1.639   1.284   7.995 -0.3778 -0.1092  2.0791
 7320SOL    HW233597   1.570   1.363   8.095  1.8689 -1.5115  0.6381
 7321SOL     OW33598   0.182   4.660   4.088  0.4383  0.7420  0.0624
 7321SOL    HW133599   0.214   4.587   4.034 -1.2191  0.4836 -0.5760
 7321SOL    HW233600   0.261   4.703   4.121  0.0005 -0.5432  2.8038
 7322SOL     OW33601   3.933   2.704  12.067  0.1031  0.1897 -0.8491
 7322SOL    HW133602   3.855   2.749  12.099  1.1051  1.5873 -0.3204
 7322SOL    HW233603   4.006   2.762  12.091 -0.0533  0.4068 -0.9002
 7323SOL     OW33604   3.381   3.622   9.465  0.1808  0.1798  0.7374
 7323SOL    HW133605   3.453   3.686   9.461 -1.6726  2.2575  1.0289
 7323SOL    HW233606   3.309   3.665   9.511  0.5650  0.7693  0.7952
 7324SOL     OW33607   1.982   1.806   0.276 -0.0276 -0.4276 -0.0275
 7324SOL    HW133608   1.932   1.869   0.328 -0.7004 -0.9372 -0.0550
 7324SOL    HW233609   2.068   1.847   0.287  0.1728 -0.6808 -0.6423
 7325SOL     OW33610   2.367   0.935  12.693  0.4105 -0.1791 -0.1596
 7325SOL    HW133611   2.358   0.846  12.658  2.9188 -0.7821  0.7045
 7325SOL    HW233612   2.447   0.925  12.744  1.4956 -3.9250 -2.5972
 7326SOL     OW33613   1.327   2.012   0.103 -0.2400  0.3071 -0.4323
 7326SOL    HW133614   1.279   2.057   0.032 -0.6353 -0.5240 -0.6926
 7326SOL    HW233615   1.331   1.924   0.065  1.6009  0.4346 -0.5238
 7327SOL     OW33616   3.577   1.666  17.311  0.0947  0.0857 -0.2803
 7327SOL    HW133617   3.496   1.663  17.260  0.3389 -2.9493 -0.4636
 7327SOL    HW233618   3.594   1.573  17.328  1.7308  0.5635  0.6324
 7328SOL     OW33619   2.781   3.513  14.691 -0.1556  0.3200  0.0139
 7328SOL    HW133620   2.727   3.591  14.695 -0.1588  0.3948 -1.4378
 7328SOL    HW233621   2.720   3.450  14.729 -1.6751  1.5155 -0.4912
 7329SOL     OW33622   3.439   2.578   6.069  0.0633  0.3091  0.8125
 7329SOL    HW133623   3.531   2.553   6.077 -0.6305 -2.0306  1.6310
 7329SOL    HW233624   3.413   2.492   6.036 -1.6489  1.1973 -0.1212
 7330SOL     OW33625   0.480   2.757   9.664  0.3292 -0.2256  0.3785
 7330SOL    HW133626   0.550   2.773   9.728  0.8392  2.6059 -0.8853
 7330SOL    HW233627   0.415   2.815   9.702  0.6738  1.4269 -1.6001
 7331SOL     OW33628   1.558   3.651   2.410 -0.0440 -0.1526 -0.4664
 7331SOL    HW133629   1.480   3.656   2.466  1.0368  2.1051  0.8370
 7331SOL    HW233630   1.626   3.630   2.475  0.9253  2.2007 -0.7300
 7332SOL     OW33631   3.560   2.214   0.494  0.3024  0.2358 -0.4420
 7332SOL    HW133632   3.545   2.274   0.567  0.2764  0.2312 -0.4439
 7332SOL    HW233633   3.479   2.221   0.444  1.6351  3.6634 -2.1988
 7333SOL     OW33634   0.998   0.717   5.961 -0.0279  0.2336 -0.1373
 7333SOL    HW133635   0.906   0.740   5.967 -0.8319 -3.3095  0.8553
 7333SOL    HW233636   1.007   0.667   6.042 -0.5767 -0.3832 -0.4653
 7334SOL     OW33637   0.817   3.890   2.702  0.8069 -0.1001 -0.4969
 7334SOL    HW133638   0.729   3.904   2.739  1.2430 -1.0592  0.9470
 7334SOL    HW233639   0.828   3.975   2.659  0.5037 -0.2316 -0.8320
 7335SOL     OW33640   0.908   0.745   2.086 -0.4145  0.2843  0.2746
 7335SOL    HW133641   0.947   0.796   2.016  0.1137 -1.3307 -0.6132
 7335SOL    HW233642   0.832   0.702   2.046  0.6184 -1.3577  0.0745
 7336SOL     OW33643   0.691   3.973  16.542  0.0714  0.1276  0.4517
 7336SOL    HW133644   0.626   4.019  16.489  1.0209  0.9152 -0.0433
 7336SOL    HW233645   0.766   3.979  16.483  0.4965  0.5907  1.0430
 7337SOL     OW33646   0.838   4.082   3.063 -0.0538  0.6632  0.3817
 7337SOL    HW133647   0.890   4.003   3.074 -0.5693  0.0319 -1.6849
 7337SOL    HW233648   0.764   4.065   3.122 -1.3439 -0.3621 -1.5234
 7338SOL     OW33649   4.511   4.028   6.185 -0.8385  0.6107  1.2024
 7338SOL    HW133650   4.463   3.994   6.109 -0.2669  3.5566 -0.5117
 7338SOL    HW233651   4.601   4.010   6.158 -1.7140 -2.0827  0.0163
 7339SOL     OW33652   1.181   4.286  16.641 -0.3578  0.0618  0.3108
 7339SOL    HW133653   1.088   4.297  16.622 -0.4810  0.5143  1.2025
 7339SOL    HW233654   1.177   4.237  16.723  3.3308 -0.8519 -0.0302
 7340SOL     OW33655   0.954   0.144   6.725  0.0536  0.3898 -0.4181
 7340SOL    HW133656   1.017   0.159   6.796 -1.0854  2.9138  0.0491
 7340SOL    HW233657   1.014   0.143   6.651  1.2683  2.0287  0.5337
 7341SOL     OW33658   1.397   1.615   0.782  0.4432 -1.0850  0.1070
 7341SOL    HW133659   1.314   1.567   0.790  0.2313 -1.0598 -1.9252
 7341SOL    HW233660   1.413   1.631   0.875  1.1847  1.3218 -0.4231
 7342SOL     OW33661   4.068   2.508   4.806 -0.2823  0.1540  0.3666
 7342SOL    HW133662   4.058   2.416   4.828  2.0645 -0.4570 -1.2853
 7342SOL    HW233663   4.062   2.532   4.899  1.5793  3.5174 -0.3898
 7343SOL     OW33664   1.780   4.253   4.703 -0.5338  0.1923 -0.5171
 7343SOL    HW133665   1.708   4.317   4.703 -1.1326 -0.4907 -1.9376
 7343SOL    HW233666   1.834   4.270   4.626  0.9821  2.0767  0.9501
 7344SOL     OW33667   2.022   3.035   5.114 -0.4015  0.0251  0.2945
 7344SOL    HW133668   2.091   3.092   5.147  0.1312 -0.2742 -0.3046
 7344SOL    HW233669   2.064   2.993   5.039 -1.7808 -0.4307 -0.2238
 7345SOL     OW33670   4.122   1.730   7.425 -0.2633  0.7612  0.0654
 7345SOL    HW133671   4.055   1.797   7.417 -0.9874 -0.2005 -1.9783
 7345SOL    HW233672   4.169   1.734   7.342  1.5403 -2.3162  0.9045
 7346SOL     OW33673   4.685   4.245   9.125  0.1982 -0.0330 -0.4822
 7346SOL    HW133674   0.028   4.191   9.115 -0.7567 -1.0118 -2.6742
 7346SOL    HW233675   4.644   4.189   9.191  0.2335 -0.4065 -0.7808
 7347SOL     OW33676   2.729   2.454   3.755  0.1536  0.2229 -0.4880
 7347SOL    HW133677   2.804   2.497   3.714 -1.6400  1.3352 -2.5713
 7347SOL    HW233678   2.759   2.443   3.846 -0.9367  0.9536 -0.0287
 7348SOL     OW33679   0.444   2.290   2.732  0.1015 -0.4751 -0.3570
 7348SOL    HW133680   0.419   2.371   2.686 -0.6068 -0.5350 -0.0826
 7348SOL    HW233681   0.532   2.315   2.758  0.0809 -0.8947  0.1075
 7349SOL     OW33682   2.163   3.004   4.005 -0.1891 -0.3914  0.1587
 7349SOL    HW133683   2.205   2.932   3.957 -0.1713  1.7859 -3.0821
 7349SOL    HW233684   2.101   2.957   4.061 -0.1851  0.2013  0.6543
 7350SOL     OW33685   1.409   0.130  10.901 -0.3885  0.3003  0.3751
 7350SOL    HW133686   1.400   0.057  10.962  0.7137 -1.4029 -1.4831
 7350SOL    HW233687   1.384   0.197  10.964 -2.5588 -2.1316  2.0741
 7351SOL     OW33688   0.064   3.586   7.681  0.7534 -0.2249 -0.6325
 7351SOL    HW133689   0.077   3.681   7.681  1.0705 -0.2663 -0.4885
 7351SOL    HW233690   0.120   3.558   7.609 -1.4708  0.7219 -2.7295
 7352SOL     OW33691   3.414   3.934   4.544  0.0816 -0.1300  0.7859
 7352SOL    HW133692   3.456   4.003   4.596  0.3535  0.7125 -0.5607
 7352SOL    HW233693   3.335   3.966   4.502  1.2539  0.1333 -1.2574
 7353SOL     OW33694   4.516   3.348   8.277 -0.3809  0.0723  0.1272
 7353SOL    HW133695   4.422   3.328   8.285 -1.2699  4.3297  0.4725
 7353SOL    HW233696   4.527   3.353   8.182  1.4648  0.5394  0.3604
 7354SOL     OW33697   0.110   0.537   2.852  0.4348  0.0899  0.3342
 7354SOL    HW133698   0.117   0.459   2.797 -0.5378 -0.1034  0.4915
 7354SOL    HW233699   0.204   0.541   2.872  0.1155  2.4737  1.3261
 7355SOL     OW33700   1.834   3.595   5.793  0.0853 -0.2426  0.4156
 7355SOL    HW133701   1.845   3.500   5.802  0.7168 -0.0404  1.7414
 7355SOL    HW233702   1.759   3.596   5.734  0.1284  0.2873  0.3691
 7356SOL     OW33703   2.375   2.750   0.253  0.0344  0.3624 -0.0603
 7356SOL    HW133704   2.307   2.818   0.258 -0.0383  0.3052 -0.3105
 7356SOL    HW233705   2.451   2.796   0.218  0.3331 -0.9067 -1.0687
 7357SOL     OW33706   1.530   4.037   7.780  0.2923  0.0922 -0.5058
 7357SOL    HW133707   1.478   4.116   7.767  1.4684  0.6335 -1.9489
 7357SOL    HW233708   1.580   4.058   7.860  0.4232  1.2828 -0.8981
 7358SOL     OW33709   0.384   2.838   9.003 -0.0758 -0.0500 -0.0880
 7358SOL    HW133710   0.379   2.930   8.977  0.1202  0.0497  0.2390
 7358SOL    HW233711   0.470   2.826   9.042  0.3673 -1.8461 -1.5709
 7359SOL     OW33712   2.290   0.869   4.975 -0.0051 -0.2576 -0.3007
 7359SOL    HW133713   2.365   0.858   4.917  1.8043 -1.4608  2.2605
 7359SOL    HW233714   2.334   0.857   5.060 -2.0554 -1.1634  0.6326
 7360SOL     OW33715   0.120   2.199   8.166 -0.1049 -0.6497  0.5259
 7360SOL    HW133716   0.216   2.193   8.167 -0.0811 -0.5943 -0.9598
 7360SOL    HW233717   0.118   2.253   8.088 -2.1563  1.2654  1.9335
 7361SOL     OW33718   0.263   0.771  11.030  0.1787  0.1793  0.2688
 7361SOL    HW133719   0.175   0.808  11.025  1.2010  2.7270  1.2110
 7361SOL    HW233720   0.300   0.828  11.097 -1.3509  1.9755 -0.4102
 7362SOL     OW33721   0.657   2.976  17.568  0.4290  0.2174  0.1270
 7362SOL    HW133722   0.693   2.889  17.586 -3.9122 -1.1297  2.1311
 7362SOL    HW233723   0.566   2.966  17.595 -0.3707  0.1379 -2.6222
 7363SOL     OW33724   1.629   0.205   3.444  0.6110 -0.0621  0.1460
 7363SOL    HW133725   1.699   0.226   3.507 -0.1406 -1.8777  1.5660
 7363SOL    HW233726   1.614   0.294   3.411 -0.1168  0.0849  0.8521
 7364SOL     OW33727   0.682   4.588   2.607  0.3006  0.0082 -0.4434
 7364SOL    HW133728   0.763   4.576   2.656 -1.0125 -0.8036  1.5215
 7364SOL    HW233729   0.641   4.657   2.658 -2.3534 -1.3922 -0.6633
 7365SOL     OW33730   4.186   4.612   6.972  0.1082  0.4844  0.1278
 7365SOL    HW133731   4.267   4.647   7.009  0.9145  1.5394 -2.5973
 7365SOL    HW233732   4.128   4.678   7.009 -2.1306 -1.7652  0.5916
 7366SOL     OW33733   2.327   3.902   6.914 -0.5781 -0.7255  0.6596
 7366SOL    HW133734   2.378   3.939   6.986 -0.7502 -0.5483  0.6903
 7366SOL    HW233735   2.240   3.936   6.937 -0.5800 -1.5087  1.7906
 7367SOL     OW33736   0.407   4.409  16.587  0.1755  0.6991 -0.0874
 7367SOL    HW133737   0.413   4.488  16.532 -1.2032  1.2951  0.6324
 7367SOL    HW233738   0.325   4.375  16.552 -0.5910  2.2253  0.2089
 7368SOL     OW33739   1.529   3.831   5.487 -0.2644  0.0004 -0.1604
 7368SOL    HW133740   1.442   3.855   5.455 -0.2805 -0.5913 -0.5605
 7368SOL    HW233741   1.571   3.830   5.401 -1.1520 -0.9076 -0.5779
 7369SOL     OW33742   4.501   2.669   7.157  0.1304 -0.1651  0.0073
 7369SOL    HW133743   4.586   2.639   7.125  1.0700  0.9043  1.4581
 7369SOL    HW233744   4.530   2.759   7.169 -0.0337 -0.3342  1.7139
 7370SOL     OW33745   1.849   2.361   8.499  0.0943 -0.2342 -0.1567
 7370SOL    HW133746   1.839   2.305   8.422 -0.0064  0.6428 -0.7881
 7370SOL    HW233747   1.777   2.424   8.489 -0.1217 -0.4804 -0.1424
 7371SOL     OW33748   1.537   4.707   3.389  0.4743 -0.0159 -0.2864
 7371SOL    HW133749   1.555   0.063   3.412  0.2096 -0.7556  2.9648
 7371SOL    HW233750   1.471   4.677   3.452  1.0312  1.1081  0.8537
 7372SOL     OW33751   3.861   4.488   1.552  0.4576  0.0136  0.0513
 7372SOL    HW133752   3.916   4.503   1.474 -0.5225  1.1202 -0.4156
 7372SOL    HW233753   3.833   4.398   1.535 -1.5704  1.0751 -2.1912
 7373SOL     OW33754   1.848   1.557  16.038 -0.2207 -0.2318 -0.0880
 7373SOL    HW133755   1.822   1.558  15.946  0.6916 -0.8784 -0.3564
 7373SOL    HW233756   1.770   1.598  16.075 -0.7714 -2.2766  1.0090
 7374SOL     OW33757   1.260   4.310   5.117  0.0117  0.3383 -0.0168
 7374SOL    HW133758   1.283   4.237   5.176 -0.4909  0.7124  0.6457
 7374SOL    HW233759   1.167   4.320   5.140 -0.4905 -1.0323 -1.4411
 7375SOL     OW33760   4.515   0.139  16.786  0.0699 -0.0260  0.0983
 7375SOL    HW133761   4.436   0.191  16.769  0.5240  1.0009  1.0659
 7375SOL    HW233762   4.500   0.144  16.880  1.2880 -0.1095  0.2941
 7376SOL     OW33763   1.922   1.734  11.607  0.1638 -0.2365 -0.3406
 7376SOL    HW133764   2.017   1.746  11.598  0.3092  0.4631  1.9011
 7376SOL    HW233765   1.894   1.809  11.554 -0.5719 -0.9272 -0.9089
 7377SOL     OW33766   3.396   4.018  16.205 -0.3338 -0.5744  0.1106
 7377SOL    HW133767   3.451   4.043  16.131 -1.8993  0.4275 -0.7226
 7377SOL    HW233768   3.454   3.970  16.264 -1.4611 -1.0309  0.8522
 7378SOL     OW33769   2.065   2.542   1.964  0.0016  0.3974  0.6373
 7378SOL    HW133770   2.019   2.472   2.010 -1.6627  1.4955  0.6352
 7378SOL    HW233771   2.130   2.564   2.031  1.3106  1.0735 -0.8629
 7379SOL     OW33772   0.674   3.811   1.970 -0.0230  0.2203  0.5215
 7379SOL    HW133773   0.609   3.785   1.904  2.5188  0.5601 -2.1421
 7379SOL    HW233774   0.648   3.777   2.055  0.8004 -0.8667  0.3360
 7380SOL     OW33775   1.928   1.836   8.807  0.4969  0.1519  0.2795
 7380SOL    HW133776   1.845   1.800   8.777  0.2418  1.9152 -1.1837
 7380SOL    HW233777   1.895   1.923   8.830  2.6060  0.7254  1.1129
 7381SOL     OW33778   0.120   2.598   2.861  0.3026  0.2731 -0.3293
 7381SOL    HW133779   0.150   2.509   2.878 -1.9071 -0.1433  1.4818
 7381SOL    HW233780   0.178   2.657   2.909  2.8957 -2.2357 -0.4176
 7382SOL     OW33781   2.274   1.930   6.541 -0.7351 -0.1255  0.4037
 7382SOL    HW133782   2.360   1.937   6.582 -1.0381  3.9378  0.3693
 7382SOL    HW233783   2.220   1.911   6.618  1.8226  0.5680  2.3529
 7383SOL     OW33784   0.740   2.083   4.843 -0.2017 -0.3708 -0.3353
 7383SOL    HW133785   0.813   2.123   4.796 -1.6601  1.9790 -0.6054
 7383SOL    HW233786   0.665   2.110   4.790  1.4228  2.4589 -1.1737
 7384SOL     OW33787   2.847   3.673  10.544 -0.0847  0.3997  0.3924
 7384SOL    HW133788   2.913   3.604  10.533 -1.0982 -0.1932 -1.8369
 7384SOL    HW233789   2.860   3.686  10.638  0.1740  0.9747  0.2773
 7385SOL     OW33790   0.023   1.428   3.768  0.5283 -0.0561  0.3500
 7385SOL    HW133791   4.696   1.448   3.698  0.4391 -3.4491 -0.5396
 7385SOL    HW233792   0.019   1.493   3.838  1.0106 -0.7180  0.9925
 7386SOL     OW33793   0.643   3.725   7.979  0.0289 -0.1431  0.3194
 7386SOL    HW133794   0.664   3.680   7.897 -0.4569 -0.6462  0.4738
 7386SOL    HW233795   0.687   3.807   7.956 -0.2493 -0.6128 -1.8532
 7387SOL     OW33796   3.275   3.905   8.916 -0.1877 -0.4459  0.1034
 7387SOL    HW133797   3.261   3.864   9.001  2.9884  0.2628  0.9689
 7387SOL    HW233798   3.289   3.834   8.855  0.2924 -1.1747  1.0619
 7388SOL     OW33799   0.107   4.297   7.153  0.4947 -0.0029 -0.4352
 7388SOL    HW133800   0.157   4.373   7.183 -0.9363  0.9373 -0.4392
 7388SOL    HW233801   0.057   4.344   7.086 -1.3318  0.6993  1.4282
 7389SOL     OW33802   0.042   1.400   5.917  0.5709 -0.7349  0.0611
 7389SOL    HW133803   4.719   1.433   5.986  0.2262  0.7981 -0.9510
 7389SOL    HW233804   4.719   1.351   5.859 -0.2748 -1.7942  1.8062
 7390SOL     OW33805   0.641   0.641   0.030  0.0502  0.2757 -0.5127
 7390SOL    HW133806   0.567   0.592  17.732  0.2853 -0.9247  0.6030
 7390SOL    HW233807   0.637   0.625   0.124  0.9744  0.0928 -0.5070
 7391SOL     OW33808   2.035   2.504   5.765  0.9735 -0.1819 -0.0169
 7391SOL    HW133809   2.110   2.449   5.788  1.0418 -0.2820 -0.4835
 7391SOL    HW233810   2.080   2.567   5.708  1.9446 -0.2740  0.6377
 7392SOL     OW33811   2.856   4.543   4.379 -1.3271  0.1830  0.2925
 7392SOL    HW133812   2.889   4.496   4.456 -2.6735  0.6074  1.1419
 7392SOL    HW233813   2.810   4.615   4.423  0.3546  1.4926 -0.0948
 7393SOL     OW33814   3.144   0.956  10.417 -0.6214  0.1889  0.0975
 7393SOL    HW133815   3.197   1.005  10.354  0.1923  0.6249  1.1186
 7393SOL    HW233816   3.112   0.895  10.351  3.3009  0.2688 -1.9202
 7394SOL     OW33817   4.205   0.898   6.487 -0.0699  0.1779  0.2373
 7394SOL    HW133818   4.139   0.840   6.447  0.4203  1.4309 -2.3559
 7394SOL    HW233819   4.270   0.905   6.417 -0.8578  0.3914 -0.4678
 7395SOL     OW33820   3.742   1.621   6.506  0.7643  0.1706  0.1289
 7395SOL    HW133821   3.818   1.668   6.472 -0.9562  2.2609 -0.8518
 7395SOL    HW233822   3.759   1.620   6.600 -1.4738 -1.0234  0.5204
 7396SOL     OW33823   4.610   1.276   5.733 -0.0941 -0.6517  0.2968
 7396SOL    HW133824   4.530   1.233   5.765 -0.4017  0.8545  1.5578
 7396SOL    HW233825   4.596   1.273   5.638 -1.5291  0.5880  0.4561
 7397SOL     OW33826   1.507   3.992  13.556  0.4162  0.4487 -0.2250
 7397SOL    HW133827   1.526   4.007  13.649 -1.4308 -0.1780  0.2434
 7397SOL    HW233828   1.450   4.068  13.542 -0.7930 -0.8298 -2.1295
 7398SOL     OW33829   2.223   0.421  12.367  0.2689 -0.1560  0.2832
 7398SOL    HW133830   2.265   0.385  12.445  1.9343  1.1081 -0.0252
 7398SOL    HW233831   2.261   0.366  12.299  0.8530  1.9735 -1.1189
 7399SOL     OW33832   2.672   2.912   9.986 -0.1093  0.9239 -0.0682
 7399SOL    HW133833   2.757   2.877  10.015 -1.5782  1.2416  4.5059
 7399SOL    HW233834   2.694   2.982   9.925  0.6707  0.9921  0.2879
 7400SOL     OW33835   3.312   2.985   3.165  0.1619  0.4673  0.3343
 7400SOL    HW133836   3.340   3.031   3.086 -1.5209 -2.5049 -1.9998
 7400SOL    HW233837   3.218   2.978   3.150  0.5484 -0.8529 -1.4735
 7401SOL     OW33838   2.750   2.437  16.767 -0.3626 -0.2382 -0.1125
 7401SOL    HW133839   2.775   2.495  16.839 -0.9689 -1.2553  0.9268
 7401SOL    HW233840   2.837   2.413  16.735 -0.0997  1.9222 -0.9873
 7402SOL     OW33841   4.486   1.190   4.498  0.1278  0.2090 -0.9356
 7402SOL    HW133842   4.565   1.222   4.455  2.5887  0.3418  3.6836
 7402SOL    HW233843   4.513   1.189   4.590 -1.3458 -1.0269 -0.5244
 7403SOL     OW33844   1.966   4.005   8.748 -0.2026 -0.2485  0.5328
 7403SOL    HW133845   1.998   3.916   8.764  0.4468 -0.3420 -1.2338
 7403SOL    HW233846   1.875   3.981   8.762 -0.2370  0.7411  2.0291
 7404SOL     OW33847   4.337   3.292   0.059 -0.1942 -0.2057  0.3970
 7404SOL    HW133848   4.320   3.230  17.728  2.8432  0.8570 -1.2518
 7404SOL    HW233849   4.368   3.232   0.126  0.8515  0.8828  0.9049
 7405SOL     OW33850   3.560   1.462  13.876  0.1562 -0.4906  0.0318
 7405SOL    HW133851   3.543   1.404  13.950  2.6745 -1.0030  0.2029
 7405SOL    HW233852   3.651   1.481  13.900 -0.6678  1.1838  1.8322
 7406SOL     OW33853   2.062   2.604   0.189  0.0573 -0.3897 -0.2273
 7406SOL    HW133854   1.970   2.579   0.192 -0.9378  3.4043  0.4997
 7406SOL    HW233855   2.058   2.646   0.103  0.3378 -0.0175 -0.0545
 7407SOL     OW33856   2.364   4.600  10.658  0.0595 -0.1236 -0.3558
 7407SOL    HW133857   2.277   4.634  10.683  0.3368 -0.2945  0.8467
 7407SOL    HW233858   2.350   4.523  10.603 -1.6954 -0.5655  0.6801
 7408SOL     OW33859   1.061   3.662   3.025  0.4421 -0.1975 -0.1914
 7408SOL    HW133860   1.054   3.723   2.952 -1.0951  0.7905  0.7809
 7408SOL    HW233861   1.115   3.718   3.081 -1.4278  2.3883 -0.9585
 7409SOL     OW33862   0.145   4.319   2.837  0.4837  0.2574 -0.2990
 7409SOL    HW133863   0.125   4.327   2.930 -1.5969 -0.2466 -0.7025
 7409SOL    HW233864   0.231   4.359   2.847  0.7438 -0.9036  2.0865
 7410SOL     OW33865   2.222   1.871   3.171  1.1009  0.7435  0.1860
 7410SOL    HW133866   2.209   1.962   3.199  0.6966  0.6873  0.1747
 7410SOL    HW233867   2.301   1.853   3.222  1.3475  0.0891 -0.4414
 7411SOL     OW33868   4.517   3.536   9.261 -0.3015 -0.2305  0.0591
 7411SOL    HW133869   4.579   3.541   9.333 -1.2461  0.3610  0.8337
 7411SOL    HW233870   4.517   3.441   9.247 -0.8004 -0.2101 -0.0879
 7412SOL     OW33871   2.835   0.185   7.419 -0.3541  0.1946 -0.4733
 7412SOL    HW133872   2.798   0.183   7.507 -0.9877  2.0213 -0.6792
 7412SOL    HW233873   2.778   0.255   7.386 -0.0142  0.5557 -0.2858
 7413SOL     OW33874   4.494   3.771   4.482  0.0859  0.1099  0.2336
 7413SOL    HW133875   4.523   3.835   4.417  0.8151 -1.4405 -0.9792
 7413SOL    HW233876   4.469   3.691   4.437 -0.3348 -0.2723  1.1492
 7414SOL     OW33877   1.202   1.613   6.664 -0.2096 -0.1106  0.4983
 7414SOL    HW133878   1.159   1.598   6.579  1.0214  0.5909 -0.2399
 7414SOL    HW233879   1.196   1.708   6.671 -0.9562 -0.2510  1.9102
 7415SOL     OW33880   2.883   4.198  14.440 -0.1419  0.1477 -0.5815
 7415SOL    HW133881   2.859   4.175  14.351 -0.8972 -1.9266  0.1700
 7415SOL    HW233882   2.837   4.130  14.489  1.2742 -0.2928  0.1326
 7416SOL     OW33883   2.071   1.425   8.074 -0.0129  0.2384 -0.1108
 7416SOL    HW133884   2.128   1.455   8.145  1.1994  2.8351 -2.2302
 7416SOL    HW233885   1.981   1.436   8.105 -0.4486  0.3823 -1.4476
 7417SOL     OW33886   3.147   1.750   7.476 -0.5175 -0.3590  0.0304
 7417SOL    HW133887   3.102   1.665   7.483  2.3454 -1.7459  1.5092
 7417SOL    HW233888   3.232   1.718   7.508 -0.6015  0.5214  1.1157
 7418SOL     OW33889   1.648   1.343   3.420  0.3107 -0.1379 -0.1965
 7418SOL    HW133890   1.607   1.338   3.506  2.0478 -0.7886  0.5976
 7418SOL    HW233891   1.602   1.418   3.383  0.8552 -0.8123 -2.2711
 7419SOL     OW33892   0.579   0.805   1.220  0.0133 -0.2929  0.4985
 7419SOL    HW133893   0.506   0.862   1.193  0.3939  0.2461  0.5942
 7419SOL    HW233894   0.541   0.747   1.286  0.8205  0.3505  1.5303
 7420SOL     OW33895   2.811   3.556   0.791  0.2237  0.1265  0.1744
 7420SOL    HW133896   2.757   3.589   0.862 -0.3910  0.7575 -0.5848
 7420SOL    HW233897   2.762   3.583   0.713 -0.0848  1.6998  0.9140
 7421SOL     OW33898   2.828   0.539   6.156 -0.2835 -0.2929  0.1953
 7421SOL    HW133899   2.792   0.627   6.156  0.4331  0.0077 -2.6004
 7421SOL    HW233900   2.864   0.537   6.244 -1.6604  0.9644  0.7772
 7422SOL     OW33901   1.887   2.220   1.417 -0.7545  0.1439 -0.1719
 7422SOL    HW133902   1.974   2.181   1.422 -1.1241 -0.6865 -0.1411
 7422SOL    HW233903   1.901   2.299   1.468 -1.8657  0.7864 -0.8556
 7423SOL     OW33904   3.266   3.418   6.713  0.0497 -0.2615  0.3591
 7423SOL    HW133905   3.249   3.362   6.789  0.7672  0.6729  1.2013
 7423SOL    HW233906   3.286   3.352   6.646  0.2205 -1.5364  1.6806
 7424SOL     OW33907   0.771   4.724   5.770 -0.0039  0.0286  0.7080
 7424SOL    HW133908   0.740   0.075   5.740 -1.1135 -0.7585 -0.4159
 7424SOL    HW233909   0.860   4.715   5.734  0.3199 -1.1297  1.8119
 7425SOL     OW33910   1.786   3.526   0.940 -0.5852  0.0670 -0.1254
 7425SOL    HW133911   1.766   3.433   0.929 -0.6754  0.0485  0.1806
 7425SOL    HW233912   1.860   3.533   0.880 -0.4502 -0.5098 -0.0285
 7426SOL     OW33913   3.286   2.053   4.924  0.1365 -0.4967 -0.0497
 7426SOL    HW133914   3.311   2.014   5.008 -1.7370 -1.0766  0.2377
 7426SOL    HW233915   3.371   2.052   4.879  1.2572 -0.6954  2.0591
 7427SOL     OW33916   2.600   3.604  12.978  0.2417  0.4007  1.3210
 7427SOL    HW133917   2.554   3.608  13.062 -1.8503  1.5757  0.1018
 7427SOL    HW233918   2.540   3.630  12.908  0.0397 -1.0284  0.9578
 7428SOL     OW33919   1.203   4.021   4.860 -0.1355 -0.0626  0.2386
 7428SOL    HW133920   1.189   3.928   4.843 -3.8670  0.3703  0.9169
 7428SOL    HW233921   1.230   4.021   4.952  1.8669  1.7479 -0.3466
 7429SOL     OW33922   0.244   4.019   7.871 -0.5241 -0.3739 -0.0457
 7429SOL    HW133923   0.166   3.992   7.918 -0.8608  1.7611  0.6425
 7429SOL    HW233924   0.275   4.092   7.926 -1.9512 -0.6472  1.0948
 7430SOL     OW33925   3.615   3.951   2.952 -0.4438  0.2812 -0.6450
 7430SOL    HW133926   3.521   3.937   2.963 -0.6343  1.3145 -0.9734
 7430SOL    HW233927   3.626   3.966   2.858  0.6432  0.9863 -0.4096
 7431SOL     OW33928   3.699   1.985   4.763 -0.0917  0.2129 -0.2680
 7431SOL    HW133929   3.628   2.031   4.717  1.7476  1.0766 -2.2951
 7431SOL    HW233930   3.670   1.896   4.778 -0.5249  0.5672  1.0001
 7432SOL     OW33931   0.440   0.358   6.833  0.3817  0.0270 -0.4732
 7432SOL    HW133932   0.501   0.298   6.789  1.0179  1.5437 -1.6731
 7432SOL    HW233933   0.360   0.338   6.786  0.0864 -1.8537  0.7999
 7433SOL     OW33934   1.881   3.002   4.548 -0.2679  0.3203  0.3026
 7433SOL    HW133935   1.907   3.094   4.556  2.4402 -0.3940 -0.5322
 7433SOL    HW233936   1.967   2.960   4.544 -0.3882 -0.0153  1.4124
 7434SOL     OW33937   3.242   2.070   6.972 -0.0913 -0.4570  0.3514
 7434SOL    HW133938   3.287   2.137   6.920  2.8449 -0.9765  2.2135
 7434SOL    HW233939   3.219   2.120   7.050  1.8235  1.1663 -0.1296
 7435SOL     OW33940   1.491   4.313   3.748 -0.2405  0.5424  0.2450
 7435SOL    HW133941   1.533   4.376   3.689 -2.1839  1.4707 -0.1384
 7435SOL    HW233942   1.398   4.317   3.726 -0.2745 -0.2993  0.2231
 7436SOL     OW33943   3.243   2.972   5.943 -0.2441  0.2409 -0.2125
 7436SOL    HW133944   3.337   2.985   5.934 -0.2731  0.3891 -0.2923
 7436SOL    HW233945   3.254   2.915   6.019  0.6328  0.1118 -0.4379
 7437SOL     OW33946   1.148   1.087   4.896 -0.5169  0.0515  0.0454
 7437SOL    HW133947   1.131   1.156   4.831  2.0154  0.6792  0.0336
 7437SOL    HW233948   1.060   1.079   4.933 -1.2524  1.2011 -1.4816
 7438SOL     OW33949   2.263   2.908   1.342 -0.0721 -0.0777  0.0589
 7438SOL    HW133950   2.273   2.911   1.437 -0.7686 -1.2950  0.1625
 7438SOL    HW233951   2.186   2.963   1.327  0.3461  0.6229  0.4726
 7439SOL     OW33952   1.223   2.835   6.745 -0.2321 -0.2765  0.4202
 7439SOL    HW133953   1.234   2.882   6.662 -0.5855 -0.8960  0.0176
 7439SOL    HW233954   1.165   2.767   6.709 -0.4808  0.3388 -0.3570
 7440SOL     OW33955   4.207   2.219   7.028  0.3065 -0.2086  0.0096
 7440SOL    HW133956   4.234   2.135   7.065  1.6925  0.6193  0.8566
 7440SOL    HW233957   4.213   2.200   6.935  1.2654 -0.7979  0.1926
 7441SOL     OW33958   4.354   3.119  16.586 -0.4720  0.1807  0.3744
 7441SOL    HW133959   4.338   3.176  16.661 -1.8383  1.6728 -1.0309
 7441SOL    HW233960   4.302   3.042  16.609  0.2634 -0.0768  1.1674
 7442SOL     OW33961   0.523   3.195   2.151 -0.3030 -0.3701  0.2873
 7442SOL    HW133962   0.462   3.133   2.194 -0.7402  1.0066  1.6409
 7442SOL    HW233963   0.450   3.231   2.101  0.1186  2.4811  1.7746
 7443SOL     OW33964   3.825   1.782   1.586  0.1761  0.4655 -0.1090
 7443SOL    HW133965   3.856   1.733   1.510 -0.8130  0.6704 -0.6490
 7443SOL    HW233966   3.903   1.818   1.628  0.4196 -0.3791  0.1717
 7444SOL     OW33967   0.290   3.902  15.106  0.5463  0.3506  0.7416
 7444SOL    HW133968   0.197   3.923  15.096  0.5866  0.8045  1.2931
 7444SOL    HW233969   0.323   3.914  15.017 -1.0527 -0.7752 -0.0027
 7445SOL     OW33970   1.430   0.577   7.995 -0.4525 -0.0637 -0.2264
 7445SOL    HW133971   1.365   0.600   8.062 -2.9250  0.0991 -2.6643
 7445SOL    HW233972   1.497   0.645   8.003  0.2474 -0.6331 -1.3171
 7446SOL     OW33973   2.990   2.565   4.978  0.3345  0.0838  0.6056
 7446SOL    HW133974   3.045   2.638   4.950  1.0373 -1.1084 -1.0921
 7446SOL    HW233975   2.979   2.570   5.074  0.0448 -2.0548  0.6715
 7447SOL     OW33976   3.335   4.623  14.749 -0.0472 -0.3368 -0.7206
 7447SOL    HW133977   3.294   4.539  14.731  0.2919 -0.6077 -0.2288
 7447SOL    HW233978   3.261   4.682  14.732 -0.0128  0.2967  1.3051
 7448SOL     OW33979   3.296   3.043   5.471  0.3672  0.2896 -0.8891
 7448SOL    HW133980   3.266   3.028   5.560  1.6922  0.7079 -0.3734
 7448SOL    HW233981   3.355   2.969   5.458  0.4578  0.3088 -0.5804
 7449SOL     OW33982   2.724   2.621   2.206  0.3955 -0.1958  0.0123
 7449SOL    HW133983   2.741   2.529   2.189 -1.0906 -0.0104 -2.5255
 7449SOL    HW233984   2.632   2.618   2.232  0.2635  0.4028 -0.3692
 7450SOL     OW33985   0.809   4.263   4.013  0.1741  0.7012  0.1961
 7450SOL    HW133986   0.845   4.286   3.928 -0.3583  0.0164 -0.2109
 7450SOL    HW233987   0.723   4.235   3.984 -0.0560  1.3128  0.2842
 7451SOL     OW33988   4.558   3.820  11.893 -0.3891 -0.3160 -0.6169
 7451SOL    HW133989   4.541   3.735  11.933  1.5096 -0.7626 -0.7688
 7451SOL    HW233990   4.475   3.856  11.862 -0.9042 -1.3431 -0.4025
 7452SOL     OW33991   3.611   4.479   8.083 -0.2926 -0.7684  0.0467
 7452SOL    HW133992   3.653   4.407   8.035  0.8702 -2.4885  3.6248
 7452SOL    HW233993   3.541   4.428   8.123  1.5404 -0.8317  3.1892
 7453SOL     OW33994   1.630   3.966   5.702 -0.0248  0.1505 -0.0639
 7453SOL    HW133995   1.598   3.935   5.618 -2.5443 -1.7829  1.6095
 7453SOL    HW233996   1.626   3.883   5.749 -0.4763 -0.0768 -0.5118
 7454SOL     OW33997   3.619   0.305   0.570  0.6658  0.3836  0.2688
 7454SOL    HW133998   3.570   0.318   0.651 -0.0310 -1.8897  0.1983
 7454SOL    HW233999   3.634   0.396   0.543  0.7364 -0.0695 -1.2219
 7455SOL     OW34000   4.003   1.898   3.259  0.3807 -0.2138 -0.5284
 7455SOL    HW134001   3.910   1.875   3.263  1.0977 -2.6770  1.5827
 7455SOL    HW234002   4.018   1.926   3.349  1.4814 -0.7466 -0.5529
 7456SOL     OW34003   4.344   4.093  13.633 -0.3632  0.0617  0.1178
 7456SOL    HW134004   4.367   4.002  13.616 -0.8897 -0.1142  0.3359
 7456SOL    HW234005   4.426   4.142  13.634  0.2694 -0.9481 -1.3716
 7457SOL     OW34006   0.861   0.002  15.531 -0.3468  0.0881  0.1406
 7457SOL    HW134007   0.898   0.067  15.591 -2.2333 -0.7261  2.1724
 7457SOL    HW234008   0.934   4.691  15.491 -0.5209  0.3669 -0.4937
 7458SOL     OW34009   0.435   1.633   3.940 -0.2969  0.1845 -0.5355
 7458SOL    HW134010   0.416   1.627   3.847  0.0333 -1.3229 -0.5170
 7458SOL    HW234011   0.441   1.728   3.951 -1.8738  0.0935  1.2613
 7459SOL     OW34012   4.187   1.270   8.189  0.4175  0.7377  0.3028
 7459SOL    HW134013   4.150   1.298   8.273 -0.4207  1.9721 -0.4790
 7459SOL    HW234014   4.174   1.176   8.194 -0.9157  0.8181 -1.8777
 7460SOL     OW34015   4.200   3.445   7.190 -0.3716  0.0874 -0.2540
 7460SOL    HW134016   4.237   3.517   7.241 -0.9111  0.4328 -0.3468
 7460SOL    HW234017   4.223   3.474   7.101 -1.1278  1.8113  0.1135
 7461SOL     OW34018   2.410   4.075   7.498 -0.1571  0.2589  0.2272
 7461SOL    HW134019   2.461   4.016   7.442 -1.5332 -1.2501  0.5642
 7461SOL    HW234020   2.482   4.112   7.549 -0.1405  0.9751 -0.3110
 7462SOL     OW34021   1.252   3.745  10.798  0.1413 -0.2985 -0.1994
 7462SOL    HW134022   1.245   3.840  10.807  2.4059 -0.1876  0.3414
 7462SOL    HW234023   1.233   3.712  10.886 -0.3210 -1.4093 -0.7189
 7463SOL     OW34024   3.123   2.181   1.963 -0.3403  0.0233  0.0105
 7463SOL    HW134025   3.039   2.198   1.919 -0.6059  1.1398  0.9419
 7463SOL    HW234026   3.120   2.088   1.984  0.5720 -0.3088 -1.3171
 7464SOL     OW34027   1.459   1.224   2.434  0.4061 -0.1916  0.3353
 7464SOL    HW134028   1.548   1.254   2.416  1.6892 -1.8832  4.0083
 7464SOL    HW234029   1.456   1.140   2.388 -3.4521  1.0458 -1.6991
 7465SOL     OW34030   0.383   1.156   6.236  0.0110  0.0156 -0.2844
 7465SOL    HW134031   0.323   1.200   6.176  3.1348  3.0421 -1.2138
 7465SOL    HW234032   0.328   1.116   6.303 -1.3288  0.4958 -1.1017
 7466SOL     OW34033   3.708   2.885  17.022  0.2950 -0.1842 -0.0704
 7466SOL    HW134034   3.626   2.846  17.053 -1.1071  0.4146 -3.0301
 7466SOL    HW234035   3.673   2.948  16.958  0.3668 -3.2432 -3.1352
 7467SOL     OW34036   4.381   1.139   9.479  0.3197  0.2767  0.9093
 7467SOL    HW134037   4.342   1.211   9.528 -1.5697 -0.3591  0.3710
 7467SOL    HW234038   4.397   1.077   9.550  0.2457 -1.7299 -0.8209
 7468SOL     OW34039   4.616   4.581   2.640  0.8200  0.0576  0.3836
 7468SOL    HW134040   4.641   4.665   2.680 -0.0631  0.4916  0.0100
 7468SOL    HW234041   4.652   4.594   2.552  2.1099  0.2379  0.9386
 7469SOL     OW34042   1.869   2.528   7.051 -0.2713  0.7347 -0.0511
 7469SOL    HW134043   1.861   2.585   6.974  0.9506  0.7225 -0.1805
 7469SOL    HW234044   1.861   2.443   7.007  1.4258  1.4389 -1.7209
 7470SOL     OW34045   3.940   1.994   2.783  0.2104 -0.3390 -0.8539
 7470SOL    HW134046   3.896   2.053   2.722  2.4764 -0.9254 -3.0798
 7470SOL    HW234047   3.927   1.910   2.739  0.4268 -0.8268  0.0111
 7471SOL     OW34048   4.123   1.024   1.900  0.2859 -0.0536 -0.0720
 7471SOL    HW134049   4.218   1.037   1.910  0.4560 -0.1370 -1.5470
 7471SOL    HW234050   4.093   1.035   1.990 -1.9458 -3.5863 -0.4005
 7472SOL     OW34051   3.318   1.613  10.489  0.6122  0.9586 -0.0509
 7472SOL    HW134052   3.289   1.528  10.522  0.1018  1.7883  1.6153
 7472SOL    HW234053   3.403   1.622  10.532  0.9482 -0.1245 -0.4947
 7473SOL     OW34054   2.143   2.367   1.197 -0.0932 -0.4249 -0.0609
 7473SOL    HW134055   2.234   2.387   1.217 -0.0758 -0.3516 -0.2125
 7473SOL    HW234056   2.108   2.446   1.238 -1.4049 -1.2047  0.2980
 7474SOL     OW34057   3.813   0.871   2.738 -0.0274  0.9048  0.4513
 7474SOL    HW134058   3.734   0.900   2.783 -1.1763 -1.1015 -0.2432
 7474SOL    HW234059   3.775   0.790   2.703 -0.5564  1.2959  0.1208
 7475SOL     OW34060   4.358   0.036   3.510  0.3298  0.0204 -0.4840
 7475SOL    HW134061   4.362   0.115   3.455 -0.7576  0.9190  0.7158
 7475SOL    HW234062   4.435   0.067   3.558  0.5831  0.6000 -1.2463
 7476SOL     OW34063   0.873   4.040  17.532  0.0133 -0.1627  0.2524
 7476SOL    HW134064   0.839   4.025  17.444 -0.8244  1.4037  0.3049
 7476SOL    HW234065   0.863   4.135  17.538 -0.9750 -0.3895  2.1900
 7477SOL     OW34066   0.677   0.621   4.219  0.3741 -0.4607  0.7732
 7477SOL    HW134067   0.611   0.689   4.221  2.2518  1.2550  4.4421
 7477SOL    HW234068   0.757   0.662   4.185 -0.9105  0.9073 -0.5519
 7478SOL     OW34069   0.740   0.289   9.270 -0.1757 -0.4923  0.1370
 7478SOL    HW134070   0.789   0.359   9.228 -0.4891 -1.8647 -2.5041
 7478SOL    HW234071   0.780   0.213   9.227  0.8606  0.2063 -0.1462
 7479SOL     OW34072   0.269   2.354  11.433  0.5822 -0.0355 -0.0204
 7479SOL    HW134073   0.291   2.281  11.376 -1.4896  1.3010 -2.5494
 7479SOL    HW234074   0.272   2.322  11.523  2.8522  0.0143 -0.0777
 7480SOL     OW34075   2.649   3.773   5.179  0.7634  0.1386  0.2814
 7480SOL    HW134076   2.564   3.794   5.140  1.0880  1.5866  0.3678
 7480SOL    HW234077   2.636   3.812   5.265 -1.6002 -0.1209  0.0625
 7481SOL     OW34078   3.987   1.083   6.315 -0.6190 -0.1838  0.3756
 7481SOL    HW134079   3.946   1.127   6.241 -0.0977 -0.5267 -0.1163
 7481SOL    HW234080   3.953   0.995   6.301  0.2903 -0.6340  0.9699
 7482SOL     OW34081   2.959   1.829   4.439  0.4081 -0.0346  0.2103
 7482SOL    HW134082   2.906   1.808   4.515 -0.9236  0.5808 -0.5598
 7482SOL    HW234083   2.940   1.922   4.430 -0.1175 -0.1655 -0.0122
 7483SOL     OW34084   1.222   2.647   3.116 -0.3580 -0.6468  0.1052
 7483SOL    HW134085   1.276   2.718   3.152 -0.7730 -0.7156  0.8796
 7483SOL    HW234086   1.246   2.664   3.025 -0.3800 -1.2849 -0.0172
 7484SOL     OW34087   0.173   0.633   8.761  0.5904  0.5312 -0.1831
 7484SOL    HW134088   0.186   0.688   8.684 -1.0612  1.6767  0.3638
 7484SOL    HW234089   0.243   0.569   8.746  0.3300  0.6729 -2.0670
 7485SOL     OW34090   3.458   3.016   0.451 -0.2066  0.3019  0.2468
 7485SOL    HW134091   3.384   2.957   0.437  1.1663 -1.7252  1.5849
 7485SOL    HW234092   3.533   2.959   0.435  0.0048  0.2030  1.5886
 7486SOL     OW34093   1.607   4.270   6.763 -0.1690  0.2217  0.6031
 7486SOL    HW134094   1.633   4.356   6.730 -1.6607  0.2469 -0.4958
 7486SOL    HW234095   1.514   4.291   6.768  0.1299  1.8562 -0.7971
 7487SOL     OW34096   2.448   1.168   0.599 -0.3128  0.2162  0.2717
 7487SOL    HW134097   2.541   1.189   0.611  0.4517 -3.5770  0.9807
 7487SOL    HW234098   2.426   1.168   0.692  0.6800  0.7837  0.5046
 7488SOL     OW34099   2.185   4.146   1.519 -0.4429  0.1174  0.2625
 7488SOL    HW134100   2.092   4.151   1.542 -0.5522 -0.4982 -0.0386
 7488SOL    HW234101   2.179   4.208   1.447  0.5529  0.9669  0.9182
 7489SOL     OW34102   1.593   0.128   7.016  0.1220  0.6976  0.6197
 7489SOL    HW134103   1.682   0.162   7.021  0.1857  0.6286 -0.1071
 7489SOL    HW234104   1.596   0.069   7.091 -0.4746  1.4517  1.2406
 7490SOL     OW34105   4.435   1.628  12.727  0.0839 -0.4075  0.0610
 7490SOL    HW134106   4.511   1.572  12.740 -2.1177 -3.8435 -1.7669
 7490SOL    HW234107   4.471   1.713  12.751  0.1848 -0.4532  0.0688
 7491SOL     OW34108   3.967   2.891   2.100  0.2000  0.1892  0.0229
 7491SOL    HW134109   4.043   2.864   2.049 -0.2785 -1.3316  0.1127
 7491SOL    HW234110   3.887   2.854   2.061  0.0967  1.6838 -1.1734
 7492SOL     OW34111   2.179   3.511  15.765  0.2310 -0.0490 -0.4801
 7492SOL    HW134112   2.136   3.497  15.681  0.7851  0.4675 -0.8472
 7492SOL    HW234113   2.207   3.424  15.794 -1.9835 -0.5063  0.2657
 7493SOL     OW34114   1.549   0.261   9.168  0.0323  0.3411 -0.3477
 7493SOL    HW134115   1.467   0.223   9.198  2.3549 -1.9294  3.1801
 7493SOL    HW234116   1.520   0.335   9.114 -0.9078  0.9542  1.0012
 7494SOL     OW34117   4.085   2.738  11.054 -0.3392  0.7083 -0.8429
 7494SOL    HW134118   3.995   2.770  11.041 -0.2226  0.8164 -1.3935
 7494SOL    HW234119   4.136   2.777  10.983 -1.3506  2.1869 -0.7835
 7495SOL     OW34120   1.443   3.828  11.499 -0.1389 -0.1330 -0.0684
 7495SOL    HW134121   1.516   3.765  11.498 -1.0218 -1.1314 -1.9802
 7495SOL    HW234122   1.451   3.855  11.591 -0.3319  0.6032 -0.2713
 7496SOL     OW34123   0.103   3.479   8.969 -0.1471 -0.7392  0.9280
 7496SOL    HW134124   0.073   3.570   8.962 -1.1392 -1.0980  0.5963
 7496SOL    HW234125   0.153   3.481   9.051  1.9219 -2.7170 -0.3208
 7497SOL     OW34126   1.513   3.426   2.978 -0.1623 -0.4351 -0.2561
 7497SOL    HW134127   1.509   3.375   3.059 -1.3805  0.2474  0.1182
 7497SOL    HW234128   1.425   3.408   2.944  0.6840  0.2558 -2.7527
 7498SOL     OW34129   3.446   3.024   4.220  0.4720  0.0799 -0.8808
 7498SOL    HW134130   3.448   3.096   4.283 -2.0286 -1.1507  0.5981
 7498SOL    HW234131   3.382   2.965   4.260  1.4672 -0.2652  0.1804
 7499SOL     OW34132   2.868   1.869   3.292 -0.2894  0.3863 -0.6101
 7499SOL    HW134133   2.880   1.819   3.211  0.3518  1.9253 -1.4525
 7499SOL    HW234134   2.857   1.795   3.352 -0.4563  1.1211  0.2707
 7500SOL     OW34135   2.141   0.676  16.230  0.5363 -0.5885  0.0697
 7500SOL    HW134136   2.224   0.628  16.225  1.2321  0.6519 -0.2953
 7500SOL    HW234137   2.075   0.615  16.264 -0.9632  0.9130 -0.1297
 7501SOL     OW34138   3.878   2.586   7.701  0.1392  0.4023 -0.1928
 7501SOL    HW134139   3.832   2.583   7.618 -1.2339  0.7151  0.5559
 7501SOL    HW234140   3.812   2.620   7.761 -0.1470  0.6454 -0.6495
 7502SOL     OW34141   4.391   0.737   4.835  0.3278 -0.0511 -0.3149
 7502SOL    HW134142   4.441   0.818   4.834  0.4815 -0.1665 -1.9250
 7502SOL    HW234143   4.300   0.767   4.834  0.3164 -0.0713  0.0064
 7503SOL     OW34144   1.887   2.756  12.381 -0.2184  0.3360 -0.1073
 7503SOL    HW134145   1.905   2.809  12.303 -1.4898 -1.7126 -1.7860
 7503SOL    HW234146   1.955   2.784  12.442  1.1664 -0.6897 -1.2069
 7504SOL     OW34147   1.645   0.256  17.125 -0.3244  0.5870 -0.0964
 7504SOL    HW134148   1.735   0.266  17.157  0.0260  0.4140 -1.0071
 7504SOL    HW234149   1.606   0.337  17.156 -0.7735  0.2068  0.3352
 7505SOL     OW34150   3.391   1.626   3.479 -0.7189  0.8452  0.3754
 7505SOL    HW134151   3.321   1.668   3.530 -1.1380 -0.9358  1.2687
 7505SOL    HW234152   3.390   1.540   3.522  1.4874  1.0550  0.8700
 7506SOL     OW34153   4.622   1.390   5.076 -0.1259 -0.4482  0.2691
 7506SOL    HW134154   4.682   1.317   5.061  0.8875 -0.2516  3.2322
 7506SOL    HW234155   4.672   1.461   5.035 -1.4883  1.4545  1.8988
 7507SOL     OW34156   1.794   1.485  11.616  0.0432  0.0467 -0.4062
 7507SOL    HW134157   1.847   1.406  11.612 -0.5060 -0.3276 -0.3073
 7507SOL    HW234158   1.860   1.554  11.629 -0.0334 -0.0048  0.2964
 7508SOL     OW34159   0.098   0.152   5.607  0.3166 -0.5453  0.4096
 7508SOL    HW134160   0.189   0.175   5.625  0.4884 -1.3594  0.5577
 7508SOL    HW234161   0.070   0.223   5.549  0.8651  1.7103  2.8691
 7509SOL     OW34162   0.344   4.097   9.818  0.3661 -0.3481 -0.0305
 7509SOL    HW134163   0.291   4.177   9.816 -0.4938 -0.8834  0.9662
 7509SOL    HW234164   0.336   4.065   9.908 -3.4630 -0.4211 -0.4098
 7510SOL     OW34165   1.997   2.208  11.167 -0.0212 -0.1556 -0.2508
 7510SOL    HW134166   1.906   2.182  11.177 -0.1678  0.9917  1.4460
 7510SOL    HW234167   2.046   2.157  11.231  3.7651  3.7215 -0.0651
 7511SOL     OW34168   0.917   0.649   2.849 -0.2067 -0.0919 -0.1064
 7511SOL    HW134169   0.829   0.648   2.887 -0.9188 -0.0083 -1.7627
 7511SOL    HW234170   0.902   0.690   2.764 -0.5766 -0.0287 -0.0104
 7512SOL     OW34171   4.236   4.714   4.184 -0.1091  0.2071 -0.2473
 7512SOL    HW134172   4.314   4.726   4.129  1.2867 -1.5177  1.3257
 7512SOL    HW234173   4.244   4.619   4.195  1.9603  0.0547 -3.0275
 7513SOL     OW34174   0.600   2.981   6.645 -0.0767  0.1662 -0.5867
 7513SOL    HW134175   0.574   2.920   6.576  0.6669  0.6419 -1.2903
 7513SOL    HW234176   0.662   2.932   6.698  0.5393  2.0062  0.3829
 7514SOL     OW34177   3.811   3.274  16.629  0.8846 -0.6254 -0.1935
 7514SOL    HW134178   3.769   3.238  16.707 -1.0581 -0.0457 -0.9888
 7514SOL    HW234179   3.760   3.352  16.607 -0.2855 -1.3811 -0.1307
 7515SOL     OW34180   0.408   1.629   6.808 -0.2021 -0.1308 -0.2799
 7515SOL    HW134181   0.403   1.722   6.829  0.7929  0.3891 -2.3440
 7515SOL    HW234182   0.485   1.604   6.858 -0.4820  0.9677  0.7015
 7516SOL     OW34183   0.033   2.549   3.283  0.1342  0.1587  0.2358
 7516SOL    HW134184   4.685   2.566   3.239  1.2045 -0.0850 -1.9142
 7516SOL    HW234185   0.073   2.493   3.216  0.0397  0.1842  0.1571
 7517SOL     OW34186   4.236   1.816  14.501  0.2296 -0.4604  0.3333
 7517SOL    HW134187   4.267   1.844  14.587  1.0227 -0.0172 -0.0955
 7517SOL    HW234188   4.320   1.830  14.458 -1.2284  0.7461 -2.1424
 7518SOL     OW34189   0.434   4.214   2.396  0.0196  0.1447 -0.7861
 7518SOL    HW134190   0.351   4.254   2.424  0.0227 -0.2379 -0.2283
 7518SOL    HW234191   0.403   4.131   2.360  0.4801  0.3405 -1.6319
 7519SOL     OW34192   0.044   0.194   5.984  0.9225 -0.2308  0.3710
 7519SOL    HW134193   4.733   0.168   5.905  0.6284 -0.6348  0.6767
 7519SOL    HW234194   0.013   0.125   6.042 -0.2558 -0.4628 -0.5411
 7520SOL     OW34195   1.090   3.828  16.795  0.2320 -0.2696 -0.1059
 7520SOL    HW134196   1.069   3.744  16.834 -0.0517 -0.7402 -1.2929
 7520SOL    HW234197   1.164   3.864  16.844  0.2555  0.8901 -0.9708
 7521SOL     OW34198   0.446   0.828   2.072  0.0434  0.7765 -0.4666
 7521SOL    HW134199   0.380   0.761   2.091  1.2302 -0.3931 -0.5392
 7521SOL    HW234200   0.510   0.810   2.141 -1.1895  0.2296  0.5491
 7522SOL     OW34201   2.598   4.537   3.927  0.2386  0.4348  0.2283
 7522SOL    HW134202   2.537   4.582   3.985  1.1900  1.6566  0.2962
 7522SOL    HW234203   2.655   4.494   3.991  0.0335 -1.1068 -0.6402
 7523SOL     OW34204   3.258   0.285   2.728 -0.0317  0.2748 -0.3245
 7523SOL    HW134205   3.245   0.342   2.804 -0.1386  1.7060 -1.4186
 7523SOL    HW234206   3.197   0.215   2.753  1.3775 -0.7290  0.2800
 7524SOL     OW34207   4.235   1.017   4.999 -0.3041  0.2279 -0.0151
 7524SOL    HW134208   4.313   1.066   5.025 -0.6003  0.5189  0.3198
 7524SOL    HW234209   4.186   1.088   4.956 -1.8250  0.5105  2.1662
 7525SOL     OW34210   1.391   2.494   7.892  0.4198  0.2032  0.2831
 7525SOL    HW134211   1.485   2.480   7.881  0.4793  0.5303  0.3925
 7525SOL    HW234212   1.382   2.444   7.973 -1.7521  0.0250 -0.0721
 7526SOL     OW34213   2.278   4.119  16.486  0.1341 -0.2297  0.1489
 7526SOL    HW134214   2.337   4.069  16.542 -0.0957  1.8001  2.2137
 7526SOL    HW234215   2.343   4.177  16.444 -1.2108  0.9537 -0.3142
 7527SOL     OW34216   2.897   3.719  10.798  0.2795  0.0233  0.2508
 7527SOL    HW134217   2.862   3.744  10.883  3.0690  3.8551  0.2926
 7527SOL    HW234218   2.988   3.701  10.823 -0.2069  0.0071  1.9711
 7528SOL     OW34219   0.984   2.635   0.783 -0.3022  0.0253 -0.6128
 7528SOL    HW134220   0.953   2.629   0.874  0.2005 -3.6811 -0.6840
 7528SOL    HW234221   1.079   2.622   0.790  0.3765  4.7465 -0.5343
 7529SOL     OW34222   2.626   0.344   3.094 -0.6896 -0.1352  0.2667
 7529SOL    HW134223   2.667   0.322   3.177 -0.4766 -1.6869 -0.2311
 7529SOL    HW234224   2.540   0.369   3.127 -0.7877 -2.3557  1.7241
 7530SOL     OW34225   0.942   1.148   3.978 -0.1043  0.2230  0.0427
 7530SOL    HW134226   0.998   1.145   3.900  1.9898  0.5831  1.5403
 7530SOL    HW234227   0.862   1.182   3.938  0.0136 -0.6693 -0.9846
 7531SOL     OW34228   2.222   2.511   0.864 -0.2177 -0.2289 -0.1124
 7531SOL    HW134229   2.280   2.564   0.809  0.7057  1.1703  2.1947
 7531SOL    HW234230   2.261   2.535   0.948 -0.4104  0.9619 -0.3604
 7532SOL     OW34231   3.251   1.308   3.925  0.0088 -0.0489  0.2279
 7532SOL    HW134232   3.179   1.341   3.979 -0.4030  1.7346 -1.3966
 7532SOL    HW234233   3.333   1.325   3.970 -0.2363 -0.7930  0.9554
 7533SOL     OW34234   2.934   2.151   4.201  0.0393  0.0707 -0.0685
 7533SOL    HW134235   2.884   2.108   4.271  0.1463  0.2990  0.1490
 7533SOL    HW234236   3.011   2.185   4.248 -0.6683  0.1404  1.0456
 7534SOL     OW34237   3.748   2.394   8.647  0.5627  0.1269  0.2220
 7534SOL    HW134238   3.681   2.449   8.605 -0.2578 -0.9640  0.1150
 7534SOL    HW234239   3.784   2.446   8.719  0.4223  1.2983 -0.5437
 7535SOL     OW34240   4.102   0.075   9.480 -0.4195 -0.4900  0.7111
 7535SOL    HW134241   4.076   4.728   9.522 -0.4520 -1.0959 -0.4859
 7535SOL    HW234242   4.197   0.067   9.484 -0.3837 -0.6598 -0.4050
 7536SOL     OW34243   3.506   1.516   2.941 -0.1476 -0.2627  0.3294
 7536SOL    HW134244   3.462   1.528   2.857  1.3283  0.2716 -0.3809
 7536SOL    HW234245   3.439   1.498   3.007 -3.1933  1.9333 -2.1944
 7537SOL     OW34246   1.445   4.717   3.802  0.4189 -0.2995 -0.8558
 7537SOL    HW134247   1.371   4.708   3.863  1.8448 -1.8311  0.6537
 7537SOL    HW234248   1.473   0.069   3.829  1.0914 -1.1554  1.2206
 7538SOL     OW34249   3.176   1.050   2.366 -0.0920  0.7558 -0.6567
 7538SOL    HW134250   3.200   1.002   2.287 -1.0675  1.5949 -1.4693
 7538SOL    HW234251   3.095   1.007   2.392  0.8474  0.0586  1.1194
 7539SOL     OW34252   3.811   4.487   6.920  0.1780  0.0669  0.2778
 7539SOL    HW134253   3.842   4.471   6.831 -0.6539  0.9175 -0.1634
 7539SOL    HW234254   3.734   4.543   6.914  0.9834  1.4233  2.4720
 7540SOL     OW34255   2.252   3.943  17.331 -0.2543  0.0589  0.3935
 7540SOL    HW134256   2.188   3.877  17.302  1.8168 -2.7325  2.1871
 7540SOL    HW234257   2.190   4.016  17.331 -0.7632 -0.3674  0.6514
 7541SOL     OW34258   1.556   4.128   2.527 -0.2470  0.0574 -0.0662
 7541SOL    HW134259   1.560   4.216   2.491 -1.9117  1.3662  2.9602
 7541SOL    HW234260   1.626   4.091   2.474 -1.5108 -0.2817 -1.5187
 7542SOL     OW34261   2.738   2.588   2.766 -0.2184  0.0362 -0.0461
 7542SOL    HW134262   2.779   2.551   2.688  1.8556  1.7000  0.2661
 7542SOL    HW234263   2.645   2.585   2.741 -0.2987 -0.2442  0.2930
 7543SOL     OW34264   3.875   1.039   3.691  0.0593  0.1304 -0.1109
 7543SOL    HW134265   3.799   1.044   3.749  1.9462  2.1204  2.2054
 7543SOL    HW234266   3.942   1.010   3.753 -0.1859  0.1316  0.1531
 7544SOL     OW34267   1.917   1.505   3.439 -0.0213 -0.1144  0.3399
 7544SOL    HW134268   1.953   1.593   3.427  1.1710 -0.5710  0.5845
 7544SOL    HW234269   1.859   1.497   3.362 -0.8380 -0.2252  0.9631
 7545SOL     OW34270   1.255   3.537  14.942 -0.3687  0.1757  0.3679
 7545SOL    HW134271   1.345   3.562  14.965  1.4397 -2.7662 -3.4744
 7545SOL    HW234272   1.272   3.502  14.854  0.5778 -0.1072  0.6576
 7546SOL     OW34273   4.723   0.246   6.943  0.4386  0.3555  0.1976
 7546SOL    HW134274   4.642   0.262   6.895 -0.0199  0.4494  1.0172
 7546SOL    HW234275   0.014   0.333   6.974  0.6070  0.0575  0.8835
 7547SOL     OW34276   0.092   3.783   6.865  0.0411 -0.5106  0.1655
 7547SOL    HW134277   0.125   3.800   6.953  1.5981 -1.3608 -0.2548
 7547SOL    HW234278   4.732   3.784   6.879 -0.0340  0.3389 -0.4699
 7548SOL     OW34279   4.345   2.868   0.189 -0.1332  0.0912  0.5011
 7548SOL    HW134280   4.292   2.788   0.185  0.5215 -0.3983  1.9719
 7548SOL    HW234281   4.422   2.833   0.233 -1.6692 -2.4505  1.1709
 7549SOL     OW34282   2.525   3.314   2.943 -0.3184 -0.1566 -0.6152
 7549SOL    HW134283   2.550   3.259   3.018  1.1539 -0.6292 -1.4693
 7549SOL    HW234284   2.501   3.258   2.869  0.8272 -2.2236  0.5776
 7550SOL     OW34285   0.951   2.804   8.542  0.4059 -0.0490  0.5232
 7550SOL    HW134286   1.018   2.870   8.561  0.0729  1.0822 -2.2161
 7550SOL    HW234287   0.883   2.823   8.607 -0.6334  1.4303 -1.0201
 7551SOL     OW34288   3.079   4.538   1.157  0.0134  0.0439 -0.0694
 7551SOL    HW134289   3.130   4.584   1.224 -0.2954  1.1859 -0.6162
 7551SOL    HW234290   2.990   4.567   1.175  0.5231 -0.1230  2.8882
 7552SOL     OW34291   3.777   1.022   5.393 -0.3154  0.2070 -0.3916
 7552SOL    HW134292   3.825   0.942   5.372 -0.0721  0.3799 -0.4905
 7552SOL    HW234293   3.692   1.010   5.351 -1.2588  1.3984  1.1467
 7553SOL     OW34294   0.800   0.027   9.221  0.1739  0.1886 -0.3935
 7553SOL    HW134295   0.780   0.006   9.312  1.2918 -0.6033 -0.3290
 7553SOL    HW234296   0.801   4.672   9.188 -1.0283 -0.1115  0.3791
 7554SOL     OW34297   2.440   2.603   5.543 -0.3152  0.2070  0.1648
 7554SOL    HW134298   2.525   2.646   5.527  0.7308 -1.7302  0.5272
 7554SOL    HW234299   2.459   2.538   5.611  1.9214 -0.1320 -0.7593
 7555SOL     OW34300   2.266   2.915  15.799  0.0276 -0.7716  0.4391
 7555SOL    HW134301   2.171   2.907  15.807  0.2692 -2.5579  1.6119
 7555SOL    HW234302   2.280   2.840  15.741  0.1446  0.5839 -1.2911
 7556SOL     OW34303   1.509   0.620  10.552 -0.3942  0.4711  0.4521
 7556SOL    HW134304   1.465   0.703  10.537  0.3061  0.6273 -0.7574
 7556SOL    HW234305   1.474   0.602  10.639  0.4634 -1.1011  0.4840
 7557SOL     OW34306   0.476   1.321  16.654  0.0637 -0.2002  0.2129
 7557SOL    HW134307   0.407   1.316  16.588  1.0193  0.5027 -0.8307
 7557SOL    HW234308   0.518   1.401  16.621 -0.2699  0.3715  1.1843
 7558SOL     OW34309   2.411   0.822   2.814  0.5857 -0.0377 -0.5093
 7558SOL    HW134310   2.455   0.737   2.814 -2.4879 -1.6329 -0.6114
 7558SOL    HW234311   2.327   0.807   2.858  0.9854 -1.7666 -0.3407
 7559SOL     OW34312   2.868   1.393  11.529  0.1598 -0.5864 -0.0296
 7559SOL    HW134313   2.907   1.353  11.607 -1.0845 -2.2762 -0.2615
 7559SOL    HW234314   2.786   1.433  11.557  0.1954 -1.3682  1.2072
 7560SOL     OW34315   0.271   3.592   7.253  0.3487 -0.5078  0.1784
 7560SOL    HW134316   0.327   3.647   7.199 -0.0355 -0.2808  0.0082
 7560SOL    HW234317   0.338   3.552   7.308 -0.3876 -3.0217 -0.7622
 7561SOL     OW34318   2.443   3.516   3.646  0.1226 -0.2337  0.4286
 7561SOL    HW134319   2.407   3.605   3.655  1.7960  0.4847  0.0266
 7561SOL    HW234320   2.462   3.495   3.737 -0.9046 -1.6778  0.3057
 7562SOL     OW34321   3.592   3.635   9.702  0.6115  0.3844 -0.4154
 7562SOL    HW134322   3.575   3.696   9.631  1.0971 -0.5389 -1.3207
 7562SOL    HW234323   3.558   3.689   9.773 -1.1298 -0.8282 -0.3211
 7563SOL     OW34324   2.113   3.881   7.248 -0.3208  0.1367  0.6364
 7563SOL    HW134325   2.027   3.897   7.288 -1.0249 -0.4941 -0.6219
 7563SOL    HW234326   2.127   3.787   7.255  0.8179  0.2285 -0.4730
 7564SOL     OW34327   2.980   4.228   4.355 -0.4231  0.6662 -0.1033
 7564SOL    HW134328   3.010   4.289   4.287  0.9952  0.8229  0.6511
 7564SOL    HW234329   2.935   4.280   4.421  1.2917 -0.0248  1.5944
 7565SOL     OW34330   1.450   1.931   2.753  0.6790 -0.1672  0.0529
 7565SOL    HW134331   1.445   1.871   2.679  0.8127 -1.9444  1.4875
 7565SOL    HW234332   1.510   1.883   2.811  2.3305 -1.4940 -2.7741
 7566SOL     OW34333   2.726   2.866   3.961  0.1590 -0.3851 -0.1414
 7566SOL    HW134334   2.783   2.922   4.013 -1.1540 -1.1575  2.1378
 7566SOL    HW234335   2.765   2.865   3.873  1.4306 -0.1026  0.4352
 7567SOL     OW34336   0.918   3.308  13.631  0.2108  0.2402  0.4014
 7567SOL    HW134337   0.906   3.276  13.720  0.6229 -2.5339 -0.5291
 7567SOL    HW234338   0.956   3.226  13.598 -1.8245 -0.9043  0.9083
 7568SOL     OW34339   0.760   2.033   7.018 -0.3553  0.4568 -0.6734
 7568SOL    HW134340   0.825   1.964   7.036  1.3298  1.2625 -3.6107
 7568SOL    HW234341   0.700   2.014   7.090  0.4435 -0.7474 -0.3205
 7569SOL     OW34342   2.236   2.227   0.424  0.4731  0.1789 -0.0230
 7569SOL    HW134343   2.306   2.285   0.394 -0.6772 -0.1257 -3.3534
 7569SOL    HW234344   2.186   2.285   0.481 -2.5615 -1.9943 -0.4532
 7570SOL     OW34345   2.847   2.298  15.334  0.3025 -0.3543  0.0870
 7570SOL    HW134346   2.863   2.291  15.428  1.1214 -0.5472 -0.0640
 7570SOL    HW234347   2.936   2.312  15.302  0.5957  0.8668  1.4053
 7571SOL     OW34348   0.626   1.339   7.111 -0.6174  0.0031 -0.2619
 7571SOL    HW134349   0.720   1.329   7.130  0.1732  4.1417 -2.0254
 7571SOL    HW234350   0.599   1.258   7.068  0.6350  0.5385 -2.0501
 7572SOL     OW34351   3.697   4.065  10.117 -0.7255 -0.0446  0.0261
 7572SOL    HW134352   3.675   4.073  10.024 -0.2614  1.3538  0.0304
 7572SOL    HW234353   3.614   4.081  10.162 -0.9009  0.0458 -0.3301
 7573SOL     OW34354   0.789   2.208   2.063  0.7448  0.3518  0.2273
 7573SOL    HW134355   0.823   2.164   1.985  2.8930 -0.3051  1.5447
 7573SOL    HW234356   0.708   2.157   2.070 -0.1601  1.7626  0.0067
 7574SOL     OW34357   4.332   3.814  13.849  0.0997 -0.6414 -0.0672
 7574SOL    HW134358   4.317   3.793  13.757  0.4948 -1.5252  0.0745
 7574SOL    HW234359   4.313   3.908  13.844  1.8267 -0.2905  0.0560
 7575SOL     OW34360   1.003   3.182   0.325 -0.2793  0.4029  0.1363
 7575SOL    HW134361   0.937   3.144   0.268 -2.1424  0.7282  2.0603
 7575SOL    HW234362   1.044   3.227   0.251 -1.5954 -2.0944 -2.0948
 7576SOL     OW34363   0.839   3.551   9.082 -0.5104  0.1037  0.3313
 7576SOL    HW134364   0.845   3.599   9.164 -0.5934 -0.5885  0.7420
 7576SOL    HW234365   0.777   3.599   9.028  1.6590  1.6099 -0.8100
 7577SOL     OW34366   2.751   2.249  13.137 -0.1290  0.5732  0.5293
 7577SOL    HW134367   2.704   2.171  13.169  1.3438  1.0622  3.8009
 7577SOL    HW234368   2.681   2.314  13.145 -2.4527 -1.8071 -0.1806
 7578SOL     OW34369   2.482   1.984   7.541  0.0109  0.3331  0.3361
 7578SOL    HW134370   2.559   2.034   7.571  0.9814 -1.2640  0.4957
 7578SOL    HW234371   2.497   1.988   7.446  2.0098 -1.0361  0.5923
 7579SOL     OW34372   1.175   2.163   6.421 -0.0349 -0.0992  0.2253
 7579SOL    HW134373   1.186   2.122   6.335 -0.6648  0.5536 -0.1642
 7579SOL    HW234374   1.085   2.193   6.411 -0.0607 -0.6448 -1.2443
 7580SOL     OW34375   2.662   4.113  11.227 -0.0565  0.1385 -0.4116
 7580SOL    HW134376   2.581   4.077  11.190  1.3375 -3.9943  0.5763
 7580SOL    HW234377   2.622   4.141  11.310  0.9795 -1.4705  0.6210
 7581SOL     OW34378   1.168   1.129   8.570  0.5162  0.0554  0.2963
 7581SOL    HW134379   1.156   1.119   8.665 -1.5356  2.1034  0.2690
 7581SOL    HW234380   1.087   1.086   8.543 -0.9420  2.5666  0.6698
 7582SOL     OW34381   2.469   3.085   1.964  0.2920  0.0751 -0.4418
 7582SOL    HW134382   2.393   3.030   1.946  0.5268 -0.4709  0.2371
 7582SOL    HW234383   2.520   3.025   2.018 -0.1123  0.5745  0.4904
 7583SOL     OW34384   1.768   0.472  14.889 -0.0349  0.2472  0.3773
 7583SOL    HW134385   1.830   0.521  14.836 -0.1163 -0.3920 -0.3114
 7583SOL    HW234386   1.729   0.407  14.830  2.6304  1.0090 -2.1750
 7584SOL     OW34387   2.310   3.319   8.049  0.6530 -0.0012  0.1425
 7584SOL    HW134388   2.313   3.399   7.996  2.3119 -0.8690 -1.0876
 7584SOL    HW234389   2.358   3.257   7.993  2.2373  1.0779  0.2818
 7585SOL     OW34390   0.164   4.060   3.790 -0.0151  0.6389 -0.8461
 7585SOL    HW134391   0.229   4.085   3.855 -0.9727  0.1903  0.2940
 7585SOL    HW234392   0.213   3.998   3.736 -2.5264 -1.2055 -1.0171
 7586SOL     OW34393   3.589   1.595  10.620 -0.1493 -0.4683 -0.2158
 7586SOL    HW134394   3.681   1.605  10.644 -1.1762  0.8631  3.1396
 7586SOL    HW234395   3.565   1.687  10.633  0.0546 -0.5528  0.7440
 7587SOL     OW34396   1.699   0.445   8.636 -0.8909  0.5061  0.2473
 7587SOL    HW134397   1.732   0.380   8.698 -0.0037  0.7819  0.0769
 7587SOL    HW234398   1.606   0.425   8.633 -0.8228  0.4059 -1.2498
 7588SOL     OW34399   1.773   3.159   1.362  0.1825 -0.0106 -0.2273
 7588SOL    HW134400   1.688   3.125   1.388 -0.0772  0.4552 -0.4747
 7588SOL    HW234401   1.751   3.252   1.354 -0.3138 -0.3156 -2.3272
 7589SOL     OW34402   3.437   1.961   7.386  0.4760 -0.1979 -0.3046
 7589SOL    HW134403   3.448   1.879   7.434 -2.4360  0.5061  1.5435
 7589SOL    HW234404   3.422   1.937   7.295 -0.3838 -0.5102 -0.0844
 7590SOL     OW34405   0.693   2.066   4.260  0.1560 -0.6908  0.3055
 7590SOL    HW134406   0.715   2.086   4.351  0.4337 -0.3883  0.1688
 7590SOL    HW234407   0.694   1.970   4.266  0.9806 -0.6503  0.9019
 7591SOL     OW34408   0.619   3.447   3.235  0.1778 -0.4264 -0.5015
 7591SOL    HW134409   0.675   3.517   3.202 -0.5726  0.6577  0.5277
 7591SOL    HW234410   0.551   3.439   3.168 -0.1618  0.7545 -0.3032
 7592SOL     OW34411   3.544   1.431  13.019  0.3679  0.3923 -0.1844
 7592SOL    HW134412   3.636   1.411  13.003  0.3486 -0.3904  0.6941
 7592SOL    HW234413   3.499   1.375  12.956 -0.5167  0.2218  0.6028
 7593SOL     OW34414   0.067   3.332   5.570 -0.0555 -0.0543 -0.3322
 7593SOL    HW134415   0.126   3.257   5.560  0.2710  0.2373 -0.6172
 7593SOL    HW234416   0.096   3.392   5.501  0.4221 -1.7582 -1.6073
 7594SOL     OW34417   0.568   2.318  12.853 -0.6462  0.0775  0.3931
 7594SOL    HW134418   0.515   2.397  12.863 -1.1988 -0.1615 -0.6214
 7594SOL    HW234419   0.640   2.367  12.813  0.4635 -0.0995  2.1939
 7595SOL     OW34420   1.126   4.679  16.273 -0.4269 -0.4399  0.8353
 7595SOL    HW134421   1.080   4.690  16.356 -0.6785  2.5118  0.2852
 7595SOL    HW234422   1.074   0.007  16.223 -2.1150 -1.8617  0.7801
 7596SOL     OW34423   3.928   4.666   9.245 -0.1008  0.3374 -0.2822
 7596SOL    HW134424   3.931   4.709   9.159 -1.6493 -0.1305 -0.5712
 7596SOL    HW234425   3.943   4.734   9.311  1.1268 -0.6212  0.4106
 7597SOL     OW34426   1.278   2.697   2.138  0.0736  0.2646  0.3160
 7597SOL    HW134427   1.261   2.776   2.087  2.5106  0.4090 -0.2680
 7597SOL    HW234428   1.274   2.622   2.079 -2.5273 -0.8423  1.8933
 7598SOL     OW34429   0.200   0.329   1.452 -0.6527  0.4629  0.0430
 7598SOL    HW134430   0.147   0.374   1.518  1.0210  2.3504  0.1310
 7598SOL    HW234431   0.137   0.275   1.405 -0.3527  0.6318 -0.5497
 7599SOL     OW34432   0.305   3.081   4.713 -0.3201 -0.3934  0.1539
 7599SOL    HW134433   0.379   3.062   4.656 -1.4900  0.4706 -1.6478
 7599SOL    HW234434   0.269   3.146   4.653  0.1850  0.4085  0.7272
 7600SOL     OW34435   3.194   2.545   3.283 -0.2552 -0.1910 -0.1165
 7600SOL    HW134436   3.278   2.574   3.247 -1.1687  1.5160 -0.8918
 7600SOL    HW234437   3.216   2.487   3.355  1.2310 -1.1527 -1.3381
 7601SOL     OW34438   1.455   0.044   1.433  0.1436  0.1646  0.2512
 7601SOL    HW134439   1.442   0.139   1.443 -0.2195 -0.1455  2.6341
 7601SOL    HW234440   1.401   0.035   1.354  0.3950 -0.6771  0.1749
 7602SOL     OW34441   1.935   2.417  10.210 -0.6002 -1.0605 -0.7555
 7602SOL    HW134442   2.023   2.428  10.246 -1.0499  0.4468 -0.0929
 7602SOL    HW234443   1.919   2.508  10.185 -2.4439 -0.6536  1.8058
 7603SOL     OW34444   1.225   1.003  15.301 -0.0462  0.0383  0.9996
 7603SOL    HW134445   1.134   0.975  15.312 -1.0866  2.4211 -1.2007
 7603SOL    HW234446   1.238   1.057  15.379  2.8643  2.2526 -0.9784
 7604SOL     OW34447   3.694   2.555  11.750  0.0327 -0.5061 -0.5239
 7604SOL    HW134448   3.694   2.593  11.662  0.5711  0.1796 -0.2255
 7604SOL    HW234449   3.777   2.583  11.789 -0.0504 -0.5880 -0.2862
 7605SOL     OW34450   2.125   0.052  10.856 -0.1323 -0.2029  0.4002
 7605SOL    HW134451   2.092   0.137  10.829  0.1966 -0.3326 -0.4088
 7605SOL    HW234452   2.183   0.068  10.931  0.6886 -0.5445 -0.1556
 7606SOL     OW34453   4.579   2.547   3.072 -0.8714  0.0545  0.5983
 7606SOL    HW134454   4.559   2.640   3.072  0.2461  0.3048 -0.2256
 7606SOL    HW234455   4.617   2.544   2.984 -2.8308 -1.9585 -0.1836
 7607SOL     OW34456   1.313   1.290   4.040  0.2506  0.6322 -0.1455
 7607SOL    HW134457   1.350   1.366   4.085  1.0730  0.8276 -1.1519
 7607SOL    HW234458   1.330   1.313   3.949 -0.9492 -2.1044 -1.0773
 7608SOL     OW34459   1.969   2.001   0.551  0.6990  0.0037 -0.6058
 7608SOL    HW134460   1.977   1.905   0.546 -1.4619 -0.3166  2.2618
 7608SOL    HW234461   1.946   1.998   0.644  0.1912 -1.9222 -0.7852
 7609SOL     OW34462   0.184   4.415   8.118  0.1782  0.0923 -0.1123
 7609SOL    HW134463   0.202   4.507   8.097  0.6396 -0.2700 -1.2962
 7609SOL    HW234464   0.138   4.422   8.201 -2.3100  1.0619 -1.5687
 7610SOL     OW34465   4.468   0.203   0.702  0.3740 -0.3789 -0.0650
 7610SOL    HW134466   4.550   0.240   0.734  1.1346  0.1104 -2.5488
 7610SOL    HW234467   4.407   0.277   0.708 -0.1042 -0.8440  0.6802
 7611SOL     OW34468   4.668   3.118   4.170 -0.0067  0.0810  0.3930
 7611SOL    HW134469   4.707   3.191   4.218  2.1960 -0.7836 -0.0642
 7611SOL    HW234470   4.617   3.157   4.100  1.3986 -0.4839 -0.9482
 7612SOL     OW34471   4.502   2.517   5.538  0.1641 -0.0970 -0.1626
 7612SOL    HW134472   4.577   2.471   5.576  0.7746  0.8189 -0.2427
 7612SOL    HW234473   4.520   2.603   5.576  0.2986 -0.2580  0.1352
 7613SOL     OW34474   2.661   1.339   9.894  0.0707 -0.4190  0.4116
 7613SOL    HW134475   2.630   1.265   9.842 -0.1811 -0.6798  0.9252
 7613SOL    HW234476   2.635   1.416   9.844 -0.9620 -0.4308  0.9252
 7614SOL     OW34477   4.608   4.360   7.013 -0.4529  0.5906  0.7424
 7614SOL    HW134478   4.536   4.372   7.075 -2.5794  0.0356 -1.6643
 7614SOL    HW234479   4.606   4.268   6.986  0.4834  0.4453  1.1486
 7615SOL     OW34480   4.019   3.901   8.415 -0.5688  0.3632 -0.1747
 7615SOL    HW134481   4.087   3.842   8.381 -1.9900  0.3103 -2.9643
 7615SOL    HW234482   3.983   3.929   8.331 -0.6104 -0.0923 -0.3085
 7616SOL     OW34483   3.793   2.246   7.196  0.4007 -0.3909  0.8062
 7616SOL    HW134484   3.741   2.215   7.271 -1.1677 -0.6104 -0.3861
 7616SOL    HW234485   3.789   2.174   7.133 -1.3716  1.2337 -0.9200
 7617SOL     OW34486   0.914   0.174   4.213  1.1311 -0.6233  0.0082
 7617SOL    HW134487   0.923   0.196   4.120 -0.7459 -1.1451 -0.3022
 7617SOL    HW234488   0.922   0.257   4.260 -0.5696  0.1039 -0.9474
 7618SOL     OW34489   3.585   0.591  16.529  0.6992  0.1594  0.2404
 7618SOL    HW134490   3.539   0.634  16.600  2.2509 -0.3586  1.5641
 7618SOL    HW234491   3.509   0.576  16.473  1.5415  0.4659 -0.9898
 7619SOL     OW34492   2.506   1.908   2.302  0.1446 -0.0247  0.1299
 7619SOL    HW134493   2.584   1.959   2.282 -0.1458 -0.2116 -1.4972
 7619SOL    HW234494   2.491   1.958   2.382  1.7726  1.0618 -0.2412
 7620SOL     OW34495   0.712   2.357  15.530 -0.0673  0.4363 -0.1403
 7620SOL    HW134496   0.789   2.414  15.531  0.4578 -0.2571 -0.4963
 7620SOL    HW234497   0.731   2.296  15.459  1.2402  2.0450 -1.1735
 7621SOL     OW34498   2.038   0.146   3.899  0.1041 -0.1821 -0.2436
 7621SOL    HW134499   2.021   0.234   3.932  1.8085  0.0482  0.0152
 7621SOL    HW234500   2.066   0.159   3.808 -0.4367 -0.4526 -0.4501
 7622SOL     OW34501   3.485   4.301  11.529 -0.7176 -0.3231  0.1894
 7622SOL    HW134502   3.407   4.342  11.567  0.6005  1.3726  1.1304
 7622SOL    HW234503   3.554   4.317  11.594  1.0090  1.2027 -2.0330
 7623SOL     OW34504   4.356   0.435   6.741 -0.8437  0.0522  0.3517
 7623SOL    HW134505   4.396   0.351   6.717 -1.2854 -0.7299  2.3364
 7623SOL    HW234506   4.305   0.463   6.666  0.5654 -0.3100 -0.7366
 7624SOL     OW34507   0.748   2.443  12.692 -0.8217  0.0801 -0.3894
 7624SOL    HW134508   0.835   2.459  12.729 -1.0117  0.7999 -0.2426
 7624SOL    HW234509   0.750   2.515  12.629  0.5629  1.4596  1.2532
 7625SOL     OW34510   0.191   1.931   5.701 -0.1364 -0.1065  0.2494
 7625SOL    HW134511   0.106   1.889   5.691 -0.5655  1.1710 -1.5189
 7625SOL    HW234512   0.160   1.999   5.760  1.3957  1.9541 -1.2871
 7626SOL     OW34513   1.286   0.011   6.115 -0.3831 -0.0840 -0.6743
 7626SOL    HW134514   1.259   4.654   6.118 -1.7713  0.2652 -2.2560
 7626SOL    HW234515   1.377   0.004   6.143 -0.0726  0.8873 -1.4278
 7627SOL     OW34516   4.381   2.741   7.863  0.3463  0.3420  0.2154
 7627SOL    HW134517   4.388   2.782   7.777 -1.8888 -0.8198 -0.5206
 7627SOL    HW234518   4.288   2.746   7.884  0.5146  3.9693  0.0906
 7628SOL     OW34519   2.523   2.774   3.216 -0.0037  0.7196  0.5810
 7628SOL    HW134520   2.556   2.704   3.273  0.0216 -0.6874 -1.1622
 7628SOL    HW234521   2.536   2.741   3.127  1.4334 -0.3175  1.1560
 7629SOL     OW34522   0.961   3.796   9.580  0.4781 -0.1327 -0.0505
 7629SOL    HW134523   0.893   3.744   9.623  1.8689 -1.2690  0.7873
 7629SOL    HW234524   0.945   3.887   9.604 -1.3297  0.1677 -2.4204
 7630SOL     OW34525   2.509   0.129   9.190  0.2341  0.4221 -0.2811
 7630SOL    HW134526   2.501   0.223   9.177 -0.0633  0.3566 -0.5623
 7630SOL    HW234527   2.532   0.094   9.104  0.3764 -0.5812  0.1553
 7631SOL     OW34528   3.794   3.889   3.147  0.3519 -0.0222 -0.3196
 7631SOL    HW134529   3.745   3.898   3.229  0.8700 -0.4179  0.0370
 7631SOL    HW234530   3.719   3.905   3.090  0.7912  1.5165 -0.4598
 7632SOL     OW34531   0.338   3.340  13.033 -0.2739 -0.1696 -0.3261
 7632SOL    HW134532   0.356   3.318  13.124 -1.1523 -0.9683 -0.3378
 7632SOL    HW234533   0.382   3.424  13.027 -2.0965  0.7031 -1.6698
 7633SOL     OW34534   1.408   0.715   6.525 -0.0081 -0.3267  0.1984
 7633SOL    HW134535   1.488   0.730   6.474  0.1394 -0.5031  0.3784
 7633SOL    HW234536   1.439   0.691   6.612  0.9907 -2.4263 -0.7294
 7634SOL     OW34537   3.778   2.713  16.397 -0.4866 -0.3105  0.1956
 7634SOL    HW134538   3.803   2.634  16.349  2.4675 -0.6613  2.3142
 7634SOL    HW234539   3.852   2.708  16.459 -1.1066 -1.2602  0.8576
 7635SOL     OW34540   3.814   3.018   4.155  0.5704 -0.1508  0.3570
 7635SOL    HW134541   3.896   2.978   4.186  0.5555 -0.3785  0.1095
 7635SOL    HW234542   3.741   2.956   4.149  0.8942 -0.1553 -3.4406
 7636SOL     OW34543   4.254   2.489  15.801  0.6432  0.4591 -0.3806
 7636SOL    HW134544   4.340   2.477  15.760  0.2306  1.7675 -1.6231
 7636SOL    HW234545   4.247   2.410  15.854  0.5310  0.4429 -0.4196
 7637SOL     OW34546   1.589   3.255   9.215  0.3455 -0.3116 -0.2331
 7637SOL    HW134547   1.616   3.166   9.239  1.1352 -0.1183 -0.3959
 7637SOL    HW234548   1.623   3.255   9.126 -0.4735  1.6627 -0.5387
 7638SOL     OW34549   0.961   1.199   2.617  0.1792 -0.3384 -0.5115
 7638SOL    HW134550   1.040   1.189   2.564 -0.9803  1.0446 -2.4732
 7638SOL    HW234551   0.954   1.293   2.628  1.0231 -0.4493  0.9805
 7639SOL     OW34552   2.725   3.968   4.813  0.1702 -1.0791  0.4193
 7639SOL    HW134553   2.738   3.895   4.874  1.2729 -1.3803 -0.1815
 7639SOL    HW234554   2.768   4.038   4.863  0.5116 -0.6318 -0.5157
 7640SOL     OW34555   0.425   2.587   6.236 -0.0572  0.5375 -0.1130
 7640SOL    HW134556   0.399   2.609   6.325  2.0399  1.6727  0.2027
 7640SOL    HW234557   0.518   2.564   6.243  0.5665  2.3690 -2.3342
 7641SOL     OW34558   3.355   3.341   2.920 -0.0264  1.1016  0.4287
 7641SOL    HW134559   3.342   3.429   2.885  0.6655  0.5506 -1.2217
 7641SOL    HW234560   3.273   3.304   2.953  0.2573 -1.1268 -1.3712
 7642SOL     OW34561   3.175   0.136   4.425  0.1795  0.8390  0.0777
 7642SOL    HW134562   3.244   0.137   4.359  0.5295 -0.7664  0.4300
 7642SOL    HW234563   3.230   0.181   4.489 -0.5864 -0.2734  1.5209
 7643SOL     OW34564   0.729   2.127   9.973 -0.1294 -0.2901  0.3471
 7643SOL    HW134565   0.729   2.116   9.878  0.6128 -0.8749  0.4085
 7643SOL    HW234566   0.655   2.185   9.989 -0.9568 -1.8124  2.0146
 7644SOL     OW34567   4.419   2.193   3.414  0.2404 -0.1555  0.5360
 7644SOL    HW134568   4.437   2.255   3.344 -0.1927 -1.3806 -0.6730
 7644SOL    HW234569   4.346   2.138   3.385  0.9520 -1.8501  1.9902
 7645SOL     OW34570   3.628   0.024   7.991 -0.1335  0.6278 -0.3938
 7645SOL    HW134571   3.651   4.675   8.030 -1.2021  0.5258  0.0199
 7645SOL    HW234572   3.533   0.020   7.982  0.0600  2.0723 -3.0773
 7646SOL     OW34573   0.009   2.085  17.040 -0.0664  0.0082  0.3344
 7646SOL    HW134574   4.678   2.116  17.102  0.8583 -0.9097  1.7825
 7646SOL    HW234575   4.690   2.027  16.986  1.8330 -2.8703  1.5105
 7647SOL     OW34576   3.669   4.305  10.434 -0.4064 -0.3561  0.1742
 7647SOL    HW134577   3.686   4.212  10.444 -0.5213 -0.4019 -0.0757
 7647SOL    HW234578   3.613   4.316  10.511 -0.4808  0.2274  0.0412
 7648SOL     OW34579   4.612   3.140  12.870  0.2319  0.3947 -0.2687
 7648SOL    HW134580   4.641   3.231  12.871  0.6426  0.2641 -0.2537
 7648SOL    HW234581   4.632   3.120  12.779  2.8324  0.9637  0.1949
 7649SOL     OW34582   0.675   3.326   4.794  0.0829 -0.4170  0.3509
 7649SOL    HW134583   0.680   3.230   4.791 -0.8732 -0.5037  1.5460
 7649SOL    HW234584   0.686   3.324   4.889 -0.0911 -1.1172  0.3622
 7650SOL     OW34585   0.236   4.633   8.463 -0.3485  0.1508  0.2015
 7650SOL    HW134586   0.276   4.682   8.390  3.9338 -0.2368  2.2844
 7650SOL    HW234587   0.315   4.609   8.511 -0.2039 -0.4218 -0.3142
 7651SOL     OW34588   1.023   1.423  11.934 -0.2873 -0.2557  0.2417
 7651SOL    HW134589   1.022   1.327  11.935 -2.3354 -0.2409 -1.1750
 7651SOL    HW234590   1.039   1.448  12.025  2.8352 -0.6230 -0.2090
 7652SOL     OW34591   1.922   2.635   6.815 -0.4811 -0.5780 -0.1305
 7652SOL    HW134592   1.964   2.713   6.852 -2.7919 -0.8938  3.0803
 7652SOL    HW234593   1.998   2.598   6.771 -0.9562 -1.8387  0.1232
 7653SOL     OW34594   0.216   3.223   7.183  0.7832 -0.2445  0.2384
 7653SOL    HW134595   0.274   3.252   7.254 -1.4980  2.8016  0.8593
 7653SOL    HW234596   0.283   3.222   7.115  1.9916 -1.2894  1.4407
 7654SOL     OW34597   1.183   0.232   2.312 -0.0283 -0.3665  0.3487
 7654SOL    HW134598   1.273   0.254   2.290 -0.4019  1.0296  0.2269
 7654SOL    HW234599   1.196   0.202   2.402  0.2449  0.3603  0.5493
 7655SOL     OW34600   3.281   3.728  11.128  0.6736 -0.4315 -0.3984
 7655SOL    HW134601   3.250   3.733  11.219  0.0258 -0.5892 -0.6116
 7655SOL    HW234602   3.361   3.677  11.137  0.1341 -1.0174  1.0241
 7656SOL     OW34603   3.867   0.093  11.429 -0.0898  0.2269  0.0573
 7656SOL    HW134604   3.883   0.179  11.391 -0.9089 -0.5734 -2.1482
 7656SOL    HW234605   3.958   0.063  11.432 -0.3842 -0.6571  0.2031
 7657SOL     OW34606   0.875   1.690   8.196  0.4230  0.2083 -0.6802
 7657SOL    HW134607   0.943   1.625   8.180  0.5013  0.0185  0.4249
 7657SOL    HW234608   0.862   1.676   8.290 -2.0944 -0.5990 -1.1510
 7658SOL     OW34609   1.835   0.841   6.332 -0.2228 -0.7416  0.3793
 7658SOL    HW134610   1.814   0.857   6.240 -1.3738 -2.0323  0.4168
 7658SOL    HW234611   1.847   0.746   6.335 -1.9924 -0.8506  3.5839
 7659SOL     OW34612   1.775   4.251   9.045  0.2482 -0.0447 -0.2256
 7659SOL    HW134613   1.770   4.191   9.119  0.4034  1.8762  1.3431
 7659SOL    HW234614   1.858   4.230   9.002  0.3508 -0.6554  0.2767
 7660SOL     OW34615   4.626   0.371   6.474  0.1573  0.3297  0.5205
 7660SOL    HW134616   4.660   0.296   6.426 -1.1390 -0.0350  0.1830
 7660SOL    HW234617   4.571   0.410   6.406 -1.7241 -1.6299  0.9343
 7661SOL     OW34618   3.734   0.495   3.680  0.2548 -0.3200  0.0008
 7661SOL    HW134619   3.783   0.420   3.647 -2.5043 -1.7332 -0.9240
 7661SOL    HW234620   3.681   0.453   3.748 -1.2879  0.9503 -0.4132
 7662SOL     OW34621   4.287   4.372   9.841  0.5201  0.9288  0.0354
 7662SOL    HW134622   4.282   4.368   9.937  0.9925 -0.0941  0.0210
 7662SOL    HW234623   4.378   4.394   9.822  0.8397 -0.6630 -0.3033
 7663SOL     OW34624   2.786   4.032   8.578  0.2270  0.0021  0.2045
 7663SOL    HW134625   2.771   3.977   8.502 -3.9829  2.6841 -0.9240
 7663SOL    HW234626   2.819   4.116   8.545 -0.1763  1.1029  2.5449
 7664SOL     OW34627   1.863   4.261   2.757  0.0158 -0.1173  0.6745
 7664SOL    HW134628   1.883   4.169   2.740  0.6138 -0.2978  2.3644
 7664SOL    HW234629   1.900   4.302   2.679  0.1936 -0.4976  0.5602
 7665SOL     OW34630   4.259   2.220   4.679 -0.1854  0.6669 -0.2107
 7665SOL    HW134631   4.188   2.230   4.743  0.2653 -2.3884  0.7433
 7665SOL    HW234632   4.336   2.260   4.721 -0.5516  0.3043  0.8017
 7666SOL     OW34633   2.621   0.820  12.792  0.1251  0.1187 -0.2540
 7666SOL    HW134634   2.651   0.862  12.711  1.7691  0.7716  0.7076
 7666SOL    HW234635   2.699   0.779  12.829  1.3273  1.2975 -1.4790
 7667SOL     OW34636   0.071   0.624   7.196  0.9532  0.3163 -0.2324
 7667SOL    HW134637   0.109   0.600   7.281  1.3172  3.3814  0.4691
 7667SOL    HW234638   0.050   0.716   7.211  1.5504  0.0975  2.0200
 7668SOL     OW34639   2.854   2.219   9.593 -0.7331  0.3443 -0.0879
 7668SOL    HW134640   2.905   2.287   9.550 -0.2074 -0.9729 -1.5157
 7668SOL    HW234641   2.877   2.234   9.685 -2.4317  0.6074  0.2931
 7669SOL     OW34642   3.139   4.085   4.523 -0.2831 -0.2524 -0.2632
 7669SOL    HW134643   3.106   4.162   4.476  1.5120  1.4458  1.2772
 7669SOL    HW234644   3.055   4.042   4.540 -1.6428  2.1870 -0.8354
 7670SOL     OW34645   1.744   2.311   8.199 -0.5145 -0.4015 -0.6654
 7670SOL    HW134646   1.700   2.233   8.165  0.1876 -1.2448  0.3910
 7670SOL    HW234647   1.744   2.376   8.128  0.9492 -0.8401 -1.0553
 7671SOL     OW34648   3.215   2.696   7.020  0.1006  0.2392 -0.1773
 7671SOL    HW134649   3.213   2.741   6.935  1.0969 -0.8830 -0.8120
 7671SOL    HW234650   3.130   2.659   7.044  1.5614 -2.7556  0.4218
 7672SOL     OW34651   1.514   0.836  16.709 -0.3951 -0.0996 -0.2394
 7672SOL    HW134652   1.582   0.789  16.662  0.0443  0.5059 -0.2123
 7672SOL    HW234653   1.450   0.768  16.732 -0.1289 -0.4678 -0.5941
 7673SOL     OW34654   2.207   1.655   7.850 -0.0881 -0.2216  0.4321
 7673SOL    HW134655   2.267   1.669   7.923 -1.4146  0.6850  1.3686
 7673SOL    HW234656   2.118   1.669   7.883 -0.6530  0.9807 -1.5800
 7674SOL     OW34657   3.784   3.373  14.630 -0.0678  0.0981  0.1977
 7674SOL    HW134658   3.864   3.425  14.635  0.8161 -1.1282 -1.4319
 7674SOL    HW234659   3.728   3.386  14.707  0.8644  0.8328  0.7595
 7675SOL     OW34660   3.720   2.423   3.279  0.0859  0.1985 -0.1000
 7675SOL    HW134661   3.806   2.464   3.272 -0.5278  0.9290 -3.3967
 7675SOL    HW234662   3.691   2.423   3.187 -0.5518  0.9065  0.0950
 7676SOL     OW34663   2.784   3.076   0.506 -0.5011 -0.1483 -0.1858
 7676SOL    HW134664   2.696   3.114   0.504 -0.3784  0.0273 -1.9626
 7676SOL    HW234665   2.772   3.004   0.568  0.6970 -2.7904 -3.0792
 7677SOL     OW34666   0.890   0.374   1.909  0.6977  0.4396 -0.2169
 7677SOL    HW134667   0.798   0.348   1.904  0.5510  1.5108 -3.3752
 7677SOL    HW234668   0.910   0.337   1.995 -0.1872 -0.3093 -0.3292
 7678SOL     OW34669   4.369   0.709   5.098 -0.2147  0.2547 -0.2147
 7678SOL    HW134670   4.459   0.724   5.127  0.1190 -0.1615 -1.0524
 7678SOL    HW234671   4.373   0.714   5.003  0.6015 -2.3359 -0.3034
 7679SOL     OW34672   2.858   1.306   5.144  0.1118  0.2302  0.1004
 7679SOL    HW134673   2.924   1.354   5.093  0.1175  0.5971  0.4551
 7679SOL    HW234674   2.771   1.328   5.113  0.8817  3.1852  0.0659
 7680SOL     OW34675   0.962   0.501   3.542  0.4148  0.0860 -0.5920
 7680SOL    HW134676   1.022   0.428   3.559 -0.2546  0.5520  3.5556
 7680SOL    HW234677   0.953   0.512   3.447 -0.2872  1.8701 -0.3201
 7681SOL     OW34678   2.993   2.824  16.721 -0.7842 -0.4003  0.0218
 7681SOL    HW134679   3.014   2.742  16.679 -0.1972 -0.6853  0.8710
 7681SOL    HW234680   3.042   2.891  16.673 -0.7446  2.3868  3.9049
 7682SOL     OW34681   4.509   2.223   2.768  0.4526  0.1341 -0.5810
 7682SOL    HW134682   4.508   2.275   2.689 -2.0431  1.6611  0.4748
 7682SOL    HW234683   4.599   2.225   2.801 -0.2011  2.0761  1.0305
 7683SOL     OW34684   0.857   0.271   6.413 -0.3063  0.4545  0.3257
 7683SOL    HW134685   0.827   0.362   6.409 -1.8224  0.0151  1.5324
 7683SOL    HW234686   0.862   0.254   6.507 -0.0332 -0.6768  0.1065
 7684SOL     OW34687   4.193   3.672   5.722 -0.5943 -0.2611  0.4541
 7684SOL    HW134688   4.193   3.765   5.744  1.5723  0.1792 -1.4879
 7684SOL    HW234689   4.286   3.654   5.718 -0.0550  1.9902  2.6424
 7685SOL     OW34690   2.044   4.575   4.247 -0.4831  0.0018  0.0036
 7685SOL    HW134691   1.955   4.605   4.269 -0.4104 -0.3179  0.7246
 7685SOL    HW234692   2.079   4.653   4.204 -0.8714  0.9493  1.4107
 7686SOL     OW34693   2.717   1.559   7.796  0.5193  0.1671  0.7057
 7686SOL    HW134694   2.622   1.561   7.790  0.4769  1.6083  2.0177
 7686SOL    HW234695   2.732   1.465   7.810 -1.0662  0.2091  2.6248
 7687SOL     OW34696   2.002   1.486   6.193 -0.4279  0.9156 -0.5078
 7687SOL    HW134697   2.087   1.464   6.232 -1.2294  3.0844  2.5083
 7687SOL    HW234698   2.034   1.510   6.106 -0.0943 -0.4084 -0.7412
 7688SOL     OW34699   1.799   0.610  13.791 -0.0709  0.1434 -0.2389
 7688SOL    HW134700   1.872   0.669  13.778  1.0606 -1.5483 -1.5243
 7688SOL    HW234701   1.821   0.527  13.750 -1.2027 -0.2405 -0.0850
 7689SOL     OW34702   0.873   4.066  10.181  0.6267 -0.6304 -0.6332
 7689SOL    HW134703   0.920   4.039  10.260 -0.9438 -1.3318  0.0707
 7689SOL    HW234704   0.914   4.149  10.158 -0.4878  1.1130  3.6787
 7690SOL     OW34705   0.011   2.204   2.528  0.1678  0.0084 -0.7891
 7690SOL    HW134706   0.081   2.266   2.506  2.0469 -1.0560  2.1784
 7690SOL    HW234707   4.677   2.227   2.466 -0.3230 -0.4325 -0.3995
 7691SOL     OW34708   1.695   2.749  16.603  0.5911 -0.2728 -0.0489
 7691SOL    HW134709   1.662   2.784  16.520 -3.5316 -0.4411  1.5249
 7691SOL    HW234710   1.644   2.668  16.602 -0.5995  0.4345  3.0108
 7692SOL     OW34711   0.326   4.552   8.986  0.7529 -0.2447  0.0202
 7692SOL    HW134712   0.268   4.533   9.059 -0.6036  0.5400 -0.8427
 7692SOL    HW234713   0.261   4.541   8.916  0.4246  0.2464  0.2484
 7693SOL     OW34714   1.588   2.721   7.731 -0.3683  0.4084  0.2272
 7693SOL    HW134715   1.583   2.767   7.815 -1.9812  1.4418 -0.4435
 7693SOL    HW234716   1.493   2.710   7.722 -0.4167  0.3097  0.8715
 7694SOL     OW34717   2.734   0.104   7.680  0.4829 -0.0390 -0.1254
 7694SOL    HW134718   2.648   0.079   7.714  1.3984 -2.1904  0.5895
 7694SOL    HW234719   2.792   0.034   7.711 -0.8291 -0.7493  0.7037
 7695SOL     OW34720   1.877   3.916   4.529 -0.4027  0.3265 -0.1411
 7695SOL    HW134721   1.953   3.967   4.500  1.6664 -1.4033  2.2700
 7695SOL    HW234722   1.808   3.966   4.484  0.1257  1.0702 -0.1216
 7696SOL     OW34723   2.813   0.102   6.468  0.3581  0.6066 -0.5519
 7696SOL    HW134724   2.770   0.158   6.403 -2.6594 -1.3579 -0.2923
 7696SOL    HW234725   2.741   0.042   6.490  1.6909 -1.1504 -0.9848
 7697SOL     OW34726   2.215   2.257   6.264 -0.6083 -0.5036  0.6272
 7697SOL    HW134727   2.310   2.263   6.275 -0.7769 -2.7151  3.2144
 7697SOL    HW234728   2.205   2.164   6.286 -0.3133 -0.8960 -0.9243
 7698SOL     OW34729   1.690   4.184   9.505  0.4404  0.4922  0.2087
 7698SOL    HW134730   1.658   4.113   9.449  0.6157  1.6366 -1.3637
 7698SOL    HW234731   1.609   4.223   9.539  0.6822  1.3860 -0.2346
 7699SOL     OW34732   2.510   0.064  11.556  0.2557 -0.0880 -0.3874
 7699SOL    HW134733   2.526   0.010  11.633 -0.5532  0.6559  0.3101
 7699SOL    HW234734   2.457   4.734  11.511  0.2368  0.5616 -1.3120
 7700SOL     OW34735   4.355   0.295   8.295  0.0388 -0.2311 -0.6343
 7700SOL    HW134736   4.269   0.282   8.256 -0.2996 -0.0488  0.0714
 7700SOL    HW234737   4.365   0.388   8.313 -1.0333 -0.1481 -0.4894
 7701SOL     OW34738   0.241   3.032   6.629 -0.3531  0.0411  0.3901
 7701SOL    HW134739   0.308   3.046   6.696  2.4482  2.1156 -2.8801
 7701SOL    HW234740   0.234   3.122   6.597  1.1425  0.1641  0.4165
 7702SOL     OW34741   0.350   2.817   2.991 -0.2217 -0.1821  0.3776
 7702SOL    HW134742   0.323   2.895   3.041 -1.1913  1.1779 -2.3022
 7702SOL    HW234743   0.382   2.757   3.058 -0.1408  0.2901  0.7673
 7703SOL     OW34744   3.680   1.111   3.871  0.0624  0.5584 -0.3065
 7703SOL    HW134745   3.660   1.201   3.844 -3.5624 -0.5168 -1.1931
 7703SOL    HW234746   3.666   1.125   3.965 -4.1990  1.9212 -1.1381
 7704SOL     OW34747   0.420   4.629   5.025  0.7138 -0.1717 -0.2067
 7704SOL    HW134748   0.481   4.556   5.013  1.8242  0.5605  1.0454
 7704SOL    HW234749   0.432   4.673   4.941 -1.0712 -0.0530 -0.4037
 7705SOL     OW34750   3.154   2.616  16.601 -0.5885 -0.1681  0.0501
 7705SOL    HW134751   3.153   2.608  16.506  1.8518 -0.1254  0.0148
 7705SOL    HW234752   3.218   2.552  16.632 -1.2608 -0.0678  1.6591
 7706SOL     OW34753   2.115   3.839   4.664  0.3035  0.2580  0.3565
 7706SOL    HW134754   2.112   3.763   4.605  2.0821 -0.0162  0.6069
 7706SOL    HW234755   2.025   3.866   4.647  0.4913 -0.4451 -1.8490
 7707SOL     OW34756   0.087   2.844  16.520  0.1836  0.1032  0.1752
 7707SOL    HW134757   0.006   2.885  16.491  0.1535  1.6983  2.5688
 7707SOL    HW234758   0.107   2.893  16.600  0.1751  0.8607 -0.2807
 7708SOL     OW34759   4.466   3.226  16.139 -0.4357  0.6338  0.4986
 7708SOL    HW134760   4.415   3.220  16.220 -0.5012  1.0127  0.4845
 7708SOL    HW234761   4.538   3.168  16.163 -1.8651 -1.1578  0.4019
 7709SOL     OW34762   1.244   3.963   5.444  0.1481  0.6188  0.2807
 7709SOL    HW134763   1.200   3.899   5.501 -1.5589 -0.3043 -2.0622
 7709SOL    HW234764   1.237   4.032   5.510  2.6394 -0.0123  1.2311
 7710SOL     OW34765   4.457   0.151   8.085  0.0330 -0.3319 -0.2100
 7710SOL    HW134766   4.443   0.205   8.164  0.9758  1.1459 -1.0479
 7710SOL    HW234767   4.365   0.152   8.058 -0.3466  1.0758  1.0913
 7711SOL     OW34768   3.899   3.837   8.148 -0.2547 -0.6507  0.0479
 7711SOL    HW134769   3.925   3.746   8.165 -3.0345 -1.5587 -0.5592
 7711SOL    HW234770   3.985   3.867   8.118 -0.3327 -0.7048 -0.2295
 7712SOL     OW34771   0.499   0.476  10.409  0.1627 -0.6661 -0.2711
 7712SOL    HW134772   0.452   0.394  10.426 -1.6799  0.4298 -0.0726
 7712SOL    HW234773   0.551   0.493  10.487 -1.5724 -1.3446  1.0400
 7713SOL     OW34774   3.673   4.446   4.426  0.4310  0.3252  0.2015
 7713SOL    HW134775   3.662   4.351   4.437  1.5885  0.1249 -0.4396
 7713SOL    HW234776   3.654   4.476   4.515  0.5661 -1.4390  0.8361
 7714SOL     OW34777   1.436   0.175   8.734 -0.2271  0.4117 -0.1655
 7714SOL    HW134778   1.420   0.267   8.713  2.6179  0.4364 -2.2370
 7714SOL    HW234779   1.352   0.139   8.705  1.3580 -0.2441 -3.9468
 7715SOL     OW34780   4.714   4.084   1.062  0.1644  0.2668 -0.1312
 7715SOL    HW134781   4.716   4.160   1.005 -0.0640  0.4965  0.1649
 7715SOL    HW234782   0.043   4.038   1.008 -0.9105 -0.1097 -1.0830
 7716SOL     OW34783   0.724   2.201   9.311 -0.6317  0.1993  0.5343
 7716SOL    HW134784   0.630   2.212   9.327 -0.9913  2.2019 -3.0468
 7716SOL    HW234785   0.764   2.242   9.388  0.9698  1.6496 -1.0794
 7717SOL     OW34786   2.084   1.356   4.929 -0.2789 -0.0954  0.1925
 7717SOL    HW134787   2.126   1.272   4.913 -0.9033 -0.2271 -0.7313
 7717SOL    HW234788   2.027   1.335   5.003  0.4522 -3.0135 -0.0854
 7718SOL     OW34789   2.919   2.825   5.692  0.1172 -0.0890  0.3222
 7718SOL    HW134790   2.947   2.828   5.784  1.0395 -0.0169  0.0435
 7718SOL    HW234791   2.826   2.815   5.712  0.3142 -1.3007  0.6797
 7719SOL     OW34792   3.864   2.239   0.048 -0.4154 -0.0984  0.3382
 7719SOL    HW134793   3.777   2.232   0.087 -0.4860  0.8026  0.3451
 7719SOL    HW234794   3.856   2.171  17.720 -0.5383 -0.0410  0.2951
 7720SOL     OW34795   2.372   4.442   8.165  0.2209  0.1002 -0.4548
 7720SOL    HW134796   2.370   4.535   8.142  0.3656  0.1035 -0.4552
 7720SOL    HW234797   2.303   4.452   8.231  2.0613 -2.7628  1.8922
 7721SOL     OW34798   4.184   1.213   6.911  0.5082 -0.2888  0.3109
 7721SOL    HW134799   4.105   1.212   6.965 -0.8551 -0.1136 -1.6831
 7721SOL    HW234800   4.162   1.147   6.845  0.2499  0.4269 -0.3037
 7722SOL     OW34801   3.282   1.290   1.779  0.1680  0.2975 -0.1015
 7722SOL    HW134802   3.322   1.295   1.865  1.0967 -2.8406 -0.3370
 7722SOL    HW234803   3.231   1.209   1.788  2.5207 -1.0419  1.1070
 7723SOL     OW34804   2.347   3.833   3.069  0.4956  0.6267 -0.3789
 7723SOL    HW134805   2.441   3.839   3.082  0.5507 -1.6219  0.2187
 7723SOL    HW234806   2.330   3.788   2.986 -2.2117  0.6736  0.1354
 7724SOL     OW34807   2.286   0.748  12.085  0.5853 -0.2566 -0.3121
 7724SOL    HW134808   2.198   0.776  12.109  0.4408  0.8384 -2.1197
 7724SOL    HW234809   2.331   0.771  12.167 -1.1285 -0.3776  0.6624
 7725SOL     OW34810   4.251   4.300   8.075  0.0760 -0.1295  0.6043
 7725SOL    HW134811   4.313   4.294   8.002  3.4039 -1.0513  3.5472
 7725SOL    HW234812   4.273   4.386   8.111 -0.4402  0.4262 -0.3899
 7726SOL     OW34813   1.039   0.163  11.418 -0.3025  0.0497  0.0620
 7726SOL    HW134814   0.999   0.075  11.420 -0.9749  0.3128 -1.3253
 7726SOL    HW234815   0.967   0.205  11.370  0.2899 -1.1611 -1.8731
 7727SOL     OW34816   0.243   2.532   4.767 -0.1106  0.6009  0.7484
 7727SOL    HW134817   0.243   2.617   4.723 -3.4625  0.5887  0.7468
 7727SOL    HW234818   0.163   2.528   4.819 -2.2342  1.0645 -2.5142
 7728SOL     OW34819   2.799   1.295  15.700 -0.3227  0.1540 -0.2156
 7728SOL    HW134820   2.736   1.235  15.661  0.6138 -0.6810 -0.4216
 7728SOL    HW234821   2.859   1.315  15.628  0.7201 -0.0716  0.6021
 7729SOL     OW34822   2.183   4.099   3.376  0.0441  0.6058  0.1420
 7729SOL    HW134823   2.211   4.098   3.284 -0.4158 -0.7019  0.0185
 7729SOL    HW234824   2.092   4.070   3.375  0.5254 -0.8897 -0.0350
 7730SOL     OW34825   4.376   3.550   0.060  0.5393  0.1854 -0.1960
 7730SOL    HW134826   4.311   3.581  17.736  0.7528  0.4481 -0.2894
 7730SOL    HW234827   4.347   3.462   0.081 -1.6487  0.8642 -0.4492
 7731SOL     OW34828   4.224   0.433   4.328  0.4624 -0.1764 -0.1706
 7731SOL    HW134829   4.162   0.505   4.312 -2.7836 -2.8169  0.5190
 7731SOL    HW234830   4.282   0.475   4.392 -0.0955 -1.2406  1.0361
 7732SOL     OW34831   1.279   1.516   8.563 -0.4838  0.1274  0.1021
 7732SOL    HW134832   1.346   1.569   8.521  1.5076 -0.4349  2.5365
 7732SOL    HW234833   1.334   1.442   8.589 -2.2241 -1.0675  0.3564
 7733SOL     OW34834   2.710   2.213   2.787 -0.0967  0.0439  0.1204
 7733SOL    HW134835   2.656   2.194   2.711  1.0073  2.1928 -1.2175
 7733SOL    HW234836   2.793   2.231   2.743  0.5481 -2.7505  0.2505
 7734SOL     OW34837   1.806   0.588   6.832 -0.1236 -0.1126  0.2499
 7734SOL    HW134838   1.737   0.559   6.772 -1.0268  1.0724  0.7095
 7734SOL    HW234839   1.880   0.601   6.772  0.2020  1.9735  1.1007
 7735SOL     OW34840   1.790   3.987   1.633 -0.2437  0.1429  0.4490
 7735SOL    HW134841   1.848   3.981   1.557 -1.7627 -0.3413 -0.6868
 7735SOL    HW234842   1.763   3.895   1.629 -0.4305  0.1323  1.9392
 7736SOL     OW34843   1.486   0.251  17.437 -0.5868 -0.2172  0.8408
 7736SOL    HW134844   1.498   0.332  17.386  3.4441 -0.4064  1.5254
 7736SOL    HW234845   1.580   0.238  17.445 -0.4297  0.3241 -0.1291
 7737SOL     OW34846   1.859   2.680   7.331  0.0256 -0.5792  0.8783
 7737SOL    HW134847   1.853   2.701   7.238 -0.2118 -0.7648  0.8531
 7737SOL    HW234848   1.770   2.666   7.364 -1.0038 -0.6082 -1.9697
 7738SOL     OW34849   0.615   1.956   5.210  0.2774  0.1766 -0.0533
 7738SOL    HW134850   0.569   2.013   5.149  1.9227  0.8327 -0.6749
 7738SOL    HW234851   0.702   1.932   5.177 -0.6800 -0.2248 -2.3009
 7739SOL     OW34852   2.661   1.364   5.944  0.0446 -0.2729  0.1122
 7739SOL    HW134853   2.728   1.323   5.889 -0.4863 -3.1026  1.5540
 7739SOL    HW234854   2.586   1.358   5.885  0.1662  0.0679 -0.0811
 7740SOL     OW34855   3.759   1.984   7.068  0.0492 -0.1578  0.3204
 7740SOL    HW134856   3.852   1.964   7.062  1.1142  4.8308  0.3446
 7740SOL    HW234857   3.721   1.897   7.054 -0.0603  0.1070 -1.0159
 7741SOL     OW34858   0.485   0.338   7.880  0.1416  0.5186 -0.2044
 7741SOL    HW134859   0.516   0.428   7.870  0.3413  0.6964  2.0917
 7741SOL    HW234860   0.507   0.294   7.798  2.2044  1.8924 -0.3923
 7742SOL     OW34861   0.099   0.395  16.684 -0.3806 -0.0928 -0.4400
 7742SOL    HW134862   0.085   0.320  16.741 -0.0419 -0.1356 -0.4129
 7742SOL    HW234863   0.193   0.398  16.701 -0.0355 -0.4165 -2.2801
 7743SOL     OW34864   1.308   1.285  14.875  0.1631  0.5239  0.1363
 7743SOL    HW134865   1.331   1.274  14.783 -0.6807 -2.1531  0.2592
 7743SOL    HW234866   1.217   1.313  14.864  0.3176  1.2090  0.6142
 7744SOL     OW34867   1.900   2.317   5.446 -1.1399  0.5262 -0.2649
 7744SOL    HW134868   1.985   2.354   5.423 -0.0781 -0.1988  2.4659
 7744SOL    HW234869   1.907   2.339   5.539  0.3250 -0.2664 -0.1928
 7745SOL     OW34870   4.407   1.031   2.466 -0.0996  0.4354 -0.1149
 7745SOL    HW134871   4.462   0.953   2.452 -0.3898 -0.0599  1.5250
 7745SOL    HW234872   4.461   1.096   2.420 -0.0220  0.2481 -0.2899
 7746SOL     OW34873   3.793   4.501   6.113 -0.2062 -0.5209  0.2156
 7746SOL    HW134874   3.718   4.497   6.171 -0.3776  0.3401  0.0466
 7746SOL    HW234875   3.856   4.444   6.158  0.4420  2.2652  2.8482
 7747SOL     OW34876   4.290   1.105  14.486 -0.3532  0.9891  0.0180
 7747SOL    HW134877   4.227   1.060  14.430 -0.0511 -0.6112  0.9908
 7747SOL    HW234878   4.363   1.125  14.427  0.3910 -1.5914  0.0739
 7748SOL     OW34879   2.901   2.138   3.311 -0.2063 -0.0758 -0.4323
 7748SOL    HW134880   2.967   2.168   3.248 -1.9119  1.4633 -1.4772
 7748SOL    HW234881   2.918   2.044   3.299 -1.8857 -0.4465  0.1022
 7749SOL     OW34882   3.820   4.240   7.719 -0.0190 -0.2615 -0.5695
 7749SOL    HW134883   3.794   4.172   7.657 -2.6616  0.8621 -0.7188
 7749SOL    HW234884   3.911   4.260   7.700  0.2096  1.3529  2.1895
 7750SOL     OW34885   1.797   4.649   4.358  0.0004 -0.4375  0.2163
 7750SOL    HW134886   1.771   4.670   4.448  0.2522  1.5523 -0.1693
 7750SOL    HW234887   1.710   4.651   4.318  0.7969 -0.5218 -1.5086
 7751SOL     OW34888   0.821   4.653   4.908 -0.3055  0.4990  0.0873
 7751SOL    HW134889   0.759   4.658   4.981 -1.1130 -2.7456 -0.3509
 7751SOL    HW234890   0.799   4.563   4.881  2.8294  0.3802 -2.0224
 7752SOL     OW34891   3.170   2.543   4.373 -0.2107 -0.1672  0.0703
 7752SOL    HW134892   3.168   2.448   4.367 -0.1064 -0.1702  0.0826
 7752SOL    HW234893   3.079   2.569   4.388 -0.2454 -0.0801 -0.2862
 7753SOL     OW34894   1.946   4.453   6.624 -0.3942 -0.2242 -0.0757
 7753SOL    HW134895   1.928   4.377   6.681 -2.8405 -0.3577 -1.0349
 7753SOL    HW234896   2.009   4.428   6.557  0.4440 -0.5370  0.8177
 7754SOL     OW34897   2.952   3.297  14.854 -0.4672  0.0405 -0.0977
 7754SOL    HW134898   2.913   3.384  14.841  0.8974  0.6789  0.0439
 7754SOL    HW234899   3.044   3.325  14.864 -0.0072 -1.4723 -0.1626
 7755SOL     OW34900   0.390   3.156   3.967 -0.6572  0.2257 -0.4234
 7755SOL    HW134901   0.307   3.166   3.921 -1.3254  0.7073  0.8796
 7755SOL    HW234902   0.450   3.101   3.917  0.4872 -0.0206  1.2279
 7756SOL     OW34903   1.143   4.146   7.629 -0.0148  0.0742  0.2120
 7756SOL    HW134904   1.167   4.238   7.622  1.3134 -0.2289  0.8678
 7756SOL    HW234905   1.185   4.126   7.713 -1.3824  0.8934  1.1086
 7757SOL     OW34906   4.068   1.674   3.078  0.2157 -0.6712 -0.0494
 7757SOL    HW134907   4.118   1.600   3.115 -0.5121 -1.4181 -0.5670
 7757SOL    HW234908   4.063   1.737   3.150  0.3253  0.9981 -1.4995
 7758SOL     OW34909   1.511   3.947   2.086  0.0564  0.3947 -0.1372
 7758SOL    HW134910   1.572   4.000   2.136  0.0714  2.9586 -2.8658
 7758SOL    HW234911   1.545   3.957   1.997 -0.9352 -0.6000 -0.6342
 7759SOL     OW34912   2.114   3.488  12.077 -0.4893  0.6885  0.2549
 7759SOL    HW134913   2.125   3.406  12.124 -0.4779  1.5953  1.8376
 7759SOL    HW234914   2.026   3.474  12.041 -0.5616  1.3375  0.1780
 7760SOL     OW34915   1.858   3.808   5.047 -0.2624 -0.5509  0.1083
 7760SOL    HW134916   1.930   3.850   4.999 -0.9291  0.6908  0.2023
 7760SOL    HW234917   1.843   3.728   4.999 -1.4460  0.0105 -0.4435
 7761SOL     OW34918   3.970   3.807  15.327 -0.0658 -0.2280 -0.1641
 7761SOL    HW134919   4.002   3.717  15.322  0.8575  0.1343 -0.8206
 7761SOL    HW234920   4.046   3.855  15.292 -0.0834  0.8094  1.2151
 7762SOL     OW34921   2.061   1.130   3.311 -0.4495  0.1256 -0.2104
 7762SOL    HW134922   2.112   1.196   3.359 -1.1334 -1.0629  2.1465
 7762SOL    HW234923   2.136   1.071   3.306 -0.2229  0.4274 -0.3928
 7763SOL     OW34924   1.806   1.404  16.284 -0.0211  0.3089 -0.4869
 7763SOL    HW134925   1.833   1.444  16.201  1.7116  1.1778  0.4947
 7763SOL    HW234926   1.766   1.325  16.248  0.7494 -0.9060  1.3563
 7764SOL     OW34927   0.363   0.334   1.775  0.1736 -0.7004  0.4570
 7764SOL    HW134928   0.377   0.252   1.727  1.0895  0.3978 -1.1617
 7764SOL    HW234929   0.318   0.311   1.856 -1.0791 -0.0560 -0.0665
 7765SOL     OW34930   1.726   3.429   4.282  0.0806 -0.3184 -0.1781
 7765SOL    HW134931   1.819   3.436   4.262  0.2062  0.4382  0.7136
 7765SOL    HW234932   1.707   3.515   4.245  1.3702  0.0515  0.0393
 7766SOL     OW34933   0.705   1.839   9.016 -0.1973  0.4239  0.2196
 7766SOL    HW134934   0.765   1.767   9.036  0.8912  0.7125 -2.0501
 7766SOL    HW234935   0.769   1.901   8.981  0.2741  0.0946  0.5111
 7767SOL     OW34936   0.338   0.405   5.096  0.3354  0.0922 -0.1924
 7767SOL    HW134937   0.246   0.383   5.081  0.4843  0.3272 -1.4733
 7767SOL    HW234938   0.376   0.365   5.017  0.3929  2.0505 -1.1337
 7768SOL     OW34939   4.345   0.325   2.221  0.8857  0.3785 -0.2135
 7768SOL    HW134940   4.337   0.229   2.217 -0.7057  0.4826  0.4777
 7768SOL    HW234941   4.439   0.344   2.222  1.5750 -2.9512 -0.5682
 7769SOL     OW34942   3.448   1.494  13.282  0.3310 -0.0106 -0.6479
 7769SOL    HW134943   3.526   1.441  13.295 -0.6587 -1.4641 -0.5846
 7769SOL    HW234944   3.457   1.506  13.187 -1.6852 -1.1293 -0.9804
 7770SOL     OW34945   2.485   2.147   8.571  0.1885 -0.2640  0.5261
 7770SOL    HW134946   2.542   2.147   8.493 -1.7539  1.5871 -0.8979
 7770SOL    HW234947   2.462   2.056   8.585 -1.6739  0.1580  0.1689
 7771SOL     OW34948   2.109   1.405   2.923 -0.5615 -0.0505 -0.2755
 7771SOL    HW134949   2.105   1.464   2.999 -2.5086  0.3853 -0.7138
 7771SOL    HW234950   2.019   1.380   2.907 -1.2855  1.5615  1.2720
 7772SOL     OW34951   4.161   0.028   8.690  0.4763 -0.4665 -0.3718
 7772SOL    HW134952   4.188   0.027   8.782  0.0091  1.4681 -0.2043
 7772SOL    HW234953   4.103   0.104   8.697  1.8938  0.4215  1.7280
 7773SOL     OW34954   3.004   2.601   5.556  0.1443 -0.2199 -0.5759
 7773SOL    HW134955   3.071   2.593   5.625  0.4642 -0.3334 -0.8971
 7773SOL    HW234956   2.977   2.691   5.573 -0.9151 -0.6328 -0.0913
 7774SOL     OW34957   1.998   3.984   3.166 -0.2004  0.4208  0.3697
 7774SOL    HW134958   2.052   4.017   3.095 -2.3745  1.2681 -0.8888
 7774SOL    HW234959   1.920   3.946   3.124 -0.0951 -0.0470  0.5946
 7775SOL     OW34960   1.405   0.912   1.635 -0.3082  0.2343  0.2236
 7775SOL    HW134961   1.368   0.834   1.676  0.2122  0.4907  1.1749
 7775SOL    HW234962   1.493   0.919   1.671  0.5399  1.4505 -2.0861
 7776SOL     OW34963   0.362   2.543   2.625  0.1941  0.0956 -0.2296
 7776SOL    HW134964   0.439   2.600   2.629  1.3364 -1.4396 -0.3165
 7776SOL    HW234965   0.317   2.595   2.692  0.6209  1.5276 -1.0586
 7777SOL     OW34966   0.824   3.160   5.657 -0.4299  0.5901  0.5573
 7777SOL    HW134967   0.771   3.215   5.714 -0.2447  2.0463 -0.6710
 7777SOL    HW234968   0.912   3.185   5.687 -0.3023  0.4446  0.3114
 7778SOL     OW34969   0.654   4.341  16.658 -0.1316 -0.2644 -0.1101
 7778SOL    HW134970   0.566   4.364  16.630 -1.5699 -3.1263  2.0480
 7778SOL    HW234971   0.624   4.298  16.739  0.7605  0.5038  0.6283
 7779SOL     OW34972   2.090   4.157  10.409  0.3955 -0.1044 -0.0227
 7779SOL    HW134973   2.053   4.231  10.458  0.4314  0.5265 -0.9521
 7779SOL    HW234974   2.048   4.164  10.323  1.1312 -0.9348 -0.4515
 7780SOL     OW34975   0.758   1.198   2.086  0.9505 -0.4516 -0.1402
 7780SOL    HW134976   0.795   1.242   2.162  1.1109  0.4493 -0.7413
 7780SOL    HW234977   0.691   1.147   2.132  2.3380  0.1194  2.4778
 7781SOL     OW34978   4.293   2.455   1.123 -0.1173 -0.4869 -0.1063
 7781SOL    HW134979   4.362   2.421   1.066  0.3576 -0.6953  0.5957
 7781SOL    HW234980   4.219   2.472   1.064  0.1976  1.3021  0.0175
 7782SOL     OW34981   1.882   0.613   7.931 -0.4884 -0.4972 -0.3929
 7782SOL    HW134982   1.905   0.531   7.975 -1.3266 -0.7019 -0.3347
 7782SOL    HW234983   1.825   0.573   7.865 -0.4939  1.1391 -1.3852
 7783SOL     OW34984   0.680   0.548   1.600  0.7075  0.4152  0.1056
 7783SOL    HW134985   0.590   0.577   1.584  0.7461 -0.8321 -2.3808
 7783SOL    HW234986   0.662   0.459   1.632  2.2341  0.3717  0.8240
 7784SOL     OW34987   1.806   2.452   1.547  0.0588  0.2340  0.1904
 7784SOL    HW134988   1.776   2.521   1.488 -2.0496  1.3233  2.5653
 7784SOL    HW234989   1.856   2.504   1.610  2.7266 -3.1751  0.9076
 7785SOL     OW34990   3.374   4.332   4.554 -0.1769  0.6034 -0.1423
 7785SOL    HW134991   3.371   4.316   4.460 -0.7166  0.3395 -0.0846
 7785SOL    HW234992   3.348   4.423   4.543 -2.5642 -0.2264 -1.4996
 7786SOL     OW34993   4.197   3.854   7.987 -0.0474 -0.0266  0.3826
 7786SOL    HW134994   4.178   3.783   7.926 -2.5989 -1.6673  3.0488
 7786SOL    HW234995   4.241   3.918   7.931 -0.9221 -0.1687 -0.4602
 7787SOL     OW34996   1.943   0.713   4.823  0.1712 -0.5561 -0.3044
 7787SOL    HW134997   1.879   0.646   4.797  1.4610 -1.9316  0.1137
 7787SOL    HW234998   1.881   0.786   4.819  1.2997  0.4560  0.7272
 7788SOL     OW34999   2.590   1.808   8.082  0.5644 -0.0537  0.0999
 7788SOL    HW135000   2.594   1.871   8.010  0.0956 -1.0598 -0.8050
 7788SOL    HW235001   2.669   1.825   8.134  1.1040  1.0547 -1.1070
 7789SOL     OW35002   2.838   0.158   2.597 -0.2694  0.1568 -0.2424
 7789SOL    HW135003   2.834   0.131   2.505  1.1678 -0.1036 -0.2338
 7789SOL    HW235004   2.911   0.219   2.581  1.1188 -1.0177  1.5781
 7790SOL     OW35005   0.848   3.048   4.525  0.4557  0.4775  0.2605
 7790SOL    HW135006   0.846   3.137   4.490  2.3751  0.4282 -0.0009
 7790SOL    HW235007   0.903   3.012   4.456 -0.3692 -0.8833  0.3243
 7791SOL     OW35008   3.016   4.542   5.414  0.5022 -0.1331  0.4989
 7791SOL    HW135009   3.107   4.571   5.417  0.3738  0.3888 -0.6058
 7791SOL    HW235010   3.002   4.539   5.509 -0.4452 -1.1093  0.3352
 7792SOL     OW35011   1.866   0.815   6.990  0.3862  0.4235  0.6509
 7792SOL    HW135012   1.913   0.866   6.924 -2.1456  0.1043 -1.3946
 7792SOL    HW235013   1.826   0.747   6.935 -0.3534  1.7196 -0.4142
 7793SOL     OW35014   2.978   0.949   7.455  0.2474  0.2886  0.2174
 7793SOL    HW135015   2.980   1.035   7.412  0.5209 -0.8672 -2.0697
 7793SOL    HW235016   2.889   0.967   7.486  0.0321  1.7275 -1.2394
 7794SOL     OW35017   2.307   0.593  13.955 -0.4085  0.1432  0.1135
 7794SOL    HW135018   2.274   0.508  13.925  2.3922 -1.3837  1.3763
 7794SOL    HW235019   2.245   0.640  13.901  1.4803  0.6726 -1.5732
 7795SOL     OW35020   1.383   0.187   2.818 -0.2429  0.5247  0.3307
 7795SOL    HW135021   1.380   0.099   2.782 -3.0061  0.6078  0.3089
 7795SOL    HW235022   1.460   0.224   2.775 -0.2504 -0.3569 -0.4366
 7796SOL     OW35023   1.816   3.827   8.174  0.1011 -0.3190  0.4746
 7796SOL    HW135024   1.788   3.891   8.239 -2.1066 -0.1486 -0.6451
 7796SOL    HW235025   1.907   3.813   8.201  1.0368  1.6144 -1.6133
 7797SOL     OW35026   2.455   0.127   2.468  0.4638  0.4703  0.2367
 7797SOL    HW135027   2.381   0.163   2.420  0.8007  2.5374  1.2150
 7797SOL    HW235028   2.525   0.187   2.442  1.3197 -0.4972  0.3253
 7798SOL     OW35029   1.493   4.024   7.159 -0.3102 -0.1407  0.4417
 7798SOL    HW135030   1.531   4.015   7.072  0.1132 -0.0363  0.6195
 7798SOL    HW235031   1.458   4.111   7.142  0.5775 -0.0932 -1.0486
 7799SOL     OW35032   4.235   2.162   5.486  0.0454 -0.2161  0.4118
 7799SOL    HW135033   4.146   2.166   5.522  0.0495 -0.3426  0.4340
 7799SOL    HW235034   4.244   2.255   5.464  0.3638 -0.1574  0.8012
 7800SOL     OW35035   4.579   4.254   1.879  0.0688 -0.1264  0.1907
 7800SOL    HW135036   4.642   4.231   1.811 -0.2505  0.9706 -0.4740
 7800SOL    HW235037   4.552   4.342   1.854  1.9414 -0.0859 -1.6798
 7801SOL     OW35038   1.193   2.517  16.936 -0.1648 -0.2092 -0.1193
 7801SOL    HW135039   1.221   2.603  16.905 -0.4201 -0.2213 -0.3833
 7801SOL    HW235040   1.097   2.520  16.942  0.0433  3.7874  0.9963
 7802SOL     OW35041   1.246   1.678   2.352  0.7262  0.0831  0.3485
 7802SOL    HW135042   1.282   1.701   2.267 -2.1617  3.7880  0.1100
 7802SOL    HW235043   1.155   1.707   2.341  1.2152  1.0993 -0.9339
 7803SOL     OW35044   3.297   3.601   2.819  0.1404  0.5975 -0.4422
 7803SOL    HW135045   3.325   3.684   2.782 -0.8306  0.0965 -2.3081
 7803SOL    HW235046   3.265   3.557   2.740 -0.7966  0.8709 -0.2150
 7804SOL     OW35047   2.004   4.647   1.016 -0.7502 -0.3828  0.2808
 7804SOL    HW135048   2.019   4.671   1.108 -0.1516  1.1716 -0.2054
 7804SOL    HW235049   2.067   4.700   0.967 -2.6511  1.4182 -0.2329
 7805SOL     OW35050   0.687   1.564   4.194  0.2482  0.8151 -0.0948
 7805SOL    HW135051   0.746   1.613   4.136  1.0258  0.1704  0.1533
 7805SOL    HW235052   0.609   1.614   4.170  0.6799  1.3313 -0.4267
 7806SOL     OW35053   3.137   3.694   3.771 -0.2359  0.0199  0.7900
 7806SOL    HW135054   3.227   3.664   3.782  0.4704  1.4325 -0.9795
 7806SOL    HW235055   3.132   3.758   3.843 -0.0848  0.9758 -0.0368
 7807SOL     OW35056   0.823   1.464  17.379  0.1448  0.6918  0.1206
 7807SOL    HW135057   0.765   1.437  17.308 -0.7945 -0.1036  1.1737
 7807SOL    HW235058   0.789   1.413  17.453 -0.3334  0.5471 -0.1964
 7808SOL     OW35059   3.688   3.168   6.618  0.4163  0.2111 -0.6562
 7808SOL    HW135060   3.764   3.203   6.571 -0.4117  2.0411 -0.6216
 7808SOL    HW235061   3.713   3.174   6.710 -0.2221  0.7289 -0.5227
 7809SOL     OW35062   2.689   2.947  13.113 -0.0734 -0.6432  0.6845
 7809SOL    HW135063   2.611   2.908  13.154 -2.1636 -0.4463 -3.1554
 7809SOL    HW235064   2.640   3.005  13.055  0.5883  0.1031  0.8727
 7810SOL     OW35065   4.451   1.895   4.377  0.2109 -0.1701  0.4483
 7810SOL    HW135066   4.416   1.956   4.312 -3.2769  2.1496  4.5527
 7810SOL    HW235067   4.482   1.818   4.328  0.3214 -0.9675  1.7662
 7811SOL     OW35068   0.125   1.195   4.672  0.2325 -0.4739  0.4600
 7811SOL    HW135069   0.143   1.196   4.578 -1.2305 -1.5849  0.1639
 7811SOL    HW235070   0.086   1.281   4.688 -1.7882 -0.8422 -2.4162
 7812SOL     OW35071   1.387   4.685  11.102  0.1658  0.1401 -0.1239
 7812SOL    HW135072   1.371   4.595  11.130 -0.3202  0.1449 -0.3890
 7812SOL    HW235073   1.330   0.007  11.153  1.3084 -0.5824  1.9329
 7813SOL     OW35074   4.411   2.954  12.382  0.2121  0.2680 -0.0045
 7813SOL    HW135075   4.372   2.902  12.452  0.7241  0.2100  0.2382
 7813SOL    HW235076   4.481   2.904  12.341  0.1560  2.1583 -2.3976
 7814SOL     OW35077   1.228   1.809   3.154  0.4479  0.5881  0.8258
 7814SOL    HW135078   1.310   1.858   3.150  1.4197 -1.2551 -1.3024
 7814SOL    HW235079   1.168   1.869   3.199 -0.4375 -0.9249  1.6730
 7815SOL     OW35080   3.954   1.684   5.325 -0.0674 -0.6199  0.6578
 7815SOL    HW135081   3.966   1.684   5.230 -1.0087 -0.2991  0.5366
 7815SOL    HW235082   3.861   1.698   5.344 -0.5051  1.5374 -3.2551
 7816SOL     OW35083   4.266   0.563   2.505  0.2586  0.2251  0.4845
 7816SOL    HW135084   4.233   0.648   2.534  0.9877  0.4684  0.5861
 7816SOL    HW235085   4.354   0.556   2.543  0.1674 -0.0747  0.6448
 7817SOL     OW35086   1.461   3.841  10.602 -0.0220 -0.7419  0.7003
 7817SOL    HW135087   1.543   3.799  10.629 -0.2678  0.1952  2.8422
 7817SOL    HW235088   1.401   3.823  10.673 -0.6398  1.0992  0.6427
 7818SOL     OW35089   0.522   4.081   7.761 -0.4562  0.0081  0.3864
 7818SOL    HW135090   0.430   4.054   7.753 -0.9779  1.3913  1.7141
 7818SOL    HW235091   0.512   4.171   7.790 -0.6806  0.7176 -1.8510
 7819SOL     OW35092   0.153   1.998   9.852 -0.0332  0.1381 -0.1007
 7819SOL    HW135093   0.135   2.092   9.852  0.6652  0.2820  2.0188
 7819SOL    HW235094   0.247   1.993   9.834 -0.2048 -0.4366 -0.8315
 7820SOL     OW35095   0.457   4.454  10.352  0.0553 -0.3981 -0.4786
 7820SOL    HW135096   0.507   4.379  10.385 -1.0227 -2.0061 -2.5345
 7820SOL    HW235097   0.515   4.528  10.370 -1.8966  1.5900 -2.3715
 7821SOL     OW35098   3.016   3.972  17.692  0.1466 -0.4557 -0.0535
 7821SOL    HW135099   3.016   4.063  17.720  1.2485 -1.1967  2.3608
 7821SOL    HW235100   3.020   3.978  17.596  3.2772  1.3700  0.1888
 7822SOL     OW35101   0.578   4.045   8.534  0.2755  0.6506 -0.3084
 7822SOL    HW135102   0.491   4.073   8.504  0.5068  1.3498 -0.3342
 7822SOL    HW235103   0.569   4.030   8.628  1.0396  0.7695 -0.2195
 7823SOL     OW35104   1.632   3.122   4.508  0.4566  0.9301  0.1124
 7823SOL    HW135105   1.719   3.102   4.543 -0.1625  0.7907  1.5669
 7823SOL    HW235106   1.611   3.197   4.563  1.5578  1.2858  0.0395
 7824SOL     OW35107   0.535   4.727   2.791 -0.2651 -0.1884 -0.0224
 7824SOL    HW135108   0.529   4.672   2.869 -0.2881 -0.6902 -0.3818
 7824SOL    HW235109   0.547   0.080   2.826  0.3610 -1.2604  2.4534
 7825SOL     OW35110   1.333   3.884   3.867  0.0328  0.1537 -0.4302
 7825SOL    HW135111   1.351   3.965   3.914 -3.1537 -0.2943  1.5309
 7825SOL    HW235112   1.418   3.842   3.849  0.5599  1.1369 -0.2004
 7826SOL     OW35113   1.592   4.047   6.277  0.0412  0.5968 -0.0873
 7826SOL    HW135114   1.591   4.138   6.248 -4.2906  0.3094 -0.8699
 7826SOL    HW235115   1.674   4.049   6.327  0.1927  0.7371 -0.3397
 7827SOL     OW35116   3.603   2.191   7.384  0.6797  0.9543  0.0938
 7827SOL    HW135117   3.536   2.130   7.352  0.8522  0.9976 -0.3544
 7827SOL    HW235118   3.556   2.236   7.454 -0.1630  2.6906 -1.5782
 7828SOL     OW35119   1.891   2.821  11.819 -1.0039  0.0739 -0.2282
 7828SOL    HW135120   1.908   2.778  11.736  4.2271  0.2076  0.7433
 7828SOL    HW235121   1.797   2.841  11.815 -0.9560  0.1011 -1.0902
 7829SOL     OW35122   0.490   0.431  17.636  0.0501  0.1866  0.3652
 7829SOL    HW135123   0.462   0.377  17.710 -1.4157  0.2808 -0.1076
 7829SOL    HW235124   0.434   0.405  17.562  1.7934 -0.0000 -0.8703
 7830SOL     OW35125   3.576   3.220  10.548 -0.5644 -0.0071 -0.0778
 7830SOL    HW135126   3.608   3.303  10.511  0.0214 -0.1495  0.1268
 7830SOL    HW235127   3.592   3.236  10.641 -2.8750 -1.5351  0.5760
 7831SOL     OW35128   2.947   0.181   6.953 -0.5724 -0.1091  0.0426
 7831SOL    HW135129   3.006   0.223   7.016 -0.9943 -0.9417  0.9943
 7831SOL    HW235130   2.893   0.134   7.017  1.3102 -0.1897  1.5670
 7832SOL     OW35131   2.368   2.890  17.320  0.3857 -0.0457 -0.1442
 7832SOL    HW135132   2.276   2.862  17.316  0.4264 -0.2569  0.3751
 7832SOL    HW235133   2.378   2.948  17.245  1.6489  1.9575  1.5832
 7833SOL     OW35134   4.217   3.808   4.823  0.4034  0.2947  0.1049
 7833SOL    HW135135   4.312   3.816   4.830  0.3885  0.2328  0.3486
 7833SOL    HW235136   4.212   3.889   4.772  0.3769 -0.2990 -0.8495
 7834SOL     OW35137   0.773   4.356   3.697 -0.0965  0.1902  0.5418
 7834SOL    HW135138   0.780   4.451   3.705 -1.7269  0.1871  1.9375
 7834SOL    HW235139   0.678   4.360   3.695 -0.0218  1.0977 -1.1018
 7835SOL     OW35140   2.721   1.749   5.193  0.2350 -0.0008 -0.0170
 7835SOL    HW135141   2.668   1.670   5.178 -2.0536  1.3737  0.8080
 7835SOL    HW235142   2.652   1.815   5.189  0.8138  0.6300  0.4252
 7836SOL     OW35143   0.669   1.299   2.461 -0.0926  0.2865 -0.1741
 7836SOL    HW135144   0.680   1.394   2.455 -1.2477  0.3019 -1.8474
 7836SOL    HW235145   0.665   1.287   2.556 -1.1500  0.3228 -0.2127
 7837SOL     OW35146   4.293   3.106   2.529  0.4299  0.3021 -0.3872
 7837SOL    HW135147   4.227   3.122   2.461 -0.0680  2.0224  0.4821
 7837SOL    HW235148   4.374   3.145   2.498 -0.3850  2.1327 -0.2372
 7838SOL     OW35149   1.699   1.223   7.575 -0.1231 -0.2158 -0.5909
 7838SOL    HW135150   1.661   1.280   7.509 -1.0952 -0.3156 -0.1129
 7838SOL    HW235151   1.789   1.254   7.573  0.2076 -0.9923  1.6622
 7839SOL     OW35152   2.065   3.533  14.176 -0.0124 -0.3111  0.1178
 7839SOL    HW135153   2.047   3.586  14.254 -2.0103  0.5580 -0.9043
 7839SOL    HW235154   2.079   3.598  14.107  0.7151 -0.1088  0.4552
 7840SOL     OW35155   0.168   4.308   9.843 -0.7323 -0.0605 -0.1989
 7840SOL    HW135156   0.108   4.377   9.814  2.2996  1.5962 -2.5856
 7840SOL    HW235157   0.156   4.296   9.937 -0.2442  0.4840 -0.0678
 7841SOL     OW35158   3.728   4.239   6.217 -0.1817 -0.4906  0.0596
 7841SOL    HW135159   3.674   4.204   6.286 -1.9619  0.4840 -0.8306
 7841SOL    HW235160   3.802   4.276   6.266  0.1122  1.7581 -2.0188
 7842SOL     OW35161   0.921   3.500   8.500  0.5909 -0.6180 -0.5272
 7842SOL    HW135162   0.916   3.492   8.596 -0.4466 -2.5289 -0.7370
 7842SOL    HW235163   0.960   3.413   8.493  3.5955  0.5021  1.9017
 7843SOL     OW35164   0.064   0.974   9.323  0.0667  0.4459 -0.0436
 7843SOL    HW135165   0.026   0.937   9.403 -1.1807 -0.8393 -1.2177
 7843SOL    HW235166   4.718   0.997   9.278 -0.8964 -0.4495  1.2071
 7844SOL     OW35167   3.136   3.154   7.704  0.2769  0.4258 -0.4868
 7844SOL    HW135168   3.179   3.233   7.672  0.2676  0.1155 -1.2597
 7844SOL    HW235169   3.075   3.133   7.634 -1.6514 -1.7471  1.8437
 7845SOL     OW35170   2.217   3.363   0.877 -0.5997  0.1906  0.4232
 7845SOL    HW135171   2.263   3.440   0.910  1.5815 -0.5097 -0.9527
 7845SOL    HW235172   2.132   3.405   0.862 -0.9661 -1.3999 -2.0675
 7846SOL     OW35173   3.183   2.958  16.569 -0.1543 -0.0378  0.4429
 7846SOL    HW135174   3.164   2.935  16.478 -1.4198 -1.1244  0.9798
 7846SOL    HW235175   3.218   3.045  16.553 -0.0918  0.2610  2.2320
 7847SOL     OW35176   2.097   1.828   9.409 -0.5523  0.4959  0.0363
 7847SOL    HW135177   2.120   1.768   9.338  1.2144  0.4006  0.6697
 7847SOL    HW235178   2.099   1.766   9.482 -0.4677  1.6928  1.0568
 7848SOL     OW35179   4.598   2.067  11.059  0.8776 -0.1229 -0.3100
 7848SOL    HW135180   4.664   2.061  10.990  1.1467  2.7921 -0.2677
 7848SOL    HW235181   4.550   1.987  11.037  0.3479  0.2914 -0.6647
 7849SOL     OW35182   1.473   1.616   8.892  0.2958 -0.0367  0.4554
 7849SOL    HW135183   1.465   1.622   8.987 -2.0356  0.4672  0.2167
 7849SOL    HW235184   1.396   1.567   8.864  1.1229 -1.0404 -0.0616
 7850SOL     OW35185   4.395   0.073   9.491  0.0307  0.2084 -0.6505
 7850SOL    HW135186   4.396   0.167   9.473 -0.5655  0.1624 -0.9275
 7850SOL    HW235187   4.442   0.041   9.414  0.8657 -0.5699  0.1897
 7851SOL     OW35188   3.693   3.566   5.127 -0.1215  0.1127  0.1818
 7851SOL    HW135189   3.730   3.509   5.059 -0.5815  0.1364 -0.0876
 7851SOL    HW235190   3.629   3.617   5.077  0.2956 -1.4721 -1.9662
 7852SOL     OW35191   2.876   1.967  15.500  0.2120 -0.0412 -0.4526
 7852SOL    HW135192   2.811   1.909  15.538 -0.0685 -0.6881 -1.9290
 7852SOL    HW235193   2.881   1.944  15.407  2.5380 -0.4950 -0.2127
 7853SOL     OW35194   3.427   3.110  17.106  0.3504  0.2055 -0.5021
 7853SOL    HW135195   3.435   3.188  17.162  0.5633 -0.2778  0.1368
 7853SOL    HW235196   3.446   3.046  17.174 -2.9831 -0.4752 -0.1847
 7854SOL     OW35197   0.322   1.402   8.089  0.1778 -0.1848 -0.1724
 7854SOL    HW135198   0.401   1.349   8.079 -0.7664 -1.2005 -2.1972
 7854SOL    HW235199   0.308   1.426   7.998 -0.9843 -0.8532 -0.1795
 7855SOL     OW35200   3.563   1.387  17.340 -0.1242  0.0188 -0.9122
 7855SOL    HW135201   3.499   1.316  17.348 -0.0951 -0.0364 -1.1694
 7855SOL    HW235202   3.586   1.391  17.247 -1.2117 -1.1834 -1.2358
 7856SOL     OW35203   1.130   2.055   9.092 -0.2274  0.6852  0.4944
 7856SOL    HW135204   1.148   1.999   9.016  0.8314 -0.0668  1.2934
 7856SOL    HW235205   1.035   2.057   9.096 -0.1862  0.0703  1.5151
 7857SOL     OW35206   4.417   4.692  11.952  0.2809  0.0974  0.2918
 7857SOL    HW135207   4.324   4.691  11.974  0.6464 -2.1895  1.7441
 7857SOL    HW235208   4.455   4.671  12.037 -0.7644  0.2746  0.8020
 7858SOL     OW35209   2.198   4.393   5.938 -0.1302  0.2293  0.3599
 7858SOL    HW135210   2.238   4.319   5.984 -0.3012 -0.6967 -0.9594
 7858SOL    HW235211   2.237   4.368   5.854 -0.0312 -0.7580  0.6965
 7859SOL     OW35212   2.729   3.442   2.821 -0.0927 -0.5707  0.2616
 7859SOL    HW135213   2.781   3.481   2.891 -0.6492  0.4499  0.0929
 7859SOL    HW235214   2.680   3.376   2.871 -0.0499 -0.9023 -0.1285
 7860SOL     OW35215   3.529   4.292  10.701  0.0678  0.1801 -0.0916
 7860SOL    HW135216   3.450   4.343  10.719  1.0742  1.6679  0.1081
 7860SOL    HW235217   3.508   4.204  10.733 -0.8119 -0.4683 -2.4529
 7861SOL     OW35218   2.345   2.688  17.692 -0.2869 -0.0442 -0.1238
 7861SOL    HW135219   2.427   2.642  17.712 -0.4451  1.3347  3.5514
 7861SOL    HW235220   2.284   2.641   0.010  0.3203  0.3595  0.8543
 7862SOL     OW35221   2.470   0.260   7.692 -0.0268  0.1540 -0.1350
 7862SOL    HW135222   2.495   0.308   7.613 -1.2046 -1.1785 -1.3333
 7862SOL    HW235223   2.469   0.172   7.655  3.5956  0.1949 -0.4019
 7863SOL     OW35224   0.968   2.234  10.060 -0.0258 -0.2694 -0.2938
 7863SOL    HW135225   0.958   2.203  10.150  0.9488 -2.1598 -0.8576
 7863SOL    HW235226   0.893   2.197  10.013  1.2913  0.2929 -2.8284
 7864SOL     OW35227   2.893   2.671   8.083 -0.7094 -0.0218  0.1054
 7864SOL    HW135228   2.978   2.677   8.128 -0.8744 -2.1643  0.7041
 7864SOL    HW235229   2.850   2.647   8.165 -1.8139 -1.0934 -0.7776
 7865SOL     OW35230   3.887   3.342   8.254 -0.7746  0.3510 -0.3724
 7865SOL    HW135231   3.875   3.348   8.349 -0.3237 -1.5033 -0.1926
 7865SOL    HW235232   3.940   3.420   8.237 -0.3551 -0.2169 -1.6792
 7866SOL     OW35233   1.019   3.032  17.144  0.3500  0.4973 -0.4938
 7866SOL    HW135234   1.050   3.108  17.095 -1.3205  0.7792 -1.1134
 7866SOL    HW235235   0.946   3.000  17.091 -1.6261 -0.7113  2.9264
 7867SOL     OW35236   0.419   2.413  16.000  1.2589  0.1147  0.1302
 7867SOL    HW135237   0.512   2.391  16.010  0.8640 -1.3445  0.6017
 7867SOL    HW235238   0.419   2.413  15.904 -0.4031  1.6325  0.1378
 7868SOL     OW35239   2.775   4.011  11.491  0.2263  0.8418  0.3113
 7868SOL    HW135240   2.712   4.084  11.490  1.3361  1.7761 -1.1723
 7868SOL    HW235241   2.800   4.018  11.399 -1.1763  0.5668 -0.0996
 7869SOL     OW35242   3.756   3.963  15.432  0.5442 -0.6200 -0.0256
 7869SOL    HW135243   3.709   3.880  15.439 -3.2934  1.5617 -0.1198
 7869SOL    HW235244   3.837   3.928  15.394 -0.2797 -1.9467 -0.5338
 7870SOL     OW35245   2.290   3.934   1.870  0.2147  0.1352 -0.0162
 7870SOL    HW135246   2.297   3.906   1.778 -1.0064  2.2327 -0.7624
 7870SOL    HW235247   2.301   3.848   1.910  0.8039  0.5804  0.7725
 7871SOL     OW35248   3.013   1.549  10.709  0.0355  0.1457 -0.2197
 7871SOL    HW135249   2.924   1.564  10.741  0.1668 -0.1730  0.2913
 7871SOL    HW235250   3.050   1.498  10.781  0.5726 -1.9641 -1.9900
 7872SOL     OW35251   3.009   2.859  13.244  0.1016 -0.2876  0.1523
 7872SOL    HW135252   3.048   2.782  13.203  1.3609  1.5691 -2.1261
 7872SOL    HW235253   2.925   2.822  13.270 -0.2940  1.4397  1.3093
 7873SOL     OW35254   1.822   3.127  15.480  0.1893  0.9465  0.7401
 7873SOL    HW135255   1.818   3.072  15.402  0.2492  0.5653  1.0099
 7873SOL    HW235256   1.913   3.118  15.510  0.4942 -0.8297 -0.7311
 7874SOL     OW35257   0.571   2.990   3.851 -0.2331  0.0050  0.4326
 7874SOL    HW135258   0.603   2.951   3.769  1.6279  0.4400  0.9414
 7874SOL    HW235259   0.625   2.953   3.921  0.6909 -2.4967 -1.5970
 7875SOL     OW35260   0.661   2.389   2.807 -0.3968 -0.3038  0.1363
 7875SOL    HW135261   0.712   2.312   2.833  0.8426  0.0959 -1.1414
 7875SOL    HW235262   0.677   2.436   2.889  0.5559 -1.0865  0.4088
 7876SOL     OW35263   2.108   2.864   7.177 -0.1720 -0.0767 -0.4668
 7876SOL    HW135264   2.133   2.947   7.219  0.4831 -1.1321  1.2237
 7876SOL    HW235265   2.104   2.808   7.254  1.5548  0.4813  0.0463
 7877SOL     OW35266   3.930   2.078   9.706 -0.3729 -0.3460 -0.3626
 7877SOL    HW135267   3.956   1.994   9.670 -1.4854 -0.8340 -0.0195
 7877SOL    HW235268   3.957   2.133   9.633 -0.1635  1.8541  1.3396
 7878SOL     OW35269   4.094   4.538  11.577 -0.0787  0.8235 -0.4985
 7878SOL    HW135270   4.109   4.632  11.572 -2.7563  1.3297  1.1069
 7878SOL    HW235271   4.125   4.525  11.667 -0.0175  0.1211 -0.6242
 7879SOL     OW35272   0.605   3.546  12.097  0.5683 -0.0822 -0.3914
 7879SOL    HW135273   0.543   3.522  12.166  0.7140  1.7764  0.3724
 7879SOL    HW235274   0.678   3.484  12.105 -0.0677 -0.9725 -1.4706
 7880SOL     OW35275   3.461   3.760   7.296 -0.0561 -0.5297 -0.5655
 7880SOL    HW135276   3.386   3.711   7.264 -0.1552 -0.8860  0.2103
 7880SOL    HW235277   3.420   3.817   7.361  0.4778 -1.8211  0.8985
 7881SOL     OW35278   2.737   1.358   9.027  0.2071  0.4937  0.1931
 7881SOL    HW135279   2.761   1.450   9.016 -2.6208  1.2760  0.5895
 7881SOL    HW235280   2.729   1.334   8.934  0.4886  0.3317  0.2096
 7882SOL     OW35281   2.291   3.613  11.003  0.2567 -0.1701  0.0680
 7882SOL    HW135282   2.272   3.573  11.088 -3.3367  1.3507 -0.0131
 7882SOL    HW235283   2.208   3.585  10.964  0.7906 -1.3915 -0.1892
 7883SOL     OW35284   4.093   1.187   4.731  0.0777  0.3627 -0.0583
 7883SOL    HW135285   4.073   1.199   4.823 -0.2811  3.1003 -0.4793
 7883SOL    HW235286   4.005   1.200   4.696 -0.6895 -0.2944  1.6802
 7884SOL     OW35287   3.305   3.474  12.497 -0.6798  0.1497 -0.1597
 7884SOL    HW135288   3.224   3.433  12.468 -0.9139 -0.5397  1.4752
 7884SOL    HW235289   3.346   3.403  12.547  1.5269  0.6006 -1.2982
 7885SOL     OW35290   4.111   0.867   5.563 -0.0644 -0.4093  0.1473
 7885SOL    HW135291   4.192   0.837   5.522 -0.3286  0.1012 -0.7525
 7885SOL    HW235292   4.087   0.940   5.506 -0.0494 -0.3248  0.2492
 7886SOL     OW35293   3.594   2.964  13.291  0.5025 -0.5651 -0.5605
 7886SOL    HW135294   3.520   2.992  13.345  0.4209 -1.3452 -0.2734
 7886SOL    HW235295   3.662   2.949  13.356  0.6505  1.3066 -0.2768
 7887SOL     OW35296   1.118   4.010   0.690 -0.1405  0.4461  0.6336
 7887SOL    HW135297   1.133   3.922   0.725  2.4092  0.5299 -0.2289
 7887SOL    HW235298   1.163   4.003   0.605 -3.1059 -1.3274 -0.7701
 7888SOL     OW35299   4.526   3.557  10.307 -0.1279 -0.0329  0.4652
 7888SOL    HW135300   4.466   3.630  10.316  0.6403  0.4511  1.6231
 7888SOL    HW235301   4.526   3.544  10.212  0.6576 -0.0343  0.4665
 7889SOL     OW35302   2.650   2.575   4.489  0.2251 -0.0524  0.1660
 7889SOL    HW135303   2.560   2.602   4.473  0.8710  1.2147 -1.2383
 7889SOL    HW235304   2.683   2.648   4.437  0.9505 -0.2291  0.3788
 7890SOL     OW35305   2.467   1.346   4.880  0.1856  0.5328  0.0270
 7890SOL    HW135306   2.468   1.266   4.829  0.7630  0.2846  0.4326
 7890SOL    HW235307   2.474   1.309   4.968 -1.2763  1.6472  0.6198
 7891SOL     OW35308   3.930   1.183   2.372  0.4676  0.0683 -0.4303
 7891SOL    HW135309   3.896   1.205   2.285 -0.0677 -0.2146 -0.2876
 7891SOL    HW235310   3.913   1.089   2.374  1.4746 -0.1032  0.3239
 7892SOL     OW35311   1.945   2.493   4.187 -0.7526  0.3658 -1.1980
 7892SOL    HW135312   2.030   2.534   4.201 -2.0552  2.3255  0.9349
 7892SOL    HW235313   1.960   2.398   4.190  0.4957  0.6126 -0.1347
 7893SOL     OW35314   1.747   3.799  16.553 -0.2617  0.5378 -0.0618
 7893SOL    HW135315   1.702   3.866  16.501 -0.6083  1.1761  1.0645
 7893SOL    HW235316   1.738   3.720  16.499 -0.6220  0.8826 -0.5109
 7894SOL     OW35317   2.848   2.320   5.670  0.8822  0.4692  0.1142
 7894SOL    HW135318   2.831   2.413   5.657 -0.9771 -0.0212 -0.8725
 7894SOL    HW235319   2.878   2.312   5.761  0.0795 -1.0581  0.2489
 7895SOL     OW35320   4.284   4.440   4.167 -0.3615 -0.1588 -0.2024
 7895SOL    HW135321   4.379   4.446   4.164 -0.3555  0.1926  0.5994
 7895SOL    HW235322   4.270   4.377   4.238  2.1668 -0.5215 -0.0412
 7896SOL     OW35323   0.057   2.486  15.168 -0.2224 -0.0399  0.2835
 7896SOL    HW135324   0.134   2.467  15.222  0.9724  0.0355 -1.3803
 7896SOL    HW235325   0.047   2.581  15.174  2.2211  0.4510 -3.3572
 7897SOL     OW35326   0.787   3.023   9.930  0.2229 -0.5474 -0.1960
 7897SOL    HW135327   0.742   3.088   9.984  1.4403 -0.0125  0.1637
 7897SOL    HW235328   0.873   3.026   9.971 -0.1236  0.0734  0.4831
 7898SOL     OW35329   3.936   2.485  16.327  0.3658  0.4899 -0.1910
 7898SOL    HW135330   3.956   2.448  16.241  0.8706  1.9991 -0.7165
 7898SOL    HW235331   4.016   2.536  16.341  1.0625 -0.6403 -0.0981
 7899SOL     OW35332   4.132   4.327   4.634  0.4812  0.4610  0.3485
 7899SOL    HW135333   4.101   4.403   4.585  2.3516  0.1990 -1.2643
 7899SOL    HW235334   4.053   4.275   4.649  0.2352  1.0560  1.1403
 7900SOL     OW35335   2.000   3.830   5.691 -0.4479  0.0222 -0.1442
 7900SOL    HW135336   1.951   3.806   5.612  1.1573 -0.4864 -0.9912
 7900SOL    HW235337   1.972   3.754   5.742 -0.5590  1.1338  1.4167
 7901SOL     OW35338   4.175   4.157   5.529  0.5571  0.5839 -0.0436
 7901SOL    HW135339   4.106   4.216   5.560 -0.7190 -0.0981 -1.5797
 7901SOL    HW235340   4.145   4.121   5.446  1.1609 -0.4035  0.1576
 7902SOL     OW35341   0.658   2.596  10.766 -0.1539  0.1485 -0.3125
 7902SOL    HW135342   0.746   2.633  10.774 -0.6768  0.8936  2.0500
 7902SOL    HW235343   0.679   2.531  10.700  1.1000  1.2501 -0.9989
 7903SOL     OW35344   2.115   1.798   9.977 -0.4471  0.3699 -0.1519
 7903SOL    HW135345   2.194   1.744   9.965 -1.7949 -1.5540 -0.2480
 7903SOL    HW235346   2.058   1.768   9.906  1.6766  0.0951 -1.7781
 7904SOL     OW35347   3.529   1.126   8.665 -0.0266  0.9077 -0.4545
 7904SOL    HW135348   3.480   1.045   8.678  0.0466  1.1501  1.3252
 7904SOL    HW235349   3.476   1.184   8.719 -0.8459 -0.2342 -0.0304
 7905SOL     OW35350   0.229   2.339   2.463 -0.3695  0.1452 -0.4472
 7905SOL    HW135351   0.264   2.404   2.524  0.4144 -0.7384  0.0380
 7905SOL    HW235352   0.296   2.347   2.396  0.6878 -0.5925  0.5236
 7906SOL     OW35353   4.131   0.995   6.742  0.4744 -0.5227  0.3464
 7906SOL    HW135354   4.068   1.028   6.677  0.4585 -0.9833  0.1210
 7906SOL    HW235355   4.193   0.963   6.676  0.1937 -1.0696  0.3399
 7907SOL     OW35356   2.433   4.645   4.514 -0.0287  0.0373 -0.0949
 7907SOL    HW135357   2.422   4.720   4.456  0.8116 -0.7268 -1.2581
 7907SOL    HW235358   2.344   4.650   4.550  0.4127  0.9094  0.8528
 7908SOL     OW35359   4.282   0.978  10.058  0.1463 -0.0583  0.0535
 7908SOL    HW135360   4.188   0.977  10.079  0.3458  1.2262  1.0075
 7908SOL    HW235361   4.269   1.032   9.980  2.7268  0.2478 -0.1651
 7909SOL     OW35362   3.469   4.425  17.554  1.1680  0.1548 -0.2227
 7909SOL    HW135363   3.499   4.415  17.644 -1.7598 -0.1477  0.7359
 7909SOL    HW235364   3.544   4.412  17.496  0.0629 -3.6369 -0.8353
 7910SOL     OW35365   0.087   3.746   5.004 -0.1944 -0.4426  0.5212
 7910SOL    HW135366   0.024   3.712   4.940  1.1743  2.1260 -2.2011
 7910SOL    HW235367   0.142   3.670   5.023  0.0779 -0.0476  1.2845
 7911SOL     OW35368   3.081   0.938   7.707  0.4315  0.4467 -0.3423
 7911SOL    HW135369   3.034   0.933   7.623 -0.3827  3.0955 -0.0441
 7911SOL    HW235370   3.021   0.900   7.771 -0.6336  1.1754 -0.8902
 7912SOL     OW35371   3.943   3.968   4.614 -0.1322 -0.7048  0.2717
 7912SOL    HW135372   3.927   4.045   4.669 -2.2482 -0.0349 -1.2694
 7912SOL    HW235373   4.026   3.980   4.568  1.4583 -3.2241  2.5196
 7913SOL     OW35374   2.866   1.116   6.921 -0.1456  0.1580  0.2923
 7913SOL    HW135375   2.927   1.042   6.921 -1.8328 -1.2483 -0.4999
 7913SOL    HW235376   2.801   1.087   6.857  0.3764  3.0200 -1.5032
 7914SOL     OW35377   4.637   2.617  14.944 -0.4507 -0.0692  0.8097
 7914SOL    HW135378   4.690   2.594  15.019  2.3096  1.1149 -0.7596
 7914SOL    HW235379   4.698   2.634  14.871  0.5850  0.9358  1.9109
 7915SOL     OW35380   3.022   0.686   2.285  0.3111  0.4453  0.3109
 7915SOL    HW135381   3.019   0.592   2.300  0.7854  0.2430 -0.8591
 7915SOL    HW235382   3.045   0.719   2.372  4.4881  1.7936 -1.3155
 7916SOL     OW35383   4.127   4.735   7.260 -0.6758 -0.2496  0.0198
 7916SOL    HW135384   4.054   0.040   7.212 -0.8387 -0.2128  0.3023
 7916SOL    HW235385   4.094   4.645   7.256 -2.3468  0.3081  1.3773
 7917SOL     OW35386   2.498   0.799   6.247 -0.0262 -0.0102 -1.0965
 7917SOL    HW135387   2.496   0.891   6.273 -0.4438 -0.1188 -0.7517
 7917SOL    HW235388   2.530   0.804   6.157  0.8904  0.9452 -0.7134
 7918SOL     OW35389   3.227   2.486   0.431 -0.0453  0.1747  0.0195
 7918SOL    HW135390   3.143   2.523   0.404 -0.5322 -1.2414 -0.4079
 7918SOL    HW235391   3.210   2.491   0.525 -0.0032 -1.6682  0.1205
 7919SOL     OW35392   3.310   1.193   6.457 -0.2401  0.5226 -0.3370
 7919SOL    HW135393   3.342   1.121   6.402  0.7101  0.2407  0.5896
 7919SOL    HW235394   3.231   1.159   6.500  0.0420  1.9888  1.2924
 7920SOL     OW35395   1.584   2.876   3.610 -0.2976 -0.2236 -0.2889
 7920SOL    HW135396   1.576   2.858   3.704 -1.5317  0.2927 -0.3042
 7920SOL    HW235397   1.500   2.910   3.581 -0.1334  1.1038  0.7572
 7921SOL     OW35398   2.431   1.637   2.844 -0.3419  0.4488 -0.3089
 7921SOL    HW135399   2.474   1.552   2.834 -0.3006  0.2475  1.5807
 7921SOL    HW235400   2.354   1.613   2.793  0.0678 -3.2517  0.8163
 7922SOL     OW35401   2.052   0.264   5.980 -0.1305 -0.4693 -0.2039
 7922SOL    HW135402   2.005   0.193   6.025 -1.1743 -1.2651 -2.5245
 7922SOL    HW235403   1.980   0.322   5.954 -0.2995 -0.7305 -0.3276
 7923SOL     OW35404   4.093   1.035   5.350  0.0858 -0.2159  0.3589
 7923SOL    HW135405   4.135   1.032   5.265 -0.2958 -0.0138  0.1602
 7923SOL    HW235406   4.114   1.127   5.369  0.0133 -0.4256  1.4566
 7924SOL     OW35407   4.732   4.350   8.286 -0.4243  0.2737 -0.5525
 7924SOL    HW135408   4.649   4.393   8.265 -0.1799 -0.1291 -2.3790
 7924SOL    HW235409   0.008   4.363   8.380 -2.1969 -0.6917 -0.2068
 7925SOL     OW35410   1.337   0.025   1.895  0.4520 -0.1136 -0.7679
 7925SOL    HW135411   1.317   4.694   1.829  1.2286 -0.3262 -0.7910
 7925SOL    HW235412   1.257   0.077   1.904  1.7445  1.8078 -0.1272
 7926SOL     OW35413   1.718   0.835   7.718  0.4103  0.0353 -0.7336
 7926SOL    HW135414   1.745   0.817   7.628  1.2787  1.7142 -0.8085
 7926SOL    HW235415   1.803   0.826   7.761  1.3556  0.5562 -2.5070
 7927SOL     OW35416   4.664   1.129   0.036  0.1756  0.5640  0.1216
 7927SOL    HW135417   0.021   1.145   0.058 -0.0132 -0.2433  1.5088
 7927SOL    HW235418   4.657   1.174  17.692  0.1137 -1.7618 -1.1461
 7928SOL     OW35419   1.827   3.756   9.661  0.6523 -0.1136 -0.0419
 7928SOL    HW135420   1.780   3.733   9.741 -0.2482 -1.1707 -0.8795
 7928SOL    HW235421   1.913   3.780   9.695  0.5153  2.3612 -1.4373
 7929SOL     OW35422   2.416   1.748   0.608 -0.1701  0.0674  0.7830
 7929SOL    HW135423   2.472   1.803   0.554  0.1451 -0.9688  0.0751
 7929SOL    HW235424   2.348   1.815   0.620  0.0856  0.5875 -0.7359
 7930SOL     OW35425   2.767   0.885   8.387 -0.4639  0.7326  0.1428
 7930SOL    HW135426   2.682   0.844   8.368 -0.4926 -0.3885  2.6436
 7930SOL    HW235427   2.739   0.938   8.463 -1.7750  1.3236 -0.7522
 7931SOL     OW35428   1.572   1.685   4.527  0.4437 -0.1489  0.2148
 7931SOL    HW135429   1.531   1.599   4.539  0.1859 -0.1129 -0.3902
 7931SOL    HW235430   1.650   1.681   4.582  1.3910  1.2907 -1.0417
 7932SOL     OW35431   3.918   4.448  17.635  0.2946  0.1325  0.2447
 7932SOL    HW135432   3.947   4.539  17.636 -1.7849  0.8145 -2.6794
 7932SOL    HW235433   3.970   4.401  17.571 -0.1454 -1.5559  1.1234
 7933SOL     OW35434   0.313   3.946   2.368  0.6756  0.2801 -0.0164
 7933SOL    HW135435   0.299   3.856   2.340 -0.3685  0.5994 -0.5419
 7933SOL    HW235436   0.249   3.950   2.439 -1.3704 -0.0317 -1.8281
 7934SOL     OW35437   3.586   3.077   7.265  0.2851  0.1610  0.0788
 7934SOL    HW135438   3.575   3.172   7.257 -1.8428  0.0380  1.6085
 7934SOL    HW235439   3.660   3.059   7.206 -2.3480 -1.3767 -2.7950
 7935SOL     OW35440   2.459   2.966   7.744 -0.6582  0.2971  0.2126
 7935SOL    HW135441   2.518   3.016   7.800 -0.6189 -1.6822  1.9189
 7935SOL    HW235442   2.380   2.956   7.797 -0.3646  1.7509  0.9172
 7936SOL     OW35443   4.283   4.082   4.788 -0.0154  0.4527  0.2863
 7936SOL    HW135444   4.257   4.141   4.717  1.1016  0.1107 -0.4054
 7936SOL    HW235445   4.374   4.108   4.798 -0.2584  1.1891  0.6129
 7937SOL     OW35446   0.015   3.474  10.423 -0.2413  0.1050  0.6504
 7937SOL    HW135447   0.068   3.502  10.348 -0.5516  0.9543  0.7403
 7937SOL    HW235448   4.658   3.495  10.407  0.3041 -0.4214 -3.0221
 7938SOL     OW35449   4.429   1.964  15.559 -0.2436  0.2907 -0.1824
 7938SOL    HW135450   4.455   2.054  15.576  1.7994 -0.3393 -0.0371
 7938SOL    HW235451   4.463   1.925  15.640  1.7591  0.7146 -0.8275
 7939SOL     OW35452   1.084   4.517   2.948 -0.1093 -0.3960 -0.3695
 7939SOL    HW135453   1.065   4.423   2.947 -0.1199 -0.3952 -0.2412
 7939SOL    HW235454   1.030   4.550   2.875 -0.2839  0.6656  0.2349
 7940SOL     OW35455   2.350   1.177   7.010  0.2277  0.0681 -0.5887
 7940SOL    HW135456   2.297   1.163   7.089  1.6648 -2.0544 -0.0056
 7940SOL    HW235457   2.311   1.257   6.976  1.3402  1.1226  0.6016
 7941SOL     OW35458   0.306   1.320   4.983 -0.3987 -0.0522  0.0636
 7941SOL    HW135459   0.278   1.383   5.049  0.7717  1.7364 -1.1459
 7941SOL    HW235460   0.340   1.381   4.917 -0.2791  1.0100  1.1041
 7942SOL     OW35461   0.030   3.077  16.856 -0.0842  0.2826 -0.5316
 7942SOL    HW135462   0.096   3.061  16.789 -0.1485 -2.0707 -0.0483
 7942SOL    HW235463   4.700   3.007  16.843  2.1679 -1.7963 -0.6314
 7943SOL     OW35464   3.325   4.334   1.128 -0.3431 -0.3422 -0.0386
 7943SOL    HW135465   3.332   4.244   1.097 -0.8060 -0.0135 -1.0941
 7943SOL    HW235466   3.271   4.331   1.206 -1.8915 -1.0429 -1.1514
 7944SOL     OW35467   2.903   1.348   9.217  0.5088  0.2662 -0.0076
 7944SOL    HW135468   2.985   1.347   9.168  0.0259  0.9322 -0.8368
 7944SOL    HW235469   2.846   1.334   9.141  1.6785  2.0887 -1.2306
 7945SOL     OW35470   4.476   3.992  16.524  0.1442  0.4329  0.3224
 7945SOL    HW135471   4.464   3.905  16.485 -0.5681  0.4643  0.4682
 7945SOL    HW235472   4.421   4.051  16.473  0.4918 -0.6489 -1.3340
 7946SOL     OW35473   1.036   0.876   6.239 -0.0283  0.2655  0.2480
 7946SOL    HW135474   0.945   0.858   6.266 -0.5333 -2.3794 -3.1846
 7946SOL    HW235475   1.071   0.791   6.266 -1.2579 -0.2024  0.4117
 7947SOL     OW35476   2.916   3.947   5.883  0.5806  0.1105 -0.5292
 7947SOL    HW135477   2.928   3.925   5.976  0.1268  0.8064 -0.3095
 7947SOL    HW235478   2.901   4.040   5.897 -1.6774 -0.4126  0.4715
 7948SOL     OW35479   4.321   2.471   3.479  0.1900  0.6180  0.6128
 7948SOL    HW135480   4.351   2.419   3.404  0.4119 -0.1236  1.2103
 7948SOL    HW235481   4.301   2.552   3.431 -0.8099 -1.0165 -1.7408
 7949SOL     OW35482   1.706   3.990   4.312 -0.0061 -0.0305 -0.2339
 7949SOL    HW135483   1.628   3.954   4.270  0.8186 -2.5495  0.4447
 7949SOL    HW235484   1.676   4.079   4.332 -1.0861 -0.0827 -1.6312
 7950SOL     OW35485   4.070   0.876   1.446 -0.2395 -0.0168  0.0691
 7950SOL    HW135486   3.993   0.890   1.390  1.1409 -0.9792 -2.1007
 7950SOL    HW235487   4.025   0.823   1.511 -0.5298  0.6731  0.4224
 7951SOL     OW35488   0.600   3.706   4.674 -0.1609  0.1858 -0.0885
 7951SOL    HW135489   0.526   3.661   4.714 -0.6722 -1.0676 -2.4016
 7951SOL    HW235490   0.646   3.628   4.643 -0.3784  0.0752 -0.1340
 7952SOL     OW35491   0.417   0.149   8.134 -0.0485  0.2241  0.4395
 7952SOL    HW135492   0.458   0.180   8.053  0.2368 -0.0686  0.4695
 7952SOL    HW235493   0.376   0.232   8.156 -0.5266  0.0703  0.1176
 7953SOL     OW35494   1.800   3.792  13.783 -0.0113 -0.7701  0.6589
 7953SOL    HW135495   1.743   3.729  13.828 -0.8886  0.6773  1.5636
 7953SOL    HW235496   1.775   3.868  13.835  0.1127  0.2649 -0.7950
 7954SOL     OW35497   1.551   1.880   5.973 -0.5835  0.2807  0.5075
 7954SOL    HW135498   1.459   1.852   5.977 -0.6541  0.4710  0.2393
 7954SOL    HW235499   1.570   1.860   5.881  3.9051 -0.3073  1.6032
 7955SOL     OW35500   0.095   4.549   9.788 -0.3142  0.3173 -0.2203
 7955SOL    HW135501   0.085   4.644   9.799  0.8931  0.3234  0.8196
 7955SOL    HW235502   0.140   4.547   9.704 -1.8441 -0.8454 -1.0228
 7956SOL     OW35503   0.986   0.788  14.042 -0.4883  0.0887  0.4767
 7956SOL    HW135504   0.953   0.875  14.018 -0.3519  0.0982  0.3248
 7956SOL    HW235505   0.912   0.737  14.008 -1.1799  1.1073  0.4482
 7957SOL     OW35506   0.224   0.034   3.575 -0.4580 -0.0154 -0.0690
 7957SOL    HW135507   0.172   4.706   3.625  1.4156 -0.4106  1.3622
 7957SOL    HW235508   0.163   0.106   3.558 -0.9323 -0.5823 -0.8133
 7958SOL     OW35509   4.323   0.263  14.245 -0.2850  0.4957 -0.1595
 7958SOL    HW135510   4.331   0.342  14.298  2.6475 -0.2639  0.5296
 7958SOL    HW235511   4.236   0.235  14.273  0.6259 -0.1463  2.0057
 7959SOL     OW35512   4.651   4.622   3.262  0.8999 -0.7180 -0.2970
 7959SOL    HW135513   4.679   4.593   3.349 -3.0216 -1.1794  0.8047
 7959SOL    HW235514   4.556   4.633   3.272  1.0082 -1.0752  1.1618
 7960SOL     OW35515   3.944   0.696   1.584 -0.3584 -0.4515  0.0639
 7960SOL    HW135516   3.943   0.701   1.680 -1.2525  2.2729 -0.0897
 7960SOL    HW235517   3.860   0.656   1.562 -0.0677  0.1138 -2.0690
 7961SOL     OW35518   0.984   0.385   0.870  0.3557 -0.2681 -1.1681
 7961SOL    HW135519   1.008   0.299   0.906  0.4679  0.9783  1.7384
 7961SOL    HW235520   1.015   0.445   0.937  1.1880 -2.0441  0.0452
 7962SOL     OW35521   2.625   2.850   6.347 -0.0567  0.2684  0.1250
 7962SOL    HW135522   2.592   2.861   6.436 -2.9021 -2.3387 -0.6312
 7962SOL    HW235523   2.716   2.854   6.375  0.3266 -0.2338 -1.0487
 7963SOL     OW35524   3.861   1.069   9.382 -0.8415 -0.6680 -0.3417
 7963SOL    HW135525   3.909   1.142   9.343 -1.9911  0.9800  1.3118
 7963SOL    HW235526   3.931   1.034   9.436  0.7676 -1.0979 -2.7002
 7964SOL     OW35527   4.387   4.346   7.851  0.2392  0.3735  0.0130
 7964SOL    HW135528   4.375   4.288   7.776 -0.6454  1.5769 -0.7764
 7964SOL    HW235529   4.482   4.360   7.852  0.1397  1.0552 -0.7337
 7965SOL     OW35530   3.853   2.770   7.104  0.1939  0.5841 -0.0100
 7965SOL    HW135531   3.947   2.783   7.118 -0.2039  0.0260  3.0268
 7965SOL    HW235532   3.826   2.848   7.055 -0.3804 -1.4293 -2.9675
 7966SOL     OW35533   4.324   3.258  16.364  0.7226  0.5054  0.2766
 7966SOL    HW135534   4.230   3.246  16.377  0.7078 -0.3648 -0.6087
 7966SOL    HW235535   4.354   3.212  16.442 -0.7006 -2.7020 -1.0949
 7967SOL     OW35536   2.864   4.027   4.593  0.0698 -0.2639 -0.1741
 7967SOL    HW135537   2.839   4.094   4.530 -0.7020  0.0488  0.4572
 7967SOL    HW235538   2.782   3.995   4.630  0.6137 -0.9248  0.4622
 7968SOL     OW35539   1.938   0.682  10.290 -0.0204 -0.3773  0.3070
 7968SOL    HW135540   1.876   0.683  10.363 -1.8218 -1.3593 -1.2067
 7968SOL    HW235541   1.979   0.596  10.300 -0.9447 -0.6501  1.8526
 7969SOL     OW35542   0.427   1.263   7.312  0.3473 -0.1220  0.4094
 7969SOL    HW135543   0.492   1.309   7.259  1.1479 -0.4901  1.0645
 7969SOL    HW235544   0.348   1.317   7.319  1.9896  2.2559  0.3580
 7970SOL     OW35545   2.743   1.076   1.908  0.0418 -0.1311 -0.0448
 7970SOL    HW135546   2.662   1.056   1.953  0.6250 -2.2659  0.0214
 7970SOL    HW235547   2.764   0.995   1.862 -2.6316  0.6758 -2.7175
 7971SOL     OW35548   3.820   0.644   8.826 -0.0132  0.3090  0.1219
 7971SOL    HW135549   3.800   0.575   8.890  2.8434 -0.6461 -0.0182
 7971SOL    HW235550   3.913   0.662   8.844  0.5643 -0.8300 -1.7364
 7972SOL     OW35551   2.236   2.340   3.996  0.1807  0.4823  0.3603
 7972SOL    HW135552   2.311   2.281   4.009 -0.1140  0.0404  0.0360
 7972SOL    HW235553   2.279   2.412   3.949  0.8715 -1.5005 -2.0567
 7973SOL     OW35554   0.816   0.057   2.900 -0.2340 -0.6002 -0.2400
 7973SOL    HW135555   0.874   0.051   2.824 -0.0056  0.0012 -0.1120
 7973SOL    HW235556   0.769   0.140   2.891  0.5124 -0.0705  0.7113
 7974SOL     OW35557   1.955   0.412   4.103 -0.5393 -0.5019  0.0862
 7974SOL    HW135558   1.932   0.498   4.068  0.8599 -0.1121  0.1425
 7974SOL    HW235559   1.872   0.365   4.110 -0.8197  0.2099  1.4733
 7975SOL     OW35560   3.076   0.229   5.514  0.3025 -0.2656 -0.3605
 7975SOL    HW135561   3.171   0.229   5.513  0.2998 -2.1150  2.5197
 7975SOL    HW235562   3.058   0.247   5.421  0.9135  0.5143 -0.3292
 7976SOL     OW35563   0.626   1.843   8.449 -0.0259 -0.2867 -0.0696
 7976SOL    HW135564   0.590   1.928   8.423 -0.1078 -0.8453 -1.7446
 7976SOL    HW235565   0.557   1.786   8.415  0.3223 -1.0550  0.5162
 7977SOL     OW35566   3.843   4.229   5.209 -0.4848 -0.0295 -0.2144
 7977SOL    HW135567   3.935   4.253   5.201 -1.2333  2.1556 -2.4249
 7977SOL    HW235568   3.852   4.148   5.258  0.1845  0.0836 -0.1527
 7978SOL     OW35569   3.072   0.672   2.606 -0.7217 -0.5208  0.0580
 7978SOL    HW135570   3.017   0.749   2.599 -0.6867 -0.3154  1.9863
 7978SOL    HW235571   2.999   0.618   2.637 -1.8266  0.9713  0.0256
 7979SOL     OW35572   4.413   4.294   4.616  0.5802 -0.0694  0.4225
 7979SOL    HW135573   4.453   4.357   4.675  0.7020  1.2627 -1.0750
 7979SOL    HW235574   4.320   4.314   4.628  0.0841 -1.2466 -1.5192
 7980SOL     OW35575   3.400   1.074   7.863  0.1791 -0.3294 -0.4484
 7980SOL    HW135576   3.381   1.090   7.955  1.2978  0.0967 -0.2920
 7980SOL    HW235577   3.314   1.105   7.833 -0.0391 -0.7731 -0.2745
 7981SOL     OW35578   4.519   2.752  15.728 -0.0200  0.4461 -0.4436
 7981SOL    HW135579   4.589   2.781  15.785  0.9936 -1.5837 -0.6446
 7981SOL    HW235580   4.524   2.816  15.657 -1.4303 -0.2733 -1.2023
 7982SOL     OW35581   2.436   3.668  12.787  0.3984  0.7086 -0.2790
 7982SOL    HW135582   2.452   3.646  12.695 -2.4893  1.8255 -1.0258
 7982SOL    HW235583   2.368   3.733  12.769 -1.0727 -0.0763  2.5044
 7983SOL     OW35584   0.165   2.860   8.149  0.1665  0.3910 -0.1986
 7983SOL    HW135585   0.116   2.939   8.128 -1.8524 -0.3392  1.8934
 7983SOL    HW235586   0.132   2.844   8.237  0.8741  0.8540  0.1470
 7984SOL     OW35587   1.101   2.902   8.245  0.4485  0.0057 -0.0994
 7984SOL    HW135588   1.030   2.939   8.297  1.6674 -0.0968  1.6511
 7984SOL    HW235589   1.170   2.969   8.242 -0.6948  1.1554 -0.5277
 7985SOL     OW35590   4.054   3.474   3.953  0.0394 -0.5164  0.0954
 7985SOL    HW135591   4.095   3.416   3.888  0.0187 -0.0132 -0.3614
 7985SOL    HW235592   3.969   3.430   3.962 -1.2026  1.6115 -1.3850
 7986SOL     OW35593   4.036   2.778   0.048  0.0561  0.4825  0.2011
 7986SOL    HW135594   4.048   2.817  17.700 -0.5107 -0.6623 -0.3857
 7986SOL    HW235595   4.058   2.692   0.013  1.2664  1.4471 -1.4242
 7987SOL     OW35596   1.074   1.896   7.992 -0.0328 -0.7190  0.0974
 7987SOL    HW135597   1.150   1.945   7.960  0.4148 -1.3380  0.2070
 7987SOL    HW235598   1.096   1.866   8.081  1.2939 -0.2908 -0.0750
 7988SOL     OW35599   1.725   3.194   3.114  0.3180  0.9571 -0.4365
 7988SOL    HW135600   1.766   3.268   3.159 -0.8303  0.4247  1.4829
 7988SOL    HW235601   1.690   3.151   3.192  0.7439 -0.6188 -1.1310
 7989SOL     OW35602   0.569   4.187   8.111 -0.0383 -0.2684 -0.1685
 7989SOL    HW135603   0.602   4.120   8.171  0.3168  0.1876  0.1475
 7989SOL    HW235604   0.603   4.267   8.150  1.5391 -0.9504 -0.1355
 7990SOL     OW35605   0.072   2.679   1.974  0.0239  0.4888 -0.5994
 7990SOL    HW135606   0.148   2.628   1.945 -0.8731 -1.0458 -0.2775
 7990SOL    HW235607   0.008   2.610   1.991  1.1586  0.1791  2.4124
 7991SOL     OW35608   0.903   3.552   3.247  0.3020  0.0593  0.3776
 7991SOL    HW135609   0.905   3.456   3.254  1.9235  0.1947  1.7483
 7991SOL    HW235610   0.991   3.556   3.209  0.3420  1.0546  0.5978
 7992SOL     OW35611   4.639   1.657   9.144 -0.2663 -0.1761 -0.1984
 7992SOL    HW135612   4.574   1.623   9.082  1.1583 -0.1589 -1.7198
 7992SOL    HW235613   4.659   1.576   9.192 -2.0536 -0.2610  0.3739
 7993SOL     OW35614   3.013   4.223   9.598  0.2439  0.1475  0.4067
 7993SOL    HW135615   3.016   4.249   9.690  0.7400  0.1768  0.3822
 7993SOL    HW235616   2.960   4.295   9.565 -1.3992 -0.6163  1.4150
 7994SOL     OW35617   0.162   2.710   9.489  0.1142  0.2606  0.0096
 7994SOL    HW135618   0.143   2.666   9.406 -1.0413  0.4529  0.1849
 7994SOL    HW235619   0.245   2.748   9.458  0.1854  0.8589  0.9201
 7995SOL     OW35620   1.108   2.747  12.327 -0.0575 -0.3671 -0.2153
 7995SOL    HW135621   1.157   2.721  12.404 -0.2427 -0.1126 -0.0075
 7995SOL    HW235622   1.075   2.832  12.357 -0.3676 -0.0803 -1.3491
 7996SOL     OW35623   0.244   0.324   4.008  0.5526  0.3541  0.8506
 7996SOL    HW135624   0.301   0.248   4.024 -0.4354  0.1937  3.5605
 7996SOL    HW235625   0.310   0.386   3.978  2.1279 -2.2557 -1.1910
 7997SOL     OW35626   1.069   4.633  15.388  0.0572  0.6079 -0.6079
 7997SOL    HW135627   1.048   4.655  15.297 -0.2872  0.2063 -0.6259
 7997SOL    HW235628   1.163   4.617  15.378 -0.2515 -0.7949 -1.3044
 7998SOL     OW35629   3.039   2.943   4.734 -0.5625  0.0887 -0.0456
 7998SOL    HW135630   3.074   2.935   4.823  0.5257  1.5027 -0.3566
 7998SOL    HW235631   3.119   2.969   4.690 -0.3342  1.2635  1.0631
 7999SOL     OW35632   1.519   2.860  16.936  0.2100 -0.4150 -0.0739
 7999SOL    HW135633   1.447   2.891  16.880 -0.9427 -0.4090  1.3943
 7999SOL    HW235634   1.592   2.919  16.918 -0.3712  0.2386 -0.2910
 8000SOL     OW35635   0.626   4.379   7.845 -0.4328 -0.0453 -0.0186
 8000SOL    HW135636   0.555   4.444   7.840  0.7408  1.2373 -0.0076
 8000SOL    HW235637   0.653   4.391   7.936 -1.2726  0.3030  0.1888
 8001SOL     OW35638   4.108   0.092  11.567  0.2310  0.6367 -0.2152
 8001SOL    HW135639   4.181   0.150  11.546  0.3906  0.8063  0.8058
 8001SOL    HW235640   4.066   0.130  11.644 -2.8398 -1.4886 -0.8541
 8002SOL     OW35641   3.312   3.364  16.311 -0.4358  0.1378  0.6099
 8002SOL    HW135642   3.350   3.277  16.314  2.0570  1.1897 -0.8555
 8002SOL    HW235643   3.247   3.353  16.242 -0.7791  0.4556  0.8793
 8003SOL     OW35644   2.175   0.740   2.921  0.2061  0.2233 -0.1432
 8003SOL    HW135645   2.226   0.748   3.001  0.8370  0.7496 -0.5990
 8003SOL    HW235646   2.101   0.798   2.940  0.3158  1.0154 -2.0564
 8004SOL     OW35647   3.425   0.872   2.149  0.3408  0.5588 -0.1076
 8004SOL    HW135648   3.339   0.909   2.129  1.1479  1.8735 -1.1067
 8004SOL    HW235649   3.437   0.810   2.077 -0.7609  0.0954  0.1122
 8005SOL     OW35650   0.425   1.655  16.896  0.7633 -0.0537 -0.0577
 8005SOL    HW135651   0.502   1.675  16.950  0.6193 -0.8730  0.4483
 8005SOL    HW235652   0.457   1.573  16.858 -1.2161 -1.8831  2.2044
 8006SOL     OW35653   2.501   1.756   9.613 -0.2732  0.0459  0.3128
 8006SOL    HW135654   2.450   1.820   9.564  0.6313 -0.0658 -0.7735
 8006SOL    HW235655   2.588   1.770   9.576 -1.2738 -0.4801 -2.2560
 8007SOL     OW35656   4.274   0.703   3.238 -0.2041 -0.2925  0.3692
 8007SOL    HW135657   4.273   0.760   3.161  1.7361  1.5598  1.7086
 8007SOL    HW235658   4.184   0.715   3.266  0.1731 -0.3353  1.6137
 8008SOL     OW35659   2.274   1.701   5.662  0.1509  0.2350 -0.3817
 8008SOL    HW135660   2.316   1.668   5.741  3.4678  1.1123 -1.7617
 8008SOL    HW235661   2.265   1.792   5.690 -0.2283 -1.3825  4.7230
 8009SOL     OW35662   2.918   3.352   4.437 -0.2551  0.1674 -0.2955
 8009SOL    HW135663   2.923   3.369   4.531  0.2221 -1.6284 -0.0010
 8009SOL    HW235664   2.997   3.398   4.408  0.4640 -1.3368 -0.7272
 8010SOL     OW35665   3.134   4.673   5.800 -0.5193 -0.7906 -0.0435
 8010SOL    HW135666   3.224   4.666   5.831 -0.3697  2.0218  0.1373
 8010SOL    HW235667   3.112   4.580   5.802 -0.0247 -0.9563 -1.7314
 8011SOL     OW35668   3.788   0.346   4.338 -0.7205 -0.2327  0.3188
 8011SOL    HW135669   3.794   0.436   4.307  0.9268 -0.5518 -0.3103
 8011SOL    HW235670   3.869   0.308   4.302  0.0614  1.8807 -0.1571
 8012SOL     OW35671   1.586   0.160   1.118 -0.0085 -0.7889 -0.0557
 8012SOL    HW135672   1.595   0.065   1.119 -0.7654 -0.8762 -1.4921
 8012SOL    HW235673   1.560   0.170   1.026  0.4259  2.2973  0.1459
 8013SOL     OW35674   2.554   0.878  15.785  0.4116 -0.0706 -0.1395
 8013SOL    HW135675   2.603   0.807  15.744 -1.7171 -0.0990 -2.6277
 8013SOL    HW235676   2.519   0.838  15.865  0.8541  1.4818  0.8306
 8014SOL     OW35677   0.515   3.458   3.575  0.3457  0.7405 -0.5562
 8014SOL    HW135678   0.487   3.366   3.580  2.4278  0.2233  1.5941
 8014SOL    HW235679   0.458   3.496   3.641 -0.0516  0.2923 -0.6387
 8015SOL     OW35680   2.487   4.554   2.578  0.6354  0.2983  0.2924
 8015SOL    HW135681   2.471   4.632   2.526  0.1343 -2.2349 -3.3450
 8015SOL    HW235682   2.465   4.482   2.519 -1.9128  1.5756 -0.2996
 8016SOL     OW35683   3.933   2.754   5.804  0.4937 -0.8377 -0.0223
 8016SOL    HW135684   3.976   2.726   5.884 -1.0362 -2.2087  0.3202
 8016SOL    HW235685   3.986   2.713   5.735  1.4096 -0.1844  0.2983
 8017SOL     OW35686   0.690   2.665   7.259 -0.1813  0.4131 -0.2522
 8017SOL    HW135687   0.779   2.638   7.236 -0.1677 -0.5283  0.9125
 8017SOL    HW235688   0.674   2.700   7.172 -3.3267 -1.3810 -0.3682
 8018SOL     OW35689   3.065   3.095  11.726 -0.2571 -0.4346  0.3396
 8018SOL    HW135690   3.042   3.092  11.819 -1.4089 -0.1651  0.0604
 8018SOL    HW235691   3.130   3.025  11.723 -0.9978 -1.1312  0.8340
 8019SOL     OW35692   0.576   1.426   2.731  0.4862  0.1855  0.1712
 8019SOL    HW135693   0.612   1.502   2.686 -0.0597  1.0938  1.2817
 8019SOL    HW235694   0.647   1.400   2.790  0.2800  2.2045  1.2861
 8020SOL     OW35695   0.243   1.122   5.954 -0.6227  0.2606  0.1137
 8020SOL    HW135696   0.277   1.038   5.923 -0.3143 -0.3813  2.1907
 8020SOL    HW235697   0.275   1.189   5.893  0.4725 -2.0883 -1.8863
 8021SOL     OW35698   0.494   0.982  14.186 -0.2788  0.7555  0.3253
 8021SOL    HW135699   0.578   0.975  14.232  0.1705  0.6401 -0.5266
 8021SOL    HW235700   0.435   0.983  14.262  0.6271  0.4645  1.0344
 8022SOL     OW35701   3.089   2.057   1.543  0.7563 -0.7667 -0.5909
 8022SOL    HW135702   3.172   2.069   1.590  0.5354  2.8266 -1.1120
 8022SOL    HW235703   3.098   1.969   1.508 -2.8342 -1.6542  0.7452
 8023SOL     OW35704   2.435   3.428  13.234 -0.5102  0.2643  0.0556
 8023SOL    HW135705   2.527   3.425  13.209 -0.4329 -1.5563  0.5679
 8023SOL    HW235706   2.412   3.341  13.203 -2.5262  0.3278  1.3606
 8024SOL     OW35707   0.341   1.968   2.943 -0.2909 -0.0804 -0.0489
 8024SOL    HW135708   0.328   1.875   2.923 -0.5183 -0.4758  1.9239
 8024SOL    HW235709   0.249   1.996   2.943 -1.4900 -4.1100 -1.7729
 8025SOL     OW35710   0.846   1.106   4.464 -0.6214  0.0713  0.5903
 8025SOL    HW135711   0.782   1.068   4.524 -0.6963  0.5979  0.8479
 8025SOL    HW235712   0.805   1.098   4.378  0.2739 -0.7664  0.2438
 8026SOL     OW35713   4.665   2.028   8.539  0.2300 -0.0495  0.1655
 8026SOL    HW135714   4.675   2.036   8.444 -0.8861 -2.0164 -0.1178
 8026SOL    HW235715   4.698   2.114   8.565 -0.3032  0.7416 -1.7610
 8027SOL     OW35716   1.157   2.753   2.593 -0.1854 -0.0751  0.2247
 8027SOL    HW135717   1.090   2.737   2.526  0.7792 -1.7505 -0.3182
 8027SOL    HW235718   1.135   2.844   2.613 -0.2466  0.3910 -1.9439
 8028SOL     OW35719   2.828   1.231  13.377  0.4174 -0.3873  0.0399
 8028SOL    HW135720   2.906   1.280  13.353 -0.2165  0.0227 -1.2062
 8028SOL    HW235721   2.767   1.303  13.392 -1.3845 -1.1986 -3.2668
 8029SOL     OW35722   4.671   3.585   4.845 -0.2846  0.4001 -0.1539
 8029SOL    HW135723   4.731   3.519   4.810  0.5787  1.0372  0.1303
 8029SOL    HW235724   4.585   3.555   4.816 -0.6517  0.7270  0.6170
 8030SOL     OW35725   4.240   2.409   5.822 -0.0370 -0.4586 -0.4816
 8030SOL    HW135726   4.174   2.438   5.759 -0.8010  1.7595  1.3630
 8030SOL    HW235727   4.289   2.487   5.847  0.0885 -0.7578  0.1975
 8031SOL     OW35728   1.770   1.542   4.370 -0.2902 -0.6817  0.0774
 8031SOL    HW135729   1.828   1.547   4.445 -0.8235 -0.0920  0.4573
 8031SOL    HW235730   1.740   1.632   4.356 -0.8848 -0.9381 -0.3332
 8032SOL     OW35731   2.973   0.275  11.002 -0.1940  0.3260 -0.5042
 8032SOL    HW135732   2.963   0.210  10.932 -3.0237  1.6263 -1.2784
 8032SOL    HW235733   2.881   0.265  11.026 -0.0881 -1.8987 -1.0327
 8033SOL     OW35734   4.368   1.283   8.508 -0.0135  0.2527 -0.0207
 8033SOL    HW135735   4.451   1.257   8.470 -0.3059  0.2061 -0.6189
 8033SOL    HW235736   4.373   1.226   8.585  0.6502  0.2545 -0.0670
 8034SOL     OW35737   2.443   2.532   4.936  0.1688  0.6792  0.0152
 8034SOL    HW135738   2.379   2.474   4.896  5.0658 -2.9002 -2.6913
 8034SOL    HW235739   2.386   2.604   4.962 -1.4020 -0.3243 -0.6552
 8035SOL     OW35740   0.999   4.621   8.823 -0.5067  0.3701  0.6194
 8035SOL    HW135741   1.082   4.668   8.818 -0.6039  0.4932  0.2024
 8035SOL    HW235742   0.939   4.689   8.853 -0.8478  1.0082 -1.5154
 8036SOL     OW35743   2.136   3.142  12.960 -0.3034  0.2143  0.2373
 8036SOL    HW135744   2.177   3.145  13.046 -1.5351  4.1368  0.6738
 8036SOL    HW235745   2.159   3.231  12.933 -2.7731  0.7529 -0.1039
 8037SOL     OW35746   4.171   1.467  16.223  0.0256 -0.0396 -0.3139
 8037SOL    HW135747   4.086   1.508  16.208  0.9352  2.2966  0.9628
 8037SOL    HW235748   4.209   1.536  16.277 -0.3657 -0.0268 -0.0560
 8038SOL     OW35749   0.005   4.645  13.958 -0.4415 -0.5723  0.0825
 8038SOL    HW135750   0.070   4.659  14.027 -0.2259  1.3587 -0.5044
 8038SOL    HW235751   0.051   4.614  13.880  3.3943  0.4954  1.9055
 8039SOL     OW35752   1.527   3.702   3.002 -0.1271 -0.3292  0.2651
 8039SOL    HW135753   1.603   3.750   3.035  0.0554  0.0985 -0.7620
 8039SOL    HW235754   1.552   3.611   3.017 -2.2016 -0.7730  0.9817
 8040SOL     OW35755   4.606   1.319  17.562 -0.7334 -0.1238 -0.3579
 8040SOL    HW135756   4.559   1.386  17.613  0.6423  0.3710  0.2558
 8040SOL    HW235757   4.533   1.290  17.506 -1.6686  2.2905 -0.3968
 8041SOL     OW35758   0.080   3.732   3.341  0.0403  0.0079 -0.4392
 8041SOL    HW135759   0.104   3.816   3.301 -0.4730  0.2292 -0.2926
 8041SOL    HW235760   4.730   3.755   3.380  1.3807  3.0371  0.7011
 8042SOL     OW35761   3.791   0.650   9.198  0.0295 -0.6123 -0.2211
 8042SOL    HW135762   3.707   0.683   9.232  0.3191 -0.1869  0.0926
 8042SOL    HW235763   3.821   0.730   9.153 -1.2512  1.4620  2.5936
 8043SOL     OW35764   3.992   1.141   6.574 -0.5292 -0.1855 -0.1505
 8043SOL    HW135765   4.001   1.131   6.479  0.2227  1.3816 -0.2360
 8043SOL    HW235766   4.000   1.236   6.581 -2.6267  0.0215 -0.6147
 8044SOL     OW35767   0.860   2.065   8.390  0.8306 -0.0284 -0.2578
 8044SOL    HW135768   0.823   2.083   8.477 -4.6187  0.8885 -2.7619
 8044SOL    HW235769   0.954   2.065   8.409  0.9829  2.7814 -1.0089
 8045SOL     OW35770   3.539   4.507   1.199  0.1149  0.3910 -0.2506
 8045SOL    HW135771   3.485   4.429   1.191  0.7826 -0.1834  0.7379
 8045SOL    HW235772   3.500   4.561   1.131 -1.0837 -0.9579 -0.6168
 8046SOL     OW35773   4.431   2.184   7.380 -0.5632  0.7324 -0.3581
 8046SOL    HW135774   4.404   2.257   7.435 -4.0332 -0.9222  0.1050
 8046SOL    HW235775   4.438   2.238   7.301  3.1442 -1.1215 -1.3231
 8047SOL     OW35776   2.758   4.096   8.256 -0.2106  0.5077  0.7495
 8047SOL    HW135777   2.673   4.139   8.260 -0.3666  0.4908 -2.3497
 8047SOL    HW235778   2.727   4.013   8.220  0.5024  1.5950 -2.3838
 8048SOL     OW35779   2.597   2.161   8.303 -0.5394 -0.0001 -0.3497
 8048SOL    HW135780   2.628   2.103   8.234  1.4423 -0.2832  0.7610
 8048SOL    HW235781   2.682   2.155   8.348 -0.0264 -2.1709 -1.6414
 8049SOL     OW35782   1.528   2.183  12.330  0.2410 -0.7625 -0.6615
 8049SOL    HW135783   1.602   2.237  12.302  0.8573 -0.1308  2.1718
 8049SOL    HW235784   1.536   2.186  12.425  0.4369  3.4070 -0.7900
 8050SOL     OW35785   2.983   3.766   2.905  0.2618  0.3859 -0.1994
 8050SOL    HW135786   3.032   3.810   2.974  1.0835 -0.5192 -0.2066
 8050SOL    HW235787   3.000   3.675   2.927 -2.3081 -0.3568 -1.2893
 8051SOL     OW35788   3.522   4.346   6.775 -0.5533 -0.9109 -0.1991
 8051SOL    HW135789   3.453   4.294   6.818  0.4294 -2.2721 -0.2744
 8051SOL    HW235790   3.592   4.333   6.839 -0.1966  1.0424 -0.1950
 8052SOL     OW35791   2.273   0.859   6.066 -0.1061  0.3849 -0.0649
 8052SOL    HW135792   2.306   0.890   6.150  1.7929  0.0853 -0.7043
 8052SOL    HW235793   2.247   0.769   6.084  2.5090 -0.8140 -2.3670
 8053SOL     OW35794   3.915   2.394   0.550  0.5014 -0.4611  0.1836
 8053SOL    HW135795   3.880   2.450   0.619 -1.2012 -2.5136  0.9613
 8053SOL    HW235796   3.930   2.311   0.595  0.4808  0.7435  2.4053
 8054SOL     OW35797   0.095   0.500  12.629  0.0471  0.0357  0.3727
 8054SOL    HW135798   0.089   0.574  12.690  1.0574 -0.8737  1.5637
 8054SOL    HW235799   0.186   0.503  12.597  0.1780 -1.9892  0.5405
 8055SOL     OW35800   0.218   1.735   7.170 -0.2218 -0.1926  0.0181
 8055SOL    HW135801   0.133   1.700   7.197  0.3059 -0.1152  1.7969
 8055SOL    HW235802   0.247   1.750   7.260 -1.4309  1.9402  0.0514
 8056SOL     OW35803   4.054   1.808   9.317  0.0827  0.4758 -0.2050
 8056SOL    HW135804   4.012   1.894   9.317 -1.8606 -0.4748  0.3411
 8056SOL    HW235805   4.126   1.823   9.255  1.2966 -0.1437  1.0623
 8057SOL     OW35806   4.720   2.882   7.776  0.2777 -0.0924  0.0444
 8057SOL    HW135807   0.073   2.889   7.812  0.2643  0.1769  0.0271
 8057SOL    HW235808   4.690   2.971   7.795  1.1710 -0.0567  1.2984
 8058SOL     OW35809   3.444   1.737  16.882 -0.0780  0.4225  0.0275
 8058SOL    HW135810   3.374   1.672  16.873  0.5472 -0.3574  0.9073
 8058SOL    HW235811   3.419   1.799  16.950 -1.7559 -0.1965 -0.0201
 8059SOL     OW35812   3.980   2.672   3.411  0.0149 -0.0317  0.3363
 8059SOL    HW135813   3.911   2.722   3.367  3.0094  2.2354 -1.7687
 8059SOL    HW235814   4.035   2.656   3.334  0.9964 -0.6496  1.1650
 8060SOL     OW35815   0.150   2.388   3.102 -0.0246  0.1789 -0.4492
 8060SOL    HW135816   0.092   2.325   3.060  0.2905 -0.5657  0.2463
 8060SOL    HW235817   0.238   2.352   3.088  0.8008  0.1921  4.7135
 8061SOL     OW35818   3.638   0.431   6.125 -0.0397 -0.0972 -0.5244
 8061SOL    HW135819   3.598   0.401   6.206  1.0426 -0.2535 -0.0539
 8061SOL    HW235820   3.637   0.352   6.070 -1.3092 -0.3186 -0.1947
 8062SOL     OW35821   3.635   1.683  13.070  0.0183  0.1690 -0.5080
 8062SOL    HW135822   3.583   1.609  13.040 -0.1884  0.5516 -1.0872
 8062SOL    HW235823   3.706   1.686  13.006  0.2596  0.4444 -0.2304
 8063SOL     OW35824   2.440   0.642   3.305 -0.1487  0.3660 -0.4160
 8063SOL    HW135825   2.517   0.639   3.361 -0.5857 -0.3898  0.1484
 8063SOL    HW235826   2.391   0.563   3.326  0.7031 -0.3964 -1.2976
 8064SOL     OW35827   4.507   1.886  10.134 -0.7410  0.2026 -0.5251
 8064SOL    HW135828   4.593   1.902  10.172  0.2249 -0.1216 -2.5723
 8064SOL    HW235829   4.491   1.792  10.131 -0.9014  0.2353 -0.6939
 8065SOL     OW35830   3.699   2.743  11.355  0.2325  0.5564 -0.2621
 8065SOL    HW135831   3.795   2.740  11.361  0.1784  2.9146  1.6976
 8065SOL    HW235832   3.694   2.746  11.259 -2.3366 -0.4716 -0.1480
 8066SOL     OW35833   2.160   0.051  14.731  0.0220 -0.4982  0.7943
 8066SOL    HW135834   2.080   0.104  14.721  0.7912  0.3845 -0.6520
 8066SOL    HW235835   2.224   0.105  14.776  2.0175 -1.3940 -0.9456
 8067SOL     OW35836   4.114   4.098   6.894  0.2652 -0.0285 -0.8326
 8067SOL    HW135837   4.067   4.135   6.969 -0.6826 -1.6228 -0.6508
 8067SOL    HW235838   4.204   4.127   6.913 -0.6146  0.6743  2.3423
 8068SOL     OW35839   0.257   0.928  13.714  0.3522 -0.8442  0.7291
 8068SOL    HW135840   0.292   1.016  13.700 -0.9759 -0.5055 -0.3681
 8068SOL    HW235841   0.335   0.881  13.683  0.8694  0.5357 -0.0837
 8069SOL     OW35842   1.925   2.127  10.302 -0.1693  0.4057  0.5513
 8069SOL    HW135843   2.011   2.149  10.337 -0.4474  1.8496  0.3069
 8069SOL    HW235844   1.889   2.212  10.325 -1.6112 -0.6521  2.2594
 8070SOL     OW35845   4.314   0.043   0.303  0.4331  0.3581 -0.2695
 8070SOL    HW135846   4.365   0.124   0.306  4.0437 -1.8302 -1.7579
 8070SOL    HW235847   4.337   0.007   0.388  1.1627 -1.8944 -1.3979
 8071SOL     OW35848   2.520   2.861   4.238  0.1993  0.2561  0.2914
 8071SOL    HW135849   2.513   2.946   4.195 -1.6875 -0.4870 -0.8370
 8071SOL    HW235850   2.514   2.814   4.155 -0.5480 -1.3689  1.2662
 8072SOL     OW35851   1.501   3.536   6.723  0.3688  0.2574  0.3894
 8072SOL    HW135852   1.578   3.524   6.668  0.5228 -2.5290  1.1843
 8072SOL    HW235853   1.525   3.598   6.791 -0.7082 -0.7697  1.7094
 8073SOL     OW35854   1.671   0.424   2.422 -0.2249 -0.5032 -0.4649
 8073SOL    HW135855   1.710   0.384   2.345  2.3406  1.3598 -0.1305
 8073SOL    HW235856   1.725   0.502   2.436 -0.9979  0.0037 -0.2888
 8074SOL     OW35857   0.176   3.991   8.796  0.1454 -0.5100 -0.3426
 8074SOL    HW135858   0.120   4.036   8.732  0.5873 -0.2716 -0.5611
 8074SOL    HW235859   0.260   3.983   8.751  0.0535  0.8975 -0.7684
 8075SOL     OW35860   0.035   0.098   8.428  0.6656  0.6936 -0.4877
 8075SOL    HW135861   0.066   0.008   8.421 -1.4552 -0.0464 -0.4945
 8075SOL    HW235862   4.700   0.090   8.363  0.8881 -0.5815 -0.5720
 8076SOL     OW35863   1.272   2.901   5.643  0.5892 -0.2030  0.2182
 8076SOL    HW135864   1.349   2.856   5.611  0.5135 -0.8014  0.8801
 8076SOL    HW235865   1.212   2.826   5.642 -1.4322  1.3839  1.1518
 8077SOL     OW35866   4.618   0.484   8.853  0.0328  0.0657  0.2201
 8077SOL    HW135867   4.711   0.479   8.873  0.7785  2.8359 -2.5773
 8077SOL    HW235868   4.580   0.451   8.935  0.2844  0.2145  0.3922
 8078SOL     OW35869   0.634   2.507   3.058  0.2145 -0.3533 -0.1979
 8078SOL    HW135870   0.641   2.431   3.116  1.1981 -0.6701 -0.7362
 8078SOL    HW235871   0.560   2.558   3.092 -1.4289 -3.1799  0.4343
 8079SOL     OW35872   3.254   2.797   5.124 -0.3719 -0.4035 -0.2292
 8079SOL    HW135873   3.216   2.885   5.130  3.0139  1.0943 -0.5273
 8079SOL    HW235874   3.332   2.826   5.076  0.1919  1.3722  1.7300
 8080SOL     OW35875   3.217   2.848   4.311 -0.2357  0.0758 -0.7628
 8080SOL    HW135876   3.127   2.850   4.342  0.5051  0.6690  1.3199
 8080SOL    HW235877   3.246   2.760   4.333 -0.5665  0.4922  1.2943
 8081SOL     OW35878   2.241   3.551   2.724  0.0439 -0.3237  0.0311
 8081SOL    HW135879   2.274   3.607   2.794  0.8904 -0.3482 -0.3372
 8081SOL    HW235880   2.197   3.481   2.772 -1.5380  2.3127  2.4239
 8082SOL     OW35881   2.151   0.697  14.988 -0.0440 -0.8892 -0.6116
 8082SOL    HW135882   2.156   0.782  15.031  1.0194 -1.3026  0.0749
 8082SOL    HW235883   2.056   0.688  14.995  0.1701 -2.3595  0.4441
 8083SOL     OW35884   0.090   3.872   2.493 -0.0194 -0.5505  0.0551
 8083SOL    HW135885   0.113   3.779   2.495  2.4395  0.1000  1.2120
 8083SOL    HW235886   0.013   3.879   2.550 -0.5814 -1.4227 -0.5862
 8084SOL     OW35887   3.100   2.236  15.723 -0.5725 -0.5721 -0.6471
 8084SOL    HW135888   3.146   2.176  15.782 -0.2323  2.3952  2.0865
 8084SOL    HW235889   3.142   2.320  15.739 -0.2072 -0.8474 -0.1620
 8085SOL     OW35890   3.254   2.602   9.593  0.0536  0.0857 -0.2716
 8085SOL    HW135891   3.178   2.658   9.610 -0.6410 -0.2076 -2.4428
 8085SOL    HW235892   3.326   2.665   9.601  0.1388 -0.1668  0.8414
 8086SOL     OW35893   4.027   1.934   7.072  0.3490  0.2671  0.1214
 8086SOL    HW135894   4.119   1.939   7.100  0.1191  0.4741  0.8336
 8086SOL    HW235895   4.027   1.956   6.979 -1.6012 -0.0112  0.0620
 8087SOL     OW35896   3.979   2.693   2.647  0.2971 -0.4375 -0.2793
 8087SOL    HW135897   4.023   2.757   2.592  1.7803 -1.2528 -0.0511
 8087SOL    HW235898   4.048   2.628   2.659 -1.2532 -1.7855  1.3096
 8088SOL     OW35899   3.318   3.684   5.496  0.0996 -0.1294  0.3448
 8088SOL    HW135900   3.340   3.763   5.447  1.7245 -0.2716  0.8555
 8088SOL    HW235901   3.229   3.712   5.519 -0.6042 -0.9160 -1.4618
 8089SOL     OW35902   4.159   4.686   2.463 -0.0575  0.0775  0.2595
 8089SOL    HW135903   4.175   0.021   2.527 -0.1181  0.7962 -0.5174
 8089SOL    HW235904   4.065   4.689   2.445  0.3430  0.5811 -1.7014
 8090SOL     OW35905   0.821   4.085   6.403 -0.0051  0.2440 -0.1175
 8090SOL    HW135906   0.759   4.015   6.383  0.3116 -0.4196  1.2506
 8090SOL    HW235907   0.852   4.121   6.320  1.1898 -1.2433 -0.3195
 8091SOL     OW35908   3.869   3.954   2.185 -0.1033  0.1440 -0.3214
 8091SOL    HW135909   3.847   4.038   2.146  0.0815 -0.5485 -1.9183
 8091SOL    HW235910   3.948   3.930   2.136  0.9648 -0.0145  1.4792
 8092SOL     OW35911   0.891   3.816   8.667  0.5154 -0.0117 -0.0443
 8092SOL    HW135912   0.869   3.891   8.612 -2.3294 -0.6475  0.2221
 8092SOL    HW235913   0.844   3.747   8.620  1.4761 -0.5610 -0.1915
 8093SOL     OW35914   2.512   0.055   2.145  0.5101  0.1980 -0.2592
 8093SOL    HW135915   2.507   0.059   2.241  1.6296  0.4362 -0.2138
 8093SOL    HW235916   2.430   0.098   2.120  0.0738  0.0745  0.9625
 8094SOL     OW35917   2.960   1.813   7.658  0.4580 -0.3854 -0.0329
 8094SOL    HW135918   3.018   1.818   7.582 -0.2155 -0.4672 -0.5492
 8094SOL    HW235919   2.886   1.772   7.613  1.2235 -1.1665 -0.5895
 8095SOL     OW35920   3.674   3.345  14.884 -0.3238  0.3058  0.3102
 8095SOL    HW135921   3.635   3.410  14.943 -0.1021 -0.4867  1.3172
 8095SOL    HW235922   3.626   3.267  14.911  1.4003 -0.7652  0.2325
 8096SOL     OW35923   0.350   0.239   7.327 -0.1328  0.1961 -0.2166
 8096SOL    HW135924   0.267   0.211   7.289 -0.8907  1.3999  0.5640
 8096SOL    HW235925   0.402   0.240   7.246 -0.3731  1.8975 -0.3462
 8097SOL     OW35926   2.438   3.375   4.905 -0.6698 -0.1925 -0.0372
 8097SOL    HW135927   2.469   3.294   4.864  3.1597  1.4703 -0.3767
 8097SOL    HW235928   2.345   3.366   4.881 -0.8461  1.0039  0.2009
 8098SOL     OW35929   2.729   3.667   4.660  0.3320  0.1207  0.4573
 8098SOL    HW135930   2.673   3.618   4.721  0.0513  0.1088  0.1936
 8098SOL    HW235931   2.655   3.705   4.613  0.0077  1.7671  2.2750
 8099SOL     OW35932   1.807   2.268  12.134  0.5066 -0.1600 -0.1839
 8099SOL    HW135933   1.746   2.334  12.167  0.2485 -0.4500 -0.0859
 8099SOL    HW235934   1.783   2.243  12.045  0.8688 -1.9755  0.2333
 8100SOL     OW35935   0.469   4.641   6.843 -1.0857  0.3048  0.1497
 8100SOL    HW135936   0.414   4.707   6.801 -1.2880  1.2070  1.8417
 8100SOL    HW235937   0.492   4.604   6.758  0.2289 -0.2466  0.7358
 8101SOL     OW35938   1.201   0.971  16.444  0.0166 -0.2644  0.4587
 8101SOL    HW135939   1.179   0.903  16.507  1.6577  0.3529  1.6895
 8101SOL    HW235940   1.184   0.921  16.364 -1.9029  0.9740  0.0976
 8102SOL     OW35941   2.608   3.693  17.475  0.6103 -0.6830 -0.0553
 8102SOL    HW135942   2.546   3.666  17.543  0.7573 -1.8858 -0.4059
 8102SOL    HW235943   2.667   3.618  17.469  0.7472 -0.6896  1.2432
 8103SOL     OW35944   1.807   3.889   2.804 -0.1857  0.4530 -0.0847
 8103SOL    HW135945   1.881   3.927   2.757  0.9317 -2.7702 -0.9182
 8103SOL    HW235946   1.853   3.827   2.860 -0.9171  1.2842  1.4406
 8104SOL     OW35947   1.232   0.338   3.544  0.1049 -0.4175 -0.1246
 8104SOL    HW135948   1.297   0.379   3.602 -0.1188  1.0029 -0.8721
 8104SOL    HW235949   1.261   0.372   3.460  0.0364 -1.4617 -0.5616
 8105SOL     OW35950   2.816   2.340   4.869 -0.1200 -0.4121  0.0870
 8105SOL    HW135951   2.898   2.317   4.827  1.2608  1.1246  1.9454
 8105SOL    HW235952   2.838   2.418   4.920 -1.1768  0.4153 -0.7208
 8106SOL     OW35953   3.478   0.021   6.519 -0.1285 -0.9007 -0.3412
 8106SOL    HW135954   3.486   4.666   6.550  0.7386  0.1230  2.4132
 8106SOL    HW235955   3.383   0.023   6.505 -0.1799 -0.8442  0.0136
 8107SOL     OW35956   2.942   4.149   7.269  0.1060 -0.0890  0.2155
 8107SOL    HW135957   2.902   4.081   7.323 -0.8536  0.9813  0.8495
 8107SOL    HW235958   2.878   4.219   7.279 -0.9898 -1.3565  2.0582
 8108SOL     OW35959   2.017   2.084   7.825 -0.4321 -0.0068 -0.4522
 8108SOL    HW135960   2.006   2.163   7.878 -0.5452  0.2814 -0.9058
 8108SOL    HW235961   1.959   2.020   7.868 -0.7196  1.8325  1.9171
 8109SOL     OW35962   3.707   1.983   8.376 -0.1559 -0.0241 -0.2896
 8109SOL    HW135963   3.642   2.041   8.337 -0.6142 -0.1421  0.2935
 8109SOL    HW235964   3.702   2.025   8.462 -1.3390 -0.4700 -0.1425
 8110SOL     OW35965   4.384   2.670   2.308 -0.3933 -0.0141 -0.6745
 8110SOL    HW135966   4.389   2.765   2.295  0.0310  0.2559  1.4159
 8110SOL    HW235967   4.473   2.641   2.292 -0.1981 -0.6076  1.5275
 8111SOL     OW35968   2.903   0.502   2.756  0.6116 -0.2755  0.0963
 8111SOL    HW135969   2.811   0.503   2.728  0.4176  0.2029  0.7620
 8111SOL    HW235970   2.899   0.430   2.820 -0.2516  0.5615  0.9918
 8112SOL     OW35971   1.537   3.589   2.723 -0.3732 -0.3397 -0.0326
 8112SOL    HW135972   1.456   3.562   2.680 -0.1223  0.2033 -0.8489
 8112SOL    HW235973   1.537   3.547   2.809  4.5512 -0.1091  0.1095
 8113SOL     OW35974   4.099   0.471   7.740 -0.5738 -0.4391  0.0015
 8113SOL    HW135975   4.043   0.459   7.663 -1.5764 -1.2798  0.8703
 8113SOL    HW235976   4.041   0.508   7.806  1.2526  0.4756  1.0798
 8114SOL     OW35977   2.526   3.953   3.630 -0.4189 -0.4951 -0.1817
 8114SOL    HW135978   2.534   3.907   3.546  0.0063 -1.0223  0.1492
 8114SOL    HW235979   2.469   4.026   3.603  0.3107 -0.7333 -2.3992
 8115SOL     OW35980   3.333   2.222   5.569 -0.1038  0.6787  0.0165
 8115SOL    HW135981   3.277   2.277   5.513  1.4025  0.4068 -1.7426
 8115SOL    HW235982   3.419   2.264   5.572  0.6976 -0.9123 -0.8075
 8116SOL     OW35983   2.774   2.922   7.312  0.0023  0.0851 -0.0923
 8116SOL    HW135984   2.816   2.837   7.325 -0.0939 -0.0061 -0.3591
 8116SOL    HW235985   2.680   2.902   7.303 -0.0377 -0.4006  1.4113
 8117SOL     OW35986   4.325   4.575   8.425  0.0525  0.6282  0.6330
 8117SOL    HW135987   4.320   4.604   8.516  0.5087  1.0993  0.5030
 8117SOL    HW235988   4.348   4.483   8.437 -3.0701 -0.0822  1.1844
 8118SOL     OW35989   4.493   0.013  15.257  0.6066 -0.1624 -0.2864
 8118SOL    HW135990   4.513   4.667  15.304  1.7615  0.8741  1.0002
 8118SOL    HW235991   4.404   4.726  15.228  0.1250  1.8207 -0.3061
 8119SOL     OW35992   1.782   1.632   4.686  0.3778 -0.0457  0.4550
 8119SOL    HW135993   1.865   1.591   4.663 -1.2892 -2.9024 -0.3944
 8119SOL    HW235994   1.778   1.593   4.773  1.3102 -2.2063 -0.4734
 8120SOL     OW35995   1.330   1.980   1.284  0.2852 -0.1816 -0.0155
 8120SOL    HW135996   1.286   2.038   1.222  0.0771 -0.4805 -0.1500
 8120SOL    HW235997   1.325   2.036   1.361 -1.1197  1.6611 -1.4400
 8121SOL     OW35998   2.861   4.556   2.143 -0.2651  0.0489 -0.4099
 8121SOL    HW135999   2.946   4.523   2.113 -1.3091 -0.7531 -2.4753
 8121SOL    HW236000   2.874   4.521   2.231  1.9520  0.0915 -0.7256
 8122SOL     OW36001   1.132   2.241   7.578 -0.2410  0.4585 -0.0362
 8122SOL    HW136002   1.221   2.274   7.562 -0.9903  2.8844  0.7584
 8122SOL    HW236003   1.080   2.319   7.596  1.1207  1.0514  1.3846
 8123SOL     OW36004   2.921   3.089   8.485 -0.0209  0.2854 -0.2041
 8123SOL    HW136005   2.847   3.034   8.460 -0.2136  1.6367 -2.6345
 8123SOL    HW236006   2.974   3.094   8.406  0.3463 -1.1348 -0.0409
 8124SOL     OW36007   4.534   1.826   3.528  0.2696  0.0544 -0.3821
 8124SOL    HW136008   4.456   1.789   3.571  0.9946  1.7467  2.3631
 8124SOL    HW236009   4.573   1.879   3.597 -0.9412  2.1680 -1.3318
 8125SOL     OW36010   2.232   0.748   2.238 -0.3258  0.0837  0.2242
 8125SOL    HW136011   2.180   0.720   2.313 -0.6916 -1.2425 -0.5289
 8125SOL    HW236012   2.168   0.753   2.167  0.2588 -1.0917 -0.3676
 8126SOL     OW36013   1.249   4.426   6.538  0.1048 -0.2792 -0.2707
 8126SOL    HW136014   1.174   4.395   6.488  0.1983  0.5319 -0.9176
 8126SOL    HW236015   1.316   4.437   6.470  0.7258 -1.8120  0.0894
 8127SOL     OW36016   3.191   2.146  16.676 -0.3370  0.4366  0.1475
 8127SOL    HW136017   3.251   2.072  16.665 -1.9561 -0.7708 -0.5735
 8127SOL    HW236018   3.111   2.104  16.644 -1.4662  2.1425  0.7171
 8128SOL     OW36019   2.861   2.190   1.576 -0.3069 -0.5137 -0.1311
 8128SOL    HW136020   2.930   2.128   1.555 -1.8116 -2.6411  1.1163
 8128SOL    HW236021   2.918   2.265   1.592  2.2491 -2.3688 -0.6994
 8129SOL     OW36022   4.677   1.676   3.921 -0.2299 -0.8196 -0.7759
 8129SOL    HW136023   4.586   1.704   3.933  0.0423 -0.9128  1.6242
 8129SOL    HW236024   4.712   1.766   3.925 -1.7050 -0.2040 -1.7166
 8130SOL     OW36025   3.989   3.134   5.377 -0.0305  0.4182 -0.2403
 8130SOL    HW136026   4.028   3.126   5.464  2.0595 -2.2621 -1.3998
 8130SOL    HW236027   4.033   3.212   5.343  0.4161 -0.1333 -0.9209
 8131SOL     OW36028   0.202   3.294   3.428  0.4111 -0.0313  0.2335
 8131SOL    HW136029   0.197   3.388   3.410  0.9207 -0.5587 -2.7055
 8131SOL    HW236030   0.190   3.247   3.345  0.9416  0.0307  0.1256
 8132SOL     OW36031   1.604   1.076   7.762  0.2279  0.6797 -0.4635
 8132SOL    HW136032   1.644   0.992   7.741 -1.3628 -0.2203  0.1650
 8132SOL    HW236033   1.623   1.133   7.688 -2.2678  1.2369 -0.6793
 8133SOL     OW36034   4.081   0.568   0.711  0.0422  0.0544 -0.5385
 8133SOL    HW136035   3.987   0.559   0.727 -0.0175  1.8515  0.1712
 8133SOL    HW236036   4.075   0.588   0.618  2.9294  0.0557 -0.7223
 8134SOL     OW36037   0.479   2.135  11.627 -0.1438 -0.1423 -0.0089
 8134SOL    HW136038   0.552   2.094  11.674  0.2475  1.4399  0.7531
 8134SOL    HW236039   0.459   2.208  11.685  0.1622  1.0639 -1.4331
 8135SOL     OW36040   4.517   1.889  14.566 -0.6195  0.6390 -0.4882
 8135SOL    HW136041   4.610   1.892  14.546 -0.0768  2.2583  2.2913
 8135SOL    HW236042   4.494   1.969  14.613 -0.1697  0.6792 -0.3359
 8136SOL     OW36043   1.687   3.999   8.343 -0.2322  0.9556 -0.8364
 8136SOL    HW136044   1.701   4.080   8.394  0.3998  0.7502 -0.6863
 8136SOL    HW236045   1.591   3.999   8.338 -0.2325 -2.1391 -0.8772
 8137SOL     OW36046   0.665   0.587   2.963 -0.2842  0.1570 -0.2837
 8137SOL    HW136047   0.573   0.610   2.970 -0.5042 -1.0263  0.5893
 8137SOL    HW236048   0.677   0.528   3.037  2.3689  0.4556 -0.4772
 8138SOL     OW36049   2.000   4.584  10.969 -0.1269  0.0017 -0.4400
 8138SOL    HW136050   2.028   4.555  10.882  0.9728  1.2800 -0.5255
 8138SOL    HW236051   2.017   4.676  10.948  1.0231 -0.2392 -0.5734
 8139SOL     OW36052   0.052   1.322  15.092  0.3622 -0.5034  0.2352
 8139SOL    HW136053   0.017   1.236  15.117 -0.2384 -0.2055  0.4164
 8139SOL    HW236054   0.009   1.357  15.015  0.3978 -0.9576  0.0065
 8140SOL     OW36055   1.116   0.092   5.411  0.1635 -0.0599 -0.1576
 8140SOL    HW136056   1.031   0.128   5.436  1.6049  0.4303  3.9472
 8140SOL    HW236057   1.123   0.112   5.318  0.6554  2.5080  0.4230
 8141SOL     OW36058   3.030   3.184   2.793 -0.0581  0.5532 -0.8504
 8141SOL    HW136059   2.956   3.196   2.853  2.4339  2.0609  1.8738
 8141SOL    HW236060   3.083   3.120   2.840 -1.3810 -0.5299 -0.8294
 8142SOL     OW36061   0.043   1.041   3.606  0.1226  0.0099  0.7815
 8142SOL    HW136062   0.082   1.127   3.596  2.1816 -1.1237 -0.9445
 8142SOL    HW236063   0.009   1.026   3.517  0.6703 -0.7389  0.6918
 8143SOL     OW36064   2.374   0.020   0.341 -0.0319 -0.2713  0.5698
 8143SOL    HW136065   2.405   4.674   0.381 -3.0855 -1.3236  0.7912
 8143SOL    HW236066   2.286   4.725   0.319 -0.8424  0.3634  2.9911
 8144SOL     OW36067   4.220   1.846   6.502 -0.1267  0.2652  1.0321
 8144SOL    HW136068   4.270   1.877   6.578  1.3005 -0.0789  0.2169
 8144SOL    HW236069   4.289   1.803   6.452 -0.1933 -0.2016  1.3443
 8145SOL     OW36070   1.194   2.260   5.716  0.2975 -0.1338 -0.1765
 8145SOL    HW136071   1.162   2.312   5.789  2.4567  0.9349  0.0194
 8145SOL    HW236072   1.155   2.177   5.742  0.5288  0.1136  0.9417
 8146SOL     OW36073   4.642   4.298   6.231 -0.3105 -0.1936 -0.0989
 8146SOL    HW136074   4.566   4.340   6.272 -0.2569 -1.0675  0.9204
 8146SOL    HW236075   4.603   4.267   6.149 -0.9191  1.9320 -0.6148
 8147SOL     OW36076   3.924   3.257   7.478  0.0079 -0.8127 -0.0589
 8147SOL    HW136077   3.952   3.194   7.412  3.3253  0.2167  0.3662
 8147SOL    HW236078   3.843   3.214   7.508 -1.2099  2.0955  0.8466
 8148SOL     OW36079   4.052   2.141  14.411 -0.6409 -0.5262  0.1149
 8148SOL    HW136080   3.973   2.173  14.453 -1.2855 -1.0679 -0.6949
 8148SOL    HW236081   4.121   2.129  14.476 -1.9894  0.3389  1.6937
 8149SOL     OW36082   1.229   2.587   5.330 -0.1461 -0.6818 -0.4409
 8149SOL    HW136083   1.233   2.500   5.289 -0.5089 -0.5208 -0.8227
 8149SOL    HW236084   1.163   2.579   5.399 -0.2078 -1.4124 -0.5896
 8150SOL     OW36085   4.399   0.513  17.079  0.3538 -0.6458 -0.2098
 8150SOL    HW136086   4.457   0.588  17.092  0.3395 -0.8103  0.7965
 8150SOL    HW236087   4.331   0.541  17.141  2.0536  1.8857  0.5482
 8151SOL     OW36088   0.487   4.185   4.740  0.3914  0.0142 -0.5156
 8151SOL    HW136089   0.392   4.196   4.743  0.4715  0.6629 -0.3718
 8151SOL    HW236090   0.511   4.267   4.696 -0.8344 -0.0511 -1.3109
 8152SOL     OW36091   1.230   4.506   2.561 -0.7581  0.1332 -0.4800
 8152SOL    HW136092   1.266   4.449   2.628 -1.0921 -0.5355 -0.8694
 8152SOL    HW236093   1.274   4.472   2.483 -0.7323 -1.7460  0.3619
 8153SOL     OW36094   1.473   2.518   6.009  0.0850 -0.5108 -0.0793
 8153SOL    HW136095   1.434   2.457   6.073  0.6413 -0.3506  0.4138
 8153SOL    HW236096   1.535   2.557   6.071 -0.9768  1.9715 -0.5860
 8154SOL     OW36097   4.566   3.603   2.487  0.0914  0.3395 -0.4989
 8154SOL    HW136098   4.612   3.667   2.433  0.3419  2.4133  2.1527
 8154SOL    HW236099   4.495   3.655   2.525  0.4139  0.7380 -0.4466
 8155SOL     OW36100   4.501   0.291   5.576  0.0333  0.4348  0.2587
 8155SOL    HW136101   4.526   0.211   5.528  2.2694  0.4295  1.4068
 8155SOL    HW236102   4.501   0.360   5.510  1.3230  0.3156  0.1307
 8156SOL     OW36103   4.683   0.981   3.370 -0.3715  0.6622 -0.3877
 8156SOL    HW136104   4.677   1.052   3.307 -2.1637  0.5587 -0.3355
 8156SOL    HW236105   4.596   0.942   3.372  0.6305 -1.5958  0.5642
 8157SOL     OW36106   2.701   3.970  15.182  0.6782 -0.2040  0.3436
 8157SOL    HW136107   2.671   3.941  15.268 -1.7528 -1.3022 -0.8876
 8157SOL    HW236108   2.778   4.016  15.215  0.0786  0.5099  0.7417
 8158SOL     OW36109   2.097   2.317   5.104 -0.0656  0.3358 -0.3585
 8158SOL    HW136110   2.175   2.302   5.157  0.5748 -3.5112 -2.4219
 8158SOL    HW236111   2.064   2.396   5.147  0.0721 -0.0651  0.4660
 8159SOL     OW36112   1.043   0.636  10.056 -0.0193 -0.0343  0.3629
 8159SOL    HW136113   1.095   0.579  10.112  0.3825 -1.4597 -1.4215
 8159SOL    HW236114   1.056   0.727  10.081 -1.5741  1.2279 -3.4381
 8160SOL     OW36115   3.610   0.804  14.416 -0.3828 -0.7389  0.1624
 8160SOL    HW136116   3.517   0.827  14.424  0.2095  1.0118  2.0656
 8160SOL    HW236117   3.626   0.863  14.342  0.1615 -0.9222  0.1326
 8161SOL     OW36118   4.481   1.498   5.298 -0.1843 -0.0031  0.6644
 8161SOL    HW136119   4.407   1.482   5.240 -0.1961  0.1482  0.6365
 8161SOL    HW236120   4.553   1.506   5.235  0.6886  1.0268  1.7949
 8162SOL     OW36121   0.990   0.217   8.508 -0.3790 -0.0676  0.4804
 8162SOL    HW136122   0.902   0.249   8.529 -0.1687  0.8394 -0.0314
 8162SOL    HW236123   0.971   0.129   8.542  0.2432 -0.8725 -1.2927
 8163SOL     OW36124   3.946   3.415   8.921  0.0624 -0.2805  0.7787
 8163SOL    HW136125   4.005   3.341   8.908 -1.7250 -1.5191 -0.2187
 8163SOL    HW236126   3.972   3.441   9.009 -0.3029  1.9080  0.2281
 8164SOL     OW36127   1.952   1.248  11.659 -0.1581 -0.4933  0.0728
 8164SOL    HW136128   1.940   1.246  11.754 -0.5493 -1.0210  0.0131
 8164SOL    HW236129   1.970   1.154  11.656  1.9919 -0.0960  0.5987
 8165SOL     OW36130   2.694   0.648  13.272 -0.1528 -0.5567 -0.0917
 8165SOL    HW136131   2.611   0.695  13.267  0.1150  0.0499  1.1728
 8165SOL    HW236132   2.758   0.707  13.313 -2.0354  1.2989  0.1579
 8166SOL     OW36133   4.557   2.440   3.615  0.1105  0.5334  0.1396
 8166SOL    HW136134   4.533   2.490   3.693 -0.0320 -0.6195  0.8393
 8166SOL    HW236135   4.488   2.465   3.555 -0.4920  1.3422  1.1719
 8167SOL     OW36136   4.457   4.370   0.978 -0.2314  0.4811  0.4605
 8167SOL    HW136137   4.552   4.359   0.986  0.0117  2.4451  0.2713
 8167SOL    HW236138   4.426   4.302   1.038  0.4986 -0.1665  0.1052
 8168SOL     OW36139   2.382   4.717   1.164  0.0981 -0.0279  0.4892
 8168SOL    HW136140   2.302   4.725   1.215  0.0243  1.8973  0.0791
 8168SOL    HW236141   2.353   4.686   1.078 -0.4138 -1.4569  1.1799
 8169SOL     OW36142   2.647   0.792   7.293 -0.0161  0.2722 -0.4689
 8169SOL    HW136143   2.553   0.775   7.290  0.0319  0.2430 -1.5293
 8169SOL    HW236144   2.664   0.856   7.224  0.3979 -0.1847 -0.7889
 8170SOL     OW36145   4.692   4.151   2.243 -0.1942 -0.4746 -0.2557
 8170SOL    HW136146   4.624   4.117   2.184 -0.9532 -1.4142  1.1346
 8170SOL    HW236147   4.647   4.138   2.327  1.5166  0.3784  0.7933
 8171SOL     OW36148   0.913   1.380   3.780 -0.3214  0.5832 -0.6403
 8171SOL    HW136149   0.996   1.350   3.741  0.2554  0.6778  0.5107
 8171SOL    HW236150   0.855   1.394   3.705  0.6155 -1.3669 -1.7053
 8172SOL     OW36151   3.094   4.414   0.393  0.4933  0.0553  0.0267
 8172SOL    HW136152   3.107   4.322   0.372 -2.0396 -0.2556 -0.1359
 8172SOL    HW236153   3.185   4.442   0.405  0.9789 -1.4562 -0.0955
 8173SOL     OW36154   4.495   0.771  13.748  0.1561  0.2012  0.2424
 8173SOL    HW136155   4.501   0.859  13.710  0.9125 -0.5401 -1.3502
 8173SOL    HW236156   4.550   0.783  13.825 -0.0124 -0.9765  0.5461
 8174SOL     OW36157   3.231   2.987   9.569  0.5418 -0.2142  0.4900
 8174SOL    HW136158   3.277   3.065   9.600 -0.2928  0.5349 -0.1640
 8174SOL    HW236159   3.153   2.996   9.623 -0.3954 -2.2815 -0.5231
 8175SOL     OW36160   4.459   3.569   1.603 -0.2674 -0.2035 -0.1015
 8175SOL    HW136161   4.455   3.480   1.570 -1.8488 -0.3901  0.5892
 8175SOL    HW236162   4.391   3.566   1.669 -0.8855  1.1068 -0.6860
 8176SOL     OW36163   1.424   2.714   2.530 -0.0942 -0.0378  0.1942
 8176SOL    HW136164   1.466   2.636   2.567 -1.3937 -0.1368  1.4774
 8176SOL    HW236165   1.333   2.699   2.556 -0.7539 -0.2752 -2.3418
 8177SOL     OW36166   2.397   3.878  16.405  0.0240  0.4986 -0.3539
 8177SOL    HW136167   2.388   3.845  16.495 -2.8413 -0.3215 -0.9475
 8177SOL    HW236168   2.433   3.960  16.437 -0.5798  0.1070  1.3461
 8178SOL     OW36169   4.131   3.641   7.835 -0.3620  0.0787 -0.1353
 8178SOL    HW136170   4.217   3.662   7.798  1.0001 -0.6429  2.6005
 8178SOL    HW236171   4.093   3.580   7.772 -0.6727 -0.9087  1.0080
 8179SOL     OW36172   0.692   2.198   3.976  0.0821  0.2122 -0.8168
 8179SOL    HW136173   0.671   2.151   4.057  0.3535 -1.2467 -1.5969
 8179SOL    HW236174   0.620   2.256   3.951 -0.0950  0.8661  1.2394
 8180SOL     OW36175   0.784   0.587   3.717 -0.0243  0.2707  0.3837
 8180SOL    HW136176   0.724   0.645   3.671 -0.3038 -0.7743 -0.5720
 8180SOL    HW236177   0.839   0.559   3.644 -2.2328 -2.5199 -0.2032
 8181SOL     OW36178   4.445   2.350   3.211 -0.2862  0.0614  0.1338
 8181SOL    HW136179   4.422   2.293   3.137 -1.5941 -0.4113  0.9187
 8181SOL    HW236180   4.496   2.417   3.164 -2.1669 -0.3431 -2.5050
 8182SOL     OW36181   0.416   2.333  10.930  0.2932  0.0686  0.4552
 8182SOL    HW136182   0.417   2.291  10.844 -2.9238 -1.5048  1.2035
 8182SOL    HW236183   0.327   2.366  10.939  1.2982  2.7712  0.4618
 8183SOL     OW36184   2.574   1.312   7.473 -0.4508 -0.8417  0.5984
 8183SOL    HW136185   2.500   1.302   7.534 -1.6056  1.2324 -0.4433
 8183SOL    HW236186   2.527   1.345   7.396  1.3274  1.3304  0.4467
 8184SOL     OW36187   0.466   1.469   1.554  0.5850 -1.0625 -0.2507
 8184SOL    HW136188   0.537   1.405   1.547  0.2939 -1.3654 -0.4298
 8184SOL    HW236189   0.431   1.476   1.465 -1.1861  1.1438  0.6256
 8185SOL     OW36190   1.860   1.911   6.710  0.1749  0.2919 -0.5226
 8185SOL    HW136191   1.813   1.983   6.752 -1.4846 -1.0446 -0.0957
 8185SOL    HW236192   1.799   1.841   6.687  0.1345  0.1082  0.1298
 8186SOL     OW36193   2.551   1.534   9.740  0.4310 -0.3282 -0.1825
 8186SOL    HW136194   2.521   1.610   9.690 -0.6805  0.0789  1.0996
 8186SOL    HW236195   2.581   1.486   9.663 -3.4006  0.9101 -2.4623
 8187SOL     OW36196   0.545   1.558   2.252  0.2920  0.2703  0.5212
 8187SOL    HW136197   0.499   1.631   2.209 -0.0647  0.7159  1.6610
 8187SOL    HW236198   0.591   1.517   2.178 -1.7438  0.8885 -1.0883
 8188SOL     OW36199   1.441   3.199   2.265  0.0370 -0.3755 -0.1301
 8188SOL    HW136200   1.366   3.251   2.294  1.6399  2.1309 -0.4758
 8188SOL    HW236201   1.430   3.116   2.311  1.0251  0.7967  2.2459
 8189SOL     OW36202   0.650   3.091   8.265 -0.4108 -0.2239 -0.1466
 8189SOL    HW136203   0.586   3.027   8.233  0.5797  0.0815 -2.7092
 8189SOL    HW236204   0.618   3.176   8.237 -1.9915 -0.6432  0.3783
 8190SOL     OW36205   4.309   1.512   4.340  0.0762 -0.3505 -0.2634
 8190SOL    HW136206   4.287   1.441   4.400 -0.3145 -0.0655 -0.0652
 8190SOL    HW236207   4.235   1.573   4.346 -1.5399 -2.1029 -2.0395
 8191SOL     OW36208   4.279   3.629   6.440  0.0067 -0.1647 -0.6251
 8191SOL    HW136209   4.232   3.697   6.487  1.0258 -0.6289  1.0598
 8191SOL    HW236210   4.208   3.579   6.398  1.2210  0.6443 -3.6336
 8192SOL     OW36211   4.148   3.207   8.956  0.0667 -1.0475 -0.5034
 8192SOL    HW136212   4.197   3.279   8.996 -0.5823  0.1288 -1.7886
 8192SOL    HW236213   4.199   3.141   9.003 -0.1934  0.9847  2.6204
 8193SOL     OW36214   4.238   3.465   9.762 -0.3547 -0.2359 -0.0973
 8193SOL    HW136215   4.283   3.425   9.687  1.1497  1.7363 -0.2579
 8193SOL    HW236216   4.244   3.398   9.830 -0.1392  2.1758  2.2830
 8194SOL     OW36217   1.034   0.136   2.669  0.0345  0.0782 -0.5040
 8194SOL    HW136218   1.002   0.220   2.635 -1.2940  0.7519  2.3796
 8194SOL    HW236219   1.117   0.131   2.622 -0.1662  0.0932 -0.8621
 8195SOL     OW36220   3.701   4.223  11.049 -0.4561 -0.1494  0.2712
 8195SOL    HW136221   3.743   4.189  11.128  0.5287 -0.3386 -0.3358
 8195SOL    HW236222   3.696   4.312  11.082  0.0872 -0.7671  2.0193
 8196SOL     OW36223   4.271   1.169  10.892 -0.5405  0.4061  0.0579
 8196SOL    HW136224   4.192   1.123  10.863 -2.1337  2.5206  1.0074
 8196SOL    HW236225   4.293   1.133  10.978  2.8178 -1.5215 -1.6148
 8197SOL     OW36226   1.842   1.776   5.045 -0.8175  0.0790 -0.5423
 8197SOL    HW136227   1.834   1.746   5.136  0.3321  1.0578 -0.1323
 8197SOL    HW236228   1.787   1.707   5.007  1.4073 -0.5019 -2.7093
 8198SOL     OW36229   3.821   0.765   3.962 -0.4862  0.3770  0.3327
 8198SOL    HW136230   3.877   0.839   3.939  2.2988 -1.9179 -0.1824
 8198SOL    HW236231   3.870   0.684   3.948 -0.8279  0.1467  0.4623
 8199SOL     OW36232   2.584   2.067   4.624 -0.1580  0.1144 -0.7485
 8199SOL    HW136233   2.496   2.031   4.633 -1.3859  2.5954 -2.5876
 8199SOL    HW236234   2.562   2.160   4.630 -0.0844  0.2190 -2.0214
 8200SOL     OW36235   0.368   2.988  10.515  0.0362  0.2517 -0.0375
 8200SOL    HW136236   0.361   2.913  10.456 -2.1181  0.8743 -0.5827
 8200SOL    HW236237   0.354   2.929  10.590 -1.2123 -1.9650 -2.0146
 8201SOL     OW36238   3.238   2.581  11.928  0.5042 -0.0858  0.6937
 8201SOL    HW136239   3.207   2.509  11.983 -2.6342  1.6693  1.2529
 8201SOL    HW236240   3.234   2.641  12.003  0.2771  0.5795  0.1469
 8202SOL     OW36241   3.622   2.813  11.605 -0.2970 -0.2091  0.3530
 8202SOL    HW136242   3.570   2.883  11.565 -1.6040 -2.0584 -1.1645
 8202SOL    HW236243   3.641   2.766  11.524 -0.9916 -0.6478  0.4476
 8203SOL     OW36244   2.964   0.307  10.373  0.0252  0.3387 -0.7672
 8203SOL    HW136245   2.974   0.279  10.282  1.7693 -1.4489 -0.0205
 8203SOL    HW236246   2.884   0.257  10.388  1.1643 -1.4313 -0.6198
 8204SOL     OW36247   2.879   4.160  16.991  0.0724 -0.1012 -0.7568
 8204SOL    HW136248   2.913   4.097  17.054 -0.3108 -0.7995 -1.2487
 8204SOL    HW236249   2.794   4.187  17.026  1.5763  2.3848  0.9657
 8205SOL     OW36250   4.193   2.414   2.936 -0.4140  0.1636  0.5635
 8205SOL    HW136251   4.119   2.400   2.994  1.3147 -2.6863  2.0397
 8205SOL    HW236252   4.262   2.366   2.981 -1.2770  0.9949  2.7484
 8206SOL     OW36253   2.796   3.618   3.516 -0.0591 -0.3698 -0.5144
 8206SOL    HW136254   2.868   3.672   3.485 -1.6958  0.9880 -1.9696
 8206SOL    HW236255   2.826   3.597   3.604 -0.7542  0.0302 -0.1783
 8207SOL     OW36256   0.637   2.494   6.399  0.1045  0.1954 -0.1432
 8207SOL    HW136257   0.660   2.425   6.337  3.4060 -0.2576  1.5560
 8207SOL    HW236258   0.636   2.438   6.477  1.3699 -0.2899 -0.4629
 8208SOL     OW36259   3.720   0.838   0.436  0.5171  0.5408  0.4330
 8208SOL    HW136260   3.786   0.839   0.367  1.1750 -0.7332  1.0421
 8208SOL    HW236261   3.683   0.926   0.443  0.2491  0.4970 -0.3448
 8209SOL     OW36262   3.448   2.830   9.652 -0.2167 -0.5049 -0.3629
 8209SOL    HW136263   3.528   2.859   9.608  0.6854 -1.1504  0.8637
 8209SOL    HW236264   3.380   2.884   9.610  0.0349  0.0837 -0.0248
 8210SOL     OW36265   4.686   1.748   7.780  0.0405 -0.3816 -1.1411
 8210SOL    HW136266   4.603   1.795   7.796 -0.7767 -1.2589 -2.8395
 8210SOL    HW236267   4.729   1.807   7.718  1.5943  0.9405  1.2092
 8211SOL     OW36268   2.082   3.617   4.481  0.3190  0.2285 -0.1045
 8211SOL    HW136269   2.095   3.559   4.556  1.6477  0.2222 -0.3327
 8211SOL    HW236270   2.134   3.574   4.413 -1.7432 -0.1351 -1.4562
 8212SOL     OW36271   1.346   4.245  13.524  0.3057  0.2674 -0.0723
 8212SOL    HW136272   1.332   4.340  13.519 -0.6595  0.1873  1.0572
 8212SOL    HW236273   1.274   4.226  13.585 -0.1109  0.3374 -0.5449
 8213SOL     OW36274   4.491   4.632   4.000 -0.3516  0.0223  0.8382
 8213SOL    HW136275   4.529   4.604   3.917 -0.3484  2.5555 -0.0322
 8213SOL    HW236276   4.460   4.722   3.986 -1.6705 -0.6275 -0.3490
 8214SOL     OW36277   0.435   0.575   5.801  0.7119 -0.2479 -0.1612
 8214SOL    HW136278   0.365   0.548   5.742  0.1023 -0.2252  0.5527
 8214SOL    HW236279   0.413   0.527   5.881 -1.3215 -0.2640 -0.7370
 8215SOL     OW36280   0.682   1.015   7.668  0.0930 -0.3838 -0.4128
 8215SOL    HW136281   0.656   1.097   7.709  0.1195 -1.9847  2.7781
 8215SOL    HW236282   0.761   1.006   7.721 -0.5844  0.7859  0.7692
 8216SOL     OW36283   1.222   3.284   7.405 -0.4200  0.4013  0.0335
 8216SOL    HW136284   1.261   3.229   7.337 -0.3659 -0.0810  0.4516
 8216SOL    HW236285   1.280   3.358   7.393 -0.9120  0.8615  0.4922
 8217SOL     OW36286   4.437   1.688   1.761  0.5987 -0.5591 -0.2200
 8217SOL    HW136287   4.406   1.598   1.751  0.5344 -0.8874  2.7445
 8217SOL    HW236288   4.358   1.741   1.748  0.0381 -0.9352  1.6731
 8218SOL     OW36289   4.444   2.044   8.174 -0.2386  0.0604  0.2586
 8218SOL    HW136290   4.363   2.056   8.224 -0.8166 -0.3705 -0.5753
 8218SOL    HW236291   4.485   1.966   8.212 -1.1124 -0.0902  0.8987
 8219SOL     OW36292   1.041   2.121   5.255  0.1902 -0.6784 -0.4695
 8219SOL    HW136293   0.965   2.174   5.233 -0.0300 -0.4033  0.9483
 8219SOL    HW236294   1.112   2.168   5.211 -0.1775 -1.3473 -1.7732
 8220SOL     OW36295   2.599   1.016  16.367  0.4029  0.4261  0.2082
 8220SOL    HW136296   2.695   1.020  16.363  0.2900  2.1417 -1.0855
 8220SOL    HW236297   2.581   0.979  16.453 -3.2545 -0.6548 -1.0256
 8221SOL     OW36298   1.144   1.857   4.121 -0.1075  0.2131 -0.6148
 8221SOL    HW136299   1.062   1.885   4.080  0.5339  0.1253 -1.9562
 8221SOL    HW236300   1.211   1.902   4.070  0.4016  0.6086  0.3979
 8222SOL     OW36301   1.619   2.669  15.200 -0.8120 -0.1772  0.3341
 8222SOL    HW136302   1.577   2.604  15.144  0.7508 -1.5586  0.7652
 8222SOL    HW236303   1.662   2.610  15.261 -0.2370  0.3659  0.4582
 8223SOL     OW36304   2.299   2.065   7.332 -0.4643  0.2152  0.0039
 8223SOL    HW136305   2.279   2.050   7.425  0.0448  1.6745  0.3495
 8223SOL    HW236306   2.306   2.160   7.340 -1.2514  0.4642 -2.2749
 8224SOL     OW36307   1.011   4.246   8.003  0.0995  0.0742  0.0189
 8224SOL    HW136308   0.974   4.180   8.062  2.5706 -0.4041  1.0175
 8224SOL    HW236309   1.057   4.184   7.946  1.5601  1.2984 -0.1308
 8225SOL     OW36310   2.320   4.515   5.673  0.5080 -0.1676  0.1805
 8225SOL    HW136311   2.304   4.579   5.604 -1.7013  0.2350  1.0657
 8225SOL    HW236312   2.415   4.511   5.681  0.3815 -0.7409  1.2981
 8226SOL     OW36313   4.543   1.794   4.739 -0.1235  0.4338  0.4041
 8226SOL    HW136314   4.596   1.822   4.664  1.8964 -4.5857 -0.1148
 8226SOL    HW236315   4.472   1.857   4.738  0.2739  0.8924  1.5923
 8227SOL     OW36316   0.830   2.408   3.873 -0.0516 -0.3686 -0.5702
 8227SOL    HW136317   0.815   2.474   3.940  0.2323 -0.0547 -0.8161
 8227SOL    HW236318   0.789   2.334   3.917 -1.1738 -0.6175 -2.0203
 8228SOL     OW36319   0.002   1.840   4.240  0.3158  0.1346  0.1003
 8228SOL    HW136320   0.041   1.882   4.163  0.6610 -2.2139 -1.0055
 8228SOL    HW236321   4.682   1.768   4.207  1.2857 -1.8014  2.7332
 8229SOL     OW36322   2.685   2.343  17.297  0.2476  0.1733 -0.4487
 8229SOL    HW136323   2.771   2.311  17.272  1.0828 -0.0119  2.6904
 8229SOL    HW236324   2.661   2.271  17.356  0.3678  0.8037  0.3766
 8230SOL     OW36325   4.434   1.508   5.720 -0.0613 -0.2905 -0.6585
 8230SOL    HW136326   4.478   1.430   5.687 -0.1733 -1.4774  2.0120
 8230SOL    HW236327   4.459   1.570   5.652 -0.8961 -1.2257 -1.8288
 8231SOL     OW36328   1.623   2.905   7.314  0.2815 -0.5053  0.1044
 8231SOL    HW136329   1.545   2.898   7.260 -0.1126  0.3017  0.5785
 8231SOL    HW236330   1.597   2.831   7.369  1.4908 -1.1126 -0.1249
 8232SOL     OW36331   3.652   3.703   8.348  0.5092  0.5735  0.3314
 8232SOL    HW136332   3.703   3.767   8.298 -0.8669 -0.8003 -2.8479
 8232SOL    HW236333   3.663   3.629   8.288 -0.3033 -0.1183  1.0330
 8233SOL     OW36334   1.962   1.063   5.567  0.4139 -0.4792  0.2110
 8233SOL    HW136335   1.908   1.101   5.498  0.1336  1.0435  1.2685
 8233SOL    HW236336   2.027   1.133   5.573 -1.9981  1.7172  0.4877
 8234SOL     OW36337   2.600   1.880   6.005  0.2443 -0.3261 -0.0203
 8234SOL    HW136338   2.607   1.973   6.027  1.7324 -0.6405  0.8391
 8234SOL    HW236339   2.559   1.844   6.084 -2.3962  2.1101 -0.2934
 8235SOL     OW36340   4.283   2.266   3.678 -0.2529 -0.1650  0.3878
 8235SOL    HW136341   4.376   2.250   3.695  0.0207 -0.0471 -0.9885
 8235SOL    HW236342   4.284   2.350   3.631  1.7340 -0.2991  0.1606
 8236SOL     OW36343   0.294   4.015  11.697  0.0398 -0.0384  0.9752
 8236SOL    HW136344   0.294   3.919  11.696  0.8751 -0.0567  2.0781
 8236SOL    HW236345   0.377   4.024  11.744  0.1996 -0.0696  0.7014
 8237SOL     OW36346   3.361   4.160   7.581  0.0747  0.2393 -0.1957
 8237SOL    HW136347   3.301   4.146   7.508 -0.5025 -0.2358  0.3700
 8237SOL    HW236348   3.432   4.214   7.545  1.3913  0.5987  2.9223
 8238SOL     OW36349   1.638   4.279   8.113  0.1573 -0.0834 -0.0459
 8238SOL    HW136350   1.633   4.312   8.023 -1.5619  1.9427  0.8062
 8238SOL    HW236351   1.587   4.200   8.094 -0.4438  0.4148 -0.5099
 8239SOL     OW36352   4.647   1.362  14.863  0.6183 -0.2371  0.1908
 8239SOL    HW136353   4.584   1.432  14.848 -2.0627 -2.3915  1.6134
 8239SOL    HW236354   4.675   1.331  14.777 -0.8160  0.8416 -0.6595
 8240SOL     OW36355   4.215   0.605   9.085 -0.6636 -0.2588  0.3144
 8240SOL    HW136356   4.149   0.611   9.017 -3.5259  0.0844  3.1284
 8240SOL    HW236357   4.211   0.697   9.110 -0.5203 -0.2932  0.4648
 8241SOL     OW36358   1.988   4.629   8.623  0.0009 -0.2762 -0.3861
 8241SOL    HW136359   1.940   4.552   8.651 -1.3026  0.5338 -0.4171
 8241SOL    HW236360   2.063   4.633   8.682 -0.5193 -1.9345  0.3827
 8242SOL     OW36361   4.633   1.951   2.250 -0.0547 -0.3514 -0.2678
 8242SOL    HW136362   4.566   1.884   2.263  0.9534 -1.1671  0.6923
 8242SOL    HW236363   4.704   1.912   2.301 -0.0679 -0.5191 -0.3749
 8243SOL     OW36364   1.081   1.287   4.167  0.2620 -0.3235 -0.0343
 8243SOL    HW136365   1.169   1.286   4.129  0.3038 -0.7582  0.0694
 8243SOL    HW236366   1.032   1.233   4.105 -1.3981  1.6589 -0.4337
 8244SOL     OW36367   3.521   3.409   9.492 -0.3536 -0.4846  0.5472
 8244SOL    HW136368   3.459   3.482   9.490 -0.7244 -0.8058  0.4875
 8244SOL    HW236369   3.609   3.446   9.483  0.2932 -2.7763 -2.7024
 8245SOL     OW36370   2.676   1.466   9.498  0.1889 -0.2314  0.3749
 8245SOL    HW136371   2.706   1.376   9.504 -1.1633 -0.6532  0.8103
 8245SOL    HW236372   2.762   1.499   9.471  0.2236  0.0600  0.8219
 8246SOL     OW36373   4.167   1.381   4.566  0.2537  0.7923 -0.2117
 8246SOL    HW136374   4.141   1.301   4.610  0.0487  1.1621  0.3410
 8246SOL    HW236375   4.107   1.438   4.615  1.0285  0.4176  1.1513
 8247SOL     OW36376   1.198   0.603   8.631  0.2350 -0.2783  0.4815
 8247SOL    HW136377   1.169   0.665   8.564 -0.4418 -1.2655 -0.1564
 8247SOL    HW236378   1.115   0.588   8.675  0.5226 -1.9114  0.5004
 8248SOL     OW36379   0.159   3.049   8.826  0.1659  0.1844 -0.4160
 8248SOL    HW136380   0.248   3.076   8.852 -0.4117  0.9946  0.7179
 8248SOL    HW236381   0.130   3.001   8.904 -1.3143  0.7131 -0.6434
 8249SOL     OW36382   3.179   3.554   9.305 -0.3222 -0.2942 -0.5804
 8249SOL    HW136383   3.255   3.542   9.363  0.6729  1.5088 -1.5205
 8249SOL    HW236384   3.171   3.469   9.261 -1.4304 -0.4346 -0.1287
 8250SOL     OW36385   0.502   3.094  14.877 -0.3653 -0.2719 -0.0587
 8250SOL    HW136386   0.502   3.164  14.943  0.4433  1.0896 -1.5211
 8250SOL    HW236387   0.457   3.141  14.807  0.7011  0.1704 -0.4303
 8251SOL     OW36388   1.170   4.462   8.590  0.2205 -0.0586 -0.6156
 8251SOL    HW136389   1.200   4.455   8.681  0.9242 -0.8478 -0.9099
 8251SOL    HW236390   1.228   4.512   8.533 -0.1946  1.3487  0.1907
 8252SOL     OW36391   0.307   0.170   3.245  0.4586 -0.1022 -0.4035
 8252SOL    HW136392   0.386   0.183   3.297 -1.3655  0.8611  2.1275
 8252SOL    HW236393   0.296   0.077   3.265  2.6884  0.3147  2.7251
 8253SOL     OW36394   0.582   2.035   6.363  0.0742  0.3237  0.0630
 8253SOL    HW136395   0.494   2.042   6.326  0.3913 -1.1800 -0.9398
 8253SOL    HW236396   0.574   2.106   6.427  1.4347  0.4616  0.0789
 8254SOL     OW36397   0.877   4.367   9.537  0.5305 -0.4074  0.3719
 8254SOL    HW136398   0.791   4.394   9.570 -1.1289 -0.4618 -3.9544
 8254SOL    HW236399   0.925   4.370   9.620 -1.0066  0.2392  1.2536
 8255SOL     OW36400   0.840   0.462   5.920  0.0390 -0.3554 -0.2347
 8255SOL    HW136401   0.806   0.523   5.854  1.4103 -0.4634 -1.0600
 8255SOL    HW236402   0.755   0.446   5.961 -0.8295 -0.7828 -2.1852
 8256SOL     OW36403   0.959   4.350   2.091 -0.1929 -0.2109  0.5280
 8256SOL    HW136404   0.934   4.259   2.074  1.6073  0.0469 -3.5402
 8256SOL    HW236405   1.050   4.338   2.119 -0.6879 -1.9818  1.3951
 8257SOL     OW36406   2.207   3.043  14.707 -0.1716 -0.4163 -0.1219
 8257SOL    HW136407   2.127   3.009  14.748  0.4475  1.3443  2.5276
 8257SOL    HW236408   2.217   2.986  14.630  1.6705  0.2909 -0.3944
 8258SOL     OW36409   0.247   0.617   7.426  0.4030 -0.1842 -0.2336
 8258SOL    HW136410   0.287   0.694   7.386 -1.3716  1.1064  0.4767
 8258SOL    HW236411   0.331   0.572   7.435  0.7102  0.3414 -0.4615
 8259SOL     OW36412   0.816   0.842   5.664  0.7112  0.4916 -0.1077
 8259SOL    HW136413   0.734   0.884   5.639  0.4476 -0.8977 -1.5567
 8259SOL    HW236414   0.788   0.752   5.682 -0.9922  1.1528  0.5027
 8260SOL     OW36415   0.676   3.055   1.981  0.0559 -0.0933  0.1484
 8260SOL    HW136416   0.624   3.103   2.046 -0.7190 -0.4465 -0.2131
 8260SOL    HW236417   0.605   3.022   1.926  1.3443 -0.4754 -1.2717
 8261SOL     OW36418   1.649   1.456   7.418 -0.6165 -0.1761 -0.2257
 8261SOL    HW136419   1.579   1.507   7.375  0.4864 -0.5001 -2.3883
 8261SOL    HW236420   1.696   1.526   7.463  0.1743 -0.6723 -0.2803
 8262SOL     OW36421   3.534   2.087   4.552  0.2289  0.2586 -0.0426
 8262SOL    HW136422   3.561   2.175   4.529  0.9510 -0.1983 -0.9112
 8262SOL    HW236423   3.444   2.103   4.580 -0.2906 -3.0043  0.2105
 8263SOL     OW36424   4.570   0.711   0.133 -0.0198 -0.3931 -0.0363
 8263SOL    HW136425   4.555   0.797   0.171 -0.7491 -0.5220 -0.0482
 8263SOL    HW236426   4.628   0.674   0.199 -0.4954  0.0689  0.6343
 8264SOL     OW36427   1.426   3.673   2.163  0.1878  0.4821  0.0872
 8264SOL    HW136428   1.457   3.626   2.241  0.7011  2.2998  0.9994
 8264SOL    HW236429   1.461   3.762   2.161 -0.1970  0.6661  1.3766
 8265SOL     OW36430   2.566   3.837  15.723 -0.2012 -0.5512 -0.2940
 8265SOL    HW136431   2.553   3.922  15.765  0.3787 -0.0462 -1.1458
 8265SOL    HW236432   2.593   3.864  15.636 -0.6437 -0.6955 -0.4763
 8266SOL     OW36433   3.003   3.373  12.719  0.4055  0.1084 -0.0367
 8266SOL    HW136434   2.948   3.390  12.795 -0.6816 -1.3234 -0.5206
 8266SOL    HW236435   3.067   3.444  12.722 -0.1163  0.6284 -1.0887
 8267SOL     OW36436   3.903   2.750   3.779  0.5073 -0.3400  0.6674
 8267SOL    HW136437   3.938   2.738   3.867 -1.1678  1.8124  1.6049
 8267SOL    HW236438   3.846   2.673   3.780  0.9405 -0.6586  0.9018
 8268SOL     OW36439   3.499   4.720  16.233  0.0889  0.0943  0.1086
 8268SOL    HW136440   3.474   0.076  16.251 -2.8942 -0.7885  0.4602
 8268SOL    HW236441   3.494   4.718  16.137  1.4846 -0.8579  0.0530
 8269SOL     OW36442   1.163   2.131   3.873 -0.2455 -0.0826  0.3041
 8269SOL    HW136443   1.248   2.153   3.909 -1.6290  3.8037  1.1984
 8269SOL    HW236444   1.135   2.212   3.830 -0.3901  0.3806  1.2865
 8270SOL     OW36445   3.120   1.492   5.360 -0.3336 -0.4910 -0.1735
 8270SOL    HW136446   3.147   1.583   5.371 -0.5431 -0.1466 -2.5751
 8270SOL    HW236447   3.027   1.494   5.341 -0.8096  0.8038  2.2706
 8271SOL     OW36448   0.934   2.201   3.427 -0.0485 -0.1062 -0.5637
 8271SOL    HW136449   0.974   2.287   3.436  1.0292 -0.9413  3.0232
 8271SOL    HW236450   0.861   2.214   3.488  0.5009  1.7000 -0.3067
 8272SOL     OW36451   3.100   3.812   4.030  0.5105 -0.0120 -0.0425
 8272SOL    HW136452   3.079   3.879   4.096  2.1448  0.7069 -0.2460
 8272SOL    HW236453   3.161   3.761   4.083  0.9782 -1.1108 -1.6742
 8273SOL     OW36454   4.427   3.676   6.102 -0.0902 -0.0349 -0.3597
 8273SOL    HW136455   4.401   3.608   6.040 -1.2007  1.8573 -2.0004
 8273SOL    HW236456   4.341   3.718   6.099 -0.4454 -0.7199  0.4654
 8274SOL     OW36457   2.653   2.157   6.044  0.0065  0.0375  0.6092
 8274SOL    HW136458   2.628   2.194   5.959  3.7082 -1.1364 -0.9697
 8274SOL    HW236459   2.741   2.190   6.061 -0.1212  0.0697  1.2253
 8275SOL     OW36460   0.356   2.813   2.720  0.5133  0.3677  0.8626
 8275SOL    HW136461   0.359   2.813   2.816 -2.1171  2.5177  0.9483
 8275SOL    HW236462   0.310   2.897   2.712  1.6753  1.0753  1.3750
 8276SOL     OW36463   2.767   2.895  16.826  0.6402  0.1060 -0.2616
 8276SOL    HW136464   2.814   2.954  16.886 -2.3957  0.6714  1.5865
 8276SOL    HW236465   2.841   2.854  16.782  0.5239 -0.0165 -0.3416
 8277SOL     OW36466   1.826   1.174  12.662  0.4614  0.1832  0.4495
 8277SOL    HW136467   1.807   1.088  12.698  0.4298 -0.0073 -0.0241
 8277SOL    HW236468   1.852   1.164  12.571  1.3464  1.0335  0.6049
 8278SOL     OW36469   3.532   3.200   6.134 -0.1537 -0.3624  0.4046
 8278SOL    HW136470   3.517   3.124   6.191  2.6615 -0.0446  1.5983
 8278SOL    HW236471   3.550   3.156   6.051 -0.8466 -0.7680  0.4697
 8279SOL     OW36472   0.766   0.177   5.097  0.5697 -0.0213  0.6084
 8279SOL    HW136473   0.802   0.196   5.011  0.8581 -1.9382  0.3146
 8279SOL    HW236474   0.770   0.265   5.135 -1.2577  1.4524 -2.6203
 8280SOL     OW36475   4.595   0.064   2.313  0.0085  0.5355  0.3536
 8280SOL    HW136476   4.625   4.713   2.343 -1.1944  0.5179  1.5537
 8280SOL    HW236477   4.514   0.028   2.275 -0.5783  1.1702  0.9869
 8281SOL     OW36478   0.298   3.067   5.169 -0.5530  0.5402  0.0257
 8281SOL    HW136479   0.224   3.007   5.177 -0.3877  0.4256  0.7514
 8281SOL    HW236480   0.384   3.029   5.191 -0.8580  0.4673  1.1063
 8282SOL     OW36481   0.729   1.354  17.143  0.7823 -0.6918 -0.1977
 8282SOL    HW136482   0.816   1.346  17.103  0.6551  0.1848 -0.6373
 8282SOL    HW236483   0.703   1.263  17.160  2.4015 -1.0655  0.3650
 8283SOL     OW36484   1.658   3.980   6.912  0.2758 -0.2106 -0.4104
 8283SOL    HW136485   1.745   3.943   6.897  0.2988 -0.8023  1.1654
 8283SOL    HW236486   1.678   4.053   6.853  0.4472  0.4696  0.4782
 8284SOL     OW36487   0.180   0.810  15.765 -0.5361 -0.4014 -0.3558
 8284SOL    HW136488   0.172   0.791  15.858  2.9855  0.2675  0.0857
 8284SOL    HW236489   0.274   0.794  15.751 -0.0795  1.4225  0.5496
 8285SOL     OW36490   2.820   4.087   6.490 -0.1432  0.6016  0.2190
 8285SOL    HW136491   2.877   4.010   6.482 -0.1113  0.8479 -1.8998
 8285SOL    HW236492   2.737   4.049   6.460 -0.5815  0.5134  1.5460
 8286SOL     OW36493   2.284   1.281   7.510  0.4665  0.8466  0.4873
 8286SOL    HW136494   2.306   1.308   7.421  0.5261  0.1034  0.2733
 8286SOL    HW236495   2.261   1.189   7.496 -0.2548  1.1441 -0.3175
 8287SOL     OW36496   4.725   1.025  15.752  0.0502 -0.3068 -0.1689
 8287SOL    HW136497   0.029   0.938  15.758  2.6519  0.7051 -2.1024
 8287SOL    HW236498   0.041   1.067  15.682  0.6214  0.1200  0.5102
 8288SOL     OW36499   0.005   4.323   0.937  0.4230  0.0439 -0.2186
 8288SOL    HW136500   0.055   4.404   0.942  2.2472 -1.1050  0.4920
 8288SOL    HW236501   0.008   4.304   0.843  0.1435 -0.7555 -0.0653
 8289SOL     OW36502   0.095   4.387   8.823 -0.2447 -0.1727  0.5859
 8289SOL    HW136503   0.084   4.352   8.912 -1.5417  0.3619  0.6468
 8289SOL    HW236504   0.061   4.477   8.823 -0.9793 -0.4517  1.4399
 8290SOL     OW36505   1.993   4.130   7.053 -0.2556  0.8407 -0.0186
 8290SOL    HW136506   1.988   4.046   7.100 -2.2974  1.0225  0.0842
 8290SOL    HW236507   1.976   4.189   7.126 -1.0249 -1.3326  1.5737
 8291SOL     OW36508   4.361   4.059   3.174 -0.4189  0.4378 -0.0192
 8291SOL    HW136509   4.273   4.032   3.150  0.5868 -0.8329 -2.3392
 8291SOL    HW236510   4.339   4.144   3.213  0.1249  0.8527 -0.5964
 8292SOL     OW36511   0.648   3.979   8.299 -0.2119 -0.6251  0.2135
 8292SOL    HW136512   0.628   3.886   8.312 -1.0238 -0.5510 -0.4769
 8292SOL    HW236513   0.651   4.020   8.385  0.2116  2.8165 -1.4173
 8293SOL     OW36514   4.668   0.257  13.060 -0.8386  0.1896 -0.5942
 8293SOL    HW136515   4.600   0.222  13.118  0.9500 -3.4744 -0.6614
 8293SOL    HW236516   4.632   0.264  12.972 -0.5769  3.3075 -0.4608
 8294SOL     OW36517   1.896   4.442   8.819 -0.5625  0.2344 -0.1598
 8294SOL    HW136518   1.935   4.356   8.832 -0.6869  0.1907 -0.0690
 8294SOL    HW236519   1.914   4.484   8.903  0.1658 -0.5796  0.0892
 8295SOL     OW36520   0.307   4.464  15.135 -0.2230 -0.5040  0.5215
 8295SOL    HW136521   0.377   4.522  15.164 -1.2228  0.5849  0.7600
 8295SOL    HW236522   0.344   4.387  15.178  0.9164 -1.7412 -2.6909
 8296SOL     OW36523   1.255   2.574   3.393  0.0047 -0.0856 -0.2994
 8296SOL    HW136524   1.298   2.499   3.351  1.1209  0.5296 -0.2449
 8296SOL    HW236525   1.221   2.604   3.309  0.2232 -0.7139 -0.6183
 8297SOL     OW36526   4.252   2.867  15.534 -0.0730  0.5011 -0.2927
 8297SOL    HW136527   4.172   2.888  15.582 -0.0110 -0.6677  0.3229
 8297SOL    HW236528   4.323   2.907  15.584 -0.4224 -0.5522  1.0300
 8298SOL     OW36529   1.515   0.522  11.198  0.4848 -0.0732 -0.1263
 8298SOL    HW136530   1.583   0.561  11.252 -1.1987  1.8261  0.6535
 8298SOL    HW236531   1.484   0.600  11.153  0.0274 -0.3742 -0.3335
 8299SOL     OW36532   4.093   2.045  15.977 -0.3040 -0.8382  0.2299
 8299SOL    HW136533   4.112   1.977  16.041  2.2455 -2.3048 -2.0734
 8299SOL    HW236534   4.009   2.011  15.948 -1.0034  0.8105  0.3061
 8300SOL     OW36535   3.961   1.468   7.442 -0.2555 -0.0299  0.6753
 8300SOL    HW136536   3.996   1.484   7.530 -0.0385 -0.2529  0.6298
 8300SOL    HW236537   4.022   1.501   7.376 -1.3441 -2.9765 -1.8092
 8301SOL     OW36538   4.676   2.439   5.742  0.1889  0.5595 -0.1919
 8301SOL    HW136539   0.013   2.465   5.799  1.0225 -3.0912  0.3959
 8301SOL    HW236540   4.646   2.358   5.782 -0.3967  0.2989 -1.1576
 8302SOL     OW36541   1.949   3.852  11.138  0.0697 -0.0121  0.0060
 8302SOL    HW136542   2.037   3.874  11.106  0.6576 -1.8065  0.4254
 8302SOL    HW236543   1.927   3.928  11.192 -1.3461  1.0992 -2.1087
 8303SOL     OW36544   2.146   2.769   1.153 -0.8297 -0.5566 -0.3636
 8303SOL    HW136545   2.231   2.741   1.118  0.2880 -2.3947  3.8274
 8303SOL    HW236546   2.168   2.839   1.214 -1.3119  0.3926 -1.2717
 8304SOL     OW36547   4.628   1.329   0.256 -0.7137 -0.2758 -0.1644
 8304SOL    HW136548   4.663   1.265   0.193  0.1475 -1.7086  1.7485
 8304SOL    HW236549   4.580   1.269   0.313  0.7114  1.3927  2.7988
 8305SOL     OW36550   3.545   1.359   7.503  0.1998 -0.6314  0.0134
 8305SOL    HW136551   3.465   1.307   7.488  0.5136 -1.6317  1.7088
 8305SOL    HW236552   3.595   1.305   7.565 -1.6140 -2.6136 -0.2293
 8306SOL     OW36553   2.488   0.749   2.091 -0.0797  0.1104  0.4293
 8306SOL    HW136554   2.494   0.841   2.066 -0.4865 -0.0214 -0.1518
 8306SOL    HW236555   2.394   0.745   2.109 -0.6336  2.4383 -1.8824
 8307SOL     OW36556   1.524   1.756   1.413  0.3914  0.0565 -0.1416
 8307SOL    HW136557   1.585   1.730   1.344 -0.4862  2.1440 -1.7148
 8307SOL    HW236558   1.476   1.811   1.350  1.2888  0.2846 -0.6313
 8308SOL     OW36559   2.689   2.157   3.748 -0.0758 -0.1404 -0.1049
 8308SOL    HW136560   2.763   2.161   3.688 -0.1888  2.4256 -0.0758
 8308SOL    HW236561   2.664   2.248   3.733  1.0893 -0.4028 -3.5857
 8309SOL     OW36562   1.719   0.866   5.559  0.1905  0.3150 -0.0596
 8309SOL    HW136563   1.778   0.866   5.483  1.4848  2.5080  0.9300
 8309SOL    HW236564   1.770   0.899   5.633 -0.5617  0.6803  0.2889
 8310SOL     OW36565   3.307   0.275  11.904 -0.9988  0.2364  0.4593
 8310SOL    HW136566   3.328   0.324  11.983 -2.7037  0.7965  0.5587
 8310SOL    HW236567   3.227   0.311  11.866 -0.0495  1.4098 -0.4235
 8311SOL     OW36568   1.497   4.569   2.738  0.1037  0.3346  0.2735
 8311SOL    HW136569   1.443   4.491   2.723  1.4861 -0.5528 -0.1689
 8311SOL    HW236570   1.522   4.591   2.648  1.1305  2.3176  1.0596
 8312SOL     OW36571   1.906   3.671   7.953 -0.1077 -0.1074 -0.6774
 8312SOL    HW136572   1.986   3.703   7.995 -0.0262 -1.1697 -0.0262
 8312SOL    HW236573   1.861   3.623   8.023  0.1600  0.3536 -0.1956
 8313SOL     OW36574   0.286   4.382   7.757 -0.4241  0.2198 -0.1026
 8313SOL    HW136575   0.324   4.468   7.775  0.1337 -0.0601  0.0679
 8313SOL    HW236576   0.305   4.328   7.834 -2.9423 -0.7196 -0.1355
 8314SOL     OW36577   4.628   3.809  14.841 -0.2508 -0.1827 -0.7405
 8314SOL    HW136578   4.693   3.852  14.786  0.4870  0.8183  0.9335
 8314SOL    HW236579   4.578   3.760  14.775  0.7563 -0.4998 -1.2607
 8315SOL     OW36580   3.413   1.282   8.857  0.0161 -0.0238 -0.0821
 8315SOL    HW136581   3.465   1.361   8.873  0.2011 -0.0627 -0.4794
 8315SOL    HW236582   3.393   1.254   8.946  0.9421 -0.4845 -0.0133
 8316SOL     OW36583   0.201   1.331  16.613 -0.3740 -0.0348  0.4866
 8316SOL    HW136584   0.192   1.296  16.702 -1.4945  2.0659  1.2103
 8316SOL    HW236585   0.127   1.391  16.609 -1.1551 -1.2088 -2.5626
 8317SOL     OW36586   2.385   2.190   9.704  0.6347 -0.0722  0.1329
 8317SOL    HW136587   2.470   2.151   9.686 -0.4262 -1.5573 -1.6158
 8317SOL    HW236588   2.332   2.113   9.684 -1.7580  1.9874 -1.5260
 8318SOL     OW36589   4.574   4.334   4.231  0.5080 -0.7980  0.1375
 8318SOL    HW136590   4.629   4.360   4.305 -1.4745  2.0242  0.6128
 8318SOL    HW236591   4.626   4.358   4.155  1.3236 -0.3328  0.8448
 8319SOL     OW36592   4.621   2.884   9.501  0.1497 -0.5437  0.1326
 8319SOL    HW136593   4.544   2.896   9.444 -1.4389  0.1909  2.4469
 8319SOL    HW236594   4.579   2.869   9.586  1.7781 -1.0485  0.8394
 8320SOL     OW36595   2.059   1.093  17.567  0.1649 -0.3808  0.0468
 8320SOL    HW136596   2.070   1.188  17.568  2.3476 -0.6455  1.4758
 8320SOL    HW236597   1.971   1.079  17.532  0.4570  0.9661 -1.2362
 8321SOL     OW36598   1.085   1.625   8.390 -0.2272 -0.4210  0.4500
 8321SOL    HW136599   1.146   1.584   8.451  0.8998 -1.8556 -1.6409
 8321SOL    HW236600   1.083   1.560   8.320 -3.0176 -2.3923  2.3678
 8322SOL     OW36601   3.229   3.244   6.933 -0.1421  0.6836 -0.6188
 8322SOL    HW136602   3.143   3.209   6.909 -0.3735  1.2811 -0.6794
 8322SOL    HW236603   3.221   3.231   7.028  1.5506 -0.6171 -0.6640
 8323SOL     OW36604   2.686   3.192  17.194 -0.3702 -0.3150  0.3030
 8323SOL    HW136605   2.704   3.208  17.287 -0.9116  1.2069  0.1521
 8323SOL    HW236606   2.629   3.115  17.193 -0.3550 -0.2895 -1.7339
 8324SOL     OW36607   2.724   2.222  10.318 -0.0393 -0.2989 -0.1384
 8324SOL    HW136608   2.674   2.170  10.381  0.2607 -0.0390  0.3225
 8324SOL    HW236609   2.660   2.228  10.247 -1.2291  1.7258  1.0918
 8325SOL     OW36610   1.003   4.002   2.038  0.0778 -0.3401  0.1264
 8325SOL    HW136611   1.048   4.011   2.122  1.8986 -2.5479 -0.6278
 8325SOL    HW236612   0.916   3.979   2.071  0.1986  1.2689  1.6184
 8326SOL     OW36613   4.069   3.888   7.624  0.1003 -0.2281  0.4820
 8326SOL    HW136614   4.017   3.867   7.702 -0.0299 -2.0632 -0.1029
 8326SOL    HW236615   4.150   3.919   7.666  0.1619  0.4768 -0.1684
 8327SOL     OW36616   1.719   4.045   2.276  0.5251  0.3521 -0.8915
 8327SOL    HW136617   1.799   4.068   2.229  0.3701  0.2302 -1.2133
 8327SOL    HW236618   1.747   3.967   2.324  1.3667  0.9414 -0.4159
 8328SOL     OW36619   4.126   3.495  16.702 -0.2880  0.6741 -0.2327
 8328SOL    HW136620   4.204   3.457  16.741 -0.4729  0.6065  0.0734
 8328SOL    HW236621   4.077   3.497  16.784  1.7066  0.9058  0.9297
 8329SOL     OW36622   3.708   2.128   2.578  0.0149 -0.1320 -0.2718
 8329SOL    HW136623   3.675   2.052   2.626  2.5801 -0.3558  1.1627
 8329SOL    HW236624   3.707   2.084   2.493 -0.7491 -1.2610  0.3172
 8330SOL     OW36625   4.278   0.871   3.045  0.1892 -0.4151 -0.6601
 8330SOL    HW136626   4.244   0.960   3.050 -1.6910 -1.0894 -1.5518
 8330SOL    HW236627   4.292   0.868   2.950  2.1455 -1.0107 -0.3566
 8331SOL     OW36628   3.957   3.147   2.552 -0.0105  0.2972  0.1095
 8331SOL    HW136629   3.921   3.104   2.473  1.5142 -1.8356  0.5629
 8331SOL    HW236630   3.928   3.238   2.549  3.2172  1.2732 -1.4338
 8332SOL     OW36631   2.505   2.979   4.879 -0.1793 -0.2238 -0.1504
 8332SOL    HW136632   2.573   2.915   4.858 -0.1306 -0.6410  1.3090
 8332SOL    HW236633   2.511   2.976   4.974 -1.2998 -2.4643 -0.1529
 8333SOL     OW36634   3.589   1.372   3.810 -0.0763 -0.5151  0.4965
 8333SOL    HW136635   3.523   1.434   3.839 -0.9009 -0.8541 -0.6529
 8333SOL    HW236636   3.606   1.409   3.723 -2.5919 -0.1720  0.1569
 8334SOL     OW36637   2.860   0.368   5.069 -0.1971  0.3154  0.6523
 8334SOL    HW136638   2.907   0.285   5.075 -0.8017 -0.1206 -0.5299
 8334SOL    HW236639   2.918   0.432   5.109  1.1106 -0.5241  0.1002
 8335SOL     OW36640   1.733   3.570   2.144  0.6353 -0.5425  0.0121
 8335SOL    HW136641   1.701   3.499   2.199  0.1397 -0.8371 -0.6569
 8335SOL    HW236642   1.788   3.616   2.207  0.0871 -0.9700  0.8097
 8336SOL     OW36643   1.346   3.481   7.255 -0.1079 -0.5996  0.6106
 8336SOL    HW136644   1.416   3.543   7.277 -1.0246  1.2056 -1.5261
 8336SOL    HW236645   1.268   3.532   7.232  1.3844  1.7847  0.7776
 8337SOL     OW36646   0.620   4.435   9.604 -0.5676  0.4644 -1.1487
 8337SOL    HW136647   0.544   4.422   9.546 -0.1792  1.1029 -1.8031
 8337SOL    HW236648   0.578   4.481   9.677  0.7657 -3.1196  1.8470
 8338SOL     OW36649   0.531   2.279  15.240 -0.3562  0.0271 -0.2697
 8338SOL    HW136650   0.603   2.230  15.279 -0.9262  0.1403  0.9119
 8338SOL    HW236651   0.567   2.367  15.250  0.6683 -0.2388 -1.6099
 8339SOL     OW36652   3.166   1.987  15.571  0.2320 -0.0912 -0.6339
 8339SOL    HW136653   3.170   2.074  15.610  1.4647 -0.9952  1.2869
 8339SOL    HW236654   3.075   1.994  15.543 -0.5282 -0.5667  1.7345
 8340SOL     OW36655   0.756   0.216   5.625 -0.2407 -0.1070  0.3325
 8340SOL    HW136656   0.688   0.187   5.564  1.0476  1.1283 -1.6835
 8340SOL    HW236657   0.769   0.305   5.593  1.7350 -0.8654 -1.0224
 8341SOL     OW36658   3.775   0.861  11.223  0.3637 -0.5596 -0.1182
 8341SOL    HW136659   3.741   0.818  11.145  1.1689 -1.1533 -0.1438
 8341SOL    HW236660   3.808   0.940  11.181  0.3189  0.2702  1.4201
 8342SOL     OW36661   2.161   1.273  15.143  0.2476 -0.2556  0.1455
 8342SOL    HW136662   2.210   1.222  15.207 -1.7348 -0.4047  1.5192
 8342SOL    HW236663   2.233   1.284  15.080 -0.5955  1.6626 -0.4768
 8343SOL     OW36664   0.773   2.039   4.539 -0.0704 -0.3745 -0.3786
 8343SOL    HW136665   0.859   2.064   4.573 -0.4321  2.7110 -1.6996
 8343SOL    HW236666   0.743   1.967   4.595  0.5484 -0.6596 -0.4142
 8344SOL     OW36667   0.765   3.667   2.900 -0.1358  0.1031  0.5615
 8344SOL    HW136668   0.748   3.575   2.879 -1.5807  0.5531 -0.2238
 8344SOL    HW236669   0.842   3.656   2.957 -0.2869 -2.9568  0.1987
 8345SOL     OW36670   2.909   3.191   0.295  0.5531  0.2442  0.7635
 8345SOL    HW136671   2.875   3.155   0.377  0.3119  0.1061  0.6015
 8345SOL    HW236672   2.936   3.279   0.321  0.3078  0.9811 -1.5104
 8346SOL     OW36673   4.572   1.910   5.304 -0.1771  0.3023 -0.2770
 8346SOL    HW136674   4.476   1.916   5.307 -0.3484 -1.9185 -1.4450
 8346SOL    HW236675   4.590   1.892   5.212 -0.5707 -0.5276 -0.1886
 8347SOL     OW36676   3.239   0.195   9.939  0.0411 -0.3436  0.3152
 8347SOL    HW136677   3.293   0.272   9.916 -1.0231  0.6873  1.2657
 8347SOL    HW236678   3.211   0.165   9.853  3.7046 -2.0797 -0.2455
 8348SOL     OW36679   4.691   2.317  14.643 -0.5553  0.1901 -0.1014
 8348SOL    HW136680   0.021   2.333  14.574  0.1606  3.5736  1.3325
 8348SOL    HW236681   0.003   2.340  14.723  1.1889 -2.9473 -0.2062
 8349SOL     OW36682   2.544   2.139  15.433  0.0690 -0.1406  0.5260
 8349SOL    HW136683   2.493   2.091  15.367 -3.4612  2.8737  1.0359
 8349SOL    HW236684   2.634   2.120  15.405 -0.2007  2.2908 -2.0322
 8350SOL     OW36685   3.267   4.584   7.370  0.4934  0.7939  0.0358
 8350SOL    HW136686   3.241   4.507   7.320  1.8246 -0.6290  1.5135
 8350SOL    HW236687   3.215   4.658   7.341  3.2709  2.4425 -0.6659
 8351SOL     OW36688   2.556   0.459  14.443  0.1902 -0.4375  0.0379
 8351SOL    HW136689   2.549   0.394  14.513  1.5663  0.4645  1.0198
 8351SOL    HW236690   2.468   0.443  14.411  0.3354 -1.6383  0.2576
 8352SOL     OW36691   2.970   1.315   8.005 -1.2499  0.1926  0.5828
 8352SOL    HW136692   2.909   1.280   8.069  0.2674  1.9393  3.0164
 8352SOL    HW236693   3.007   1.393   8.047 -0.6280 -0.5076  1.3349
 8353SOL     OW36694   2.509   4.645  13.511  0.6628 -0.1950  0.4590
 8353SOL    HW136695   2.463   4.727  13.494  2.0470  0.1177 -1.7006
 8353SOL    HW236696   2.569   4.639  13.437 -1.8305  3.3873 -1.8305
 8354SOL     OW36697   0.490   3.661   9.642  0.0816  0.1370  0.0296
 8354SOL    HW136698   0.455   3.673   9.731  0.8455  0.0914  0.3417
 8354SOL    HW236699   0.430   3.711   9.586 -2.0249 -1.2618  1.0344
 8355SOL     OW36700   1.490   0.656  15.576  0.4860 -0.0410 -0.4723
 8355SOL    HW136701   1.533   0.576  15.548 -0.1142 -0.4303 -0.3006
 8355SOL    HW236702   1.453   0.683  15.492  0.8679 -0.8206 -0.8847
 8356SOL     OW36703   3.784   3.377   3.941 -0.2171 -0.2041 -0.5751
 8356SOL    HW136704   3.704   3.418   3.977 -0.7103 -1.0303 -0.7380
 8356SOL    HW236705   3.749   3.357   3.855  0.4482 -1.7304 -0.4773
 8357SOL     OW36706   2.474   2.509  17.211  0.0036 -0.2908 -0.2474
 8357SOL    HW136707   2.545   2.446  17.218 -0.7027 -1.0346  0.2688
 8357SOL    HW236708   2.478   2.557  17.293  1.0402 -0.2719 -0.3189
 8358SOL     OW36709   3.190   3.814  14.519 -0.0539 -0.5086 -0.2508
 8358SOL    HW136710   3.173   3.742  14.581  0.4653  0.9088  1.5454
 8358SOL    HW236711   3.272   3.784  14.480  1.4121  0.4485  2.0751
 8359SOL     OW36712   0.814   3.391  12.040 -0.2238  0.5159 -0.5981
 8359SOL    HW136713   0.762   3.319  12.003  0.8467 -0.2638 -0.5974
 8359SOL    HW236714   0.904   3.361  12.021 -0.2009  0.0482  0.2414
 8360SOL     OW36715   1.565   4.373   1.930 -0.2617  0.3537  0.1325
 8360SOL    HW136716   1.590   4.368   2.022 -1.9556  0.7699  0.6312
 8360SOL    HW236717   1.499   4.304   1.929 -0.9726  1.0102  1.7870
 8361SOL     OW36718   1.179   4.219   7.133  0.0296  0.1422  0.1965
 8361SOL    HW136719   1.264   4.258   7.115 -0.7933  1.1346 -1.5051
 8361SOL    HW236720   1.157   4.282   7.202 -1.3544  0.2431 -0.3313
 8362SOL     OW36721   0.779   1.047   6.568 -0.1810  0.5283  0.3291
 8362SOL    HW136722   0.713   1.032   6.635 -1.0850  0.1790 -0.6463
 8362SOL    HW236723   0.750   1.123   6.517  1.9557  0.9354 -0.2855
 8363SOL     OW36724   2.874   1.821   2.528 -0.2142  0.3910  0.0569
 8363SOL    HW136725   2.825   1.769   2.592  0.1976  0.7656  0.6712
 8363SOL    HW236726   2.830   1.902   2.551 -0.1826  0.4806 -0.1991
 8364SOL     OW36727   1.222   3.240   6.643  0.6127 -0.1866 -0.2023
 8364SOL    HW136728   1.144   3.226   6.698 -0.2187  0.9654 -1.0861
 8364SOL    HW236729   1.222   3.155   6.599  1.0656 -0.7370  0.8483
 8365SOL     OW36730   3.382   0.565   8.578  0.1272 -0.5366 -0.1930
 8365SOL    HW136731   3.375   0.501   8.649 -2.3949 -0.7387 -0.6206
 8365SOL    HW236732   3.473   0.594   8.580  1.2505 -3.8194 -2.7572
 8366SOL     OW36733   0.150   2.340   1.369 -0.1458  0.0907 -0.4878
 8366SOL    HW136734   0.182   2.391   1.295  0.4745  0.6577  0.1648
 8366SOL    HW236735   0.088   2.278   1.330 -1.4107  0.3282  1.1362
 8367SOL     OW36736   4.216   2.609   9.153 -0.2253 -0.0728  0.4755
 8367SOL    HW136737   4.289   2.645   9.203  0.4011 -0.1966 -0.3588
 8367SOL    HW236738   4.154   2.607   9.226 -0.0824 -1.2272  0.5721
 8368SOL     OW36739   2.806   2.655  16.931 -0.8716  0.0676  0.0052
 8368SOL    HW136740   2.824   2.674  17.023  1.7635  0.0556 -0.5248
 8368SOL    HW236741   2.779   2.737  16.890  2.9026  0.9492 -0.7114
 8369SOL     OW36742   3.058   3.619   4.313  0.1614  0.8439  0.0805
 8369SOL    HW136743   3.142   3.664   4.303  0.8300 -0.1811  1.1163
 8369SOL    HW236744   3.003   3.678   4.364 -0.4689 -0.0758  0.4652
 8370SOL     OW36745   0.627   0.853  12.901 -0.1472  0.3447 -0.2619
 8370SOL    HW136746   0.721   0.853  12.918 -1.1327  1.1137  5.2862
 8370SOL    HW236747   0.602   0.939  12.935  0.1224 -0.4284  1.8779
 8371SOL     OW36748   2.188   3.109   6.865 -0.0854 -0.1514 -0.0292
 8371SOL    HW136749   2.213   3.168   6.794 -0.2615  2.0635  1.7668
 8371SOL    HW236750   2.198   3.167   6.940  1.6795 -2.8251  1.8092
 8372SOL     OW36751   2.537   2.711   2.561 -0.7434  0.3216 -0.2415
 8372SOL    HW136752   2.631   2.698   2.546 -0.8528 -1.8943  1.0447
 8372SOL    HW236753   2.499   2.703   2.474 -0.3293  1.0519 -0.4924
 8373SOL     OW36754   2.418   0.604  12.333  0.5278  0.7473  0.4767
 8373SOL    HW136755   2.366   0.529  12.361  2.0764  0.7273  3.3560
 8373SOL    HW236756   2.360   0.679  12.345 -1.3407 -0.3049 -2.1140
 8374SOL     OW36757   4.431   0.331   3.824  0.2732 -0.0781 -0.9970
 8374SOL    HW136758   4.494   0.397   3.853  1.2579 -2.1202  1.5055
 8374SOL    HW236759   4.367   0.375   3.769 -0.3534  1.8848  1.2709
 8375SOL     OW36760   0.548   4.146   6.766 -0.3931 -0.6082  0.5559
 8375SOL    HW136761   0.538   4.224   6.820 -1.2386  0.8809 -1.7399
 8375SOL    HW236762   0.616   4.176   6.706 -0.7976 -1.8530 -0.5380
 8376SOL     OW36763   3.651   2.355   8.035  0.0690 -0.2275 -1.2076
 8376SOL    HW136764   3.704   2.280   8.062  0.7937  0.2788 -1.2233
 8376SOL    HW236765   3.574   2.317   7.994 -1.4988  1.4846  0.1398
 8377SOL     OW36766   4.330   4.328   3.287 -0.4076 -0.0481 -0.3805
 8377SOL    HW136767   4.358   4.383   3.215 -1.4416 -0.4692 -1.0944
 8377SOL    HW236768   4.312   4.391   3.357 -1.3302 -2.7653  1.8339
 8378SOL     OW36769   0.658   2.270   5.041  0.6394  0.5682 -0.8401
 8378SOL    HW136770   0.689   2.200   4.984 -0.2648 -0.2951 -0.2635
 8378SOL    HW236771   0.630   2.336   4.977  0.9394  0.7880 -0.7429
 8379SOL     OW36772   0.090   0.330   4.994  0.0793  0.1183 -0.6448
 8379SOL    HW136773   0.114   0.238   5.000  0.7865  0.3234 -0.2868
 8379SOL    HW236774   0.014   0.321   4.937 -0.4507 -3.8390  0.7060
 8380SOL     OW36775   2.369   3.392   3.419 -0.2901  0.1540  0.9101
 8380SOL    HW136776   2.351   3.430   3.505 -0.2443 -1.5841  1.6940
 8380SOL    HW236777   2.406   3.309   3.449  0.8377  0.4121  0.2306
 8381SOL     OW36778   4.061   4.013   3.841  0.1179  0.2545  0.6810
 8381SOL    HW136779   4.138   4.030   3.787 -1.4943  0.4632 -1.5891
 8381SOL    HW236780   4.002   4.074   3.795  0.0505  1.4363  2.3314
 8382SOL     OW36781   3.052   1.348  13.301  0.3529  0.3351 -0.7091
 8382SOL    HW136782   3.115   1.382  13.365  0.8401 -1.4783 -0.1986
 8382SOL    HW236783   3.040   1.435  13.264 -1.3189  0.2377 -0.3774
 8383SOL     OW36784   3.906   3.776  12.251 -0.1997 -1.0867 -0.6499
 8383SOL    HW136785   3.921   3.711  12.182  0.0854  0.5725 -2.1329
 8383SOL    HW236786   3.813   3.759  12.268  0.4183 -2.0143  1.7586
 8384SOL     OW36787   0.476   2.172   4.468 -0.0727 -0.3078  0.1350
 8384SOL    HW136788   0.542   2.146   4.533 -0.0316 -1.4025 -0.3458
 8384SOL    HW236789   0.460   2.254   4.514 -1.3751 -0.1927 -0.5402
 8385SOL     OW36790   4.473   4.454   8.830 -0.5044  0.2139  0.1478
 8385SOL    HW136791   4.379   4.473   8.828 -0.7810 -1.1394 -0.1653
 8385SOL    HW236792   4.499   4.479   8.741 -0.6849  1.4728  0.4600
 8386SOL     OW36793   4.149   1.004  14.283  0.0397 -0.3522 -0.3857
 8386SOL    HW136794   4.152   1.040  14.194 -2.4170 -2.7674 -1.4479
 8386SOL    HW236795   4.055   0.985  14.288 -0.2123  1.6589  2.6731
 8387SOL     OW36796   0.221   0.973  15.179  0.5058 -0.1527  0.3654
 8387SOL    HW136797   0.267   0.892  15.158  1.4613 -0.0881  2.2380
 8387SOL    HW236798   0.268   0.994  15.259 -0.1470  1.8353  0.2250
 8388SOL     OW36799   1.755   0.421  16.131  0.1351  0.7062  0.2220
 8388SOL    HW136800   1.787   0.486  16.193  0.3248 -0.7544  1.6612
 8388SOL    HW236801   1.663   0.420  16.158  0.4799  2.7409  1.4465
 8389SOL     OW36802   1.706   2.922   2.130 -0.2980  0.2280  0.5126
 8389SOL    HW136803   1.655   2.853   2.172 -0.4431  0.8055  1.2785
 8389SOL    HW236804   1.695   2.988   2.198  0.9425  1.4985 -0.5246
 8390SOL     OW36805   3.168   2.249  14.473  0.2699 -0.3743 -0.1049
 8390SOL    HW136806   3.250   2.210  14.501  0.7572 -1.4945 -3.1134
 8390SOL    HW236807   3.189   2.336  14.437 -1.6398  0.4568  0.8006
 8391SOL     OW36808   0.911   1.253   7.138  0.0291  0.3929  0.1117
 8391SOL    HW136809   0.876   1.206   7.062  0.5425  0.5572 -0.2312
 8391SOL    HW236810   1.003   1.229   7.130  0.5466  1.8044  1.7331
 8392SOL     OW36811   4.727   1.393   6.654 -1.0645 -0.4885  0.5536
 8392SOL    HW136812   0.073   1.419   6.698 -2.3701  0.8081  2.2095
 8392SOL    HW236813   0.014   1.341   6.577  1.7573 -0.0112  1.0357
 8393SOL     OW36814   3.965   4.311  17.274 -0.0849 -0.3524  0.0173
 8393SOL    HW136815   3.932   4.400  17.280  1.3698  0.1245  0.9254
 8393SOL    HW236816   4.043   4.322  17.220  0.1116  0.2465  0.4382
 8394SOL     OW36817   4.588   2.138   6.975  0.2509  0.0648 -0.2811
 8394SOL    HW136818   4.559   2.229   6.966  1.9781  0.6195 -0.2493
 8394SOL    HW236819   4.594   2.119   6.882 -1.5558 -3.3553  0.3251
 8395SOL     OW36820   4.084   4.102  13.705  0.2287 -0.6379 -0.0804
 8395SOL    HW136821   4.179   4.107  13.711  0.0860  1.1182  0.6072
 8395SOL    HW236822   4.061   4.167  13.639  1.2354 -0.4953 -0.2865
 8396SOL     OW36823   2.933   1.171   7.184 -0.0720  0.0222 -0.3614
 8396SOL    HW136824   2.846   1.138   7.205  1.1836 -1.3963  2.6295
 8396SOL    HW236825   2.950   1.153   7.092 -1.6103  1.1991 -0.8691
 8397SOL     OW36826   3.530   2.126   3.712 -0.3110 -0.0601  0.1782
 8397SOL    HW136827   3.580   2.046   3.728  0.9285  0.2868 -1.9097
 8397SOL    HW236828   3.536   2.120   3.616  0.4321 -0.0775  0.2256
 8398SOL     OW36829   0.897   0.504   9.133  0.3868 -0.2727  0.4120
 8398SOL    HW136830   0.864   0.590   9.158  1.1086 -0.3797  1.7808
 8398SOL    HW236831   0.983   0.527   9.099 -1.1594  1.6890 -2.1454
 8399SOL     OW36832   1.905   3.839   6.346  0.0455 -0.4416 -0.0577
 8399SOL    HW136833   1.849   3.763   6.355 -1.4814  0.4705 -1.9645
 8399SOL    HW236834   1.980   3.802   6.300  1.3613  2.1940 -0.0686
 8400SOL     OW36835   4.459   2.567   4.989  0.0427  0.8547 -0.9941
 8400SOL    HW136836   4.456   2.557   5.084 -0.3125  2.4083 -0.8444
 8400SOL    HW236837   4.442   2.660   4.976 -2.4934  0.4846 -0.3456
 8401SOL     OW36838   0.462   4.600   7.882 -0.4053  0.4473  0.5668
 8401SOL    HW136839   0.530   4.666   7.890  2.1566 -2.0501 -0.5212
 8401SOL    HW236840   0.388   4.661   7.877  0.4217  1.5189  1.3346
 8402SOL     OW36841   4.222   2.029   6.128  0.1667  0.1361 -0.1681
 8402SOL    HW136842   4.210   2.017   6.034 -2.5915  2.1878 -0.0499
 8402SOL    HW236843   4.224   2.124   6.133  0.2268  0.0933  0.6670
 8403SOL     OW36844   3.372   0.952   5.098 -0.2161 -0.9600 -0.2086
 8403SOL    HW136845   3.406   0.877   5.050 -0.8982  1.4010 -4.3316
 8403SOL    HW236846   3.346   1.019   5.035  0.6461  0.7264  1.2007
 8404SOL     OW36847   3.943   3.450   1.025  0.6892 -0.3612  0.3230
 8404SOL    HW136848   4.026   3.423   1.064 -0.3296 -3.6217  0.2532
 8404SOL    HW236849   3.876   3.396   1.068  1.3257 -0.4454  1.2037
 8405SOL     OW36850   1.098   1.096   3.764  0.2398  0.3091  0.4285
 8405SOL    HW136851   1.190   1.089   3.738 -0.2462  0.3775 -1.2989
 8405SOL    HW236852   1.069   1.094   3.673  0.7656  0.6023  0.2529
 8406SOL     OW36853   2.990   3.474   5.465 -0.0871  0.3956  0.5530
 8406SOL    HW136854   2.922   3.524   5.420  1.3000  1.5164 -0.2941
 8406SOL    HW236855   3.015   3.543   5.526 -1.2478 -0.7944  2.3811
 8407SOL     OW36856   3.350   0.055   7.940 -0.5675 -0.5982 -0.2884
 8407SOL    HW136857   3.383   0.102   7.863  0.0268 -1.0170 -0.2912
 8407SOL    HW236858   3.275   0.108   7.968  0.1865  0.4210 -0.1953
 8408SOL     OW36859   3.803   1.128   8.690 -0.4597  0.0266 -0.1820
 8408SOL    HW136860   3.822   1.060   8.625 -0.9760 -1.2409  0.9837
 8408SOL    HW236861   3.708   1.127   8.679 -0.5140 -0.7549  0.3417
 8409SOL     OW36862   1.968   3.562   8.232 -0.4043  0.2539 -0.2281
 8409SOL    HW136863   1.978   3.567   8.327  0.2651 -0.6036 -0.2529
 8409SOL    HW236864   1.935   3.475   8.209  1.8583 -0.4920 -0.7034
 8410SOL     OW36865   2.062   4.581   7.294  0.6030 -0.3925  0.0646
 8410SOL    HW136866   2.053   4.636   7.372 -1.1261 -2.1641  1.1179
 8410SOL    HW236867   2.126   4.520   7.330  1.8028  0.9621  0.2263
 8411SOL     OW36868   1.902   4.266   6.821 -0.1253 -0.5708 -0.5805
 8411SOL    HW136869   1.947   4.228   6.896 -1.2481  1.3938  1.0654
 8411SOL    HW236870   1.814   4.273   6.857  0.5646 -0.8854  1.1408
 8412SOL     OW36871   3.702   2.336  11.917 -0.0326 -0.2326  0.1400
 8412SOL    HW136872   3.719   2.390  11.839  1.0610 -0.3693  0.2869
 8412SOL    HW236873   3.658   2.257  11.887 -0.3484  0.6987 -1.9130
 8413SOL     OW36874   1.920   2.518  12.220  0.3596  0.7150 -1.4051
 8413SOL    HW136875   1.833   2.480  12.207 -0.5765  2.1184  0.6506
 8413SOL    HW236876   1.900   2.604  12.257  0.5169 -0.0481  0.4430
 8414SOL     OW36877   2.326   1.180   6.657  0.7229 -0.0684 -0.1653
 8414SOL    HW136878   2.357   1.244   6.592  0.6230 -0.2778 -0.4173
 8414SOL    HW236879   2.364   1.236   6.725  1.1331 -1.2320  0.5660
 8415SOL     OW36880   3.923   0.971   8.477 -0.3318 -0.0690  0.1563
 8415SOL    HW136881   3.963   0.983   8.390 -0.0436  0.2989  0.3383
 8415SOL    HW236882   4.000   0.991   8.530 -1.1620  0.1830  1.2429
 8416SOL     OW36883   1.509   4.700   7.728  0.0992  0.0871  0.4540
 8416SOL    HW136884   1.569   4.713   7.655 -0.0918  0.7367  0.4088
 8416SOL    HW236885   1.461   0.048   7.728  0.0619  0.0452 -2.8725
 8417SOL     OW36886   4.527   0.678   1.308 -0.1737  1.0332 -0.0669
 8417SOL    HW136887   4.523   0.643   1.397  0.3634  0.7628 -0.1491
 8417SOL    HW236888   4.451   0.736   1.297  0.5332  2.2354  1.3060
 8418SOL     OW36889   1.079   1.124   2.880  0.1542  0.6564  0.3674
 8418SOL    HW136890   1.105   1.034   2.862 -0.2465  1.2362 -3.2057
 8418SOL    HW236891   1.041   1.161   2.800 -0.2584  1.5157  0.9624
 8419SOL     OW36892   3.604   4.661   5.746 -0.0671  0.5853  0.1135
 8419SOL    HW136893   3.567   4.653   5.658  3.8931 -1.0361 -1.4280
 8419SOL    HW236894   3.603   0.022   5.750  0.6763  0.7047 -2.0679
 8420SOL     OW36895   0.905   1.594   4.878 -0.3196  0.2256  0.2662
 8420SOL    HW136896   0.943   1.662   4.822 -0.3675  0.0019 -0.0375
 8420SOL    HW236897   0.876   1.534   4.809 -1.1069  1.1770 -0.2283
 8421SOL     OW36898   3.640   1.226   1.643  0.1645  0.3852 -0.4587
 8421SOL    HW136899   3.721   1.209   1.593 -1.1501 -0.3025 -2.3730
 8421SOL    HW236900   3.647   1.319   1.663  0.2237  0.2021  0.3569
 8422SOL     OW36901   2.834   2.891   7.946 -0.3942 -0.5580 -0.5508
 8422SOL    HW136902   2.781   2.891   8.026 -0.3783  0.7236 -0.5313
 8422SOL    HW236903   2.879   2.810   7.970  1.3716  0.9636  1.2919
 8423SOL     OW36904   2.571   3.151   6.652 -0.4221 -0.0267 -0.0385
 8423SOL    HW136905   2.525   3.196   6.722  3.1355  3.3333  0.1545
 8423SOL    HW236906   2.626   3.219   6.613 -1.2816  2.1449  2.5425
 8424SOL     OW36907   3.502   0.579   5.489 -0.7074 -0.3012 -0.3167
 8424SOL    HW136908   3.408   0.561   5.487 -0.8234  0.3204 -0.4407
 8424SOL    HW236909   3.504   0.644   5.559  0.4645 -1.0292  0.3288
 8425SOL     OW36910   3.399   4.608   6.875 -0.5785  0.2189 -0.3293
 8425SOL    HW136911   3.482   4.652   6.890 -0.6616  0.3501 -0.2546
 8425SOL    HW236912   3.427   4.518   6.858 -0.9832 -0.5433  2.9300
 8426SOL     OW36913   1.498   0.418  16.236 -0.3419  0.0288 -0.4106
 8426SOL    HW136914   1.454   0.435  16.153 -0.6980 -1.8327 -0.6080
 8426SOL    HW236915   1.464   0.329  16.248 -1.3645  0.6521  1.3187
 8427SOL     OW36916   2.683   3.685   6.555  0.4324  0.6304 -0.2173
 8427SOL    HW136917   2.774   3.658   6.542 -0.2755 -2.1218  0.3623
 8427SOL    HW236918   2.695   3.737   6.635  0.8020  3.3427 -2.0735
 8428SOL     OW36919   4.559   0.342  12.811  0.0544 -0.4782  0.3747
 8428SOL    HW136920   4.518   0.419  12.773  0.5854 -0.2505  0.2664
 8428SOL    HW236921   4.498   0.280  12.770 -0.3176  1.2527 -1.6456
 8429SOL     OW36922   4.627   3.549   3.636  0.2935 -0.1631  0.5823
 8429SOL    HW136923   4.621   3.475   3.696  1.2663 -0.5246  0.2370
 8429SOL    HW236924   4.621   3.506   3.550 -1.1609  2.3583 -0.5791
 8430SOL     OW36925   0.249   1.854   9.365 -0.0059  0.3057 -0.4908
 8430SOL    HW136926   0.323   1.894   9.320  0.5645 -2.5974 -2.1114
 8430SOL    HW236927   0.204   1.811   9.293 -0.3068  1.4982 -1.0232
 8431SOL     OW36928   3.142   3.779   5.207 -0.3801 -0.2621 -0.1828
 8431SOL    HW136929   3.096   3.814   5.131 -0.3052  2.2034  0.9240
 8431SOL    HW236930   3.065   3.769   5.263  0.6807 -2.5680  0.8793
 8432SOL     OW36931   1.854   1.829   8.167 -0.1887  0.6209 -0.0954
 8432SOL    HW136932   1.904   1.783   8.235 -0.0056  1.2155  0.1674
 8432SOL    HW236933   1.796   1.756   8.143  0.5983 -0.0191 -0.0481
 8433SOL     OW36934   4.093   3.333   5.827 -0.1633 -0.2034 -0.1341
 8433SOL    HW136935   4.187   3.349   5.839 -0.3308  1.0592 -0.5029
 8433SOL    HW236936   4.058   3.404   5.773 -0.0600 -1.6714 -2.1432
 8434SOL     OW36937   3.911   4.510   7.172  0.4912  0.1118 -0.0773
 8434SOL    HW136938   3.997   4.471   7.163 -0.1420 -1.1730 -0.5585
 8434SOL    HW236939   3.870   4.482   7.090 -3.1875  1.1013  1.3739
 8435SOL     OW36940   3.727   0.727   3.502 -0.0189  0.0785  0.0719
 8435SOL    HW136941   3.632   0.736   3.496 -0.1573 -0.8505  0.7626
 8435SOL    HW236942   3.737   0.660   3.570  0.9165  0.4966  0.3548
 8436SOL     OW36943   1.195   1.761   0.629  0.7702 -0.4584 -0.1537
 8436SOL    HW136944   1.281   1.720   0.632  0.1401 -1.8192 -0.2518
 8436SOL    HW236945   1.209   1.854   0.642  2.4635 -0.5702 -1.1781
 8437SOL     OW36946   0.966   3.844   8.912  0.2201  0.2083 -0.1613
 8437SOL    HW136947   1.014   3.761   8.923  2.9026  1.2059 -4.2676
 8437SOL    HW236948   0.923   3.830   8.828  0.8128  1.4793 -0.6701
 8438SOL     OW36949   2.500   1.983   6.329 -0.1487  0.5962  0.2540
 8438SOL    HW136950   2.533   2.018   6.411 -0.2188  2.6122 -0.5611
 8438SOL    HW236951   2.484   2.069   6.288  0.5969 -0.0537 -1.3766
 8439SOL     OW36952   0.535   1.239   4.801 -0.1187  0.0314 -0.0389
 8439SOL    HW136953   0.504   1.329   4.786 -1.5014 -0.4141  0.1229
 8439SOL    HW236954   0.458   1.203   4.845  1.2053 -1.2637  1.1864
 8440SOL     OW36955   1.195   0.456   2.011  0.3656  0.0370  0.2744
 8440SOL    HW136956   1.117   0.511   2.002  1.3192  1.1722 -1.1617
 8440SOL    HW236957   1.166   0.377   1.966 -2.4760  1.2539 -0.0301
 8441SOL     OW36958   4.064   0.648   9.437 -0.6435 -0.2406 -0.2736
 8441SOL    HW136959   4.053   0.593   9.515 -3.0185 -1.3483 -1.3712
 8441SOL    HW236960   4.018   0.600   9.367 -1.5981  0.6200 -0.2281
 8442SOL     OW36961   0.814   3.291   3.323  0.1099 -0.1176  0.3206
 8442SOL    HW136962   0.752   3.359   3.296  1.3392  0.6598 -0.5180
 8442SOL    HW236963   0.821   3.301   3.418 -0.2843  0.1069  0.3283
 8443SOL     OW36964   1.676   0.085  15.880 -0.3787 -0.5049 -0.4938
 8443SOL    HW136965   1.704   0.170  15.846  0.7909 -1.0513 -0.8906
 8443SOL    HW236966   1.745   0.033  15.840 -0.4857 -2.2206  1.5611
 8444SOL     OW36967   4.346   0.710   7.572 -0.2220 -0.5138  0.5538
 8444SOL    HW136968   4.266   0.700   7.624 -1.6770  0.9487 -1.3753
 8444SOL    HW236969   4.306   0.707   7.485  1.7872 -1.7446 -0.3210
 8445SOL     OW36970   0.512   1.182   8.174  0.3147  0.1846 -0.3625
 8445SOL    HW136971   0.551   1.106   8.130 -0.9460  0.2650 -1.6126
 8445SOL    HW236972   0.430   1.146   8.208  1.7069 -1.5107  1.2236
 8446SOL     OW36973   3.456   3.370   5.735 -0.2105  0.1143 -0.5011
 8446SOL    HW136974   3.386   3.335   5.789  0.2402 -3.2606 -2.0349
 8446SOL    HW236975   3.516   3.295   5.740 -0.6130 -0.0634  1.6174
 8447SOL     OW36976   2.680   0.698   2.366 -0.0130 -0.8868  0.4471
 8447SOL    HW136977   2.718   0.691   2.279  0.9539 -2.2608  0.9769
 8447SOL    HW236978   2.688   0.792   2.376 -0.5858 -0.7368 -0.5342
 8448SOL     OW36979   1.490   0.478   0.128 -0.0461  0.4992 -0.6701
 8448SOL    HW136980   1.537   0.469   0.045  1.2144  1.1643 -0.0250
 8448SOL    HW236981   1.467   0.386   0.143  1.8759  0.1804  0.3523
 8449SOL     OW36982   2.948   0.775  13.366  0.3589 -0.6637 -0.3623
 8449SOL    HW136983   2.926   0.855  13.318 -1.2228 -0.2505  1.0561
 8449SOL    HW236984   3.003   0.727  13.304  0.1476  0.1208 -1.1550
 8450SOL     OW36985   2.146   3.733   7.676 -0.2139 -0.2944 -0.0951
 8450SOL    HW136986   2.172   3.701   7.590 -0.0205 -0.6482  0.0946
 8450SOL    HW236987   2.051   3.742   7.669 -0.1634 -1.3444 -2.1374
 8451SOL     OW36988   4.236   2.131   6.764  0.4381 -0.0788 -0.0685
 8451SOL    HW136989   4.315   2.077   6.760  1.0943  1.0150 -1.6987
 8451SOL    HW236990   4.240   2.177   6.681 -2.1485  1.9468  0.9223
 8452SOL     OW36991   3.182   3.630   7.665  0.1640 -0.3582  0.1007
 8452SOL    HW136992   3.208   3.713   7.624 -0.8672  0.0086  0.1778
 8452SOL    HW236993   3.177   3.656   7.757 -1.4217 -0.2450 -0.0284
 8453SOL     OW36994   3.911   1.301   5.714  0.0894  0.1142 -0.3172
 8453SOL    HW136995   3.852   1.235   5.678  1.1166  0.7097 -3.0380
 8453SOL    HW236996   3.949   1.325   5.629  0.6307  1.9599  0.4333
 8454SOL     OW36997   2.086   2.576   0.470 -0.2259 -0.9909  0.3406
 8454SOL    HW136998   2.074   2.610   0.382 -0.4713 -0.5033  0.5611
 8454SOL    HW236999   2.090   2.660   0.516  0.7516 -1.2423  0.7120
 8455SOL     OW37000   1.746   2.150   6.789 -0.1356 -0.0961 -0.2051
 8455SOL    HW137001   1.788   2.203   6.856  0.9864 -0.9732 -0.2148
 8455SOL    HW237002   1.720   2.222   6.732  0.1079 -0.1575 -0.3935
 8456SOL     OW37003   0.039   4.427  12.580 -0.0822  0.9945 -0.5242
 8456SOL    HW137004   0.052   4.370  12.503  2.6580  1.8023 -0.6307
 8456SOL    HW237005   0.130   4.448  12.597 -0.2288 -0.8469  2.5505
 8457SOL     OW37006   2.446   2.386   8.387 -0.3626  0.0705 -0.0775
 8457SOL    HW137007   2.498   2.312   8.355 -0.4247 -0.9492  2.2237
 8457SOL    HW237008   2.363   2.342   8.406 -0.4636 -0.2406 -1.1795
 8458SOL     OW37009   2.324   1.220   0.859  0.5595  0.2747  0.0977
 8458SOL    HW137010   2.304   1.284   0.791 -2.5247  0.4826  1.1628
 8458SOL    HW237011   2.243   1.173   0.883  0.5568 -1.2755 -3.0213
 8459SOL     OW37012   2.434   1.109  10.329 -0.4175  0.3166  0.3162
 8459SOL    HW137013   2.429   1.037  10.266  2.3239  0.7945 -0.4092
 8459SOL    HW237014   2.485   1.066  10.397 -2.2191  0.9352  2.0826
 8460SOL     OW37015   1.315   0.055   3.537  0.3364 -0.6568  0.2456
 8460SOL    HW137016   1.350   0.067   3.625  1.2214  1.3436 -0.4023
 8460SOL    HW237017   1.276   0.138   3.512  1.6567 -0.3639 -0.8291
 8461SOL     OW37018   4.086   0.898   5.818  0.3821 -0.0664 -0.2611
 8461SOL    HW137019   4.139   0.977   5.823 -0.1155  0.2475  0.0033
 8461SOL    HW237020   4.079   0.882   5.723 -2.1751 -0.8556  0.0540
 8462SOL     OW37021   3.741   2.387   2.672  0.2894 -0.0397  0.1625
 8462SOL    HW137022   3.837   2.394   2.671  0.2623  0.2696 -0.3687
 8462SOL    HW237023   3.731   2.301   2.632  1.7856 -0.7655  1.3562
 8463SOL     OW37024   1.020   0.831   4.476  0.2649 -0.3940 -0.0013
 8463SOL    HW137025   1.019   0.927   4.465  0.6083 -0.2903  0.8495
 8463SOL    HW237026   1.073   0.818   4.554  2.3846  1.6921 -1.0965
 8464SOL     OW37027   2.487   4.354   5.048  0.2690  0.4109 -0.1113
 8464SOL    HW137028   2.472   4.437   5.093  0.4309  1.3126 -1.6971
 8464SOL    HW237029   2.568   4.378   5.002  0.3977 -0.8393 -0.5400
 8465SOL     OW37030   3.074   0.620   4.206 -0.0310  0.2348  0.6533
 8465SOL    HW137031   3.010   0.683   4.240 -0.2203  0.1849  0.3823
 8465SOL    HW237032   3.133   0.678   4.158 -0.3012 -0.2560 -0.2691
 8466SOL     OW37033   1.521   3.719   7.895  0.1208 -0.3383 -0.9502
 8466SOL    HW137034   1.437   3.766   7.899  0.5045  0.3303 -0.6584
 8466SOL    HW237035   1.583   3.792   7.902 -1.4389  1.0829 -1.7841
 8467SOL     OW37036   2.509   3.472   4.302 -0.6626 -0.0799 -0.3428
 8467SOL    HW137037   2.595   3.511   4.316 -0.7165  0.1314 -0.6102
 8467SOL    HW237038   2.461   3.477   4.385  3.1176 -0.3889  1.8300
 8468SOL     OW37039   1.287   3.454   6.904  0.1823 -0.5964 -0.0263
 8468SOL    HW137040   1.339   3.426   6.830  0.4617  1.6984 -0.6997
 8468SOL    HW237041   1.317   3.543   6.920 -1.5873 -0.3748  2.2044
 8469SOL     OW37042   0.328   0.123  14.690 -0.1307  0.9932  0.3094
 8469SOL    HW137043   0.319   0.033  14.660  0.6083  1.4010 -1.1571
 8469SOL    HW237044   0.289   0.135  14.776  0.3382  1.4001  0.4674
 8470SOL     OW37045   1.070   3.874   4.619  0.3003  0.3321 -0.5759
 8470SOL    HW137046   1.003   3.936   4.591 -0.0087  0.0668 -0.4264
 8470SOL    HW237047   1.151   3.919   4.596 -1.0558  1.4866 -3.0943
 8471SOL     OW37048   3.448   1.689   7.500 -0.3208 -0.5256  0.2115
 8471SOL    HW137049   3.484   1.650   7.420 -1.0016  1.5033 -1.0915
 8471SOL    HW237050   3.511   1.661   7.566  0.1690  1.3803  0.5419
 8472SOL     OW37051   3.801   0.442   7.099 -0.0434 -0.5303 -0.3500
 8472SOL    HW137052   3.895   0.450   7.088  0.3671  0.4724  4.0219
 8472SOL    HW237053   3.796   0.390   7.179  2.5775  1.0961  0.8496
 8473SOL     OW37054   2.694   1.751   6.711 -0.4390  0.8113  0.6105
 8473SOL    HW137055   2.602   1.738   6.735 -0.1505  0.4124  1.5157
 8473SOL    HW237056   2.702   1.708   6.626 -2.0008  0.2453  0.7622
 8474SOL     OW37057   4.277   0.472   8.020  0.6728  0.3113  0.2546
 8474SOL    HW137058   4.325   0.418   7.957  0.5238  1.0638 -0.4976
 8474SOL    HW237059   4.251   0.543   7.961 -0.2296 -1.4938 -1.5646
 8475SOL     OW37060   2.661   3.428  12.655 -0.0508  0.1949  0.3676
 8475SOL    HW137061   2.726   3.437  12.585 -0.8784  1.7055 -0.2056
 8475SOL    HW237062   2.579   3.432  12.606  0.6600  1.9914 -0.6763
 8476SOL     OW37063   4.344   1.450   1.680  0.0066 -0.2496  0.4524
 8476SOL    HW137064   4.269   1.447   1.621  0.1662  1.7020  0.1260
 8476SOL    HW237065   4.369   1.358   1.673 -2.4489 -0.7762 -1.7268
 8477SOL     OW37066   3.665   4.614  11.376 -0.0047 -0.1206  1.3711
 8477SOL    HW137067   3.653   4.698  11.332  2.2497 -1.2536 -1.3725
 8477SOL    HW237068   3.605   4.625  11.451 -0.9000 -0.1277  0.6562
 8478SOL     OW37069   3.356   4.358  13.557 -0.2478 -0.2559  0.4919
 8478SOL    HW137070   3.424   4.379  13.621 -1.7698  1.7859  1.4329
 8478SOL    HW237071   3.295   4.304  13.607 -0.3293  0.3681  1.0643
 8479SOL     OW37072   2.252   4.200   7.316  0.2896 -0.1791 -0.0971
 8479SOL    HW137073   2.329   4.166   7.362 -2.1496 -1.4959  3.0588
 8479SOL    HW237074   2.199   4.123   7.296 -2.0714  1.5375 -0.5218
 8480SOL     OW37075   3.878   0.893   7.713  0.5496  0.4596 -0.0240
 8480SOL    HW137076   3.869   0.801   7.738 -0.9254  0.0460 -2.1370
 8480SOL    HW237077   3.786   0.912   7.727 -0.1498 -2.1190 -1.0837
 8481SOL     OW37078   0.552   2.714   1.922  0.6220  0.4112  0.7925
 8481SOL    HW137079   0.539   2.724   2.017 -0.3288  0.5734  0.6459
 8481SOL    HW237080   0.464   2.700   1.888  1.3025  1.1361 -1.2397
 8482SOL     OW37081   4.419   1.169  16.125  0.0580 -0.5200  0.1096
 8482SOL    HW137082   4.403   1.263  16.126 -1.5106 -0.7705 -0.9518
 8482SOL    HW237083   4.514   1.180  16.127 -0.0624  0.4833  0.3584
 8483SOL     OW37084   2.549   1.138   5.591  0.1428 -0.0603 -0.5734
 8483SOL    HW137085   2.622   1.078   5.605  0.9460  0.9198 -0.5533
 8483SOL    HW237086   2.470   1.106   5.635  0.7529 -1.6350 -0.6613
 8484SOL     OW37087   4.727   4.023   3.493 -0.8528 -0.4078  0.2978
 8484SOL    HW137088   0.029   4.010   3.406 -0.2844 -0.7150  0.5897
 8484SOL    HW237089   4.693   4.112   3.485 -0.0465 -0.0844  0.4796
 8485SOL     OW37090   2.701   2.196  11.338  0.3033 -0.2311 -0.0513
 8485SOL    HW137091   2.751   2.204  11.257 -1.8466 -0.9790 -1.4811
 8485SOL    HW237092   2.770   2.173  11.400  1.5535 -0.4284 -1.5350
 8486SOL     OW37093   0.584   0.361   1.969  0.2191  0.0564 -0.1826
 8486SOL    HW137094   0.599   0.288   2.030  0.8001  1.9040  1.8759
 8486SOL    HW237095   0.489   0.369   1.967  0.0790 -1.0528  1.7370
 8487SOL     OW37096   4.339   1.753  11.686  0.6374 -0.5548 -0.2356
 8487SOL    HW137097   4.253   1.713  11.682  0.7698 -0.6350 -2.5453
 8487SOL    HW237098   4.325   1.839  11.726  1.2310  0.0539 -1.3273
 8488SOL     OW37099   3.849   4.011   5.366 -0.3980 -0.1662 -0.4790
 8488SOL    HW137100   3.801   3.930   5.348 -0.7923 -0.0366 -0.0204
 8488SOL    HW237101   3.839   4.007   5.461  2.1618  1.9814 -0.1417
 8489SOL     OW37102   2.648   3.665   7.219 -0.6609  0.8525 -0.1653
 8489SOL    HW137103   2.680   3.639   7.132 -0.5217 -2.4055  0.8679
 8489SOL    HW237104   2.687   3.596   7.273  1.1540  1.3520 -0.8488
 8490SOL     OW37105   2.804   3.603   8.776  0.1241  0.3805 -0.3242
 8490SOL    HW137106   2.727   3.658   8.761 -0.4061  0.2134  1.7635
 8490SOL    HW237107   2.848   3.655   8.844 -3.4597  1.0172  1.5019
 8491SOL     OW37108   0.489   0.143   2.416 -0.0108 -0.3342  0.0521
 8491SOL    HW137109   0.416   0.110   2.469  0.7180  0.7085  1.6977
 8491SOL    HW237110   0.443   0.183   2.342 -0.1543 -0.1535  0.2379
 8492SOL     OW37111   1.372   1.574  17.608  0.3345  0.5686  0.0872
 8492SOL    HW137112   1.319   1.520  17.549  1.0100 -0.3153  0.2822
 8492SOL    HW237113   1.433   1.502  17.627  1.0180  1.0962 -0.1189
 8493SOL     OW37114   4.475   2.533   5.256 -0.0501  0.2780  0.3186
 8493SOL    HW137115   4.504   2.575   5.336  0.6335 -0.7503  0.5985
 8493SOL    HW237116   4.538   2.462   5.266  1.4119  1.4092 -0.8557
 8494SOL     OW37117   0.077   1.208   6.909 -0.1611  0.0161 -0.0536
 8494SOL    HW137118   0.037   1.255   6.835 -0.5343  1.4272  1.0509
 8494SOL    HW237119   0.168   1.201   6.879 -0.4301 -0.7675 -0.7013
 8495SOL     OW37120   3.712   4.564  14.843  0.2194 -0.1193  0.0512
 8495SOL    HW137121   3.667   4.613  14.775 -1.1291  0.5224  1.4213
 8495SOL    HW237122   3.801   4.566  14.808  0.6324 -1.0549  1.0585
 8496SOL     OW37123   2.778   1.153   2.968 -0.0803 -0.0012  0.1398
 8496SOL    HW137124   2.733   1.220   2.917 -0.8616 -0.9852 -0.4610
 8496SOL    HW237125   2.702   1.100   2.993 -1.6720  1.7347 -1.0270
 8497SOL     OW37126   2.205   4.079   3.009 -0.0040 -0.4029  0.1514
 8497SOL    HW137127   2.226   4.169   2.985  0.9150 -0.2180  1.7066
 8497SOL    HW237128   2.283   4.041   3.047  1.4182  0.1373 -2.2170
 8498SOL     OW37129   3.083   0.697   6.777 -0.0357  0.4202  0.2822
 8498SOL    HW137130   3.054   0.699   6.685  1.6934 -0.6937 -0.2831
 8498SOL    HW237131   3.053   0.610   6.803 -0.4533 -0.3745 -2.7569
 8499SOL     OW37132   0.142   0.535   2.028  0.0635 -0.2592  0.3587
 8499SOL    HW137133   0.131   0.526   1.933  0.2026  1.1673  0.2147
 8499SOL    HW237134   0.199   0.458   2.033 -1.3776 -1.2923  0.9812
 8500SOL     OW37135   3.440   4.146   7.956  0.9899 -0.4285  0.9094
 8500SOL    HW137136   3.523   4.190   7.972  0.4840  0.3352  1.3731
 8500SOL    HW237137   3.458   4.055   7.979 -1.0430 -1.0721  0.0359
 8501SOL     OW37138   2.779   3.098  13.727  0.0856  0.1028 -0.6744
 8501SOL    HW137139   2.771   3.159  13.800  1.6289  0.8428 -1.1282
 8501SOL    HW237140   2.873   3.092  13.710  0.5978 -1.4706  2.8580
 8502SOL     OW37141   3.135   1.036   1.762  0.3693  0.1993  0.1843
 8502SOL    HW137142   3.078   0.980   1.710  0.1645  0.5652  0.0135
 8502SOL    HW237143   3.086   1.052   1.842 -0.8165 -0.7204 -0.3488
 8503SOL     OW37144   3.011   0.397  16.575  0.0907 -0.1386 -0.0451
 8503SOL    HW137145   3.012   0.492  16.565  3.1087 -0.3909 -2.1374
 8503SOL    HW237146   2.917   0.380  16.574 -0.1352  1.0315  0.8485
 8504SOL     OW37147   1.816   2.540  13.064 -0.6045  0.4716  0.0342
 8504SOL    HW137148   1.765   2.468  13.103 -0.2902 -0.8544 -2.0250
 8504SOL    HW237149   1.826   2.511  12.974  1.8130  0.2330  0.3953
 8505SOL     OW37150   4.087   2.282   8.573 -0.5062 -0.0879 -0.0438
 8505SOL    HW137151   4.083   2.196   8.614  0.1864 -0.0933  0.0176
 8505SOL    HW237152   4.112   2.338   8.646 -0.6611 -0.7668  0.5300
 8506SOL     OW37153   3.117   2.643   6.365  0.2773 -0.2266 -0.3156
 8506SOL    HW137154   3.162   2.609   6.443 -0.4761  1.1915  0.7243
 8506SOL    HW237155   3.027   2.638   6.397  0.0534  2.1490 -0.6222
 8507SOL     OW37156   0.555   1.327  14.209  0.1114  0.3245  0.1181
 8507SOL    HW137157   0.519   1.299  14.293 -1.0399  0.4199 -0.3361
 8507SOL    HW237158   0.512   1.412  14.198  0.3804  0.1359 -2.2974
 8508SOL     OW37159   2.910   1.305  16.650 -0.2869  1.2742  0.0873
 8508SOL    HW137160   2.856   1.263  16.583 -0.8925  0.6596  0.9652
 8508SOL    HW237161   2.927   1.222  16.696 -0.5328  0.5282 -1.1720
 8509SOL     OW37162   3.704   1.863  10.403  0.3219 -0.0610  0.2729
 8509SOL    HW137163   3.676   1.818  10.482  2.0285 -0.8330  0.4204
 8509SOL    HW237164   3.677   1.950  10.432  0.0174 -0.4330  1.0947
 8510SOL     OW37165   2.722   4.503  16.957 -0.2872  0.3153  0.2669
 8510SOL    HW137166   2.651   4.564  16.978 -0.2924  0.0115  1.1167
 8510SOL    HW237167   2.703   4.497  16.863  0.3194  0.1055  0.1557
 8511SOL     OW37168   3.227   3.207   7.213  0.2769  0.2977 -0.4197
 8511SOL    HW137169   3.260   3.242   7.296  0.7585 -0.4897 -0.2772
 8511SOL    HW237170   3.143   3.171   7.243 -0.7251  1.1996 -2.1572
 8512SOL     OW37171   0.110   2.345   8.649 -0.2107  0.3336 -0.5194
 8512SOL    HW137172   0.026   2.358   8.694 -0.3168 -0.2684 -0.5484
 8512SOL    HW237173   0.099   2.360   8.556 -1.4831 -1.0580 -0.5952
 8513SOL     OW37174   0.167   2.181  15.355  0.2981  0.2437 -0.2148
 8513SOL    HW137175   0.124   2.102  15.390  0.0859  0.5828  0.2949
 8513SOL    HW237176   0.156   2.177  15.260  2.7721  1.0301 -0.5352
 8514SOL     OW37177   1.238   3.746   6.493 -0.2187  0.0157  0.4500
 8514SOL    HW137178   1.168   3.684   6.515 -0.1875 -0.6913 -1.3871
 8514SOL    HW237179   1.282   3.701   6.421 -1.2438 -1.1009  0.5135
 8515SOL     OW37180   3.802   0.612   5.669 -0.1306 -0.0272  0.0665
 8515SOL    HW137181   3.777   0.704   5.676  2.0593  0.6172 -0.3872
 8515SOL    HW237182   3.749   0.578   5.741 -1.2436 -1.2833 -1.3547
 8516SOL     OW37183   0.030   2.697   2.621 -0.2791  0.0683 -0.0530
 8516SOL    HW137184   0.065   2.646   2.695 -0.4009  0.4330  0.2562
 8516SOL    HW237185   0.051   2.784   2.655 -0.2287 -0.4402  1.2114
 8517SOL     OW37186   1.503   1.613  15.484  0.3148  0.0188 -0.3244
 8517SOL    HW137187   1.485   1.574  15.399  1.0963  0.9234 -0.9065
 8517SOL    HW237188   1.595   1.630  15.463  0.4733 -2.3045 -1.4815
 8518SOL     OW37189   0.688   3.637   8.588 -0.2494  0.1792  0.6308
 8518SOL    HW137190   0.631   3.566   8.617  0.7694 -0.7370  0.3702
 8518SOL    HW237191   0.716   3.612   8.500  1.0025 -0.0760  1.1058
 8519SOL     OW37192   3.751   4.278   1.150 -0.2925 -0.1667  0.3723
 8519SOL    HW137193   3.733   4.240   1.064 -2.6356 -1.2043  1.2992
 8519SOL    HW237194   3.691   4.352   1.141  1.5480  1.2084 -0.5652
 8520SOL     OW37195   4.172   0.316   3.999  0.2580  0.5904  0.0161
 8520SOL    HW137196   4.165   0.327   3.904 -0.7106  0.4700  0.0788
 8520SOL    HW237197   4.225   0.236   4.006  0.2980  0.6090 -0.0704
 8521SOL     OW37198   0.960   2.909   4.887 -0.1662  0.1565  0.1210
 8521SOL    HW137199   0.998   2.886   4.971 -0.4509 -0.7383  0.0007
 8521SOL    HW237200   1.025   2.960   4.839 -1.4482  1.5921 -0.1154
 8522SOL     OW37201   4.246   2.461   8.695  0.0470 -0.4517  0.4106
 8522SOL    HW137202   4.299   2.445   8.618 -1.4978 -1.4910 -0.4411
 8522SOL    HW237203   4.195   2.536   8.663  1.4335  0.3705  0.1377
 8523SOL     OW37204   2.852   2.199   6.623 -0.0974  0.0435 -0.4369
 8523SOL    HW137205   2.845   2.104   6.621  0.4122  0.0126 -0.7139
 8523SOL    HW237206   2.876   2.212   6.715  0.7550 -0.1186 -0.6445
 8524SOL     OW37207   3.804   2.521   7.330 -0.4802 -0.3473 -0.4122
 8524SOL    HW137208   3.872   2.551   7.269 -1.2010  1.7578 -0.1667
 8524SOL    HW237209   3.794   2.427   7.318 -1.9106 -0.6152  2.7112
 8525SOL     OW37210   2.181   0.319   8.293 -0.0489 -0.4999 -0.2618
 8525SOL    HW137211   2.165   0.320   8.387  0.7645  0.1735 -0.1371
 8525SOL    HW237212   2.094   0.341   8.258  0.0466  0.7624  0.3210
 8526SOL     OW37213   4.397   3.838   8.502 -0.5625 -0.0848  0.2269
 8526SOL    HW137214   4.389   3.771   8.434  1.5242 -1.3269  1.2130
 8526SOL    HW237215   4.407   3.792   8.586  2.4458  2.1775  1.1380
 8527SOL     OW37216   2.220   1.650   3.840  0.2002 -0.3100 -0.4532
 8527SOL    HW137217   2.136   1.685   3.867  1.1178  0.8263  0.9468
 8527SOL    HW237218   2.265   1.725   3.802  0.2150  0.2816  0.7295
 8528SOL     OW37219   3.359   3.861   5.969  0.1446  0.0448  0.0373
 8528SOL    HW137220   3.431   3.919   5.943  1.1923 -1.0486  0.4891
 8528SOL    HW237221   3.404   3.802   6.029  1.3042 -1.5374 -2.3911
 8529SOL     OW37222   4.561   3.842   8.061  0.0049 -0.0432 -0.1460
 8529SOL    HW137223   4.507   3.890   8.124  2.4715  0.9605  1.1923
 8529SOL    HW237224   4.636   3.833   8.120 -0.9612 -1.2731  0.9038
 8530SOL     OW37225   3.810   1.148   7.371  0.6291  0.0156 -0.5095
 8530SOL    HW137226   3.856   1.194   7.442  0.7814 -0.6840 -0.1527
 8530SOL    HW237227   3.787   1.219   7.311  3.1213 -1.3659 -3.0828
 8531SOL     OW37228   1.843   4.368   5.563  0.1822  0.1725  0.1509
 8531SOL    HW137229   1.835   4.282   5.603 -2.8057 -0.2614 -1.3533
 8531SOL    HW237230   1.780   4.414   5.618  0.2945  0.4334  0.0630
 8532SOL     OW37231   2.730   4.201  10.444  0.0196 -0.1701  0.3134
 8532SOL    HW137232   2.758   4.116  10.478 -0.7711 -0.4686  0.2428
 8532SOL    HW237233   2.640   4.205  10.476  0.7291  2.1418  1.9550
 8533SOL     OW37234   0.294   0.171   5.863 -0.1894  0.4538  0.4840
 8533SOL    HW137235   0.288   0.078   5.881 -1.8411  0.5554  0.4554
 8533SOL    HW237236   0.205   0.192   5.889 -0.7868 -2.3879  0.6670
 8534SOL     OW37237   2.825   4.300   0.836 -0.2017 -0.1343  0.2077
 8534SOL    HW137238   2.869   4.381   0.861 -1.2257 -0.2247  2.2560
 8534SOL    HW237239   2.857   4.240   0.903 -2.6037  1.7145  3.0091
 8535SOL     OW37240   4.557   2.940  13.526  0.0439  0.1632  0.0729
 8535SOL    HW137241   4.491   3.008  13.536  1.5806  1.9248 -1.7924
 8535SOL    HW237242   4.534   2.896  13.444  0.8025 -0.4047  0.1559
 8536SOL     OW37243   3.244   0.126  14.469 -0.1741  0.5475 -0.4211
 8536SOL    HW137244   3.247   0.168  14.383  0.5444 -0.1963 -0.7632
 8536SOL    HW237245   3.333   0.089  14.465  0.5699  2.4647 -1.6769
 8537SOL     OW37246   0.192   4.133  10.080  0.3922 -0.1387  0.2458
 8537SOL    HW137247   0.098   4.118  10.093  0.0480  1.0201 -0.8131
 8537SOL    HW237248   0.223   4.131  10.170 -0.1982 -0.3799  0.4468
 8538SOL     OW37249   2.659   4.425   9.096 -0.4844 -0.0732 -0.3430
 8538SOL    HW137250   2.737   4.385   9.059  0.1921 -1.6771  2.8107
 8538SOL    HW237251   2.613   4.350   9.133  0.9329 -0.6648  0.2163
 8539SOL     OW37252   1.741   3.972   7.964  0.0169 -0.2908 -0.1683
 8539SOL    HW137253   1.832   3.999   7.952  1.1250 -3.1342  1.6929
 8539SOL    HW237254   1.762   3.898   8.021 -0.4995  0.5740  1.1330
 8540SOL     OW37255   3.308   1.466  15.208  0.0899  0.7379  0.0053
 8540SOL    HW137256   3.259   1.503  15.282 -0.3830 -0.7657  0.4375
 8540SOL    HW237257   3.266   1.380  15.205  0.2000  0.7944 -2.9693
 8541SOL     OW37258   2.877   0.647   7.173  0.3792 -0.2919  0.3653
 8541SOL    HW137259   2.800   0.703   7.160  0.9395  0.7783  1.7606
 8541SOL    HW237260   2.951   0.703   7.196  0.1762  0.4780 -0.8164
 8542SOL     OW37261   0.771   2.311   7.081 -0.3792 -0.2500  0.0188
 8542SOL    HW137262   0.805   2.223   7.063 -0.0377 -0.1886  0.3595
 8542SOL    HW237263   0.732   2.290   7.166  0.5570 -0.5192  0.3828
 8543SOL     OW37264   1.975   2.584   9.666  0.1212 -0.4618 -0.9444
 8543SOL    HW137265   1.949   2.628   9.748 -1.8499 -1.6499 -0.9255
 8543SOL    HW237266   2.036   2.521   9.705 -0.4796  0.4675  1.5025
 8544SOL     OW37267   4.181   3.910  15.163 -0.0392 -0.2760 -0.7564
 8544SOL    HW137268   4.227   3.988  15.133 -0.6387  1.2299  2.2110
 8544SOL    HW237269   4.246   3.841  15.155  1.6410  0.9919  1.6650
 8545SOL     OW37270   1.479   1.653   8.415  0.1140  0.0623 -0.2344
 8545SOL    HW137271   1.565   1.672   8.453 -0.8715  0.5674  1.7033
 8545SOL    HW237272   1.467   1.737   8.370 -1.0724  0.1602  0.2644
 8546SOL     OW37273   2.741   3.707   6.106 -0.2168  0.2522 -0.7206
 8546SOL    HW137274   2.830   3.740   6.109  1.0143 -2.9471 -2.0559
 8546SOL    HW237275   2.713   3.710   6.014  0.6829 -1.2159 -1.0327
 8547SOL     OW37276   0.854   4.625   4.029 -0.3027 -0.6098  0.3754
 8547SOL    HW137277   0.849   4.718   4.004  1.7170 -0.2939  1.1072
 8547SOL    HW237278   0.768   4.598   3.997 -0.6931 -0.0298  0.9385
 8548SOL     OW37279   2.340   1.056   3.254 -0.2480 -0.1817 -0.3565
 8548SOL    HW137280   2.331   0.972   3.210  1.5960 -0.4020 -0.3179
 8548SOL    HW237281   2.313   1.126   3.194 -0.0965 -1.5814 -2.0490
 8549SOL     OW37282   2.388   2.751   8.243 -0.3112  0.0060  0.0872
 8549SOL    HW137283   2.317   2.690   8.227 -1.9298  1.9022 -0.0325
 8549SOL    HW237284   2.431   2.716   8.321 -0.1353 -0.5900 -0.2771
 8550SOL     OW37285   2.476   4.705   7.707  0.2188  0.3009 -0.4406
 8550SOL    HW137286   2.517   4.633   7.754  1.4061  1.9032  0.9746
 8550SOL    HW237287   2.443   4.669   7.624 -0.7176 -0.7937  0.3967
 8551SOL     OW37288   0.645   2.585   3.545  0.1499 -0.1947  0.2873
 8551SOL    HW137289   0.613   2.540   3.467  2.0927 -2.3743  0.7568
 8551SOL    HW237290   0.610   2.524   3.611  2.4864 -0.5816  1.1848
 8552SOL     OW37291   1.552   0.781   8.448  0.3707  0.2367 -0.1609
 8552SOL    HW137292   1.476   0.837   8.430 -0.2855 -0.4337  0.5155
 8552SOL    HW237293   1.526   0.756   8.537  1.7720 -1.2598 -0.1923
 8553SOL     OW37294   1.866   1.135   8.568  0.9994 -0.1664  0.9708
 8553SOL    HW137295   1.948   1.142   8.618  0.8561  1.5347  0.9496
 8553SOL    HW237296   1.899   1.095   8.487 -0.5367  0.9016 -0.1771
 8554SOL     OW37297   0.877   2.329   7.919 -0.1619 -0.0618  0.0463
 8554SOL    HW137298   0.816   2.326   7.993  0.6229  0.6904  0.7302
 8554SOL    HW237299   0.906   2.420   7.916 -1.2645  0.2632 -0.7036
 8555SOL     OW37300   2.421   2.399   3.517 -0.2689 -0.2645  0.5265
 8555SOL    HW137301   2.415   2.463   3.446  1.5742 -1.2910 -0.5556
 8555SOL    HW237302   2.511   2.370   3.505  0.1870  0.5137  2.1292
 8556SOL     OW37303   3.201   1.722   3.723 -0.5100 -0.4623 -1.1322
 8556SOL    HW137304   3.113   1.748   3.751 -0.8652 -0.2030 -2.4813
 8556SOL    HW237305   3.227   1.810   3.695 -0.1547  0.2008  1.2569
 8557SOL     OW37306   2.961   3.114   8.769 -0.1286  0.1049 -0.1835
 8557SOL    HW137307   2.895   3.183   8.766 -0.1364  0.1594  1.1116
 8557SOL    HW237308   2.959   3.098   8.675  1.9622  0.3556 -0.2744
 8558SOL     OW37309   0.575   4.114   7.421 -0.3009  0.5051  0.1398
 8558SOL    HW137310   0.496   4.168   7.421 -1.7115 -1.5583  2.2132
 8558SOL    HW237311   0.642   4.182   7.432 -0.7368  1.0701 -0.7003
 8559SOL     OW37312   0.418   2.081  11.342  0.4016 -0.3973 -0.5933
 8559SOL    HW137313   0.484   2.019  11.313 -0.7804 -0.6861 -2.6782
 8559SOL    HW237314   0.458   2.111  11.423 -1.6261  2.1228 -0.4945
 8560SOL     OW37315   2.300   3.549  14.808 -0.0360 -0.1859  0.1589
 8560SOL    HW137316   2.264   3.460  14.809 -0.3345 -0.0754 -3.2313
 8560SOL    HW237317   2.357   3.542  14.885 -0.4129 -1.6606  0.3238
 8561SOL     OW37318   1.347   4.204   9.297 -0.0475 -0.0864 -0.2368
 8561SOL    HW137319   1.397   4.147   9.239 -1.2406 -0.5071 -0.8496
 8561SOL    HW237320   1.267   4.170   9.259 -1.2527  0.7950  1.5018
 8562SOL     OW37321   3.528   4.479  13.252 -0.9472  0.2442  0.4831
 8562SOL    HW137322   3.451   4.424  13.262 -1.4018  0.7282 -0.3985
 8562SOL    HW237323   3.554   4.462  13.161  1.1436  1.1177  0.9085
 8563SOL     OW37324   3.779   3.051   3.131  0.4175  0.0043 -0.7005
 8563SOL    HW137325   3.794   3.100   3.212 -2.7386  0.7612 -0.5735
 8563SOL    HW237326   3.720   3.114   3.090  0.5576 -0.8491 -2.2181
 8564SOL     OW37327   0.826   0.796  11.436  0.3178 -0.8202 -0.6788
 8564SOL    HW137328   0.913   0.836  11.442 -0.8350  1.1764  2.5002
 8564SOL    HW237329   0.775   0.863  11.391  1.5753  2.3532  2.5929
 8565SOL     OW37330   2.072   4.620  12.257  0.2418  0.3945  0.2373
 8565SOL    HW137331   2.122   4.632  12.177  0.3338  1.0521  0.3954
 8565SOL    HW237332   1.988   4.596  12.217  1.4123  0.3826 -2.1751
 8566SOL     OW37333   2.530   4.447  14.433  0.3817 -0.0432 -0.1042
 8566SOL    HW137334   2.562   4.533  14.405 -2.6170  0.9410 -0.5179
 8566SOL    HW237335   2.573   4.390  14.370  0.3292 -2.3357  1.9404
 8567SOL     OW37336   2.125   0.189   1.676  0.9932 -0.0340 -0.1167
 8567SOL    HW137337   2.103   0.271   1.719 -1.6811 -0.6999 -0.1963
 8567SOL    HW237338   2.196   0.227   1.625  0.9395  1.1132  0.6572
 8568SOL     OW37339   0.874   2.976   9.667 -0.2937  0.0811  0.0696
 8568SOL    HW137340   0.843   2.971   9.758 -0.1384 -1.7585  0.0343
 8568SOL    HW237341   0.940   3.043   9.684  0.5442 -1.0096  1.1433
 8569SOL     OW37342   0.309   2.885  11.848 -0.1587 -0.2155  0.0159
 8569SOL    HW137343   0.214   2.878  11.849 -0.1834 -0.2439 -2.4536
 8569SOL    HW237344   0.334   2.881  11.940 -1.0652 -0.9314  0.2320
 8570SOL     OW37345   4.005   3.565   6.558 -0.0185 -0.2138  0.3540
 8570SOL    HW137346   3.911   3.584   6.553  0.8568  4.9208  3.3603
 8570SOL    HW237347   4.051   3.645   6.583  1.1756 -0.8245  0.1245
 8571SOL     OW37348   3.155   3.822   2.333  0.4175  0.8362  0.5549
 8571SOL    HW137349   3.072   3.867   2.321  0.7322  1.2733  0.0572
 8571SOL    HW237350   3.133   3.762   2.405  2.4114  0.2977  0.7166
 8572SOL     OW37351   4.081   0.408  14.571  0.5151 -0.2182 -0.0804
 8572SOL    HW137352   4.069   0.326  14.620  2.6609 -0.6856 -0.3336
 8572SOL    HW237353   4.128   0.462  14.635  0.1245  0.7811 -0.6585
 8573SOL     OW37354   1.143   2.659   8.148 -0.0074  0.3182 -0.6529
 8573SOL    HW137355   1.142   2.743   8.194  1.7155 -0.7844  1.3678
 8573SOL    HW237356   1.205   2.612   8.204  0.1509 -1.5777 -2.4201
 8574SOL     OW37357   2.777   3.518   2.177  0.1062  0.5994  0.6547
 8574SOL    HW137358   2.723   3.597   2.178  1.3489  1.4621  0.5345
 8574SOL    HW237359   2.739   3.466   2.248 -0.0664 -0.0932  0.0556
 8575SOL     OW37360   1.486   0.546   2.800 -0.0381  0.5792 -0.4433
 8575SOL    HW137361   1.534   0.464   2.786 -1.8984 -0.6397  0.2540
 8575SOL    HW237362   1.449   0.571   2.715  1.3161  0.1612 -1.1544
 8576SOL     OW37363   4.039   4.434  15.735 -0.3495  0.3942  0.0840
 8576SOL    HW137364   3.977   4.478  15.677 -1.3933 -1.9719 -0.5953
 8576SOL    HW237365   4.055   4.346  15.702  1.2631  0.3759  0.9200
 8577SOL     OW37366   4.609   1.267  16.698  0.1756  0.8436 -0.0024
 8577SOL    HW137367   4.638   1.330  16.763  0.3132 -0.6690  1.3913
 8577SOL    HW237368   4.517   1.295  16.703 -0.1539 -0.6577  2.2350
 8578SOL     OW37369   3.664   0.407  14.207  0.2616 -0.4734 -0.4201
 8578SOL    HW137370   3.716   0.459  14.146 -1.5073  1.8650  0.0749
 8578SOL    HW237371   3.733   0.397  14.273  0.3085  0.4635 -0.3320
 8579SOL     OW37372   3.822   4.250  12.110  0.6112  0.4788  0.2681
 8579SOL    HW137373   3.743   4.206  12.143  1.3203  0.0688  1.4527
 8579SOL    HW237374   3.881   4.177  12.128  1.0635  0.0358 -3.0380
 8580SOL     OW37375   4.209   4.093   9.693  0.5191  0.3211 -0.1747
 8580SOL    HW137376   4.277   4.027   9.680  1.6381  1.4989 -0.3719
 8580SOL    HW237377   4.218   4.086   9.788  0.8207 -3.9957 -0.5035
 8581SOL     OW37378   3.862   0.727   2.275  0.1017 -0.2975  0.0907
 8581SOL    HW137379   3.773   0.756   2.299 -0.3782 -2.5601  1.0759
 8581SOL    HW237380   3.908   0.726   2.359  0.0398  1.5442  0.1508
 8582SOL     OW37381   3.630   2.085  10.519 -0.1389  0.6489 -0.1099
 8582SOL    HW137382   3.606   2.088  10.611 -0.8146 -0.0289 -0.2580
 8582SOL    HW237383   3.643   2.180  10.509 -0.2645  0.4563 -2.2619
 8583SOL     OW37384   4.017   1.653   2.343  0.0887  0.4156  0.3716
 8583SOL    HW137385   3.971   1.572   2.366  2.2196 -1.5584 -2.4154
 8583SOL    HW237386   4.103   1.616   2.323 -0.2023  0.3811 -0.8556
 8584SOL     OW37387   2.601   3.782   8.726  0.2360 -0.0306  0.2721
 8584SOL    HW137388   2.592   3.774   8.631  0.5598  0.3134  0.2155
 8584SOL    HW237389   2.559   3.868   8.734  4.0610  1.8901 -0.2837
 8585SOL     OW37390   2.871   1.942   6.623 -0.6665 -0.5420 -0.0811
 8585SOL    HW137391   2.951   1.917   6.669 -0.0625  0.6115 -0.5155
 8585SOL    HW237392   2.818   1.870   6.658 -2.1525  0.3511 -0.4997
 8586SOL     OW37393   1.607   1.709   8.117  0.4622 -0.0602 -0.8032
 8586SOL    HW137394   1.565   1.738   8.037 -2.2785 -1.7136  0.0059
 8586SOL    HW237395   1.553   1.760   8.177 -0.0148  0.5789 -1.7877
 8587SOL     OW37396   2.078   2.919  15.366  0.1364 -0.0361 -0.1712
 8587SOL    HW137397   2.074   2.995  15.424 -1.6042 -1.6133  1.7847
 8587SOL    HW237398   1.985   2.915  15.343  0.1084 -2.8170  0.4356
 8588SOL     OW37399   4.145   0.938   9.052  0.6539 -0.5972  0.0943
 8588SOL    HW137400   4.201   0.974   8.984  0.6733 -0.5017  0.1604
 8588SOL    HW237401   4.163   0.984   9.134 -0.6811 -0.0269  0.0745
 8589SOL     OW37402   4.717   1.046  15.108  0.4842 -0.1114 -0.1805
 8589SOL    HW137403   4.672   0.963  15.128 -0.1374  0.5797  1.2146
 8589SOL    HW237404   0.067   1.020  15.142  1.8566  1.2769 -2.5789
 8590SOL     OW37405   2.709   3.499   5.157 -0.3544  0.4177  0.1336
 8590SOL    HW137406   2.731   3.592   5.160  0.3673  0.2286  0.7279
 8590SOL    HW237407   2.637   3.503   5.220 -2.2936 -2.4826 -1.8851
 8591SOL     OW37408   2.272   2.983   4.531  0.3889 -0.5000 -0.4817
 8591SOL    HW137409   2.237   3.014   4.447  0.4638 -0.2029 -0.4049
 8591SOL    HW237410   2.294   3.061   4.582 -2.3429  0.1221 -0.2607
 8592SOL     OW37411   4.347   0.088   6.422 -0.3371  0.5306  0.3363
 8592SOL    HW137412   4.292   0.144   6.477 -2.5431 -2.6730  1.3960
 8592SOL    HW237413   4.299   0.006   6.430  1.6376 -0.2782  4.0193
 8593SOL     OW37414   1.391   0.199   7.777  0.0893  0.1744  0.2281
 8593SOL    HW137415   1.349   0.245   7.704  1.0481 -0.5751 -0.7858
 8593SOL    HW237416   1.460   0.262   7.798 -0.1068  0.2957  0.5180
 8594SOL     OW37417   1.335   3.878   2.980  0.5301  0.1659  0.4076
 8594SOL    HW137418   1.292   3.829   2.910 -0.1532 -0.8608  1.5511
 8594SOL    HW237419   1.407   3.817   2.995  0.5077  0.2135  0.7091
 8595SOL     OW37420   3.573   2.469   3.581 -0.1113 -0.3094  0.0329
 8595SOL    HW137421   3.594   2.377   3.563 -1.4996 -0.9071  1.5328
 8595SOL    HW237422   3.661   2.504   3.597 -1.3964  2.5204  0.8238
 8596SOL     OW37423   3.867   0.833  14.622  0.2782  0.2864  0.0131
 8596SOL    HW137424   3.850   0.741  14.643  1.7476  0.0170  0.0279
 8596SOL    HW237425   3.837   0.823  14.532  1.0176  0.7564 -0.2809
 8597SOL     OW37426   4.165   3.148  12.101  0.2515 -0.2438 -0.1645
 8597SOL    HW137427   4.160   3.190  12.187 -0.1936  0.4273 -0.5154
 8597SOL    HW237428   4.259   3.135  12.098  0.5130  1.6401  0.0736
 8598SOL     OW37429   1.647   4.176  16.736 -0.4715  0.1315  0.8598
 8598SOL    HW137430   1.626   4.270  16.733  1.1941  0.4160 -1.7312
 8598SOL    HW237431   1.699   4.173  16.656 -1.5077 -1.9301  0.2697
 8599SOL     OW37432   0.079   2.938   5.454 -0.4200  0.2704 -0.0403
 8599SOL    HW137433   0.049   2.961   5.366  0.6802  1.7459 -0.0306
 8599SOL    HW237434   0.173   2.949   5.437 -1.0476  2.0812 -2.4715
 8600SOL     OW37435   2.217   2.619   3.437 -0.2393 -0.1013 -0.7225
 8600SOL    HW137436   2.241   2.614   3.344 -2.9251  0.5403 -1.4532
 8600SOL    HW237437   2.146   2.554   3.441 -0.8307  0.4433 -2.0214
 8601SOL     OW37438   4.215   1.645  12.935 -0.1620  0.5276 -0.5571
 8601SOL    HW137439   4.269   1.619  12.860 -0.5844  0.4718 -0.8404
 8601SOL    HW237440   4.257   1.727  12.961  0.4619  0.7072 -2.1192
 8602SOL     OW37441   2.460   0.902  17.003 -0.2816 -0.5745  0.3601
 8602SOL    HW137442   2.434   0.942  16.920  1.3855 -0.1785  0.0422
 8602SOL    HW237443   2.537   0.951  17.030  1.2300 -3.0602  0.5390
 8603SOL     OW37444   1.157   3.806   9.409  0.1904  0.5413  0.0417
 8603SOL    HW137445   1.106   3.857   9.346  2.1757  1.5911 -0.7178
 8603SOL    HW237446   1.086   3.777   9.466 -0.6193  1.7435 -0.3434
 8604SOL     OW37447   1.818   4.648   2.311  0.6049 -0.0591 -0.2237
 8604SOL    HW137448   1.897   4.594   2.309 -0.0867 -1.0152 -1.2770
 8604SOL    HW237449   1.819   4.682   2.222  1.2149 -1.0571 -0.5937
 8605SOL     OW37450   4.459   2.688   2.043  0.2654 -0.6748  0.1707
 8605SOL    HW137451   4.508   2.630   2.101  2.2438  0.2091 -0.6096
 8605SOL    HW237452   4.440   2.763   2.099 -0.6145  2.1412 -3.8707
 8606SOL     OW37453   3.492   2.545   9.232 -0.0447  0.3317 -0.3577
 8606SOL    HW137454   3.478   2.555   9.138  0.1506 -0.7675 -0.5134
 8606SOL    HW237455   3.406   2.528   9.269  0.9372  0.0173  1.7510
 8607SOL     OW37456   1.699   1.776   2.786  0.0082  0.3637 -0.3014
 8607SOL    HW137457   1.715   1.803   2.695 -1.2783 -1.8042 -1.1742
 8607SOL    HW237458   1.682   1.686   2.760 -1.4198  0.0102  1.8819
 8608SOL     OW37459   1.159   4.657   5.683 -0.3346  0.4658  0.4451
 8608SOL    HW137460   1.153   4.730   5.745  4.3909  1.4319 -0.1809
 8608SOL    HW237461   1.211   4.593   5.731  0.2881  0.8022  0.2282
 8609SOL     OW37462   2.371   1.851   9.228 -0.0121 -0.1858  0.0126
 8609SOL    HW137463   2.322   1.772   9.251 -0.0019 -0.3347 -0.4809
 8609SOL    HW237464   2.352   1.897   9.310  1.4464  0.7246 -0.1468
 8610SOL     OW37465   3.885   0.577  12.492  0.5930  0.5584  0.0529
 8610SOL    HW137466   3.926   0.657  12.459 -1.7931  0.7370 -2.4712
 8610SOL    HW237467   3.795   0.610  12.496 -0.0804 -1.3341  0.4789
 8611SOL     OW37468   3.616   3.737   7.060  0.1332 -0.5348 -0.2743
 8611SOL    HW137469   3.585   3.723   7.149  1.0195  2.3353  0.5054
 8611SOL    HW237470   3.654   3.653   7.035 -0.5169 -0.2734 -2.1148
 8612SOL     OW37471   4.728   4.553   2.385  0.5187 -0.1346  0.2939
 8612SOL    HW137472   0.026   4.465   2.403  0.0661 -0.7192 -1.8082
 8612SOL    HW237473   0.066   4.587   2.332 -0.2692  0.2825 -0.5153
 8613SOL     OW37474   2.366   2.677  15.663  0.5520  0.0368  0.8766
 8613SOL    HW137475   2.318   2.628  15.730 -1.0486 -1.5389 -1.3858
 8613SOL    HW237476   2.383   2.617  15.590 -0.9502  3.0855 -2.0346
 8614SOL     OW37477   4.522   0.913  12.913 -0.0968 -0.6179 -0.0125
 8614SOL    HW137478   4.571   0.830  12.909 -0.6731 -0.8855 -1.4138
 8614SOL    HW237479   4.484   0.910  13.000 -0.6658  0.0626 -0.2451
 8615SOL     OW37480   4.124   2.913   6.692  0.2569 -0.1639 -0.3609
 8615SOL    HW137481   4.118   2.966   6.771 -1.6374  0.9487 -1.2360
 8615SOL    HW237482   4.049   2.940   6.639  1.0131  0.7687 -0.9653
 8616SOL     OW37483   1.833   4.405   3.928  0.4084 -0.4146 -0.3204
 8616SOL    HW137484   1.925   4.383   3.917  0.6080  0.5247 -0.5122
 8616SOL    HW237485   1.830   4.501   3.920 -0.5270 -0.4812 -0.8125
 8617SOL     OW37486   2.685   0.218  13.275 -0.1440  1.2048 -0.5557
 8617SOL    HW137487   2.767   0.267  13.287  0.7293 -0.7557  1.3065
 8617SOL    HW237488   2.641   0.279  13.215 -1.5439  1.8838  1.1936
 8618SOL     OW37489   2.663   2.219   0.015  0.6633  0.5446 -0.1526
 8618SOL    HW137490   2.737   2.222   0.076  0.2379  0.5374  0.3725
 8618SOL    HW237491   2.590   2.212   0.076 -0.6972  2.6422 -1.5434
 8619SOL     OW37492   4.026   1.635   7.036 -0.1755 -0.0053  0.3479
 8619SOL    HW137493   3.940   1.655   7.073 -1.8281 -1.3285 -2.7450
 8619SOL    HW237494   4.087   1.674   7.098 -1.6612 -0.1684  1.8916
 8620SOL     OW37495   3.343   4.535   3.827 -0.2709 -0.5444  0.1013
 8620SOL    HW137496   3.345   4.484   3.908  0.7250  0.2309  0.5634
 8620SOL    HW237497   3.273   4.597   3.846 -2.1022 -2.4219 -0.4144
 8621SOL     OW37498   3.865   0.880   9.076  0.3567 -0.1987  0.5899
 8621SOL    HW137499   3.927   0.952   9.086 -0.3570  0.7873 -2.1643
 8621SOL    HW237500   3.804   0.918   9.014  0.4138 -0.5636  0.3081
 8622SOL     OW37501   2.319   3.234   6.292  0.1666  0.0472 -0.9456
 8622SOL    HW137502   2.382   3.163   6.303 -0.4698 -0.2912  0.4368
 8622SOL    HW237503   2.373   3.293   6.239  0.4058  1.6899  1.1070
 8623SOL     OW37504   1.822   1.065   6.834  0.2448  0.2453  0.2699
 8623SOL    HW137505   1.917   1.076   6.837  0.0363  1.5179  3.0839
 8623SOL    HW237506   1.805   1.080   6.742  0.4920 -0.4019  0.1165
 8624SOL     OW37507   1.962   2.873   1.815  0.4627  0.0877  0.5006
 8624SOL    HW137508   1.972   2.881   1.910 -1.2306 -1.5357  0.8062
 8624SOL    HW237509   1.887   2.932   1.801  0.0293 -0.2179  1.5257
 8625SOL     OW37510   4.287   4.729  13.298 -0.1116 -0.5362 -0.0418
 8625SOL    HW137511   4.291   4.633  13.291 -2.5696 -0.4234 -3.0953
 8625SOL    HW237512   4.196   0.013  13.319  0.0169  1.7085 -1.4876
 8626SOL     OW37513   3.122   0.508   9.851 -0.5421 -0.5085 -0.2800
 8626SOL    HW137514   3.070   0.510   9.931  1.4018  1.1987  0.9478
 8626SOL    HW237515   3.064   0.455   9.797 -1.1989  0.2281 -0.2938
 8627SOL     OW37516   0.438   0.156   8.716  0.1685 -0.1999  0.0669
 8627SOL    HW137517   0.344   0.138   8.717  0.7057 -2.8958  1.2161
 8627SOL    HW237518   0.463   0.115   8.799  0.4780 -0.5449 -0.1962
 8628SOL     OW37519   3.806   4.183   3.291 -0.4278 -0.2064 -0.0804
 8628SOL    HW137520   3.801   4.279   3.296 -0.7592 -0.3156  1.6026
 8628SOL    HW237521   3.768   4.174   3.203 -0.3626  1.0979 -0.2475
 8629SOL     OW37522   0.489   1.766   1.840 -0.0634 -0.2811  0.4840
 8629SOL    HW137523   0.438   1.746   1.762  1.4509 -0.3879 -0.4638
 8629SOL    HW237524   0.527   1.678   1.845  1.6119  0.4655  0.9452
 8630SOL     OW37525   0.996   1.930   6.327  0.2151  0.1983  0.2813
 8630SOL    HW137526   0.931   1.940   6.258 -0.1907  0.6835  0.7359
 8630SOL    HW237527   0.940   1.947   6.403  0.6335 -0.2855  0.7026
 8631SOL     OW37528   1.628   4.573   3.656  0.0441 -0.2470 -0.3013
 8631SOL    HW137529   1.560   4.629   3.694  0.6161  1.5882 -1.9954
 8631SOL    HW237530   1.710   4.588   3.703  0.7502 -1.0352 -1.2858
 8632SOL     OW37531   0.130   0.686   5.850  0.4287  0.1523 -0.3609
 8632SOL    HW137532   0.110   0.622   5.918 -1.0798 -2.1531 -2.9861
 8632SOL    HW237533   0.102   0.635   5.775  1.3392 -1.5039  0.4192
 8633SOL     OW37534   1.360   0.167  16.206 -0.2901  0.4396 -0.2553
 8633SOL    HW137535   1.351   0.127  16.293  1.2051  2.2147  0.7003
 8633SOL    HW237536   1.273   0.201  16.187 -0.7717 -0.5694  0.1610
 8634SOL     OW37537   1.442   1.197  14.026  0.4556 -0.9491  0.5243
 8634SOL    HW137538   1.507   1.149  13.974  0.4001  1.6036 -1.9430
 8634SOL    HW237539   1.482   1.284  14.019 -1.2041 -0.2125  0.1521
 8635SOL     OW37540   1.941   1.583   0.426 -0.4136 -0.2326  0.3473
 8635SOL    HW137541   1.946   1.655   0.364  1.2154 -1.4436 -0.9256
 8635SOL    HW237542   1.920   1.621   0.511 -0.9285 -1.1223  0.6216
 8636SOL     OW37543   3.511   3.045   5.908 -0.0738  0.0124  0.5821
 8636SOL    HW137544   3.550   3.095   5.836 -0.1388  0.2384  0.7066
 8636SOL    HW237545   3.577   2.978   5.926 -1.0520 -0.3796  2.6513
 8637SOL     OW37546   3.483   0.714   4.262  0.2394 -0.4755  0.6011
 8637SOL    HW137547   3.490   0.798   4.308  0.4909  0.5227 -1.2429
 8637SOL    HW237548   3.422   0.735   4.191 -0.0775 -1.2927  0.6347
 8638SOL     OW37549   3.025   0.293   1.526 -0.1174 -0.4770  0.5641
 8638SOL    HW137550   2.937   0.265   1.550 -0.4296  0.7340  0.8221
 8638SOL    HW237551   3.029   0.267   1.433  3.1602  1.7730  0.0621
 8639SOL     OW37552   1.335   1.756   5.577  0.0881  0.6194  0.3695
 8639SOL    HW137553   1.296   1.823   5.520  1.7397 -0.2268 -1.7786
 8639SOL    HW237554   1.258   1.731   5.628 -0.2824  1.7153  0.3422
 8640SOL     OW37555   4.520   3.364   7.993 -0.0223 -0.1174  0.2808
 8640SOL    HW137556   4.599   3.377   7.941 -2.0388  1.3840 -2.4082
 8640SOL    HW237557   4.476   3.447   8.012 -0.1135  0.2902 -1.7719
 8641SOL     OW37558   2.619   0.220   2.804  0.3504  0.2430 -0.0193
 8641SOL    HW137559   2.664   0.273   2.870 -0.9112 -1.6287  2.3309
 8641SOL    HW237560   2.680   0.217   2.731 -0.7561 -0.8792 -0.8858
 8642SOL     OW37561   1.012   3.222   5.926  0.1192 -0.6426 -0.5513
 8642SOL    HW137562   0.934   3.177   5.958 -0.1316  0.4380  0.3215
 8642SOL    HW237563   1.069   3.172   5.985  0.0542  0.4510  0.4321
 8643SOL     OW37564   0.075   0.517   3.214 -0.3848 -0.3011 -0.1433
 8643SOL    HW137565   0.076   0.568   3.134  1.5546  2.6249  1.7571
 8643SOL    HW237566   0.007   0.453   3.192 -1.3600  1.1188 -1.2203
 8644SOL     OW37567   1.729   2.069   4.273 -0.3879 -0.5363 -0.0108
 8644SOL    HW137568   1.816   2.109   4.282 -0.1219 -1.0704 -0.1999
 8644SOL    HW237569   1.703   2.083   4.182  2.2971  0.7556 -0.5877
 8645SOL     OW37570   4.504   0.664   3.361 -0.9159  0.3283 -0.3528
 8645SOL    HW137571   4.553   0.617   3.293  1.5435 -0.6593  2.0646
 8645SOL    HW237572   4.420   0.670   3.316 -0.1507 -3.4898 -2.2350
 8646SOL     OW37573   1.885   2.507  17.306  0.5068  0.1168 -0.0403
 8646SOL    HW137574   1.856   2.577  17.246 -2.0868 -0.4595  0.5443
 8646SOL    HW237575   1.922   2.447  17.242  2.0716  1.3960 -0.3532
 8647SOL     OW37576   1.117   4.520   4.095  1.0630 -0.1283  0.1755
 8647SOL    HW137577   1.028   4.534   4.063  1.7900  0.6101 -1.5544
 8647SOL    HW237578   1.159   4.592   4.047  2.8183 -1.4189 -0.1831
 8648SOL     OW37579   1.374   3.135  12.570  0.0357  0.6969  0.0723
 8648SOL    HW137580   1.371   3.092  12.656  2.0814  1.4296  0.4977
 8648SOL    HW237581   1.468   3.138  12.556 -0.0481  0.5772 -0.5286
 8649SOL     OW37582   2.355   1.935  14.487 -0.1671 -0.0483  0.1672
 8649SOL    HW137583   2.438   1.981  14.474  1.4260 -3.1145 -0.5835
 8649SOL    HW237584   2.319   1.951  14.399  2.9844  3.7599 -0.3995
 8650SOL     OW37585   1.136   0.224   1.807  0.0406  0.1394 -0.0900
 8650SOL    HW137586   1.143   0.188   1.719  0.8554  0.0377  0.0195
 8650SOL    HW237587   1.045   0.253   1.814 -0.3351 -0.3885 -2.7474
 8651SOL     OW37588   1.027   2.477  12.722 -0.0232  0.1679  0.5583
 8651SOL    HW137589   1.115   2.467  12.758  0.7744  0.5631 -1.2789
 8651SOL    HW237590   1.018   2.572  12.730 -0.7552 -0.0373  2.0754
 8652SOL     OW37591   4.485   3.466   4.662 -0.0812  0.3476  0.6120
 8652SOL    HW137592   4.505   3.403   4.731  2.2010 -0.5020 -0.8144
 8652SOL    HW237593   4.540   3.426   4.595  0.1913  0.5269  0.7245
 8653SOL     OW37594   4.317   0.301   7.797 -0.4356 -0.1939 -0.2781
 8653SOL    HW137595   4.250   0.366   7.775  1.2784  2.4926  2.5036
 8653SOL    HW237596   4.362   0.311   7.713  1.3634  2.8302  1.0171
 8654SOL     OW37597   1.927   0.334   2.339 -0.2065 -0.4482  0.3602
 8654SOL    HW137598   1.972   0.271   2.395 -1.6713 -2.1834 -0.4153
 8654SOL    HW237599   1.960   0.325   2.250 -1.0890  1.7034 -0.1851
 8655SOL     OW37600   1.093   1.298   8.373  0.2586  0.1597  0.1619
 8655SOL    HW137601   1.075   1.220   8.320  0.1498  0.3672 -0.1002
 8655SOL    HW237602   1.145   1.265   8.447 -0.0954 -1.0482 -0.1167
 8656SOL     OW37603   1.125   1.686  10.402 -0.4003 -0.1662  0.3302
 8656SOL    HW137604   1.080   1.640  10.472  1.9864  1.4810  2.9601
 8656SOL    HW237605   1.053   1.703  10.341 -0.7973  1.9953  1.3936
 8657SOL     OW37606   2.150   4.359   1.299 -0.1129  0.2189 -0.0804
 8657SOL    HW137607   2.164   4.436   1.354 -2.0225 -0.6507  1.6397
 8657SOL    HW237608   2.235   4.352   1.256 -0.3171 -0.2071 -0.4072
 8658SOL     OW37609   3.033   1.327   4.907 -0.9853 -0.2354  0.6009
 8658SOL    HW137610   3.057   1.404   4.857  0.0698  0.3702  2.0291
 8658SOL    HW237611   2.976   1.278   4.848 -0.3002  0.6503 -0.7718
 8659SOL     OW37612   2.332   4.278   0.335  0.1720  0.3991  0.8097
 8659SOL    HW137613   2.392   4.301   0.264  1.1722 -0.0802  1.4976
 8659SOL    HW237614   2.247   4.271   0.293  0.3672 -2.5148  0.8958
 8660SOL     OW37615   4.177   1.251   8.977 -0.2461  0.0981  0.2958
 8660SOL    HW137616   4.172   1.347   8.982  2.1142  0.2950 -1.1477
 8660SOL    HW237617   4.084   1.227   8.976  0.0118 -0.9421  2.0321
 8661SOL     OW37618   3.179   2.113   2.845  0.9948 -0.2176 -0.6155
 8661SOL    HW137619   3.248   2.172   2.816  2.0743 -1.7260 -1.1139
 8661SOL    HW237620   3.228   2.031   2.841  3.1953  1.0535  0.6233
 8662SOL     OW37621   4.045   3.628   8.544 -0.2874 -0.0969  0.0175
 8662SOL    HW137622   4.008   3.695   8.602  1.4429  1.4625 -0.6858
 8662SOL    HW237623   4.124   3.602   8.591  0.9193 -0.4064 -2.2053
 8663SOL     OW37624   3.494   0.034  14.339 -0.1284 -0.5066 -0.4897
 8663SOL    HW137625   3.473   0.006  14.250 -4.2603 -0.7374  0.5599
 8663SOL    HW237626   3.543   0.115  14.324  0.4271 -0.5923  0.8908
 8664SOL     OW37627   3.830   3.730  13.638  0.1904 -0.0312  0.0129
 8664SOL    HW137628   3.852   3.750  13.546 -1.9791 -3.8012 -1.3223
 8664SOL    HW237629   3.855   3.804  13.692 -1.7217  0.7610 -0.1900
 8665SOL     OW37630   0.339   3.234   8.074 -0.4152  0.5620  0.3188
 8665SOL    HW137631   0.309   3.321   8.049 -0.5783  0.1303 -1.0357
 8665SOL    HW237632   0.349   3.246   8.168  1.1773 -0.8882  0.3519
 8666SOL     OW37633   0.389   1.740   1.601 -0.1374  0.3587 -0.2826
 8666SOL    HW137634   0.317   1.787   1.559 -0.6293 -0.3715 -0.2551
 8666SOL    HW237635   0.393   1.659   1.550  1.9523  0.0937  0.3173
 8667SOL     OW37636   3.857   4.476   4.965  0.1130 -0.0345 -0.5099
 8667SOL    HW137637   3.859   4.570   4.981  1.6041  0.1144 -1.5491
 8667SOL    HW237638   3.907   4.440   5.037 -3.1690 -0.2898  1.6616
 8668SOL     OW37639   1.734   2.693   1.436  0.0961 -0.1971 -1.3276
 8668SOL    HW137640   1.825   2.722   1.435 -0.2226  0.7817 -1.3768
 8668SOL    HW237641   1.719   2.704   1.342 -0.2989  1.3314 -1.0773
 8669SOL     OW37642   1.483   0.860  15.953 -0.3878 -0.6249  0.0941
 8669SOL    HW137643   1.488   0.923  15.881  2.7228 -0.6922  0.2455
 8669SOL    HW237644   1.447   0.925  16.013 -3.1239 -1.1022 -1.0598
 8670SOL     OW37645   0.215   2.120  17.393  0.2363  0.3437  0.8045
 8670SOL    HW137646   0.222   2.066  17.314 -1.5206 -2.2648  2.4494
 8670SOL    HW237647   0.301   2.148  17.424  0.3764  1.1841 -0.3422
 8671SOL     OW37648   3.824   3.172  11.801  0.0577  0.4562 -0.5363
 8671SOL    HW137649   3.752   3.229  11.828 -0.8841 -1.4776  1.0253
 8671SOL    HW237650   3.847   3.207  11.715 -0.1809 -1.7326 -1.5117
 8672SOL     OW37651   0.013   1.986   8.289 -0.2792  0.0828  1.2328
 8672SOL    HW137652   0.105   1.958   8.292  0.0199  1.1214  1.7035
 8672SOL    HW237653   0.006   2.067   8.239  1.7875 -1.1536 -1.0809
 8673SOL     OW37654   4.052   1.651   1.996 -0.3987 -0.0224 -0.1612
 8673SOL    HW137655   4.112   1.598   2.048 -0.3912  0.1942  0.0492
 8673SOL    HW237656   4.007   1.588   1.940  1.6884 -1.3299 -0.3713
 8674SOL     OW37657   1.317   2.641   4.338  0.2097 -0.7357  0.3079
 8674SOL    HW137658   1.298   2.566   4.282  1.5355  1.2063 -2.7054
 8674SOL    HW237659   1.405   2.611   4.361  0.4369 -0.9807 -0.8902
 8675SOL     OW37660   1.207   4.006  10.141 -0.0089  0.2960 -0.3874
 8675SOL    HW137661   1.213   4.093  10.103 -0.7065 -0.4345 -2.1745
 8675SOL    HW237662   1.200   3.962  10.056 -0.5601  1.3557 -0.8849
 8676SOL     OW37663   2.839   4.092  11.043  0.3040 -0.1319 -0.2184
 8676SOL    HW137664   2.769   4.112  11.105 -0.9875  1.5365 -2.2109
 8676SOL    HW237665   2.818   3.999  11.035  0.5834 -0.1939 -0.2431
 8677SOL     OW37666   0.399   0.361  11.493 -0.1474  0.5478  0.1284
 8677SOL    HW137667   0.489   0.384  11.515  0.4749  0.5695 -2.4664
 8677SOL    HW237668   0.400   0.406  11.408 -1.4472 -0.0629 -0.2065
 8678SOL     OW37669   1.172   0.208   3.797  0.7712  0.5191 -0.4139
 8678SOL    HW137670   1.101   0.262   3.761  1.5637  2.4766  0.9383
 8678SOL    HW237671   1.225   0.281   3.830  1.7033  0.2310 -1.2828
 8679SOL     OW37672   4.490   0.912   9.624 -0.3146  0.0146 -0.2687
 8679SOL    HW137673   4.584   0.914   9.641 -0.7951  2.5079  2.1759
 8679SOL    HW237674   4.466   0.846   9.689 -0.1067 -0.9401 -1.1712
 8680SOL     OW37675   0.575   3.349  14.959 -0.3923 -0.3022  0.5741
 8680SOL    HW137676   0.549   3.430  15.004  2.1150  0.4631  0.6430
 8680SOL    HW237677   0.668   3.349  14.981  0.0307 -0.7737 -1.2618
 8681SOL     OW37678   1.883   3.703   7.662  0.1193  0.3464 -0.2405
 8681SOL    HW137679   1.846   3.791   7.650  1.5026  1.2359  2.0418
 8681SOL    HW237680   1.887   3.702   7.758  0.8349  0.2481 -0.2728
 8682SOL     OW37681   2.831   1.960   5.894  0.3329 -0.0403  0.2749
 8682SOL    HW137682   2.846   1.927   5.983 -0.3309 -0.9282  0.0590
 8682SOL    HW237683   2.746   1.919   5.881  0.2105 -0.2279  1.5905
 8683SOL     OW37684   3.743   0.468   3.341 -0.1707 -0.7249  0.6827
 8683SOL    HW137685   3.730   0.562   3.327 -0.7241 -0.9294 -0.1289
 8683SOL    HW237686   3.748   0.465   3.437  0.1127 -0.8961  0.6631
 8684SOL     OW37687   0.157   0.596  13.104 -0.1765 -0.3849 -0.2732
 8684SOL    HW137688   0.249   0.571  13.098  0.0480  0.2884  0.4115
 8684SOL    HW237689   0.151   0.631  13.193 -0.3233  1.8353 -1.1391
 8685SOL     OW37690   2.587   4.196  16.815 -0.1307 -0.4115  0.3606
 8685SOL    HW137691   2.603   4.286  16.785  0.9768 -1.0654 -1.0388
 8685SOL    HW237692   2.575   4.219  16.907  1.1278  3.6859 -0.4917
 8686SOL     OW37693   2.530   4.267   2.077  0.2278 -0.4314 -0.4431
 8686SOL    HW137694   2.527   4.359   2.048  2.4479 -0.5243 -0.9493
 8686SOL    HW237695   2.494   4.213   2.006 -0.2595  1.2690 -1.4970
 8687SOL     OW37696   0.519   0.752   3.318 -0.5960 -0.2032  0.1575
 8687SOL    HW137697   0.460   0.812   3.272 -1.6167  0.0053  1.7264
 8687SOL    HW237698   0.609   0.773   3.293 -0.2466 -2.8927 -0.8533
 8688SOL     OW37699   3.380   1.842   6.558  0.0620  0.0566  0.4746
 8688SOL    HW137700   3.423   1.773   6.509  1.8625  1.9574 -0.6262
 8688SOL    HW237701   3.457   1.890   6.590  0.9544 -0.8788 -0.2819
 8689SOL     OW37702   0.152   2.991   5.710  0.0346  0.3679 -0.2394
 8689SOL    HW137703   0.124   2.935   5.638 -2.3117  1.5438 -0.2534
 8689SOL    HW237704   0.201   3.066   5.675  1.2301  0.4582  1.6315
 8690SOL     OW37705   1.871   3.888   7.388  0.3735 -0.1902  0.1370
 8690SOL    HW137706   1.790   3.838   7.400  0.1513 -0.2364 -1.5240
 8690SOL    HW237707   1.845   3.977   7.410 -0.6433 -0.2882 -0.6707
 8691SOL     OW37708   0.599   3.316   3.999  0.0685 -0.8886  0.0095
 8691SOL    HW137709   0.513   3.275   4.009 -1.1075  1.9813  1.4492
 8691SOL    HW237710   0.570   3.406   4.008 -0.1943 -0.7037 -2.7911
 8692SOL     OW37711   4.309   4.159  12.167  0.4604 -0.1775 -0.5642
 8692SOL    HW137712   4.315   4.075  12.213  0.3842  0.3101  0.3475
 8692SOL    HW237713   4.403   4.171  12.152  0.0208 -1.1386 -4.0239
 8693SOL     OW37714   1.850   2.792  11.341 -0.4411  0.1138  0.0800
 8693SOL    HW137715   1.828   2.877  11.304 -1.4235 -0.9272 -1.7347
 8693SOL    HW237716   1.835   2.735  11.265 -1.8664 -1.8496  1.8488
 8694SOL     OW37717   1.837   0.797   7.463  0.4698 -0.0680  0.3314
 8694SOL    HW137718   1.892   0.720   7.478  0.9877  0.4593  1.1121
 8694SOL    HW237719   1.868   0.832   7.380  1.7522  0.7813  1.1755
 8695SOL     OW37720   3.904   2.478  14.586  0.8886  1.0605  0.0220
 8695SOL    HW137721   3.898   2.568  14.620  1.4063 -0.0418  3.0431
 8695SOL    HW237722   3.895   2.432  14.669  1.9837  0.8337  0.0098
 8696SOL     OW37723   4.662   0.527   5.130  0.9478  0.1652 -0.3667
 8696SOL    HW137724   4.611   0.541   5.050  1.6089  0.9219 -0.6557
 8696SOL    HW237725   0.008   0.499   5.086  1.7754 -0.4342  1.5721
 8697SOL     OW37726   4.377   4.165  16.343  0.1722  0.6074 -0.0355
 8697SOL    HW137727   4.322   4.127  16.275  0.6118  2.2905 -1.3047
 8697SOL    HW237728   4.316   4.209  16.402 -0.5405 -1.2983  0.6672
 8698SOL     OW37729   2.419   0.372  11.533  0.3278 -0.0235 -0.0124
 8698SOL    HW137730   2.469   0.400  11.609 -1.5859  1.1014  0.8101
 8698SOL    HW237731   2.422   0.277  11.546  1.1570 -0.1845 -1.3623
 8699SOL     OW37732   3.955   2.002   5.617  0.3664 -0.2165 -0.1464
 8699SOL    HW137733   4.013   1.994   5.693  0.8909  0.8621 -0.4268
 8699SOL    HW237734   3.961   2.096   5.597 -1.2941 -0.3169 -1.0991
 8700SOL     OW37735   0.372   0.419  16.791  0.0630 -0.5227 -0.2561
 8700SOL    HW137736   0.436   0.477  16.749  0.9952 -1.4240 -0.0589
 8700SOL    HW237737   0.337   0.479  16.857  0.4097 -1.9885  1.2320
 8701SOL     OW37738   2.657   4.702   6.012 -0.0639 -0.0243 -0.6739
 8701SOL    HW137739   2.596   4.666   6.077 -0.8331  0.8664 -0.9085
 8701SOL    HW237740   2.594   4.719   5.942  0.6896  3.1799 -0.5408
 8702SOL     OW37741   3.501   2.995   5.195  0.1434  0.0135 -0.0735
 8702SOL    HW137742   3.492   2.933   5.267 -0.2843 -0.8046 -0.8254
 8702SOL    HW237743   3.469   3.073   5.239 -1.6135 -0.6100 -0.2253
 8703SOL     OW37744   3.017   1.147   1.998  0.8030  0.3307 -0.3789
 8703SOL    HW137745   2.935   1.155   1.949  0.1656  2.6092  1.0572
 8703SOL    HW237746   2.994   1.183   2.083  0.9355 -0.2163 -0.1138
 8704SOL     OW37747   3.315   2.337   3.099  0.1425  0.2031  0.6784
 8704SOL    HW137748   3.230   2.345   3.143  0.9250  0.9889  2.0422
 8704SOL    HW237749   3.365   2.324   3.180  1.8343 -2.2322 -0.7930
 8705SOL     OW37750   2.928   0.955   1.360  0.7464 -0.4926  0.4112
 8705SOL    HW137751   2.922   1.044   1.325 -0.6309 -1.5635 -2.0087
 8705SOL    HW237752   2.920   0.962   1.455 -0.8678 -0.5451  0.2694
 8706SOL     OW37753   2.478   2.109   1.317  0.2248 -0.4276 -0.9333
 8706SOL    HW137754   2.434   2.189   1.344 -2.7472 -1.6150 -2.2845
 8706SOL    HW237755   2.569   2.135   1.302 -0.2020  0.7791 -1.4023
 8707SOL     OW37756   0.101   1.160   3.981  0.0166  0.0861  0.1583
 8707SOL    HW137757   0.007   1.174   3.974  0.4538  3.4708  1.1444
 8707SOL    HW237758   0.147   1.219   3.922 -1.6122  0.5251 -0.6794
 8708SOL     OW37759   3.136   3.318   5.623 -0.2902 -0.0907  0.4184
 8708SOL    HW137760   3.140   3.238   5.571  1.6906  0.0109  0.4164
 8708SOL    HW237761   3.096   3.380   5.563  0.9201 -0.0744 -0.3597
 8709SOL     OW37762   0.144   2.238   4.112 -0.3952 -0.0760  0.1751
 8709SOL    HW137763   0.121   2.323   4.075 -0.6015 -0.9541 -1.7237
 8709SOL    HW237764   0.133   2.259   4.204  0.9345  0.2813  0.2447
 8710SOL     OW37765   1.016   4.185   6.916 -0.2540 -0.0040  0.1472
 8710SOL    HW137766   1.028   4.092   6.898 -3.7370 -0.8818  2.4115
 8710SOL    HW237767   1.079   4.197   6.988 -0.2463 -0.8539  0.2863
 8711SOL     OW37768   2.756   1.776   4.169 -0.4260  0.2484  0.4452
 8711SOL    HW137769   2.762   1.845   4.235  0.2652  0.6825 -0.0774
 8711SOL    HW237770   2.673   1.801   4.129 -0.1352 -0.9211 -0.8894
 8712SOL     OW37771   4.523   1.274   6.784  0.1317  0.4837  0.0270
 8712SOL    HW137772   4.581   1.326   6.728 -1.3099 -0.1772 -2.0733
 8712SOL    HW237773   4.496   1.211   6.716 -1.5711  1.4413 -0.1731
 8713SOL     OW37774   2.663   4.013   2.232 -0.3889 -0.6890  0.0729
 8713SOL    HW137775   2.626   4.094   2.197 -3.1583 -1.9278  0.1451
 8713SOL    HW237776   2.654   4.020   2.328  3.0029 -1.0331  0.3934
 8714SOL     OW37777   4.586   3.262   2.147 -0.0793 -0.1310 -0.2939
 8714SOL    HW137778   4.679   3.244   2.160 -0.2557  0.4825  1.7950
 8714SOL    HW237779   4.575   3.208   2.069  0.2788  0.0983 -0.5041
 8715SOL     OW37780   0.796   3.199  16.665 -0.1552  0.3630 -0.2235
 8715SOL    HW137781   0.815   3.189  16.571  0.9077  0.1901  0.0048
 8715SOL    HW237782   0.717   3.145  16.671  0.3758 -0.4632 -0.6983
 8716SOL     OW37783   2.472   4.110   8.437 -0.4822 -0.3213 -0.1773
 8716SOL    HW137784   2.478   4.127   8.343 -1.2879 -0.1455 -0.2006
 8716SOL    HW237785   2.455   4.200   8.463 -1.7703 -0.4062 -0.7240
 8717SOL     OW37786   0.891   3.130  10.469  0.1194 -0.1143 -0.3529
 8717SOL    HW137787   0.830   3.070  10.510  2.0179 -2.5007 -1.0526
 8717SOL    HW237788   0.867   3.205  10.524 -1.1835  0.3191 -1.5019
 8718SOL     OW37789   2.853   3.059   6.556  0.0989 -0.2460  0.1001
 8718SOL    HW137790   2.815   3.049   6.469  1.5909 -1.0051 -0.4580
 8718SOL    HW237791   2.776   3.084   6.607  0.4901 -0.5216  0.8318
 8719SOL     OW37792   2.321   1.950   9.483 -0.4758  0.2964 -0.1348
 8719SOL    HW137793   2.244   1.904   9.450 -0.4258  0.6575 -0.7461
 8719SOL    HW237794   2.289   1.980   9.569 -1.3532  0.3634 -0.4800
 8720SOL     OW37795   0.070   0.584   3.500  0.2445  0.4129 -0.5530
 8720SOL    HW137796   4.712   0.562   3.508  0.8645 -1.7214  0.7787
 8720SOL    HW237797   0.094   0.566   3.410  0.4626  1.3682 -0.6852
 8721SOL     OW37798   0.871   0.789  11.115  0.4798  0.1606  0.8588
 8721SOL    HW137799   0.789   0.742  11.100  1.3710 -1.1095 -0.0373
 8721SOL    HW237800   0.861   0.841  11.195  0.9430 -0.1399  1.1112
 8722SOL     OW37801   1.161   2.527   4.530  0.0663  0.1275 -0.5697
 8722SOL    HW137802   1.219   2.576   4.472  1.8290 -0.3414  0.8074
 8722SOL    HW237803   1.207   2.445   4.542 -0.6594  0.2357  2.8499
 8723SOL     OW37804   3.564   2.762   9.018 -0.3517 -0.0404  0.0916
 8723SOL    HW137805   3.540   2.837   9.073 -1.8969 -0.1619 -0.4251
 8723SOL    HW237806   3.653   2.738   9.042 -1.1154 -2.3943  0.5334
 8724SOL     OW37807   1.185   3.772   2.747 -0.0862  0.2774 -0.0155
 8724SOL    HW137808   1.138   3.730   2.675 -1.6920  1.3126  0.4236
 8724SOL    HW237809   1.247   3.828   2.699 -1.4738  0.3194 -1.7883
 8725SOL     OW37810   1.761   1.834  14.752 -0.5150 -0.0145 -0.1359
 8725SOL    HW137811   1.831   1.780  14.716 -1.0114 -0.7347 -0.0246
 8725SOL    HW237812   1.686   1.786  14.716  0.7504 -0.8935 -1.6124
 8726SOL     OW37813   2.271   0.227   5.239 -0.2896 -0.2426  0.0007
 8726SOL    HW137814   2.221   0.156   5.281  0.9582 -1.0790  0.0866
 8726SOL    HW237815   2.298   0.275   5.317  0.4052 -1.2381  0.3866
 8727SOL     OW37816   2.679   2.417   1.072  0.1795 -0.5324  0.3298
 8727SOL    HW137817   2.720   2.492   1.115 -0.1010 -0.2977  0.1819
 8727SOL    HW237818   2.658   2.460   0.989  1.2583 -0.0753  0.2813
 8728SOL     OW37819   4.254   2.505   4.185  0.0757  0.0129  0.3801
 8728SOL    HW137820   4.293   2.551   4.260 -0.2939 -0.3092  0.7682
 8728SOL    HW237821   4.206   2.437   4.233 -0.0392  1.3072  2.1082
 8729SOL     OW37822   1.067   0.747  15.337 -1.1026  0.7239  0.2254
 8729SOL    HW137823   1.052   0.786  15.423  0.5389 -0.9289  1.2424
 8729SOL    HW237824   0.985   0.697  15.337 -1.5177  1.3973  0.1623
 8730SOL     OW37825   3.313   3.403   7.392  0.2580 -0.2762  0.5052
 8730SOL    HW137826   3.301   3.417   7.486 -0.8778 -0.1616  0.3393
 8730SOL    HW237827   3.256   3.465   7.348  0.7076  1.1173  1.9021
 8731SOL     OW37828   2.062   2.249   3.117 -0.0570 -0.1976  0.4925
 8731SOL    HW137829   2.018   2.172   3.081 -0.0958  0.8260 -1.6091
 8731SOL    HW237830   2.125   2.266   3.047 -1.0497 -0.7628 -0.5302
 8732SOL     OW37831   1.352   4.378   2.308 -0.1764 -0.2270 -0.2790
 8732SOL    HW137832   1.349   4.472   2.295 -2.0598 -0.3288 -0.6207
 8732SOL    HW237833   1.431   4.343   2.268  0.1125  0.7738 -0.5608
 8733SOL     OW37834   2.297   1.267   4.008  0.0940 -0.3486 -0.4261
 8733SOL    HW137835   2.227   1.252   4.071  0.9973 -1.5091  0.2981
 8733SOL    HW237836   2.266   1.332   3.944  1.9300  1.4882  0.5275
 8734SOL     OW37837   1.618   3.685   6.947  0.5025 -0.0139  0.0932
 8734SOL    HW137838   1.685   3.753   6.935 -0.3309  0.9915  1.1472
 8734SOL    HW237839   1.655   3.628   7.015  2.0997  0.9485  0.0437
 8735SOL     OW37840   2.230   4.443   7.458  0.0409 -0.2806  0.2379
 8735SOL    HW137841   2.224   4.362   7.407 -2.0288 -1.6717  2.6683
 8735SOL    HW237842   2.183   4.423   7.539  1.4507 -1.8817  0.6649
 8736SOL     OW37843   2.354   2.440   7.580 -0.0259 -0.3019  0.0988
 8736SOL    HW137844   2.289   2.375   7.606 -1.0676  0.2705 -1.0852
 8736SOL    HW237845   2.391   2.448   7.668 -1.7262 -1.1305  0.8885
 8737SOL     OW37846   2.467   3.390   6.144  0.0363  0.1024 -0.4167
 8737SOL    HW137847   2.548   3.399   6.094  1.6311  1.4431  2.4599
 8737SOL    HW237848   2.473   3.470   6.196  1.2584 -0.6475  0.5982
 8738SOL     OW37849   0.713   2.339  10.649 -0.6873 -0.4870 -0.1572
 8738SOL    HW137850   0.632   2.295  10.621 -0.0568 -2.1464  0.6130
 8738SOL    HW237851   0.741   2.285  10.724  4.6645 -0.3205 -2.0320
 8739SOL     OW37852   2.717   0.764   7.563 -0.4805  0.5378 -0.4228
 8739SOL    HW137853   2.682   0.763   7.473  0.8414  2.1622 -0.9540
 8739SOL    HW237854   2.645   0.719   7.606  0.0959 -2.2479 -2.3542
 8740SOL     OW37855   1.055   4.246   2.959 -0.0285  0.2404 -0.3133
 8740SOL    HW137856   0.988   4.185   2.989 -1.4198  1.0577 -1.7837
 8740SOL    HW237857   1.102   4.189   2.899 -1.9857 -0.3648 -1.2682
 8741SOL     OW37858   2.702   2.746   4.935 -0.0155 -0.4126 -0.8754
 8741SOL    HW137859   2.636   2.687   4.899  0.5080 -1.0710 -0.7478
 8741SOL    HW237860   2.753   2.776   4.860 -0.3032  0.0236 -0.8984
 8742SOL     OW37861   4.498   1.829   2.569  0.3658 -0.0298 -0.6026
 8742SOL    HW137862   4.445   1.753   2.594  0.7730 -0.2912 -0.5179
 8742SOL    HW237863   4.443   1.896   2.611  1.6303  1.6466 -1.6245
 8743SOL     OW37864   1.430   1.849  12.718  1.1175 -0.1231 -0.5917
 8743SOL    HW137865   1.375   1.924  12.741  2.8720  1.1048 -0.3840
 8743SOL    HW237866   1.452   1.880  12.631 -1.3370  1.0794 -0.7919
 8744SOL     OW37867   0.009   1.668   5.211  0.4010  0.5438  0.0349
 8744SOL    HW137868   4.700   1.722   5.144 -0.7474 -0.9061 -0.3746
 8744SOL    HW237869   0.102   1.681   5.191  0.3161 -0.3550 -0.9646
 8745SOL     OW37870   0.663   2.960  16.737 -0.7072 -0.3093  0.2669
 8745SOL    HW137871   0.587   2.957  16.795  0.0978  0.2884  1.3516
 8745SOL    HW237872   0.623   2.926  16.657  0.7286  1.1463 -1.0747
 8746SOL     OW37873   1.211   1.746   1.238 -0.7971 -0.1936  0.2495
 8746SOL    HW137874   1.263   1.824   1.258 -1.5733  0.4270 -0.1627
 8746SOL    HW237875   1.225   1.681   1.307 -1.1437  0.1756  0.6690
 8747SOL     OW37876   3.629   2.732  13.913 -0.1064 -0.1782  0.5676
 8747SOL    HW137877   3.592   2.818  13.895  0.6043 -0.4309 -2.1949
 8747SOL    HW237878   3.550   2.689  13.945 -0.6407  2.1855  2.4046
 8748SOL     OW37879   3.964   0.270   9.855  0.2323  0.1429  0.3065
 8748SOL    HW137880   3.906   0.199   9.826 -0.3043  1.0380 -0.8355
 8748SOL    HW237881   3.997   0.243   9.941  0.0448 -0.9682  0.0312
 8749SOL     OW37882   0.068   4.030   4.497 -0.4086  0.4332  0.2891
 8749SOL    HW137883   4.726   4.081   4.524 -1.5374 -0.8500 -0.5330
 8749SOL    HW237884   0.094   4.012   4.588 -1.6961 -2.3008  0.0976
 8750SOL     OW37885   0.765   4.252   6.635 -0.9836 -0.1657  0.0253
 8750SOL    HW137886   0.788   4.206   6.554 -0.7860 -1.1780  0.6552
 8750SOL    HW237887   0.851   4.289   6.655 -0.3697 -0.6088 -1.7402
 8751SOL     OW37888   4.611   2.780   4.015 -0.8539 -0.0639 -0.0304
 8751SOL    HW137889   4.529   2.829   4.004 -0.6212  0.4619  0.5711
 8751SOL    HW237890   4.588   2.726   4.090 -0.6507 -0.8740 -0.5547
 8752SOL     OW37891   3.811   1.696   6.130 -0.4978 -0.5655 -0.3464
 8752SOL    HW137892   3.873   1.698   6.057 -1.6413 -0.2976 -1.2947
 8752SOL    HW237893   3.830   1.776   6.179 -0.4107 -0.6970 -0.1658
 8753SOL     OW37894   0.308   0.489  10.988 -0.0399 -0.3977  0.6352
 8753SOL    HW137895   0.319   0.474  10.894 -2.0162  0.7424  0.2419
 8753SOL    HW237896   0.299   0.584  10.989 -0.4896 -0.4192 -1.5032
 8754SOL     OW37897   2.439   2.164  16.157 -0.5815 -0.1593 -0.4896
 8754SOL    HW137898   2.461   2.228  16.224 -1.3326  0.1703 -0.5561
 8754SOL    HW237899   2.528   2.135  16.138 -1.0122 -2.0519  0.3819
 8755SOL     OW37900   0.559   4.540   3.990  0.0435 -0.1082  0.5306
 8755SOL    HW137901   0.504   4.484   4.045 -0.2858  0.4849  0.8148
 8755SOL    HW237902   0.560   4.502   3.902 -0.9075  1.0865 -0.0107
 8756SOL     OW37903   4.598   3.023   1.994 -0.4272  0.1257  0.2028
 8756SOL    HW137904   4.524   3.019   1.933  0.8740  0.1333 -1.3605
 8756SOL    HW237905   4.670   3.002   1.936 -1.0199 -0.3343 -0.3604
 8757SOL     OW37906   2.741   3.581   4.381 -0.1042 -0.1123  0.0515
 8757SOL    HW137907   2.799   3.647   4.420 -1.1865 -0.2138  1.8655
 8757SOL    HW237908   2.795   3.504   4.366  1.5824  0.9779  0.4445
 8758SOL     OW37909   0.036   2.746   4.671  0.5060 -0.3198 -0.4202
 8758SOL    HW137910   4.716   2.703   4.736  0.3577 -1.4093 -1.2796
 8758SOL    HW237911   0.058   2.824   4.722 -2.9525 -0.3577  1.1440
 8759SOL     OW37912   1.697   0.825   0.226  0.0497  0.0211 -0.3099
 8759SOL    HW137913   1.760   0.864   0.166 -2.1156 -0.8270 -3.1320
 8759SOL    HW237914   1.757   0.764   0.271 -0.9734  0.3480  1.4940
 8760SOL     OW37915   0.192   4.013   2.141  0.3835 -0.2373  0.5751
 8760SOL    HW137916   0.098   4.022   2.152  0.7076  2.1572  1.2540
 8760SOL    HW237917   0.226   3.985   2.226  0.7222 -0.5246  0.3494
 8761SOL     OW37918   2.761   0.171  14.827 -0.4668  0.1040 -0.2131
 8761SOL    HW137919   2.816   0.116  14.882  1.2041 -1.6972 -3.6856
 8761SOL    HW237920   2.828   0.232  14.794 -0.2276  0.6302  1.2504
 8762SOL     OW37921   3.964   3.187   6.838  0.0149 -0.3786  0.3974
 8762SOL    HW137922   4.043   3.153   6.880  0.1206 -0.2766  0.2824
 8762SOL    HW237923   3.997   3.217   6.753  0.0332 -2.3564 -0.2869
 8763SOL     OW37924   0.934   0.860   3.523  0.1348 -0.5497  0.3515
 8763SOL    HW137925   1.007   0.921   3.507  0.8832 -2.1656 -2.4435
 8763SOL    HW237926   0.978   0.783   3.487 -0.3584 -1.1166  0.9685
 8764SOL     OW37927   2.054   0.196   7.728  0.0294  0.2345  0.3400
 8764SOL    HW137928   1.995   0.209   7.802 -0.0608 -0.7243  0.4382
 8764SOL    HW237929   2.081   0.287   7.713  0.1681  0.2337  0.5893
 8765SOL     OW37930   1.970   2.842   0.019 -0.2347  0.1994  0.7957
 8765SOL    HW137931   2.012   2.865  17.675 -0.4852  1.0126  0.8910
 8765SOL    HW237932   1.943   2.751   0.006 -1.3879  0.8371 -1.3502
 8766SOL     OW37933   4.205   2.560   2.709 -0.0609 -0.1531  0.2698
 8766SOL    HW137934   4.288   2.606   2.720 -0.4907  0.1490  2.2104
 8766SOL    HW237935   4.197   2.519   2.795 -0.5908 -0.3735  0.1106
 8767SOL     OW37936   1.398   0.980   1.392 -0.4600 -0.4407  0.0691
 8767SOL    HW137937   1.395   0.948   1.483  1.1333 -1.9603 -0.4088
 8767SOL    HW237938   1.346   0.912   1.349  1.7884 -1.0910 -1.5790
 8768SOL     OW37939   2.886   2.527   8.519  0.0136  0.0036 -0.1076
 8768SOL    HW137940   2.860   2.610   8.558 -2.8299 -0.9772  0.0995
 8768SOL    HW237941   2.817   2.516   8.453 -1.5494  0.5647  1.4410
 8769SOL     OW37942   0.334   4.087  12.739 -0.0408 -0.0909 -0.1294
 8769SOL    HW137943   0.286   4.051  12.665 -1.8309  1.5895  0.2270
 8769SOL    HW237944   0.426   4.074  12.715 -0.2975  1.9153 -2.1379
 8770SOL     OW37945   4.315   3.704   2.592  0.2021  0.1952 -0.1089
 8770SOL    HW137946   4.225   3.734   2.581 -0.4537 -1.9935 -0.7757
 8770SOL    HW237947   4.299   3.658   2.674 -0.8097 -0.8186 -0.8824
 8771SOL     OW37948   3.379   2.304   2.847  0.3306  0.2964 -0.1384
 8771SOL    HW137949   3.349   2.316   2.937  0.3163 -1.8697  0.1560
 8771SOL    HW237950   3.423   2.220   2.864  0.3414  0.6289  1.4724
 8772SOL     OW37951   4.319   3.025   7.899 -0.4266  0.1020 -0.2666
 8772SOL    HW137952   4.237   2.983   7.927 -0.0914 -1.0760 -1.0517
 8772SOL    HW237953   4.375   3.035   7.976  2.7843 -0.6342 -2.5188
 8773SOL     OW37954   4.594   0.217   2.563 -0.0718 -0.3066  0.1200
 8773SOL    HW137955   4.590   0.175   2.649  2.2930  0.2002  0.4983
 8773SOL    HW237956   4.597   0.138   2.509  0.7491  0.1556 -0.5069
 8774SOL     OW37957   2.353   0.441   3.864 -0.9160 -0.4798 -0.4961
 8774SOL    HW137958   2.352   0.350   3.893 -1.6999 -0.1465  0.5453
 8774SOL    HW237959   2.405   0.486   3.931  1.4895 -1.2520 -1.8661
 8775SOL     OW37960   4.205   3.303   3.499 -0.0237 -0.7808 -0.2555
 8775SOL    HW137961   4.251   3.357   3.434 -1.6702  0.5569 -0.3069
 8775SOL    HW237962   4.180   3.227   3.447  1.3779 -1.3431 -0.1127
 8776SOL     OW37963   1.973   3.727   2.973  0.1204  0.3216  0.3533
 8776SOL    HW137964   2.051   3.776   2.947  1.0637  0.2427  3.0610
 8776SOL    HW237965   2.002   3.637   2.984 -1.6209 -0.2164  0.5778
 8777SOL     OW37966   2.531   1.238  16.584  0.1066  0.2170 -0.1394
 8777SOL    HW137967   2.551   1.205  16.496  0.3087  0.4795 -0.1928
 8777SOL    HW237968   2.562   1.327  16.563  1.6958  0.0426  1.4880
 8778SOL     OW37969   4.012   4.046  12.166  0.1380  0.8054 -0.0497
 8778SOL    HW137970   4.075   4.021  12.098 -1.7969  0.1561 -1.5937
 8778SOL    HW237971   3.969   3.961  12.167  0.6919  0.5475  1.9626
 8779SOL     OW37972   4.278   4.495  11.220  0.4477 -0.0633  0.3278
 8779SOL    HW137973   4.268   4.586  11.193  2.9127  0.4020  1.0465
 8779SOL    HW237974   4.243   4.452  11.142  2.0746 -2.7827  1.1080
 8780SOL     OW37975   3.796   4.515   7.799 -0.4405 -0.3880  0.0071
 8780SOL    HW137976   3.846   4.434   7.805 -0.6354 -0.6552 -1.9334
 8780SOL    HW237977   3.705   4.486   7.788  0.1262 -2.6757  1.3300
 8781SOL     OW37978   4.177   0.990   8.579 -0.1053 -0.4268  0.0592
 8781SOL    HW137979   4.226   1.058   8.626 -1.0144 -0.4103  0.9853
 8781SOL    HW237980   4.241   0.926   8.547 -0.6252 -1.0015  0.1676
 8782SOL     OW37981   4.652   2.490  16.433  0.4032 -0.3110  0.1711
 8782SOL    HW137982   4.735   2.504  16.387 -0.4461 -0.5232 -1.4055
 8782SOL    HW237983   4.608   2.431  16.372  0.3103 -0.7229  0.6436
 8783SOL     OW37984   2.016   4.051   6.685  0.9452 -0.4332  0.5308
 8783SOL    HW137985   1.957   4.104   6.738  1.0673 -0.8147  1.0506
 8783SOL    HW237986   2.101   4.085   6.714  1.7263  0.8029 -3.1398
 8784SOL     OW37987   1.570   4.696   6.214  0.0203 -0.2080  0.1024
 8784SOL    HW137988   1.556   4.625   6.277 -3.9948  0.3986 -0.1609
 8784SOL    HW237989   1.608   0.033   6.264  2.0219 -1.4722  0.4524
 8785SOL     OW37990   1.831   3.299   2.624 -0.0776 -0.1650  0.7653
 8785SOL    HW137991   1.827   3.215   2.669 -0.0346  0.2983  1.6381
 8785SOL    HW237992   1.818   3.351   2.703 -0.0109  2.0381 -0.6720
 8786SOL     OW37993   0.219   3.740   0.559  0.0003  0.0131 -0.5596
 8786SOL    HW137994   0.146   3.735   0.497  1.2476  1.0512 -2.1281
 8786SOL    HW237995   0.170   3.757   0.639  0.8658  1.2826 -0.2905
 8787SOL     OW37996   0.034   3.037   9.882  0.2138 -0.0553  0.3321
 8787SOL    HW137997   0.083   2.998   9.810  0.2679 -1.0797  0.9176
 8787SOL    HW237998   0.096   3.104   9.908 -0.7401  0.8541  0.2373
 8788SOL     OW37999   3.962   3.109   6.330 -0.5090 -0.0930 -0.5655
 8788SOL    HW138000   4.032   3.152   6.378 -0.6785 -1.2320  0.6724
 8788SOL    HW238001   3.907   3.183   6.304  0.7928  0.8502 -0.6315
 8789SOL     OW38002   0.113   0.778   6.598  0.1929 -0.1715  0.4050
 8789SOL    HW138003   0.086   0.784   6.690 -1.6552  0.8313 -0.2086
 8789SOL    HW238004   0.205   0.796   6.613  0.4592 -0.6096 -0.6777
 8790SOL     OW38005   2.398   4.180   1.846  0.1211 -0.2421 -0.5568
 8790SOL    HW138006   2.386   4.086   1.855  2.1090 -0.6805 -2.4976
 8790SOL    HW238007   2.308   4.208   1.836 -0.7609 -1.2833  4.4832
 8791SOL     OW38008   1.616   3.586   3.328 -0.1164  0.1660 -0.2392
 8791SOL    HW138009   1.532   3.624   3.301  0.7157  0.1587 -2.8719
 8791SOL    HW238010   1.612   3.605   3.422  0.3608 -1.0373  0.0184
 8792SOL     OW38011   2.740   3.316   3.590 -0.7726  0.1514  0.2440
 8792SOL    HW138012   2.756   3.341   3.680 -0.6916  0.0634  0.2546
 8792SOL    HW238013   2.713   3.393   3.539 -0.4870 -1.9976 -3.1811
 8793SOL     OW38014   0.303   3.170   3.634  0.1621 -0.0511 -0.1837
 8793SOL    HW138015   0.243   3.163   3.708  0.7778  0.4534  0.3662
 8793SOL    HW238016   0.254   3.213   3.564  1.0016  1.3503  0.0923
 8794SOL     OW38017   0.184   1.435   6.195 -0.1513  0.1475  0.3864
 8794SOL    HW138018   0.143   1.359   6.153 -2.0069 -0.2621  2.8677
 8794SOL    HW238019   0.145   1.500   6.138  2.4804  0.8488 -0.6123
 8795SOL     OW38020   0.677   3.233  10.637 -0.4310  0.3936 -0.3875
 8795SOL    HW138021   0.627   3.193  10.566 -0.1823  2.4846 -1.7069
 8795SOL    HW238022   0.700   3.314  10.592 -1.2733  1.5792  1.3122
 8796SOL     OW38023   2.288   3.410   7.122 -0.2104  0.2368 -0.0367
 8796SOL    HW138024   2.316   3.482   7.179 -2.3847  0.6635  0.5052
 8796SOL    HW238025   2.264   3.465   7.048 -0.8733  1.7971  1.3156
 8797SOL     OW38026   3.442   3.055   7.646  0.0029 -0.5316 -0.0263
 8797SOL    HW138027   3.402   3.142   7.650 -2.6554 -1.7193 -0.8434
 8797SOL    HW238028   3.380   3.003   7.697  2.8074 -2.6014  1.2712
 8798SOL     OW38029   1.255   3.299   3.829  0.3520  0.1338  0.1816
 8798SOL    HW138030   1.344   3.263   3.826  0.0816 -0.6328  1.1215
 8798SOL    HW238031   1.229   3.251   3.908 -1.9988  0.4174 -0.4134
 8799SOL     OW38032   1.556   4.491   7.399 -0.4299  0.6218 -0.4054
 8799SOL    HW138033   1.496   4.508   7.327 -0.7774  2.0235  0.2166
 8799SOL    HW238034   1.497   4.466   7.469  0.0838  1.6561  0.4058
 8800SOL     OW38035   0.056   0.105   9.072  0.2957 -0.0768 -0.3107
 8800SOL    HW138036   4.706   0.144   9.093 -0.0391 -0.5346 -0.8144
 8800SOL    HW238037   0.087   0.090   9.161  0.5786 -0.3437 -0.4541
 8801SOL     OW38038   3.438   4.298  11.989  0.4993 -0.2095  0.6150
 8801SOL    HW138039   3.491   4.353  11.931 -0.8192  0.1705 -0.2298
 8801SOL    HW238040   3.481   4.212  11.989 -0.3960 -0.6653  1.2059
 8802SOL     OW38041   2.184   1.081  15.659 -0.4392 -0.5964  0.3126
 8802SOL    HW138042   2.125   1.054  15.729 -0.9770 -1.0762 -0.3207
 8802SOL    HW238043   2.242   1.131  15.716 -1.6819 -1.8075  2.6307
 8803SOL     OW38044   4.614   4.556   4.708 -0.1912  0.0949 -0.4387
 8803SOL    HW138045   4.631   4.628   4.769 -2.8942  0.4046 -0.0563
 8803SOL    HW238046   4.527   4.523   4.731 -0.2559 -0.2546 -1.1855
 8804SOL     OW38047   2.257   0.334   7.861  0.3084 -0.5692 -0.4763
 8804SOL    HW138048   2.333   0.336   7.804  0.0143 -1.0095 -0.8805
 8804SOL    HW238049   2.300   0.320   7.945 -0.8712  0.2463  0.2831
 8805SOL     OW38050   3.436   4.727   3.422 -0.3056  0.7558  0.2421
 8805SOL    HW138051   3.450   4.646   3.471  0.0415  1.4076  1.1981
 8805SOL    HW238052   3.526   0.024   3.426 -0.8053  2.0294  0.9839
 8806SOL     OW38053   0.171   0.857   8.570 -0.0143  0.3041  0.4891
 8806SOL    HW138054   0.134   0.944   8.582  0.9968  0.8808 -0.5851
 8806SOL    HW238055   0.253   0.883   8.528  0.1829 -2.1840 -0.6754
 8807SOL     OW38056   1.356   0.084  13.124  0.5219  0.8195  0.0853
 8807SOL    HW138057   1.390   0.086  13.214  1.6439 -2.9071 -0.2585
 8807SOL    HW238058   1.281   0.143  13.126  0.6593  0.9215  3.0139
 8808SOL     OW38059   4.473   0.501   5.853 -0.5552  0.3995 -0.3106
 8808SOL    HW138060   4.419   0.568   5.811 -1.2198  0.9071  1.3656
 8808SOL    HW238061   4.532   0.556   5.904 -0.7865 -1.0029  1.4676
 8809SOL     OW38062   4.160   2.877   5.526  0.1951  0.3787 -0.1028
 8809SOL    HW138063   4.200   2.810   5.583  0.3927  1.0170  0.5104
 8809SOL    HW238064   4.145   2.950   5.586 -0.5655  0.7611 -0.7657
 8810SOL     OW38065   3.499   4.687  17.370  0.0778 -0.6799  0.0556
 8810SOL    HW138066   3.491   4.620  17.438  2.4670 -0.1535  0.8498
 8810SOL    HW238067   3.593   4.703  17.368 -0.3280  1.7304  0.5676
 8811SOL     OW38068   2.987   3.490   2.995 -0.2812 -0.4718  0.3598
 8811SOL    HW138069   2.902   3.489   3.039  0.6881  1.9702  2.3067
 8811SOL    HW238070   3.025   3.403   2.999  2.8859  0.8436 -1.5455
 8812SOL     OW38071   3.438   2.474   2.003  0.7727  0.1661 -0.3239
 8812SOL    HW138072   3.415   2.553   2.051  0.2976 -2.1506  3.2483
 8812SOL    HW238073   3.513   2.509   1.956  0.1239  0.6175 -1.0426
 8813SOL     OW38074   2.854   3.512   6.850 -0.5375 -0.3964 -0.8439
 8813SOL    HW138075   2.773   3.557   6.872  0.0962  0.2339  0.2191
 8813SOL    HW238076   2.834   3.419   6.855 -0.0228 -0.5365 -1.3163
 8814SOL     OW38077   0.093   0.733  15.494  0.2058  0.6573  0.3799
 8814SOL    HW138078   0.033   0.807  15.480 -0.1616  0.2923  0.0378
 8814SOL    HW238079   0.124   0.736  15.585 -0.9730  1.1187  0.7641
 8815SOL     OW38080   4.135   2.838   7.986 -0.1053 -0.1006  0.9573
 8815SOL    HW138081   4.094   2.758   8.019  1.2741 -1.0416  0.3712
 8815SOL    HW238082   4.055   2.876   7.951  0.5277 -0.4108 -0.8428
 8816SOL     OW38083   4.169   2.503   0.590  0.6669 -0.2150  0.5625
 8816SOL    HW138084   4.106   2.472   0.525  0.6895 -1.4545  1.1484
 8816SOL    HW238085   4.136   2.454   0.665  1.1140 -0.9906  0.2396
 8817SOL     OW38086   4.716   0.586  15.811 -0.2422 -0.2845  0.5463
 8817SOL    HW138087   0.010   0.658  15.866  0.2100 -0.8023  0.9887
 8817SOL    HW238088   4.724   0.520  15.881 -2.5652  0.9404  1.9939
 8818SOL     OW38089   2.817   1.581   2.950  0.0087 -0.1058  1.1779
 8818SOL    HW138090   2.753   1.519   2.983 -0.3276 -0.3469  0.0563
 8818SOL    HW238091   2.900   1.541   2.975 -0.1762 -0.5210  1.1153
 8819SOL     OW38092   4.615   3.165   3.350  0.0236 -0.0272 -0.0535
 8819SOL    HW138093   4.676   3.152   3.278 -0.6233  0.2072 -0.6368
 8819SOL    HW238094   4.532   3.167   3.302  0.4422  4.2483 -0.5925
 8820SOL     OW38095   4.625   3.406   2.847  0.6349 -0.3710 -0.0770
 8820SOL    HW138096   4.667   3.344   2.788  0.5476 -0.2910 -0.2244
 8820SOL    HW238097   4.655   3.493   2.821 -3.3819  0.9243 -0.4915
 8821SOL     OW38098   4.096   3.125  16.698 -0.4510 -0.0608 -0.2398
 8821SOL    HW138099   4.019   3.075  16.724 -1.2091 -0.2243 -2.8797
 8821SOL    HW238100   4.150   3.085  16.768 -0.7159 -1.1201 -0.6436
 8822SOL     OW38101   4.656   2.013  10.344 -0.6489  0.1957  0.2116
 8822SOL    HW138102   4.655   2.038  10.436  1.2216 -3.7063  1.2729
 8822SOL    HW238103   0.010   2.036  10.318 -0.8508  0.5246 -0.2037
 8823SOL     OW38104   4.166   3.970  17.235  0.4079 -0.2910 -0.3124
 8823SOL    HW138105   4.245   3.925  17.266 -0.2131 -1.8257 -0.9678
 8823SOL    HW238106   4.105   3.914  17.187  1.0451 -0.7774 -0.5529
 8824SOL     OW38107   2.368   0.542   4.785  0.0609 -0.1894 -0.1672
 8824SOL    HW138108   2.410   0.461   4.756  1.0478 -0.1482  1.1796
 8824SOL    HW238109   2.332   0.512   4.868 -0.5519 -2.9211 -1.4270
 8825SOL     OW38110   0.742   0.745   7.680 -0.1251  0.0147 -0.3875
 8825SOL    HW138111   0.699   0.820   7.639 -0.2209  0.2479  0.1404
 8825SOL    HW238112   0.702   0.674   7.629 -1.7713 -1.4553  2.9506
 8826SOL     OW38113   3.216   0.723   9.359 -0.1736  0.5306  0.1108
 8826SOL    HW138114   3.202   0.731   9.453  1.0496 -1.2056  0.4463
 8826SOL    HW238115   3.257   0.637   9.359 -0.9721  0.1491 -1.3033
 8827SOL     OW38116   0.464   1.914  10.832  0.2322  0.1253  0.0010
 8827SOL    HW138117   0.418   1.831  10.818  0.7613 -0.5776  2.5130
 8827SOL    HW238118   0.535   1.907  10.767  1.2710  0.6083  1.0927
 8828SOL     OW38119   2.421   3.666  12.523 -0.1676 -0.6200 -0.1561
 8828SOL    HW138120   2.398   3.599  12.458 -0.1306  0.3466 -1.1752
 8828SOL    HW238121   2.377   3.743  12.487  1.0557 -0.0342 -0.4148
 8829SOL     OW38122   2.337   1.780   8.330 -0.2366  0.5400  1.0380
 8829SOL    HW138123   2.313   1.804   8.420  0.4615  1.7697  0.8896
 8829SOL    HW238124   2.431   1.760   8.337 -0.1410  0.7774  0.3820
 8830SOL     OW38125   3.432   3.917   6.947  0.0650  0.0699 -0.3783
 8830SOL    HW138126   3.383   3.861   6.887 -0.8754 -0.9063  1.3023
 8830SOL    HW238127   3.484   3.846   6.985  0.3854  0.5875  0.1479
 8831SOL     OW38128   4.475   2.830  17.025  0.6467  0.5123  0.2170
 8831SOL    HW138129   4.508   2.798  16.942  1.1046 -0.6679  0.8583
 8831SOL    HW238130   4.440   2.747  17.058 -0.6178  1.1491  0.4755
 8832SOL     OW38131   2.463   2.325  16.941  0.8903  0.4148 -0.1288
 8832SOL    HW138132   2.449   2.399  16.881 -0.0197 -0.1859 -0.6447
 8832SOL    HW238133   2.435   2.354  17.028 -3.9740 -1.1707 -1.1698
 8833SOL     OW38134   2.590   4.262  11.434  0.4798  0.9913 -0.0678
 8833SOL    HW138135   2.616   4.354  11.430 -2.7010  1.8767 -0.4084
 8833SOL    HW238136   2.495   4.264  11.445  0.4434 -0.0067 -0.2036
 8834SOL     OW38137   0.553   4.038   3.561  0.2955 -0.2307 -0.1155
 8834SOL    HW138138   0.571   4.018   3.469  0.6009 -0.0233 -0.1037
 8834SOL    HW238139   0.647   4.021   3.574  0.9972  0.5856 -4.2000
 8835SOL     OW38140   1.833   4.265   5.292 -0.0685 -0.3116 -0.0234
 8835SOL    HW138141   1.738   4.271   5.297 -0.0342 -0.4156  0.7448
 8835SOL    HW238142   1.844   4.276   5.386  0.5306  0.0446 -0.1370
 8836SOL     OW38143   0.363   2.839   4.116 -0.1302 -0.3934 -0.1829
 8836SOL    HW138144   0.372   2.916   4.173  3.2382  0.2022 -1.5011
 8836SOL    HW238145   0.435   2.849   4.054 -1.0106 -0.1296 -1.1537
 8837SOL     OW38146   4.439   1.108   1.176 -0.5507 -0.1051 -0.1600
 8837SOL    HW138147   4.356   1.154   1.188 -0.2024 -0.0633  2.1016
 8837SOL    HW238148   4.438   1.116   1.080  1.5208 -1.4247 -0.2941
 8838SOL     OW38149   2.720   3.285   4.953  0.3100  0.1219  1.1739
 8838SOL    HW138150   2.720   3.373   4.991 -1.9798  1.4995 -1.9718
 8838SOL    HW238151   2.675   3.238   5.022  1.6985 -1.0579  1.2830
 8839SOL     OW38152   1.848   0.891  11.496 -0.3403  0.6632  0.3349
 8839SOL    HW138153   1.780   0.830  11.525 -0.3771 -0.3828 -1.9097
 8839SOL    HW238154   1.814   0.906  11.407  1.2630 -1.6638 -0.6648
 8840SOL     OW38155   4.077   2.898   6.151 -0.2594  0.5666  0.4584
 8840SOL    HW138156   4.114   2.904   6.240  1.3586  3.3735 -0.3918
 8840SOL    HW238157   3.996   2.949   6.154 -1.5202 -1.4530  0.5261
 8841SOL     OW38158   1.297   1.432  12.251 -0.4387  0.6982  0.3871
 8841SOL    HW138159   1.378   1.479  12.271  2.0725 -2.2858 -2.8220
 8841SOL    HW238160   1.287   1.423  12.156 -1.9499 -1.2179  0.7188
 8842SOL     OW38161   0.155   0.359  11.919 -0.8500  0.0990  0.2634
 8842SOL    HW138162   0.197   0.335  11.836 -0.6736  2.0810 -0.2325
 8842SOL    HW238163   0.063   0.358  11.893 -0.9638 -2.2657  0.7699
 8843SOL     OW38164   0.834   4.211  11.328  0.2544 -0.5618  0.5173
 8843SOL    HW138165   0.825   4.236  11.236  0.0162  0.6884  0.8832
 8843SOL    HW238166   0.772   4.272  11.368  1.4959  1.3790 -0.4783
 8844SOL     OW38167   4.539   1.548   7.905  0.0081 -0.1827  0.1406
 8844SOL    HW138168   4.592   1.619   7.869  0.0134  0.8564  2.2013
 8844SOL    HW238169   4.476   1.597   7.958 -1.5358 -1.2073 -0.7522
 8845SOL     OW38170   4.030   2.352   3.756 -0.4302 -0.4702  0.7050
 8845SOL    HW138171   4.118   2.325   3.729 -0.7278  0.1195 -0.8036
 8845SOL    HW238172   4.056   2.407   3.830 -0.3279  1.6749 -0.9322
 8846SOL     OW38173   3.719   2.542  15.867  0.6353  0.0193  0.1933
 8846SOL    HW138174   3.811   2.567  15.862  0.5281  0.3826  0.0796
 8846SOL    HW238175   3.684   2.572  15.783 -2.9563  1.8308  2.3264
 8847SOL     OW38176   2.346   0.789   8.072 -0.2382 -0.2255 -0.3276
 8847SOL    HW138177   2.399   0.783   7.993 -0.0611  0.4076 -0.2527
 8847SOL    HW238178   2.278   0.725   8.049  0.6082 -1.2497 -0.0204
 8848SOL     OW38179   3.733   1.536   3.976 -0.1244 -0.0436  0.5159
 8848SOL    HW138180   3.693   1.462   3.931  1.0235  0.0757 -0.7045
 8848SOL    HW238181   3.661   1.589   4.010 -0.6704 -0.6021  0.2324
 8849SOL     OW38182   3.040   2.216   8.952 -0.9177  0.4994 -0.7887
 8849SOL    HW138183   3.089   2.285   8.907  2.7982 -2.0304 -0.5871
 8849SOL    HW238184   2.978   2.267   9.004 -2.1764 -1.0478 -0.7703
 8850SOL     OW38185   0.298   4.076   6.752  0.1187 -0.5480  0.1025
 8850SOL    HW138186   0.269   4.085   6.842 -0.6247 -0.9701 -0.0922
 8850SOL    HW238187   0.385   4.113   6.766  0.6991 -1.7994 -0.2474
 8851SOL     OW38188   0.921   1.050  15.988 -0.1544 -0.3087 -0.6655
 8851SOL    HW138189   0.900   1.104  15.912 -0.5195 -1.7442 -1.5918
 8851SOL    HW238190   0.995   1.100  16.022  0.7682 -0.8530 -1.8598
 8852SOL     OW38191   3.357   4.530  10.782 -0.3624  0.0679  0.3928
 8852SOL    HW138192   3.387   4.619  10.762 -0.6695 -0.1563 -1.0666
 8852SOL    HW238193   3.272   4.529  10.737 -0.1649 -3.1816  0.1269
 8853SOL     OW38194   2.543   3.706   1.553 -0.2554 -0.5545 -0.0679
 8853SOL    HW138195   2.465   3.761   1.547 -0.8266 -1.0066  2.9843
 8853SOL    HW238196   2.538   3.667   1.640 -0.2087 -0.5200 -0.0497
 8854SOL     OW38197   4.656   2.592   9.527 -0.4698  0.0445  0.0014
 8854SOL    HW138198   4.670   2.556   9.439 -0.5729  1.4988 -0.6236
 8854SOL    HW238199   0.009   2.629   9.535 -0.4509  0.1261 -0.5802
 8855SOL     OW38200   3.646   0.970   6.365  0.5127 -0.1425 -0.2307
 8855SOL    HW138201   3.683   1.006   6.284  2.1053 -1.6820 -0.1844
 8855SOL    HW238202   3.557   0.964   6.329  1.0139  0.3865 -1.5620
 8856SOL     OW38203   1.720   0.664   3.195  0.6243 -0.2350 -0.1553
 8856SOL    HW138204   1.756   0.743   3.154 -1.8970  0.2792 -1.4082
 8856SOL    HW238205   1.797   0.608   3.196  0.7541 -0.0658 -0.8161
 8857SOL     OW38206   4.504   4.060   2.041  0.2378  0.2878  0.0057
 8857SOL    HW138207   4.413   4.048   2.017  0.5406 -0.0277 -0.9591
 8857SOL    HW238208   4.529   4.133   1.983 -1.2898  1.1304  0.4065
 8858SOL     OW38209   0.169   1.646   7.913  0.6896 -0.2693  0.5324
 8858SOL    HW138210   0.189   1.580   7.847  0.3694  0.5381 -0.3690
 8858SOL    HW238211   0.087   1.684   7.883  0.5924 -1.1572 -0.3270
 8859SOL     OW38212   3.901   3.287   4.177 -0.3850  0.7084 -0.3491
 8859SOL    HW138213   3.859   3.201   4.179  2.1378 -0.5571 -1.2090
 8859SOL    HW238214   3.862   3.328   4.100 -1.3464  0.6558  0.1210
 8860SOL     OW38215   3.512   4.085  10.919  0.9730 -0.1128 -0.2320
 8860SOL    HW138216   3.584   4.134  10.957  0.3333 -0.0798  0.9381
 8860SOL    HW238217   3.457   4.069  10.996  1.6399  1.1497  0.5031
 8861SOL     OW38218   1.523   3.444   5.840  0.5363  0.7454  0.7464
 8861SOL    HW138219   1.433   3.430   5.809  1.4840 -1.5507 -1.0426
 8861SOL    HW238220   1.570   3.477   5.764 -1.0662  1.7291  0.1751
 8862SOL     OW38221   0.276   0.608   8.327  0.3057 -0.4655 -0.3928
 8862SOL    HW138222   0.333   0.586   8.400 -1.3726  2.2736  1.7090
 8862SOL    HW238223   0.220   0.679   8.358 -1.5387 -2.2139  0.3066
 8863SOL     OW38224   1.826   1.189   7.905 -0.1791 -0.6078 -0.3829
 8863SOL    HW138225   1.865   1.152   7.984 -0.2437 -0.0975 -0.1097
 8863SOL    HW238226   1.752   1.134   7.880  0.1879 -1.2174 -0.1229
 8864SOL     OW38227   2.618   2.297  14.566 -0.3558 -0.4542 -0.0482
 8864SOL    HW138228   2.714   2.298  14.556 -0.3023  1.9031  0.6028
 8864SOL    HW238229   2.599   2.204  14.559  0.4060 -0.6247  0.1105
 8865SOL     OW38230   3.744   0.580   4.236  0.1808 -0.1792 -0.1762
 8865SOL    HW138231   3.669   0.616   4.282  1.3506 -1.3386  2.6395
 8865SOL    HW238232   3.704   0.572   4.150 -0.5414  0.5758  0.0909
 8866SOL     OW38233   2.875   0.754   6.522  0.5524  0.1300 -0.3881
 8866SOL    HW138234   2.785   0.783   6.504 -0.2104 -2.7893 -1.2671
 8866SOL    HW238235   2.864   0.659   6.512  1.3247  0.1473 -1.4238
 8867SOL     OW38236   1.102   0.477  14.662 -0.1531  0.1213  0.4441
 8867SOL    HW138237   1.147   0.431  14.733 -0.8412 -2.4561 -0.7650
 8867SOL    HW238238   1.151   0.558  14.651  0.8038 -0.2048  2.4119
 8868SOL     OW38239   1.881   0.014  16.955  0.6102  0.2675  0.0432
 8868SOL    HW138240   1.943   4.689  16.914  0.4650 -0.5270  0.9859
 8868SOL    HW238241   1.932   0.029  17.035  0.2394  2.2951 -0.1031
 8869SOL     OW38242   4.209   4.396   9.237 -0.6336 -0.2983 -0.1695
 8869SOL    HW138243   4.230   4.408   9.145 -1.5468  3.2085  0.0873
 8869SOL    HW238244   4.114   4.382   9.243 -0.9318  1.4843 -0.7203
 8870SOL     OW38245   0.140   3.813   9.733  0.1723 -0.0788  0.4639
 8870SOL    HW138246   0.050   3.787   9.753  0.1308  0.3131  0.7921
 8870SOL    HW238247   0.131   3.908   9.721 -2.2889 -0.6684 -2.4680
 8871SOL     OW38248   3.869   4.093   4.302  0.1535 -0.5141 -0.2186
 8871SOL    HW138249   3.884   4.126   4.213  1.4406 -0.4338  0.0185
 8871SOL    HW238250   3.957   4.080   4.338  0.9060  0.8529 -1.5425
 8872SOL     OW38251   2.743   1.205   2.287 -0.4653  0.7501  0.2416
 8872SOL    HW138252   2.758   1.113   2.266  3.3440  1.0929  1.3922
 8872SOL    HW238253   2.651   1.210   2.263 -0.3492 -1.3968 -0.6248
 8873SOL     OW38254   1.231   2.256   3.063 -0.2635  1.0598  0.0405
 8873SOL    HW138255   1.191   2.172   3.040 -1.4246  1.6879 -0.2706
 8873SOL    HW238256   1.174   2.318   3.018 -0.9462  0.3632 -0.0694
 8874SOL     OW38257   0.164   2.810   3.314  0.1578  0.1434  0.1787
 8874SOL    HW138258   0.110   2.817   3.393  0.4394  1.5031  0.2562
 8874SOL    HW238259   0.113   2.742   3.270 -1.5278  1.5736 -0.0888
 8875SOL     OW38260   2.417   3.871  10.785 -0.1889  0.0489 -0.3839
 8875SOL    HW138261   2.471   3.798  10.814  0.2615 -0.5270 -2.6405
 8875SOL    HW238262   2.335   3.829  10.760  0.6795 -0.8528 -1.6918
 8876SOL     OW38263   4.464   0.997   6.734  0.5802  0.2734  0.2606
 8876SOL    HW138264   4.495   1.027   6.648 -1.3589 -1.0699 -0.8955
 8876SOL    HW238265   4.445   0.904   6.725  2.2500 -0.1485  1.0421
 8877SOL     OW38266   0.978   0.253   2.142  0.2879 -0.2274  0.4310
 8877SOL    HW138267   0.915   0.234   2.211  0.0124 -1.5889 -0.2063
 8877SOL    HW238268   1.059   0.256   2.192  1.3000  0.9706 -1.2554
 8878SOL     OW38269   1.235   2.806   4.791  0.2561  0.3716 -0.0614
 8878SOL    HW138270   1.202   2.875   4.734  0.9330  1.2922  0.6656
 8878SOL    HW238271   1.310   2.789   4.735  0.8511  2.5127  0.0788
 8879SOL     OW38272   4.124   4.089  11.666  0.0910 -0.0219 -0.1536
 8879SOL    HW138273   4.171   4.138  11.598 -0.2231 -0.1162 -0.4363
 8879SOL    HW238274   4.057   4.044  11.615  1.0075  0.6881 -2.0068
 8880SOL     OW38275   1.922   1.137   7.339 -0.2426  0.4858 -0.3091
 8880SOL    HW138276   1.969   1.198   7.396  0.6937  0.5501 -1.1431
 8880SOL    HW238277   1.828   1.151   7.342 -0.4584 -1.0448  0.2473
 8881SOL     OW38278   3.172   1.689   6.677  0.3164 -0.2373 -0.2984
 8881SOL    HW138279   3.127   1.629   6.616  0.4827  0.0172 -0.6728
 8881SOL    HW238280   3.234   1.738   6.624 -0.6011  3.8639  2.4430
 8882SOL     OW38281   3.290   4.126   5.386 -0.4885 -0.1268 -0.3245
 8882SOL    HW138282   3.362   4.079   5.342  0.6420  0.4900  0.8711
 8882SOL    HW238283   3.332   4.211   5.397 -0.3932 -0.2980  0.5800
 8883SOL     OW38284   2.277   4.470  14.497  0.1113  0.5713 -0.4429
 8883SOL    HW138285   2.364   4.448  14.463 -0.3919 -0.6599 -0.9105
 8883SOL    HW238286   2.244   4.534  14.433  0.4827 -0.0917 -1.3021
 8884SOL     OW38287   0.766   2.976   8.990 -0.3709  0.3825 -0.2317
 8884SOL    HW138288   0.842   2.995   9.045 -0.6378  1.3434 -0.1990
 8884SOL    HW238289   0.787   2.886   8.965 -0.0776  0.0718  1.1596
 8885SOL     OW38290   2.001   1.564  16.849  0.3310 -0.8079 -0.8622
 8885SOL    HW138291   1.979   1.656  16.866  0.4880 -1.1626  1.2126
 8885SOL    HW238292   2.055   1.562  16.770  0.9357 -1.3247 -0.4342
 8886SOL     OW38293   1.351   2.031   5.005  0.5162  0.1477  0.1909
 8886SOL    HW138294   1.351   1.939   5.031  0.9120  0.1345  0.1393
 8886SOL    HW238295   1.440   2.058   5.027  1.1508  2.3785 -5.0028
 8887SOL     OW38296   1.699   3.111   5.866 -0.1287 -0.2074 -0.1350
 8887SOL    HW138297   1.779   3.161   5.877 -0.3565 -0.6019  3.5180
 8887SOL    HW238298   1.670   3.125   5.776  3.1325 -1.2204 -1.3350
 8888SOL     OW38299   1.008   3.447   6.578 -0.3843  0.8169  0.6752
 8888SOL    HW138300   1.085   3.402   6.613  0.6568  0.3954 -2.1315
 8888SOL    HW238301   0.987   3.378   6.515  0.8571  0.6951  0.3803
 8889SOL     OW38302   1.751   2.274   6.150  0.9679 -0.3900 -0.1705
 8889SOL    HW138303   1.743   2.361   6.110 -0.5510 -0.2160  0.5317
 8889SOL    HW238304   1.700   2.213   6.097  0.2592 -0.6635  0.8211
 8890SOL     OW38305   0.200   2.229   3.769  0.1300 -0.4006 -0.6305
 8890SOL    HW138306   0.212   2.324   3.771 -0.6692 -0.3113 -0.0986
 8890SOL    HW238307   0.106   2.228   3.786  1.0881 -1.8028  4.4228
 8891SOL     OW38308   3.042   3.323  13.634 -0.2651  0.0491 -0.3074
 8891SOL    HW138309   3.051   3.232  13.604  0.8215  0.8312 -2.3608
 8891SOL    HW238310   3.030   3.321  13.729 -1.6405 -0.6793 -0.4869
 8892SOL     OW38311   1.786   2.388   7.616 -0.3630  0.3541  0.1653
 8892SOL    HW138312   1.732   2.400   7.537  0.1224 -0.0915 -0.2326
 8892SOL    HW238313   1.852   2.328   7.582  1.2862  3.3829 -1.9274
 8893SOL     OW38314   1.555   0.170   0.850  0.2382 -0.5041  0.0318
 8893SOL    HW138315   1.532   0.088   0.805 -0.5374  0.2733 -0.9992
 8893SOL    HW238316   1.550   0.234   0.778  1.0111 -0.0713  0.3648
 8894SOL     OW38317   4.723   4.627   1.977  0.4410  0.2974 -0.4561
 8894SOL    HW138318   4.646   4.607   1.923 -0.6343  0.5909  0.9877
 8894SOL    HW238319   0.016   4.538   2.000 -0.4675  0.3665  0.8972
 8895SOL     OW38320   2.995   0.393  10.626  0.8742 -0.3892  0.0488
 8895SOL    HW138321   2.993   0.306  10.667 -0.0296  0.4940  1.8681
 8895SOL    HW238322   2.974   0.369  10.536  0.0460 -0.0178  0.1407
 8896SOL     OW38323   0.989   1.011  12.414  0.1366 -0.1336  0.4554
 8896SOL    HW138324   1.078   0.979  12.427  0.1654 -0.6644 -1.0842
 8896SOL    HW238325   0.949   0.930  12.381 -1.1350  0.6877 -0.0207
 8897SOL     OW38326   2.237   1.043   4.601 -0.8276  0.3110 -0.2628
 8897SOL    HW138327   2.228   0.948   4.615 -2.2227  0.3818 -0.7865
 8897SOL    HW238328   2.333   1.042   4.597 -0.7102 -0.3993  2.9833
 8898SOL     OW38329   0.610   4.122   3.852  0.1959  0.7086  0.8003
 8898SOL    HW138330   0.599   4.148   3.760  1.4277 -2.5909 -0.2524
 8898SOL    HW238331   0.523   4.110   3.889 -1.4264  0.5115 -3.0155
 8899SOL     OW38332   2.658   2.992   2.553  0.0395 -0.1769  0.2046
 8899SOL    HW138333   2.575   2.946   2.567 -0.9628  1.7982  0.7617
 8899SOL    HW238334   2.622   3.069   2.510  1.2299  0.1290 -0.2468
 8900SOL     OW38335   1.580   0.267   5.696 -0.3613 -0.1245  0.2331
 8900SOL    HW138336   1.503   0.238   5.646  0.4037  0.1390 -1.0980
 8900SOL    HW238337   1.599   0.352   5.656 -0.9057 -0.8986 -1.6327
 8901SOL     OW38338   2.843   3.595   5.826 -0.4957 -0.4791  0.5477
 8901SOL    HW138339   2.779   3.667   5.828 -2.1981 -1.9589 -0.4419
 8901SOL    HW238340   2.930   3.635   5.830 -0.2403 -1.1101  1.3119
 8902SOL     OW38341   1.865   3.563   4.890 -0.4887  0.2386  0.6103
 8902SOL    HW138342   1.866   3.580   4.796  0.9803 -1.2921  0.3417
 8902SOL    HW238343   1.955   3.578   4.917 -0.4196 -1.3098  1.2263
 8903SOL     OW38344   3.633   0.535   5.869  0.0319  0.5000 -0.0529
 8903SOL    HW138345   3.577   0.472   5.822  1.6447 -0.5255 -0.6084
 8903SOL    HW238346   3.638   0.493   5.955 -2.4225  2.5349  1.1058
 8904SOL     OW38347   3.369   2.415  13.712  0.4245 -0.2678 -0.3539
 8904SOL    HW138348   3.343   2.507  13.719 -0.5604 -0.5296 -0.6324
 8904SOL    HW238349   3.281   2.379  13.715 -0.6265  2.5032  3.1007
 8905SOL     OW38350   0.941   0.711   4.247 -0.1369  0.4296 -0.7973
 8905SOL    HW138351   0.967   0.777   4.183  1.9808 -0.9571 -1.3644
 8905SOL    HW238352   0.983   0.749   4.324  0.5143 -0.4444 -0.7206
 8906SOL     OW38353   2.607   0.883  16.645 -0.8137  0.0186  0.4345
 8906SOL    HW138354   2.520   0.844  16.656 -0.4137 -1.1117 -0.3541
 8906SOL    HW238355   2.605   0.951  16.712  2.3654 -0.5578  1.1279
 8907SOL     OW38356   2.365   2.941   2.571 -0.0631  0.2230 -0.0489
 8907SOL    HW138357   2.365   2.991   2.489 -0.8525  2.5618  1.3706
 8907SOL    HW238358   2.318   2.862   2.542 -0.4627  0.3981  0.1227
 8908SOL     OW38359   4.715   3.379   9.834  0.5951  0.7210 -0.1242
 8908SOL    HW138360   4.648   3.319   9.800 -0.0420 -0.2583  2.8576
 8908SOL    HW238361   0.048   3.355   9.771 -0.2679  1.7278 -1.4458
 8909SOL     OW38362   0.555   2.195  12.038 -0.1966  0.2819  0.0052
 8909SOL    HW138363   0.558   2.173  12.132 -0.7818 -0.4677 -0.1500
 8909SOL    HW238364   0.648   2.183  12.022 -0.6118 -0.9758 -1.4270
 8910SOL     OW38365   2.776   3.971  10.585 -0.3294  0.0801 -0.1830
 8910SOL    HW138366   2.758   3.878  10.568 -1.0034  0.2376 -0.3321
 8910SOL    HW238367   2.807   3.962  10.676  1.1273  0.7992 -0.6065
 8911SOL     OW38368   2.916   2.921   2.881 -0.0469  0.2943  0.2609
 8911SOL    HW138369   2.942   2.909   2.790  0.8040  2.5778  0.2222
 8911SOL    HW238370   2.959   2.845   2.919  1.2222  1.5610  1.3304
 8912SOL     OW38371   3.179   0.258   3.698 -0.4413 -0.1524 -0.2124
 8912SOL    HW138372   3.240   0.269   3.772  0.8993 -2.1731 -1.0066
 8912SOL    HW238373   3.237   0.271   3.623 -0.5877 -0.0014 -0.3002
 8913SOL     OW38374   2.499   0.561   2.838 -0.2190 -0.1852  0.3726
 8913SOL    HW138375   2.426   0.498   2.838  0.0189 -0.4511  1.0514
 8913SOL    HW238376   2.546   0.528   2.761  1.9797 -1.6083  2.3680
 8914SOL     OW38377   4.057   0.240  14.328 -0.2890 -0.5670 -0.2881
 8914SOL    HW138378   3.982   0.296  14.348 -0.3119 -0.4503 -0.7171
 8914SOL    HW238379   4.087   0.218  14.416 -1.3215  0.4468  0.3203
 8915SOL     OW38380   2.951   4.563   8.061 -0.3138 -0.5851  0.6039
 8915SOL    HW138381   3.035   4.558   8.015 -1.7157 -2.8874 -1.6916
 8915SOL    HW238382   2.929   4.470   8.063  1.6132 -1.0765 -0.8932
 8916SOL     OW38383   2.398   0.915   8.962  0.1101 -0.0385  0.1958
 8916SOL    HW138384   2.305   0.934   8.956 -0.5316 -2.3341  3.0144
 8916SOL    HW238385   2.429   0.948   8.878 -0.0051 -0.6804 -0.0944
 8917SOL     OW38386   1.463   0.013   3.137 -0.1989  0.0345 -0.4909
 8917SOL    HW138387   1.368   0.006   3.130 -0.2312  1.1186 -1.1267
 8917SOL    HW238388   1.483   0.014   3.230  0.0347  0.4784 -0.5498
 8918SOL     OW38389   0.643   3.914   7.580  0.1647  0.2596  0.1614
 8918SOL    HW138390   0.615   3.973   7.511 -0.6774 -0.8786 -0.4878
 8918SOL    HW238391   0.626   3.974   7.653  0.3558  1.0249 -0.4347
 8919SOL     OW38392   2.407   3.824   8.116 -0.0224  0.2048  0.0982
 8919SOL    HW138393   2.344   3.769   8.069 -0.7026 -1.1943  2.6480
 8919SOL    HW238394   2.375   3.817   8.206  0.9290 -0.3084  0.3823
 8920SOL     OW38395   3.622   4.097   3.661  0.3346  0.0792  0.1490
 8920SOL    HW138396   3.562   4.153   3.612  0.3545 -1.2893 -1.4070
 8920SOL    HW238397   3.646   4.033   3.595 -3.2465  0.5730 -1.6457
 8921SOL     OW38398   4.299   2.997  16.863  0.0794  0.3003 -0.1187
 8921SOL    HW138399   4.369   3.062  16.864 -0.9743  1.4560 -1.7116
 8921SOL    HW238400   4.335   2.943  16.934 -0.7480  1.5628  1.2836
 8922SOL     OW38401   3.947   3.895  13.832  0.8656 -0.0278 -0.0718
 8922SOL    HW138402   3.988   3.894  13.918 -1.4844  1.2711  1.0684
 8922SOL    HW238403   4.004   3.948  13.776 -0.6652  1.3661 -0.3015
 8923SOL     OW38404   2.328   0.775   7.634 -0.5980 -0.1102  0.1333
 8923SOL    HW138405   2.418   0.744   7.639 -0.1318  1.3759  1.0622
 8923SOL    HW238406   2.270   0.699   7.635  0.7697 -1.1461 -0.1255
 8924SOL     OW38407   1.438   2.809  10.121 -0.2831 -0.0603  0.2969
 8924SOL    HW138408   1.346   2.800  10.145 -1.0362  1.2296 -2.1822
 8924SOL    HW238409   1.448   2.772  10.034 -0.8176 -2.6883  1.3628
 8925SOL     OW38410   4.143   2.641  17.426 -0.1630 -0.5416 -0.5958
 8925SOL    HW138411   4.208   2.573  17.446  0.4256  0.1358 -0.1918
 8925SOL    HW238412   4.090   2.592  17.363 -0.6200  0.2588 -0.8315
 8926SOL     OW38413   1.161   3.167  14.633  0.0154 -0.0939 -0.2878
 8926SOL    HW138414   1.161   3.071  14.631 -0.9719 -0.1233  1.2896
 8926SOL    HW238415   1.246   3.175  14.677  0.3442 -1.0145 -0.7578
 8927SOL     OW38416   2.972   3.424  14.547  0.5042 -0.0102 -0.2001
 8927SOL    HW138417   2.899   3.456  14.599  0.0478 -0.3931 -0.6027
 8927SOL    HW238418   2.910   3.373  14.495  1.2343  0.3249 -1.4059
 8928SOL     OW38419   0.496   0.185   5.223  0.4098 -0.2495  0.1351
 8928SOL    HW138420   0.445   0.108   5.197 -1.5331  1.2088 -0.3737
 8928SOL    HW238421   0.545   0.204   5.143  0.7184  0.7522  0.5694
 8929SOL     OW38422   0.582   1.109   6.797 -0.2315  0.1398  0.2973
 8929SOL    HW138423   0.573   1.017   6.774  2.8115  0.2573 -1.4150
 8929SOL    HW238424   0.490   1.134   6.786 -0.3614  0.9953  3.3396
 8930SOL     OW38425   2.329   0.464  16.217  0.0009 -0.1393 -0.0002
 8930SOL    HW138426   2.302   0.465  16.125  0.7977 -2.1227 -0.2642
 8930SOL    HW238427   2.385   0.386  16.213  0.8426  0.4150  1.0134
 8931SOL     OW38428   4.294   3.514   3.316  0.3090 -0.3572 -0.2985
 8931SOL    HW138429   4.380   3.500   3.354 -0.7214  2.1026  2.9694
 8931SOL    HW238430   4.310   3.577   3.246 -1.3331  1.3181  0.8226
 8932SOL     OW38431   4.629   2.560  16.051 -0.0114  0.1601  0.3689
 8932SOL    HW138432   4.675   2.626  15.999  0.5752 -0.7017 -0.2176
 8932SOL    HW238433   4.540   2.595  16.056 -0.8845 -2.3814  2.8037
 8933SOL     OW38434   3.804   0.560  14.006 -0.3057 -0.2482  1.0930
 8933SOL    HW138435   3.741   0.555  13.935  1.5770 -0.0919 -0.6012
 8933SOL    HW238436   3.871   0.499  13.976 -1.5331 -1.0404 -0.0394
 8934SOL     OW38437   1.100   3.913   3.531  0.0834 -0.5068 -0.4223
 8934SOL    HW138438   1.059   3.828   3.518 -0.6050 -0.2547  0.0771
 8934SOL    HW238439   1.168   3.918   3.464 -0.4606  0.1608 -0.9350
 8935SOL     OW38440   1.460   1.805   6.768 -0.2069 -0.4002  0.2402
 8935SOL    HW138441   1.425   1.732   6.820 -2.0823  0.5109  0.2632
 8935SOL    HW238442   1.399   1.800   6.695 -0.8728 -0.0203  0.7722
 8936SOL     OW38443   4.669   1.876  16.223  0.4045 -0.0336 -0.2671
 8936SOL    HW138444   4.653   1.793  16.179 -0.0026 -0.8593  1.4953
 8936SOL    HW238445   0.029   1.875  16.206  0.9533  0.2777  2.8760
 8937SOL     OW38446   1.156   3.540   7.836  0.1758  0.3476 -0.2859
 8937SOL    HW138447   1.157   3.622   7.887 -1.0880  1.4399 -2.0106
 8937SOL    HW238448   1.108   3.555   7.754 -1.8352 -0.2855  0.7673
 8938SOL     OW38449   1.580   3.349   4.068 -0.1925 -0.1883 -0.3984
 8938SOL    HW138450   1.628   3.360   4.150 -2.1784 -0.9451  0.8661
 8938SOL    HW238451   1.509   3.412   4.077 -0.6553 -0.7929  0.2010
 8939SOL     OW38452   0.884   1.411   8.501  0.2488 -0.0629 -0.8960
 8939SOL    HW138453   0.821   1.407   8.429  0.3514 -0.7083 -0.9501
 8939SOL    HW238454   0.953   1.368   8.451  0.9420 -0.7225  0.6599
 8940SOL     OW38455   2.388   2.287  10.499  0.1460  0.0407  0.3669
 8940SOL    HW138456   2.409   2.366  10.548 -1.4295  0.1374  0.9024
 8940SOL    HW238457   2.448   2.222  10.537  0.8004  0.8988  0.7985
 8941SOL     OW38458   0.644   0.054   3.817 -0.2437  0.0125  0.2292
 8941SOL    HW138459   0.724   0.081   3.862 -0.0161  1.1606 -0.8681
 8941SOL    HW238460   0.675   4.711   3.773  1.0129 -0.3286  1.6949
 8942SOL     OW38461   4.468   1.964   5.947  0.4870  0.0913 -0.2413
 8942SOL    HW138462   4.484   2.056   5.968  3.3435 -0.7273  1.2057
 8942SOL    HW238463   4.441   1.971   5.856  1.6069  1.3402 -0.4909
 8943SOL     OW38464   3.423   0.909   8.360  0.0122  0.1731  0.8761
 8943SOL    HW138465   3.395   0.914   8.451 -1.1772  2.1263  0.3996
 8943SOL    HW238466   3.518   0.904   8.376 -0.0417  1.2950  1.5655
 8944SOL     OW38467   1.026   4.075   1.752 -0.2523  0.1230 -0.4568
 8944SOL    HW138468   1.048   4.055   1.843  3.6541 -1.1487 -1.6745
 8944SOL    HW238469   1.070   4.003   1.707  0.3163  0.1736  0.0156
 8945SOL     OW38470   0.432   2.445   7.256 -0.1100 -0.2068  0.7099
 8945SOL    HW138471   0.409   2.515   7.317  1.0908  1.2896 -0.5725
 8945SOL    HW238472   0.447   2.494   7.175  0.6824 -0.0879  0.9220
 8946SOL     OW38473   4.733   1.624   4.859  0.3871  0.2069  0.0999
 8946SOL    HW138474   4.665   1.674   4.815 -0.2652 -1.0230 -0.2776
 8946SOL    HW238475   0.061   1.696   4.867 -0.5269  1.0966 -0.6933
 8947SOL     OW38476   1.320   1.195   4.544  0.1261 -0.9270  0.7310
 8947SOL    HW138477   1.273   1.194   4.627 -0.1684  1.4664  0.5971
 8947SOL    HW238478   1.248   1.162   4.490 -0.0375  1.1622 -0.3061
 8948SOL     OW38479   0.353   0.865   5.830 -0.2496 -0.5622 -0.2091
 8948SOL    HW138480   0.435   0.815   5.831  1.7525  2.6993 -0.4140
 8948SOL    HW238481   0.290   0.795   5.813 -2.0189  0.5288  1.7884
 8949SOL     OW38482   2.287   3.211  15.052 -0.2754 -0.9792  0.1329
 8949SOL    HW138483   2.299   3.213  15.147  0.9213  0.4311 -0.0489
 8949SOL    HW238484   2.335   3.130  15.041 -0.8374 -1.3032  0.0624
 8950SOL     OW38485   3.973   0.474   6.587 -0.1543  0.2767  0.2402
 8950SOL    HW138486   3.901   0.415   6.611 -0.0356 -0.6014 -1.6190
 8950SOL    HW238487   4.020   0.493   6.669 -1.4496  2.8575  0.3924
 8951SOL     OW38488   4.154   2.614   3.214  0.1734  0.0317 -0.2827
 8951SOL    HW138489   4.227   2.664   3.249  0.5191 -0.9366  0.3920
 8951SOL    HW238490   4.129   2.683   3.153 -0.5573  0.3122  0.3370
 8952SOL     OW38491   1.407   3.154  14.775  0.1351  0.6916  0.0945
 8952SOL    HW138492   1.417   3.094  14.849 -1.2455  0.0542 -0.2393
 8952SOL    HW238493   1.447   3.230  14.818  2.9226  0.3498 -1.8868
 8953SOL     OW38494   2.114   0.015   6.343  0.4923 -0.2177  0.3844
 8953SOL    HW138495   2.130   4.725   6.252  0.1755 -0.6465  0.4480
 8953SOL    HW238496   2.123   4.662   6.379  1.3409  1.4473  4.2555
 8954SOL     OW38497   2.367   1.066   9.181 -0.3037 -0.5706 -0.2472
 8954SOL    HW138498   2.454   1.104   9.176  0.0729 -1.5045 -0.7256
 8954SOL    HW238499   2.372   0.999   9.113 -3.3600  0.1318 -1.1653
 8955SOL     OW38500   3.668   1.623   2.411  0.4042 -0.4162 -0.0796
 8955SOL    HW138501   3.713   1.652   2.332  0.9680 -2.3713 -0.4773
 8955SOL    HW238502   3.720   1.544   2.429  1.2323  0.2646  0.5397
 8956SOL     OW38503   3.220   0.511   5.377  0.5058 -0.2672  0.0090
 8956SOL    HW138504   3.252   0.537   5.290  1.3248  3.3411  1.3776
 8956SOL    HW238505   3.126   0.513   5.363  0.4834  3.5902  0.5653
 8957SOL     OW38506   0.047   1.170   2.171  0.5091  0.5154  0.0393
 8957SOL    HW138507   0.098   1.097   2.207 -1.6899 -1.5200 -0.9225
 8957SOL    HW238508   0.110   1.241   2.176 -0.1482  1.0895  0.0819
 8958SOL     OW38509   3.869   2.287   6.915  0.0520 -0.3574  0.0586
 8958SOL    HW138510   3.882   2.278   7.009 -0.1201 -0.4166  0.0770
 8958SOL    HW238511   3.823   2.371   6.914  0.0034 -0.3709  1.0605
 8959SOL     OW38512   4.488   1.717   3.117  0.7531  0.1062 -0.2865
 8959SOL    HW138513   4.561   1.670   3.076 -0.0695  0.4138 -2.0839
 8959SOL    HW238514   4.443   1.656   3.175  1.9241 -0.6594 -0.1875
 8960SOL     OW38515   4.483   0.702   5.643 -0.2356  0.5873  0.2884
 8960SOL    HW138516   4.493   0.696   5.548 -2.8638 -0.7116  0.0823
 8960SOL    HW238517   4.566   0.662   5.667 -0.6127 -0.5008 -0.2536
 8961SOL     OW38518   0.574   1.011  12.525  0.1145  0.1161 -0.6232
 8961SOL    HW138519   0.500   1.050  12.572  0.2764 -2.6849  1.9152
 8961SOL    HW238520   0.536   0.934  12.484 -0.9091 -0.7271  1.9312
 8962SOL     OW38521   1.324   3.687   1.779 -0.1205 -0.4948 -0.2474
 8962SOL    HW138522   1.274   3.715   1.856  1.2741 -0.7798  0.7722
 8962SOL    HW238523   1.405   3.729   1.807 -0.9335  0.6726  0.3394
 8963SOL     OW38524   0.083   4.335   0.634  0.4947 -0.1916  0.1802
 8963SOL    HW138525   0.070   4.245   0.604 -2.0053  0.2141  0.0671
 8963SOL    HW238526   0.048   4.383   0.559  1.6288  0.1442 -0.1415
 8964SOL     OW38527   0.962   2.573   3.101  0.1465 -0.2198  0.0233
 8964SOL    HW138528   1.051   2.604   3.117  0.3875 -1.4798  1.1236
 8964SOL    HW238529   0.911   2.634   3.155 -1.8293 -1.3705 -0.5337
 8965SOL     OW38530   2.401   3.162   7.210  0.4096  0.5825  0.5551
 8965SOL    HW138531   2.330   3.222   7.188 -0.9834 -1.4991 -0.6000
 8965SOL    HW238532   2.472   3.222   7.228 -0.7201  2.2366 -0.5449
 8966SOL     OW38533   2.160   2.388   8.836  0.1341  0.1572  0.3759
 8966SOL    HW138534   2.150   2.418   8.746  0.0151 -0.4839  0.1775
 8966SOL    HW238535   2.068   2.370   8.855 -0.3634  2.2367 -0.0161
 8967SOL     OW38536   1.687   2.756  15.549  0.0965  0.2075  0.0611
 8967SOL    HW138537   1.671   2.817  15.476 -0.0658 -0.8920 -0.8234
 8967SOL    HW238538   1.600   2.728  15.576 -0.1541  0.2517 -0.7064
 8968SOL     OW38539   3.282   0.318   3.189  0.0932 -0.4322 -0.2168
 8968SOL    HW138540   3.271   0.233   3.146 -1.5651 -0.5929  0.5422
 8968SOL    HW238541   3.205   0.357   3.147  1.5918  1.2174 -1.4166
 8969SOL     OW38542   1.558   3.256   0.451  0.3154  0.2117  0.2115
 8969SOL    HW138543   1.573   3.301   0.367  0.3886 -2.9243 -1.4453
 8969SOL    HW238544   1.477   3.208   0.434  0.2812 -0.4049  2.1654
 8970SOL     OW38545   1.048   2.456   5.070  0.3746  0.0316  0.4819
 8970SOL    HW138546   1.122   2.417   5.116  0.0653 -0.6167  0.4330
 8970SOL    HW238547   1.064   2.447   4.977  0.5296 -0.3720  0.5500
 8971SOL     OW38548   4.072   0.348   9.439  0.4699 -0.4448 -0.3032
 8971SOL    HW138549   4.026   0.378   9.517  2.5022 -0.7000  0.9756
 8971SOL    HW238550   4.084   0.255   9.455 -0.6630 -0.3875  0.9205
 8972SOL     OW38551   3.092   1.278   4.255  0.3695  0.2287  0.4906
 8972SOL    HW138552   3.059   1.359   4.293  1.9509  1.2707 -0.3950
 8972SOL    HW238553   3.101   1.324   4.172  1.7797  1.9900  1.6262
 8973SOL     OW38554   0.325   1.795  10.283 -0.3464 -0.8101  0.2998
 8973SOL    HW138555   0.232   1.783  10.300 -1.1839  3.4291 -1.3859
 8973SOL    HW238556   0.329   1.776  10.190 -1.5253  1.1348 -0.1348
 8974SOL     OW38557   3.524   1.347   5.794 -0.6898  0.5694 -0.1086
 8974SOL    HW138558   3.461   1.286   5.832 -1.2682  2.0753  1.3398
 8974SOL    HW238559   3.475   1.405   5.736 -2.3216 -1.2136 -0.5016
 8975SOL     OW38560   0.384   0.752   4.128  0.2798  0.6015 -0.0139
 8975SOL    HW138561   0.346   0.714   4.207 -0.4753  0.9564 -0.1974
 8975SOL    HW238562   0.373   0.670   4.079  1.4718  0.5805 -0.2263
 8976SOL     OW38563   3.472   0.661   7.146  0.2864  0.3142 -0.9580
 8976SOL    HW138564   3.547   0.700   7.102  1.2608 -0.0687  0.3641
 8976SOL    HW238565   3.423   0.739   7.174 -0.5040 -0.3476 -0.4804
 8977SOL     OW38566   3.389   3.295  10.354 -0.4887  0.0663  0.0507
 8977SOL    HW138567   3.467   3.252  10.388 -0.1085  0.3613 -0.4354
 8977SOL    HW238568   3.329   3.235  10.397  0.6618 -0.2911  1.1366
 8978SOL     OW38569   2.011   0.827  10.056 -0.1074  0.0598 -0.3337
 8978SOL    HW138570   2.005   0.768   9.981  1.9701  0.2045 -0.6111
 8978SOL    HW238571   1.942   0.793  10.113  1.9340 -1.5275  1.1998
 8979SOL     OW38572   0.207   2.035  10.342 -0.2577  0.3816 -0.5054
 8979SOL    HW138573   0.248   2.095  10.280 -0.8043  0.0242 -1.2168
 8979SOL    HW238574   0.242   1.954  10.306  0.9658  0.8305 -0.3423
 8980SOL     OW38575   0.832   4.397   4.802 -0.3046 -0.1830 -0.1955
 8980SOL    HW138576   0.890   4.329   4.836 -0.1554 -0.9515 -2.0135
 8980SOL    HW238577   0.815   4.369   4.712  0.4593  0.4474 -0.5390
 8981SOL     OW38578   1.099   3.436   1.869  0.1344  0.0573 -0.5980
 8981SOL    HW138579   1.157   3.474   1.935  1.0921  0.5046 -1.7014
 8981SOL    HW238580   1.026   3.497   1.883 -0.0022 -0.0224 -0.9566
 8982SOL     OW38581   2.731   2.503   5.876  0.1705 -0.0229  0.7158
 8982SOL    HW138582   2.694   2.420   5.846  0.9440 -0.0639 -0.1440
 8982SOL    HW238583   2.799   2.481   5.939 -0.5102  0.4675  1.6155
 8983SOL     OW38584   0.234   0.658   2.541 -0.6835 -0.6745  0.4099
 8983SOL    HW138585   0.322   0.654   2.580 -0.4530 -0.2919 -0.0797
 8983SOL    HW238586   0.193   0.595   2.600 -0.5530 -2.1999 -1.1255
 8984SOL     OW38587   1.079   2.999   6.294 -0.0801 -0.1468 -0.1094
 8984SOL    HW138588   0.991   2.998   6.257  0.6791 -1.6284 -1.8760
 8984SOL    HW238589   1.130   3.036   6.222 -0.8641  1.2433  0.0554
 8985SOL     OW38590   2.148   0.066   4.608 -0.3563  0.1996  0.1738
 8985SOL    HW138591   2.179   0.149   4.645 -1.8984  0.8208  0.0419
 8985SOL    HW238592   2.095   0.048   4.684  0.6184 -0.8776  0.5972
 8986SOL     OW38593   3.988   1.020  15.020  0.1580 -0.1785  0.3016
 8986SOL    HW138594   3.999   1.015  14.925  2.7764  0.5149  0.5691
 8986SOL    HW238595   4.049   1.092  15.034 -1.3678  1.2018 -0.1561
 8987SOL     OW38596   4.022   1.012  14.738  0.5704  0.3908 -0.1750
 8987SOL    HW138597   4.100   0.961  14.714  1.0497  1.2602 -0.4529
 8987SOL    HW238598   3.952   0.968  14.690  0.5524 -0.1806  0.3673
 8988SOL     OW38599   2.217   2.093   6.926 -0.4619 -0.4243  0.0663
 8988SOL    HW138600   2.223   2.187   6.906 -1.9911 -0.3739 -0.1509
 8988SOL    HW238601   2.166   2.103   7.006 -0.9897 -0.0931 -0.3118
 8989SOL     OW38602   1.841   3.237   1.915 -0.7553 -0.3952 -0.0330
 8989SOL    HW138603   1.807   3.266   1.999  0.6183  1.3958 -0.0994
 8989SOL    HW238604   1.931   3.215   1.936 -0.4801  1.0750  0.3513
 8990SOL     OW38605   0.026   0.023   3.042  0.6709  0.0774  0.0383
 8990SOL    HW138606   4.724   4.698   3.107  1.8433 -0.3233  0.3416
 8990SOL    HW238607   0.079   0.083   3.094  0.0103 -0.2400  1.0765
 8991SOL     OW38608   1.764   0.283  17.484 -0.1279 -0.3339  0.1796
 8991SOL    HW138609   1.813   0.335  17.421 -1.6845  2.5059  1.3084
 8991SOL    HW238610   1.747   0.347  17.553 -0.1936  1.0108 -1.0741
 8992SOL     OW38611   1.706   2.397   2.850  0.1511 -0.0568  0.3293
 8992SOL    HW138612   1.797   2.425   2.861 -0.3378  1.6209  0.1449
 8992SOL    HW238613   1.719   2.311   2.809 -0.7111 -0.2314  0.4142
 8993SOL     OW38614   4.077   2.048   3.920  0.1097 -0.0933  0.0483
 8993SOL    HW138615   3.989   2.067   3.886  0.0818 -0.4641 -0.0876
 8993SOL    HW238616   4.060   2.005   4.004  1.3980  1.0056  0.8565
 8994SOL     OW38617   3.247   0.772   5.457  0.0190 -0.4029  0.4019
 8994SOL    HW138618   3.229   0.680   5.441  0.5740 -0.6311  1.1045
 8994SOL    HW238619   3.219   0.807   5.372  1.3568  1.0147  0.5367
 8995SOL     OW38620   2.303   3.868   1.567 -0.2902 -0.3417  0.4644
 8995SOL    HW138621   2.222   3.824   1.540  1.4567 -2.5549 -1.1480
 8995SOL    HW238622   2.278   3.959   1.551  0.7819 -0.0713  0.3516
 8996SOL     OW38623   2.989   4.710   5.218  0.1381 -0.4641 -0.0123
 8996SOL    HW138624   3.004   4.659   5.297 -2.5350  0.2676  0.9416
 8996SOL    HW238625   2.956   4.638   5.164  2.3158 -1.7992  0.4227
 8997SOL     OW38626   3.590   3.292  13.758 -0.0421 -0.0374 -0.0091
 8997SOL    HW138627   3.534   3.264  13.685 -0.6977 -1.9272  1.2317
 8997SOL    HW238628   3.568   3.384  13.771  0.9991  0.2925 -0.5449
 8998SOL     OW38629   0.404   2.102   1.300 -0.1206 -0.3107 -0.6240
 8998SOL    HW138630   0.475   2.075   1.359 -3.0290 -0.2478  2.9099
 8998SOL    HW238631   0.446   2.173   1.252  0.4592  0.2825  0.7534
 8999SOL     OW38632   2.218   3.542   7.870 -0.3794  0.1671  0.3122
 8999SOL    HW138633   2.210   3.617   7.811  0.7793  0.8766  1.0722
 8999SOL    HW238634   2.189   3.591   7.947  0.0896 -1.5498  1.5903
 9000SOL     OW38635   0.305   2.639   6.482 -0.2985 -0.2275 -0.2740
 9000SOL    HW138636   0.295   2.726   6.445  4.2283 -0.0148 -1.0429
 9000SOL    HW238637   0.325   2.654   6.574  0.2884 -0.4001 -0.3717
 9001SOL     OW38638   1.690   2.365   4.557  0.4370 -0.0089  0.2746
 9001SOL    HW138639   1.783   2.343   4.563 -0.0467 -1.9812  0.5453
 9001SOL    HW238640   1.654   2.290   4.510 -2.2989  0.2187  2.0295
 9002SOL     OW38641   0.268   2.977  16.725 -0.2601 -0.1224  0.3839
 9002SOL    HW138642   0.316   2.941  16.799  0.0318  1.2165  0.8511
 9002SOL    HW238643   0.338   3.013  16.671 -2.9699  0.6825 -2.5833
 9003SOL     OW38644   1.471   1.302  16.554  0.3914  0.3283  0.0268
 9003SOL    HW138645   1.500   1.321  16.644  1.8973 -0.2573 -0.3257
 9003SOL    HW238646   1.426   1.222  16.580  0.0721  0.6347  0.4121
 9004SOL     OW38647   0.769   2.261  17.350  0.0248  0.5989 -0.3571
 9004SOL    HW138648   0.726   2.206  17.415  0.3577  0.3238 -0.3670
 9004SOL    HW238649   0.714   2.235  17.276  1.9468 -1.1527 -1.1953
 9005SOL     OW38650   3.001   2.500   6.009 -0.0110 -0.0047 -0.8031
 9005SOL    HW138651   2.971   2.481   6.098  2.6445  1.4580  0.3928
 9005SOL    HW238652   3.051   2.420   5.994 -0.8943 -0.5974 -0.6014
 9006SOL     OW38653   1.448   2.923  17.277  0.0349  0.1134  0.6754
 9006SOL    HW138654   1.500   2.993  17.236  0.4031  0.3248  1.4958
 9006SOL    HW238655   1.475   2.936  17.368 -2.7984 -0.6449  1.5954
 9007SOL     OW38656   1.611   0.470   8.190  0.4132  0.2338 -0.0947
 9007SOL    HW138657   1.608   0.375   8.199  1.5947  0.1112 -0.9790
 9007SOL    HW238658   1.566   0.489   8.108 -0.2203  1.6851  0.5831
 9008SOL     OW38659   0.539   3.546   5.021  0.3371 -0.4900 -0.2354
 9008SOL    HW138660   0.582   3.463   5.002  0.7691 -0.0112 -1.3183
 9008SOL    HW238661   0.619   3.599   5.026 -1.2519  2.1381 -2.7604
 9009SOL     OW38662   3.883   1.887  15.905  0.3798 -0.0338  0.4688
 9009SOL    HW138663   3.910   1.815  15.847 -2.2023  0.2027 -1.0320
 9009SOL    HW238664   3.798   1.912  15.868  1.1242  0.5130 -0.8784
 9010SOL     OW38665   4.154   2.808   7.080  0.2305 -0.1077 -0.1548
 9010SOL    HW138666   4.153   2.765   7.165 -0.7479  0.4944  0.1276
 9010SOL    HW238667   4.242   2.780   7.051  0.9430  1.7702  0.2301
 9011SOL     OW38668   0.739   4.672   9.459 -0.6579  0.1148 -0.5631
 9011SOL    HW138669   0.721   4.580   9.478 -2.2628  0.6068  0.2440
 9011SOL    HW238670   0.798   4.701   9.529 -0.7294  0.4701 -0.6525
 9012SOL     OW38671   2.231   3.209   0.204  0.3303  0.1789 -0.5880
 9012SOL    HW138672   2.135   3.209   0.209  0.4085  2.2370  0.7042
 9012SOL    HW238673   2.248   3.140   0.268 -2.3607 -0.4828 -0.5656
 9013SOL     OW38674   0.202   3.806   2.902 -0.0858 -0.0936 -0.2404
 9013SOL    HW138675   0.139   3.754   2.951 -0.6853  0.6060 -0.2777
 9013SOL    HW238676   0.156   3.887   2.882  0.3565 -0.5256 -3.0640
 9014SOL     OW38677   2.004   1.199   5.157 -0.9060 -0.0055  0.1938
 9014SOL    HW138678   2.049   1.119   5.131  0.0895  0.8556 -0.7017
 9014SOL    HW238679   1.917   1.186   5.120 -1.3886  0.5434  1.1288
 9015SOL     OW38680   2.708   3.145   1.841  0.2348  1.0563 -0.1438
 9015SOL    HW138681   2.734   3.220   1.894 -3.5849  1.3040  1.4443
 9015SOL    HW238682   2.615   3.141   1.867  0.1507 -1.0028 -0.7094
 9016SOL     OW38683   1.493   0.872   3.587 -0.1480  0.4109  1.0188
 9016SOL    HW138684   1.571   0.816   3.596  0.7724  1.0773 -3.0728
 9016SOL    HW238685   1.478   0.873   3.493  1.0296 -1.2334  0.8053
 9017SOL     OW38686   4.728   3.245   3.615  0.5270 -0.4546 -0.0792
 9017SOL    HW138687   4.671   3.185   3.568  0.1739 -1.3162  1.4390
 9017SOL    HW238688   0.057   3.269   3.548 -0.5488  1.3128 -0.4864
 9018SOL     OW38689   3.068   2.374   0.826 -0.8721 -0.6877  0.4292
 9018SOL    HW138690   3.041   2.361   0.917  1.2080 -2.9175  0.7274
 9018SOL    HW238691   3.155   2.412   0.840 -0.7131 -1.3866  1.3549
 9019SOL     OW38692   2.349   3.141   3.642  0.2585  0.0983 -0.2406
 9019SOL    HW138693   2.303   3.057   3.636 -0.6126  0.4171  1.8522
 9019SOL    HW238694   2.283   3.185   3.696  1.0902 -0.7922  1.5108
 9020SOL     OW38695   2.037   4.521  15.974 -0.4338  0.7669 -0.0515
 9020SOL    HW138696   2.055   4.613  15.993 -1.7604  1.0699 -0.2495
 9020SOL    HW238697   2.034   4.489  16.064 -1.4608 -1.5270 -0.8753
 9021SOL     OW38698   3.691   4.411  17.405 -0.9114  0.3763  0.2736
 9021SOL    HW138699   3.701   4.459  17.322 -1.5587  0.9632  0.5394
 9021SOL    HW238700   3.769   4.443  17.450 -0.4413 -2.2909  1.3073
 9022SOL     OW38701   1.048   0.539   2.435  0.7899 -0.3906 -0.6880
 9022SOL    HW138702   1.090   0.607   2.487  0.2519 -1.6586  1.3962
 9022SOL    HW238703   1.118   0.482   2.405  1.0305  0.5533 -1.9156
 9023SOL     OW38704   0.486   2.614   3.814  0.3452 -0.0205 -0.0596
 9023SOL    HW138705   0.483   2.527   3.775 -0.1010  0.1715 -0.4610
 9023SOL    HW238706   0.454   2.682   3.754 -0.0844  0.6229  0.8956
 9024SOL     OW38707   2.905   3.770   5.334  0.1980  0.4474  0.4369
 9024SOL    HW138708   2.933   3.860   5.348  1.2607  0.1758  0.0732
 9024SOL    HW238709   2.827   3.793   5.284  0.9912  1.6486 -0.2522
 9025SOL     OW38710   0.710   2.489   6.877  0.6842 -0.2846 -0.4938
 9025SOL    HW138711   0.721   2.458   6.967  0.3964  1.4526  0.1325
 9025SOL    HW238712   0.771   2.436   6.826 -1.7661 -1.7506 -1.8745
 9026SOL     OW38713   0.315   1.525  12.556  0.2994 -0.1398 -0.0774
 9026SOL    HW138714   0.268   1.449  12.522 -3.7010  1.4962  1.8428
 9026SOL    HW238715   0.361   1.543  12.473 -1.5994  0.5571 -0.9790
 9027SOL     OW38716   0.032   3.351   5.845  0.1833  0.1104  0.0972
 9027SOL    HW138717   4.708   3.422   5.821 -1.9083 -2.3142 -2.0522
 9027SOL    HW238718   0.058   3.329   5.755 -0.2684  1.4661 -0.3579
 9028SOL     OW38719   2.664   1.451   2.601 -0.0284  0.4850 -0.6270
 9028SOL    HW138720   2.602   1.479   2.533 -1.9801 -0.0566  0.9291
 9028SOL    HW238721   2.746   1.456   2.552  0.5955 -0.7753  0.3063
 9029SOL     OW38722   0.056   1.641   6.074 -0.0380 -0.3347 -0.4247
 9029SOL    HW138723   0.137   1.687   6.050  0.2046 -0.3121  0.4268
 9029SOL    HW238724   4.725   1.653   6.006  0.3949  0.8142 -0.6447
 9030SOL     OW38725   1.417   2.055   7.347  0.2565  0.4418  0.1456
 9030SOL    HW138726   1.406   1.974   7.396  1.6496 -0.8067 -1.6236
 9030SOL    HW238727   1.407   2.116   7.420  0.8194  0.8425 -0.1090
 9031SOL     OW38728   4.557   2.570   4.182 -0.0868 -0.1343  0.2043
 9031SOL    HW138729   4.531   2.479   4.165 -0.5947  0.0961 -0.2862
 9031SOL    HW238730   4.482   2.601   4.233  0.1766  0.8295  0.0011
 9032SOL     OW38731   0.075   3.691   1.999 -0.3356  0.2243 -0.0102
 9032SOL    HW138732   0.082   3.627   1.928 -0.8307  0.8395 -0.6206
 9032SOL    HW238733   0.006   3.744   1.957  2.1001  3.6187  0.2490
 9033SOL     OW38734   1.923   1.395   7.005  0.4365 -0.2249  0.9645
 9033SOL    HW138735   1.846   1.341   6.987 -1.7505  2.0168  3.6264
 9033SOL    HW238736   1.897   1.486   6.989 -2.7293 -1.4263 -0.5553
 9034SOL     OW38737   3.912   0.696   5.413  0.3272 -0.1973  0.1868
 9034SOL    HW138738   3.965   0.740   5.479  0.8114 -0.4235 -0.0481
 9034SOL    HW238739   3.838   0.670   5.468  0.2678  0.4356  0.4079
 9035SOL     OW38740   2.540   3.402   5.420 -0.3973 -0.4808 -0.1741
 9035SOL    HW138741   2.492   3.374   5.343  1.2615 -1.0713 -1.0003
 9035SOL    HW238742   2.516   3.333   5.483 -0.9498  1.3790  1.6567
 9036SOL     OW38743   1.486   2.805   6.898 -0.6266  0.6510 -0.1366
 9036SOL    HW138744   1.478   2.813   6.993  1.1529 -0.2131  0.0934
 9036SOL    HW238745   1.396   2.785   6.873 -0.3563 -0.3760 -0.2980
 9037SOL     OW38746   3.694   4.234   7.964  0.3997  0.1231  0.2970
 9037SOL    HW138747   3.741   4.184   8.031  0.7319 -0.7178 -0.5772
 9037SOL    HW238748   3.767   4.246   7.904 -1.2148  0.0628 -1.6614
 9038SOL     OW38749   4.501   3.882   5.789  0.2716  0.5555  0.4579
 9038SOL    HW138750   4.537   3.952   5.735  2.1631  2.0124  3.6231
 9038SOL    HW238751   4.468   3.926   5.867  0.0344 -1.1067  1.3036
 9039SOL     OW38752   2.241   1.227   6.172 -0.1276  0.2782  0.0494
 9039SOL    HW138753   2.262   1.301   6.229 -0.9051  0.9878 -0.5834
 9039SOL    HW238754   2.325   1.231   6.127 -0.5033 -2.8020 -0.9109
 9040SOL     OW38755   3.035   2.322  17.708  0.4996  0.1883  0.0667
 9040SOL    HW138756   3.075   2.383  17.646 -1.4725  1.5697  0.1554
 9040SOL    HW238757   2.947   2.305  17.674  0.3057 -2.3628  1.9113
 9041SOL     OW38758   1.688   2.509   7.996 -0.1048 -0.0077 -0.5544
 9041SOL    HW138759   1.775   2.532   8.030  0.4175  0.0008 -1.8739
 9041SOL    HW238760   1.642   2.592   8.010  1.1020  1.2817 -4.2627
 9042SOL     OW38761   3.414   4.091  12.757 -0.1364  0.2270  0.2583
 9042SOL    HW138762   3.469   4.013  12.753 -1.2759 -0.4018 -3.3947
 9042SOL    HW238763   3.480   4.153  12.788  1.2437 -1.6683  1.1177
 9043SOL     OW38764   0.883   2.052   1.380 -0.1065  0.8412  0.7484
 9043SOL    HW138765   0.911   1.963   1.362 -2.6779  0.0434  0.6203
 9043SOL    HW238766   0.794   2.030   1.408  0.0372  0.7836  1.1640
 9044SOL     OW38767   0.430   2.796   9.418 -0.5548  0.4668  0.1949
 9044SOL    HW138768   0.449   2.763   9.506  0.6044  1.1881  0.2126
 9044SOL    HW238769   0.501   2.763   9.364  0.4032  0.7228  1.3062
 9045SOL     OW38770   0.924   1.082   1.548 -0.3986  0.3102  0.3383
 9045SOL    HW138771   0.929   0.994   1.512 -3.9301  0.0664  0.3567
 9045SOL    HW238772   0.829   1.074   1.563 -0.3423 -1.2424 -0.1783
 9046SOL     OW38773   2.345   4.353   3.904  0.4394  0.4034  0.5223
 9046SOL    HW138774   2.436   4.355   3.873  0.9715 -0.5249  2.0128
 9046SOL    HW238775   2.357   4.408   3.982  0.7913  1.0375  0.0205
 9047SOL     OW38776   2.421   0.253  13.772 -0.1262  0.8051  0.2095
 9047SOL    HW138777   2.431   0.159  13.788  0.9676  0.7786 -0.5968
 9047SOL    HW238778   2.489   0.284  13.833 -0.1065 -1.0517  1.1396
 9048SOL     OW38779   0.709   3.429   7.705  0.1965 -0.5338 -0.1136
 9048SOL    HW138780   0.689   3.382   7.624  1.4161 -1.8163  0.3323
 9048SOL    HW238781   0.626   3.419   7.751 -0.5623 -1.3756 -1.6907
 9049SOL     OW38782   0.903   2.005   6.575 -0.5536  0.2922  0.1131
 9049SOL    HW138783   0.967   1.970   6.637 -0.6836 -0.6637 -0.3008
 9049SOL    HW238784   0.826   2.022   6.629 -1.0825  3.7315 -1.7162
 9050SOL     OW38785   2.014   1.496  10.225  0.2335 -0.3180  0.0866
 9050SOL    HW138786   1.925   1.531  10.214  0.5098 -0.1100 -1.4376
 9050SOL    HW238787   2.070   1.573  10.224 -1.1537  0.7092  0.5896
 9051SOL     OW38788   0.259   2.267  16.173  0.3361 -0.3387 -0.0272
 9051SOL    HW138789   0.313   2.300  16.101  2.0634  0.5307  1.6794
 9051SOL    HW238790   0.178   2.317  16.175 -0.6798 -1.9937  0.7841
 9052SOL     OW38791   3.068   2.399   4.788  0.5092  0.1072 -0.1690
 9052SOL    HW138792   3.057   2.451   4.868 -2.1156 -1.0914  0.2741
 9052SOL    HW238793   3.122   2.455   4.733 -0.7135  1.1062 -0.3591
 9053SOL     OW38794   2.889   0.868   7.919 -0.0169  0.3519  0.5409
 9053SOL    HW138795   2.854   0.842   8.004 -1.6243 -3.0711 -1.1101
 9053SOL    HW238796   2.845   0.953   7.923 -2.4698 -0.6994 -3.4340
 9054SOL     OW38797   1.603   2.053   4.649 -0.7780  0.1421 -0.1278
 9054SOL    HW138798   1.684   2.027   4.694 -0.4970  1.9891  0.4079
 9054SOL    HW238799   1.548   1.986   4.691 -1.1472  0.3758 -0.2415
 9055SOL     OW38800   1.584   2.156   5.975  0.6886  0.4514 -0.2432
 9055SOL    HW138801   1.541   2.188   5.895 -0.9813 -0.8278  0.1491
 9055SOL    HW238802   1.572   2.062   5.962 -1.1011  0.6903 -0.2891
 9056SOL     OW38803   0.086   2.272   7.042 -0.3490  0.0404  0.2655
 9056SOL    HW138804   0.150   2.203   7.022  0.6714  0.7513  1.0523
 9056SOL    HW238805   0.009   2.216   7.047  0.7585 -1.4972  0.3546
 9057SOL     OW38806   3.458   0.493  12.669  0.1870  0.0425 -0.2750
 9057SOL    HW138807   3.466   0.480  12.764  1.2789  1.5901 -0.1604
 9057SOL    HW238808   3.482   0.582  12.645  1.7059 -0.0791  0.7955
 9058SOL     OW38809   3.260   3.543   3.511  0.2076  0.1102  0.4111
 9058SOL    HW138810   3.216   3.609   3.565 -2.1696 -0.6434 -0.6476
 9058SOL    HW238811   3.295   3.485   3.579  2.5281 -0.1903 -1.0386
 9059SOL     OW38812   4.721   4.069   7.206 -0.0051  0.7915  0.6634
 9059SOL    HW138813   4.656   4.084   7.137  0.0902 -1.2748  0.1479
 9059SOL    HW238814   0.013   4.161   7.207 -0.8219  1.0147  2.0188
 9060SOL     OW38815   2.674   3.869   8.119 -0.5067 -0.2820 -0.0143
 9060SOL    HW138816   2.582   3.845   8.118 -0.5514 -0.0810 -0.3692
 9060SOL    HW238817   2.720   3.801   8.170 -3.0350 -0.5214  1.9510
 9061SOL     OW38818   3.637   1.840   5.684  0.0506  0.0693 -0.2960
 9061SOL    HW138819   3.603   1.811   5.768 -0.6143 -0.9584 -0.9175
 9061SOL    HW238820   3.725   1.865   5.711  0.7412 -1.8901 -0.7534
 9062SOL     OW38821   2.142   2.130   1.027 -0.0815 -0.1750 -0.2411
 9062SOL    HW138822   2.096   2.105   0.947  0.6146 -1.1784 -0.3265
 9062SOL    HW238823   2.130   2.225   1.022 -0.1483 -0.1417  0.5667
 9063SOL     OW38824   2.573   3.606   6.288 -0.2526 -0.0548 -0.1050
 9063SOL    HW138825   2.643   3.622   6.224 -1.4505 -0.3742 -1.5034
 9063SOL    HW238826   2.625   3.629   6.365  0.0307 -2.9319  0.5688
 9064SOL     OW38827   3.769   3.855   3.760  0.1458 -0.1479 -0.3138
 9064SOL    HW138828   3.838   3.865   3.825 -2.0206  0.6252  1.8572
 9064SOL    HW238829   3.763   3.943   3.722  0.9028  0.3408  0.7177
 9065SOL     OW38830   0.175   4.240   4.152  0.6693 -0.3346 -0.1579
 9065SOL    HW138831   0.165   4.251   4.247 -0.4656  0.2480 -0.3518
 9065SOL    HW238832   0.125   4.316   4.124  0.6423 -0.9916 -1.8597
 9066SOL     OW38833   0.975   2.949   9.154  0.1946 -0.1398 -0.0631
 9066SOL    HW138834   1.063   2.928   9.123 -0.5193 -2.2153 -0.6637
 9066SOL    HW238835   0.989   2.942   9.248 -0.4783  3.8549  0.3316
 9067SOL     OW38836   4.365   1.822  16.994  0.7505 -0.3816 -0.2562
 9067SOL    HW138837   4.424   1.848  17.064  0.3945 -0.8169  0.2056
 9067SOL    HW238838   4.425   1.822  16.919  2.9466  0.7422  1.5008
 9068SOL     OW38839   4.511   3.902  10.082 -0.0921  0.0001 -0.3519
 9068SOL    HW138840   4.579   3.940  10.137 -0.1504 -1.1517  0.5319
 9068SOL    HW238841   4.440   3.961  10.106 -0.0490 -0.4149  0.7906
 9069SOL     OW38842   4.123   3.215   7.829  0.0265 -0.0064  0.3739
 9069SOL    HW138843   4.057   3.146   7.834  0.9929 -1.1246 -2.1819
 9069SOL    HW238844   4.202   3.162   7.839  0.6508  0.7016 -0.7758
 9070SOL     OW38845   2.209   3.531   6.896 -0.3879 -0.1154 -0.0706
 9070SOL    HW138846   2.249   3.525   6.809  1.0493 -1.8741  0.7071
 9070SOL    HW238847   2.119   3.530   6.865  0.0877 -2.0116 -1.3903
 9071SOL     OW38848   0.953   3.797   2.346 -0.5914 -0.3318  0.3465
 9071SOL    HW138849   0.881   3.835   2.296 -0.0195  0.8614  0.4389
 9071SOL    HW238850   0.959   3.709   2.310  0.8729  0.1256 -0.5097
 9072SOL     OW38851   0.322   1.802  12.588 -0.0697  0.0442  0.3212
 9072SOL    HW138852   0.272   1.722  12.604 -1.3717  0.4616 -1.7176
 9072SOL    HW238853   0.408   1.786  12.627  1.4190  0.9201 -2.6048
 9073SOL     OW38854   1.988   3.721   3.416  0.3983 -0.0611  0.1036
 9073SOL    HW138855   2.079   3.748   3.404  1.5552 -3.0399  1.9764
 9073SOL    HW238856   1.937   3.776   3.356  0.0054 -0.4121  0.1104
 9074SOL     OW38857   1.397   1.202   2.708  0.2541  0.3216  0.1300
 9074SOL    HW138858   1.416   1.181   2.617 -0.9217 -2.8997  0.6115
 9074SOL    HW238859   1.458   1.140   2.748 -1.6639 -2.1371 -0.7293
 9075SOL     OW38860   3.933   3.164   4.615  0.3115  0.3239  0.6174
 9075SOL    HW138861   3.893   3.115   4.686 -0.6898 -1.1555 -0.9665
 9075SOL    HW238862   3.856   3.161   4.558 -0.1188  1.3252  1.1447
 9076SOL     OW38863   2.086   1.968   4.949  0.0054 -0.4697  0.3389
 9076SOL    HW138864   2.140   1.963   5.028  0.1062  0.4828  0.3353
 9076SOL    HW238865   2.032   1.891   4.967  0.5220 -0.2651  2.6436
 9077SOL     OW38866   0.930   2.316   1.393  0.4342  0.1949 -0.3142
 9077SOL    HW138867   0.923   2.345   1.484 -0.9099  0.7287 -0.5828
 9077SOL    HW238868   0.920   2.221   1.395 -0.3776  0.2939  0.5570
 9078SOL     OW38869   0.266   3.338   6.542 -0.0346 -0.6342 -0.3680
 9078SOL    HW138870   0.316   3.419   6.529 -0.6926 -0.0463  0.6697
 9078SOL    HW238871   0.183   3.376   6.513 -0.3401  0.6002  2.1327
 9079SOL     OW38872   3.189   1.122  17.448 -0.1343  0.0841 -0.3242
 9079SOL    HW138873   3.153   1.167  17.372  1.7431  1.6404 -0.2935
 9079SOL    HW238874   3.276   1.106  17.413 -0.8831 -0.6929 -1.8464
 9080SOL     OW38875   2.738   4.671  12.997 -0.5785  0.3935 -0.5809
 9080SOL    HW138876   2.726   4.669  12.903  0.4819  2.7754 -0.7752
 9080SOL    HW238877   2.774   0.024  13.006 -0.2431  0.1236  0.8109
 9081SOL     OW38878   0.285   0.036  16.582  0.1088 -0.4970  0.1773
 9081SOL    HW138879   0.274   0.074  16.495  1.2162 -2.9586 -1.0331
 9081SOL    HW238880   0.281   0.116  16.634 -0.0675 -0.5617  0.2619
 9082SOL     OW38881   3.415   0.735  13.156 -0.4423 -0.1799 -0.2065
 9082SOL    HW138882   3.389   0.815  13.200  1.8656  0.0988  0.6671
 9082SOL    HW238883   3.429   0.752  13.063  1.1011  0.2894  0.1034
 9083SOL     OW38884   3.072   2.264   5.230  0.4159 -0.9532 -0.6430
 9083SOL    HW138885   3.086   2.358   5.222  2.8678 -1.2584  0.0367
 9083SOL    HW238886   3.055   2.263   5.325  1.0878  0.0446 -0.5202
 9084SOL     OW38887   0.432   0.318   4.858  0.5559 -0.2129  0.4020
 9084SOL    HW138888   0.393   0.318   4.771  2.3856 -0.9272 -0.4295
 9084SOL    HW238889   0.510   0.264   4.847  0.4225  0.3626 -3.1217
 9085SOL     OW38890   4.163   3.495  10.262  0.2007  0.4263  0.0006
 9085SOL    HW138891   4.122   3.423  10.213  1.7169 -0.0548 -0.5616
 9085SOL    HW238892   4.085   3.539  10.295 -1.2696 -2.1940 -0.0058
 9086SOL     OW38893   3.309   4.322   7.784 -0.1884 -0.6218  0.6157
 9086SOL    HW138894   3.341   4.260   7.850  0.6940 -0.5010  0.2992
 9086SOL    HW238895   3.294   4.261   7.712 -1.6690  0.2873  0.1575
 9087SOL     OW38896   3.655   3.852   8.028 -0.1730  0.2881 -0.3630
 9087SOL    HW138897   3.724   3.793   8.060 -1.1378 -0.5999  0.0846
 9087SOL    HW238898   3.672   3.834   7.935 -0.2844  0.1804 -0.3619
 9088SOL     OW38899   4.195   1.960   7.686 -0.1982  0.0771  0.1065
 9088SOL    HW138900   4.200   1.985   7.779  1.0467 -0.8720  0.2891
 9088SOL    HW238901   4.101   1.964   7.668  0.4129  1.2095 -2.8539
 9089SOL     OW38902   0.404   4.463   5.481  0.2682  0.1753 -0.4445
 9089SOL    HW138903   0.328   4.443   5.425 -0.6325  0.4695  0.6724
 9089SOL    HW238904   0.420   4.376   5.516 -1.1727 -0.5585 -1.6269
 9090SOL     OW38905   3.723   4.425  15.109  0.3219 -0.1296 -0.4038
 9090SOL    HW138906   3.749   4.483  15.037 -1.8079  2.7180  1.0982
 9090SOL    HW238907   3.807   4.399  15.145  0.7922 -0.9908 -2.1296
 9091SOL     OW38908   3.694   4.452   9.012  0.4378 -0.1016 -0.0458
 9091SOL    HW138909   3.642   4.528   8.989 -0.2757 -0.9954 -1.4006
 9091SOL    HW238910   3.626   4.386   9.029  0.3311  0.0439  0.0993
 9092SOL     OW38911   2.207   1.962   5.683  0.1666 -0.0898  0.1183
 9092SOL    HW138912   2.207   2.012   5.602 -1.8705  0.3787  0.4128
 9092SOL    HW238913   2.136   2.001   5.735  0.8998  0.1696  0.9272
 9093SOL     OW38914   0.626   4.444   9.237 -0.0162  0.0103  0.2774
 9093SOL    HW138915   0.672   4.362   9.256  2.4229  1.8662  2.4236
 9093SOL    HW238916   0.630   4.437   9.142  0.9411  2.1726  0.1598
 9094SOL     OW38917   1.793   0.691   2.431  0.0557  0.5075 -0.1656
 9094SOL    HW138918   1.886   0.672   2.439 -0.0131  0.3248  0.2105
 9094SOL    HW238919   1.778   0.768   2.485 -0.9983 -0.3444  0.7855
 9095SOL     OW38920   3.427   2.167  16.048 -0.5636  0.1005  0.5245
 9095SOL    HW138921   3.403   2.216  16.127  2.2232  0.7043  1.0204
 9095SOL    HW238922   3.512   2.207  16.027 -0.6866  0.0889  0.0056
 9096SOL     OW38923   3.285   0.663  13.478 -0.7628 -0.1420 -0.5057
 9096SOL    HW138924   3.203   0.688  13.521  0.3804  0.7385  1.1218
 9096SOL    HW238925   3.246   0.648  13.391 -0.6062 -1.1283 -0.4065
 9097SOL     OW38926   1.777   3.194   8.206  0.2437  0.0818 -0.3613
 9097SOL    HW138927   1.855   3.230   8.163 -0.1250  1.4438  0.1291
 9097SOL    HW238928   1.722   3.162   8.134 -1.5257  2.1990  0.0434
 9098SOL     OW38929   0.784   3.702   9.311  0.0603  0.2920 -0.1596
 9098SOL    HW138930   0.807   3.663   9.395  2.6155 -0.2481 -1.1243
 9098SOL    HW238931   0.737   3.777   9.346  3.8199  2.7185 -0.3188
 9099SOL     OW38932   2.868   0.380   9.177 -0.0202  0.0381 -0.0785
 9099SOL    HW138933   2.807   0.365   9.105 -1.5829 -0.9775  1.4453
 9099SOL    HW238934   2.867   0.476   9.179  1.0114  0.0606 -0.6996
 9100SOL     OW38935   3.064   1.380   6.684 -0.6425 -0.0158  0.4872
 9100SOL    HW138936   3.053   1.416   6.772 -0.7456 -0.2512  0.5697
 9100SOL    HW238937   3.097   1.294   6.710 -2.3596 -1.3006 -1.5925
 9101SOL     OW38938   2.961   2.707   9.608  0.3033 -0.3905  0.0692
 9101SOL    HW138939   2.969   2.679   9.699 -0.1598 -0.3247  0.1314
 9101SOL    HW238940   2.968   2.801   9.620  0.0113 -0.5827  1.6871
 9102SOL     OW38941   3.874   2.326   9.160 -0.4498 -0.1727  0.5547
 9102SOL    HW138942   3.857   2.288   9.073 -2.8105  1.7072  0.2118
 9102SOL    HW238943   3.969   2.319   9.146 -0.2972 -0.9895  1.9823
 9103SOL     OW38944   1.524   3.657   7.426 -0.4933 -0.0376  0.1556
 9103SOL    HW138945   1.471   3.737   7.426  0.2569  0.4566  0.9020
 9103SOL    HW238946   1.576   3.674   7.505 -0.1498  1.9576 -0.5052
 9104SOL     OW38947   3.041   0.352   7.223  0.0382 -0.3046 -0.4922
 9104SOL    HW138948   3.007   0.411   7.290  1.9031  1.3216 -1.0031
 9104SOL    HW238949   3.113   0.406   7.192 -0.6290  0.3395 -0.9247
 9105SOL     OW38950   2.030   3.970   2.673 -0.1961  0.8016  0.1036
 9105SOL    HW138951   2.076   3.978   2.590 -1.7499 -0.5800 -0.8883
 9105SOL    HW238952   2.099   3.928   2.724 -0.7941 -0.2492  0.0411
 9106SOL     OW38953   0.369   3.603  16.489  0.1656  0.7805 -0.5296
 9106SOL    HW138954   0.282   3.581  16.458  0.5739  0.2792 -1.3112
 9106SOL    HW238955   0.355   3.596  16.584  2.6668 -1.5560 -0.3407
 9107SOL     OW38956   1.254   0.100  17.297 -0.0796 -0.0847  0.3155
 9107SOL    HW138957   1.312   0.172  17.319  0.8861  0.0531 -2.6921
 9107SOL    HW238958   1.229   0.144  17.216 -0.9193 -0.5675  0.3110
 9108SOL     OW38959   0.807   1.670  12.160 -0.0526  0.5319  0.8716
 9108SOL    HW138960   0.897   1.638  12.157 -0.9910 -1.9970  0.3558
 9108SOL    HW238961   0.781   1.627  12.241 -0.5566  1.8150  1.3960
 9109SOL     OW38962   0.246   4.251  13.193  0.0331 -0.8507 -0.0067
 9109SOL    HW138963   0.238   4.163  13.229 -2.9474 -0.2939  0.7467
 9109SOL    HW238964   0.334   4.271  13.223 -0.6968 -1.1376  2.3341
 9110SOL     OW38965   2.013   3.971  16.398  0.2115 -0.3150 -0.2336
 9110SOL    HW138966   2.032   3.905  16.464  1.6564 -0.8994 -1.2403
 9110SOL    HW238967   2.081   4.036  16.415 -1.3830  1.4030 -0.3541
 9111SOL     OW38968   3.177   1.438   6.450 -0.6421 -0.0693  0.7600
 9111SOL    HW138969   3.148   1.398   6.532  0.0332 -1.3038  0.4065
 9111SOL    HW238970   3.233   1.364   6.425 -1.1181 -0.1811  0.0269
 9112SOL     OW38971   1.593   2.726  14.106 -0.3238  0.3476  0.4037
 9112SOL    HW138972   1.547   2.747  14.024  2.3251  1.8245 -0.6980
 9112SOL    HW238973   1.569   2.800  14.161 -0.4475  0.7708 -0.2178
 9113SOL     OW38974   1.966   4.666  11.257  0.1975 -0.2861 -0.6229
 9113SOL    HW138975   2.024   4.730  11.216 -0.0332  0.1351 -0.2925
 9113SOL    HW238976   1.959   4.612  11.178  1.8263  0.8906 -1.5625
 9114SOL     OW38977   1.626   3.728   1.041  0.0324 -0.3201  0.2649
 9114SOL    HW138978   1.580   3.754   0.961  2.7514  2.4774 -0.3905
 9114SOL    HW238979   1.694   3.675   1.000 -0.4238 -0.8871  0.2303
 9115SOL     OW38980   3.994   3.570   4.469  0.3578 -0.4542 -0.3713
 9115SOL    HW138981   4.009   3.638   4.404  0.3961 -1.9304 -1.8947
 9115SOL    HW238982   4.083   3.568   4.504  0.4823  1.3372 -0.5474
 9116SOL     OW38983   3.894   1.466   3.373  0.1423 -0.0824  0.0405
 9116SOL    HW138984   3.857   1.420   3.449 -0.2572  0.9980  0.5050
 9116SOL    HW238985   3.961   1.522   3.410 -0.9750  1.2713  0.0262
 9117SOL     OW38986   3.049   2.719   4.568  0.0868 -0.3650 -0.2460
 9117SOL    HW138987   3.144   2.729   4.560 -0.2821 -0.1454 -4.3907
 9117SOL    HW238988   3.035   2.769   4.648  2.2104  0.2544 -0.2454
 9118SOL     OW38989   0.001   4.086   7.657  0.1464 -0.4195 -0.0026
 9118SOL    HW138990   0.039   3.998   7.653  1.7910  0.2654  0.3961
 9118SOL    HW238991   4.686   4.064   7.736  1.2056 -1.5116  0.3615
 9119SOL     OW38992   4.470   3.292  11.883 -0.7020  0.3714  0.2170
 9119SOL    HW138993   4.425   3.208  11.887  0.3783 -0.2281 -0.4407
 9119SOL    HW238994   4.555   3.268  11.846 -1.3794  1.3987 -2.0247
 9120SOL     OW38995   2.464   4.088   2.604 -0.6277 -0.1897  0.0815
 9120SOL    HW138996   2.529   4.129   2.548  1.1248  0.3091  2.5094
 9120SOL    HW238997   2.478   4.126   2.691  1.1222 -0.1922 -0.2044
 9121SOL     OW38998   3.554   4.041  11.987 -0.6453  0.2760 -0.2030
 9121SOL    HW138999   3.550   3.949  11.961  2.8022  0.2558 -0.7552
 9121SOL    HW239000   3.580   4.022  12.078  0.1656  3.0122  0.1193
 9122SOL     OW39001   4.417   3.718   8.744 -0.2010 -0.0233  0.5378
 9122SOL    HW139002   4.486   3.770   8.785 -0.6115  1.6485 -0.8872
 9122SOL    HW239003   4.365   3.700   8.822  0.0453 -0.3426  0.6299
 9123SOL     OW39004   4.071   3.543   6.891 -0.2297 -0.0699  0.2076
 9123SOL    HW139005   4.084   3.609   6.959 -0.1473  0.2633 -0.1270
 9123SOL    HW239006   4.017   3.600   6.836  0.8582 -0.4359 -1.2486
 9124SOL     OW39007   1.534   2.805  10.565  0.0368  0.1496  0.3274
 9124SOL    HW139008   1.468   2.736  10.573  0.1548 -0.0943 -0.7791
 9124SOL    HW239009   1.474   2.876  10.544 -1.2142 -1.9436 -3.1345
 9125SOL     OW39010   1.017   2.810   7.504  0.3016 -0.0226 -0.4660
 9125SOL    HW139011   0.927   2.784   7.486 -0.0133  1.4385 -0.9467
 9125SOL    HW239012   1.017   2.841   7.594  0.3306  0.0805 -0.5017
 9126SOL     OW39013   1.746   0.700   8.283  0.3860 -0.0007 -0.3821
 9126SOL    HW139014   1.714   0.612   8.267  1.9114 -0.7013  0.4295
 9126SOL    HW239015   1.675   0.734   8.339 -0.0869  0.7335 -1.4354
 9127SOL     OW39016   3.661   2.407   2.207  0.3734 -0.2495  0.1105
 9127SOL    HW139017   3.587   2.421   2.149  0.1988 -0.3948  0.2951
 9127SOL    HW239018   3.697   2.496   2.211 -2.4642  0.8665  1.0560
 9128SOL     OW39019   3.265   4.074   3.918  0.1161  0.4117 -0.3857
 9128SOL    HW139020   3.278   4.034   4.004  0.9443  0.5493 -0.4418
 9128SOL    HW239021   3.258   4.168   3.935  0.9657  0.7034 -1.6831
 9129SOL     OW39022   3.573   2.721  10.144  0.5143  0.0730  0.1390
 9129SOL    HW139023   3.649   2.779  10.137  1.3434 -0.8604  1.4950
 9129SOL    HW239024   3.529   2.730  10.059 -0.7590 -1.6011  0.6265
 9130SOL     OW39025   0.663   2.923  10.679  0.0871  0.1476 -0.4603
 9130SOL    HW139026   0.627   3.006  10.708  2.3582  1.4403 -1.3238
 9130SOL    HW239027   0.644   2.870  10.757 -0.6956  0.5060 -0.4124
 9131SOL     OW39028   0.953   1.505   8.770 -0.0982 -0.1306 -0.5061
 9131SOL    HW139029   0.930   1.468   8.685 -3.2282  0.7283 -0.0549
 9131SOL    HW239030   0.882   1.464   8.820  0.5441  0.8017  1.1709
 9132SOL     OW39031   2.682   3.935   4.323  0.3853 -0.5552 -0.2945
 9132SOL    HW139032   2.624   3.887   4.264 -0.2609  0.0460 -0.1432
 9132SOL    HW239033   2.622   3.976   4.385  1.7757 -0.0050  0.6996
 9133SOL     OW39034   1.553   0.127   7.337  0.1353  0.3838  0.1657
 9133SOL    HW139035   1.549   0.211   7.291 -1.6765  0.1799 -0.0462
 9133SOL    HW239036   1.470   0.086   7.312  1.0770 -0.0577 -2.2276
 9134SOL     OW39037   3.778   1.502   4.679  0.0021 -0.0651  0.1010
 9134SOL    HW139038   3.775   1.408   4.694  1.5948 -0.1172  0.1305
 9134SOL    HW239039   3.771   1.523   4.586  0.2039  0.4602  0.1991
 9135SOL     OW39040   1.127   2.760  16.837 -0.4725 -0.2913 -0.4185
 9135SOL    HW139041   1.063   2.812  16.887 -0.4598  0.3809 -1.0976
 9135SOL    HW239042   1.143   2.818  16.763  1.3973 -3.1818 -2.2744
 9136SOL     OW39043   3.142   2.602   5.789 -0.5406 -0.1060  0.2318
 9136SOL    HW139044   3.176   2.669   5.849 -0.3119 -0.0792  0.0716
 9136SOL    HW239045   3.064   2.585   5.841  0.5820  0.2949  2.0463
 9137SOL     OW39046   1.171   1.324   6.888  0.1209 -0.1010 -0.2874
 9137SOL    HW139047   1.201   1.244   6.844  2.3147 -1.0670  2.9430
 9137SOL    HW239048   1.086   1.352   6.854  1.0726  0.8244 -1.9132
 9138SOL     OW39049   1.490   3.283  10.045 -0.5296  0.6563  0.0486
 9138SOL    HW139050   1.493   3.224  10.120  1.2120  0.1000 -0.4643
 9138SOL    HW239051   1.462   3.219   9.980 -0.1331 -0.6625  1.1982
 9139SOL     OW39052   3.525   4.195   9.207 -0.5526  0.4431 -0.6791
 9139SOL    HW139053   3.518   4.099   9.205 -1.1459  0.3745  3.6373
 9139SOL    HW239054   3.488   4.223   9.124 -0.8642 -1.9757 -1.3656
 9140SOL     OW39055   2.085   3.768  17.212 -0.2137  0.2471  0.3618
 9140SOL    HW139056   2.110   3.753  17.121  1.1192  2.8935  0.3012
 9140SOL    HW239057   2.078   3.679  17.246  0.4615  0.0110 -0.1167
 9141SOL     OW39058   4.566   1.232   2.322 -0.3403 -0.4381 -0.0550
 9141SOL    HW139059   4.638   1.200   2.268 -0.4256 -0.1716 -0.3316
 9141SOL    HW239060   4.517   1.281   2.255  1.7521  1.2866 -0.3344
 9142SOL     OW39061   2.656   0.689   4.571  0.3646  0.3513 -0.3403
 9142SOL    HW139062   2.607   0.771   4.564  0.2737  0.2257 -1.1531
 9142SOL    HW239063   2.716   0.723   4.637 -1.2261 -0.2146  1.3868
 9143SOL     OW39064   1.046   2.974   7.150  0.7111 -0.2537 -0.2706
 9143SOL    HW139065   1.088   2.981   7.236 -0.9494  2.9993  0.2538
 9143SOL    HW239066   1.118   3.008   7.097  1.1254 -0.6459  0.0360
 9144SOL     OW39067   2.327   1.634   4.103 -0.1831  0.2819 -0.7584
 9144SOL    HW139068   2.297   1.725   4.109 -0.2294  0.2701 -0.8114
 9144SOL    HW239069   2.289   1.592   4.026  0.5915  1.5241 -1.8235
 9145SOL     OW39070   3.493   1.517   8.343 -0.0613  0.6625  0.2459
 9145SOL    HW139071   3.543   1.456   8.396 -1.7180 -0.8251  0.0986
 9145SOL    HW239072   3.422   1.459   8.315 -0.8653  1.3313  0.9035
 9146SOL     OW39073   0.340   4.001   8.209 -0.0803  0.0067  0.1582
 9146SOL    HW139074   0.401   4.062   8.169  0.4139  0.6570  1.8951
 9146SOL    HW239075   0.389   3.919   8.202 -0.1237 -0.0906  0.9145
 9147SOL     OW39076   1.907   2.686   2.286 -0.3258  0.0825  0.2390
 9147SOL    HW139077   1.901   2.599   2.247 -1.3270  0.5857 -0.7493
 9147SOL    HW239078   1.931   2.740   2.210 -0.4743  2.5778  1.9513
 9148SOL     OW39079   1.883   0.107   8.498  0.0280  0.6235  0.3540
 9148SOL    HW139080   1.918   0.035   8.551  0.5616 -0.3622 -1.3183
 9148SOL    HW239081   1.789   0.101   8.517  0.3666  0.7089  2.0697
 9149SOL     OW39082   1.140   1.206  16.148  0.2491  0.5996 -0.3300
 9149SOL    HW139083   1.134   1.195  16.243 -0.1225  0.3623 -0.3828
 9149SOL    HW239084   1.105   1.294  16.135 -1.5016 -0.1559 -0.6267
 9150SOL     OW39085   2.001   0.389  10.266  0.1733 -1.0444 -0.0819
 9150SOL    HW139086   2.003   0.431  10.180 -1.3759 -1.0937 -0.1438
 9150SOL    HW239087   2.045   0.308  10.243 -0.4975 -0.9855 -1.5742
 9151SOL     OW39088   1.123   2.025   3.288  0.2163  0.1071  0.0857
 9151SOL    HW139089   1.063   2.075   3.344  1.2789 -0.6542  1.9257
 9151SOL    HW239090   1.206   2.047   3.330  1.3382 -1.2024 -1.4963
 9152SOL     OW39091   3.272   1.728   8.397 -0.0932 -0.1187 -0.2105
 9152SOL    HW139092   3.299   1.805   8.347  0.4426 -0.2888 -0.1812
 9152SOL    HW239093   3.361   1.694   8.410 -0.0295  0.0802 -0.1283
 9153SOL     OW39094   0.956   2.460   1.638  0.3106  0.3825 -0.0365
 9153SOL    HW139095   0.895   2.477   1.710 -0.6847  0.0816 -0.8105
 9153SOL    HW239096   0.967   2.549   1.605 -0.6128  0.8301  0.8526
 9154SOL     OW39097   1.847   4.024   7.676  0.3053  0.0587  0.3986
 9154SOL    HW139098   1.886   4.099   7.631  1.1858  0.9852  2.7169
 9154SOL    HW239099   1.799   4.062   7.749  0.0496 -0.9533  0.7493
 9155SOL     OW39100   3.879   0.130   8.037  0.0664 -0.0629 -0.3700
 9155SOL    HW139101   3.923   0.089   7.963  1.8278  1.0895  0.0549
 9155SOL    HW239102   3.790   0.110   8.008  0.6261 -4.6231  1.1337
 9156SOL     OW39103   1.920   3.285   4.534 -0.4074  0.7231  0.4041
 9156SOL    HW139104   1.993   3.342   4.555  1.2457 -0.8589 -1.0297
 9156SOL    HW239105   1.873   3.340   4.471  3.7191  2.3110 -1.2719
 9157SOL     OW39106   0.447   4.706   5.623  0.5502 -0.5696 -0.1636
 9157SOL    HW139107   0.449   4.644   5.550 -1.5176 -0.8600  0.0192
 9157SOL    HW239108   0.393   4.668   5.692  0.1454 -2.6835 -1.6257
 9158SOL     OW39109   0.314   3.242   7.449 -0.0014  0.4127  0.4768
 9158SOL    HW139110   0.388   3.291   7.487 -0.2987  1.8630 -0.8518
 9158SOL    HW239111   0.240   3.260   7.507  0.0041 -1.7571  1.1504
 9159SOL     OW39112   3.161   2.245   7.199 -0.0773  0.1385  0.1192
 9159SOL    HW139113   3.175   2.194   7.279 -1.7922  0.4621  0.6317
 9159SOL    HW239114   3.067   2.230   7.185  0.4652 -1.9167 -1.3052
 9160SOL     OW39115   3.704   0.866   5.665  0.5942  0.2074 -0.1740
 9160SOL    HW139116   3.709   0.947   5.614 -2.5534  0.3720 -0.2543
 9160SOL    HW239117   3.610   0.846   5.663  0.7952 -0.7468 -0.6446
 9161SOL     OW39118   4.134   1.139   1.520 -0.0605  0.0952  0.2058
 9161SOL    HW139119   4.165   1.056   1.484  4.6658  2.3045 -0.8860
 9161SOL    HW239120   4.047   1.108   1.544  0.2698 -1.1397 -0.1923
 9162SOL     OW39121   1.475   2.427  15.294  0.3288  0.0820  0.1630
 9162SOL    HW139122   1.428   2.389  15.220 -1.0410  3.1622 -0.5700
 9162SOL    HW239123   1.562   2.412  15.258  0.2704  0.9460 -0.3479
 9163SOL     OW39124   0.703   0.266   6.759  0.4622 -0.0707  0.1795
 9163SOL    HW139125   0.771   0.200   6.771 -0.6071 -1.3002 -0.4449
 9163SOL    HW239126   0.718   0.318   6.838  3.1501 -0.2111 -0.2366
 9164SOL     OW39127   0.834   1.786   8.620 -0.2563 -0.4537  0.4611
 9164SOL    HW139128   0.789   1.744   8.546  1.2824  0.5330 -1.0302
 9164SOL    HW239129   0.778   1.863   8.613  0.1930 -0.3692 -2.5197
 9165SOL     OW39130   1.379   2.829   7.167 -0.0139  0.5752 -0.3346
 9165SOL    HW139131   1.308   2.778   7.129  1.6427 -2.1317  0.2045
 9165SOL    HW239132   1.343   2.846   7.254  1.2151  0.8258  0.1216
 9166SOL     OW39133   4.180   1.000   0.421  0.0015  0.3173 -0.1076
 9166SOL    HW139134   4.088   1.025   0.420  0.6431  2.6957 -0.1863
 9166SOL    HW239135   4.210   1.052   0.496  1.1219 -0.1176 -0.2480
 9167SOL     OW39136   2.417   3.159   4.700  0.2344  0.0556 -1.0453
 9167SOL    HW139137   2.500   3.159   4.652  0.8025 -0.1919 -0.0567
 9167SOL    HW239138   2.432   3.096   4.770  0.6463 -1.2810 -2.3311
 9168SOL     OW39139   4.093   2.904  11.762  0.1088 -0.1996  0.1706
 9168SOL    HW139140   4.139   2.987  11.754  1.6262 -0.8463  2.5447
 9168SOL    HW239141   4.022   2.918  11.824  1.2929  1.7871  1.0834
 9169SOL     OW39142   1.882   0.703  16.069  0.6411  0.2704  0.0318
 9169SOL    HW139143   1.951   0.682  16.132  2.2578  0.7533 -1.5734
 9169SOL    HW239144   1.930   0.712  15.987 -0.0541  1.2285 -0.2696
 9170SOL     OW39145   3.668   0.870   8.423  0.6535 -0.2606 -0.4552
 9170SOL    HW139146   3.656   0.811   8.498  1.0912  2.1385  1.5203
 9170SOL    HW239147   3.753   0.907   8.446  0.8171 -0.1872 -1.1873
 9171SOL     OW39148   3.746   1.551   0.339  0.0261  0.4385  0.1149
 9171SOL    HW139149   3.773   1.570   0.250 -1.1987 -1.7588 -0.7261
 9171SOL    HW239150   3.683   1.623   0.349 -1.1879 -0.8855  2.0441
 9172SOL     OW39151   4.465   0.647   1.843  0.0599  0.0060  0.3347
 9172SOL    HW139152   4.399   0.700   1.799 -0.1433  0.9570  1.7942
 9172SOL    HW239153   4.416   0.571   1.872 -0.1245  0.8356  2.2048
 9173SOL     OW39154   2.602   3.551   3.348 -0.3618  0.4792  0.1936
 9173SOL    HW139155   2.668   3.578   3.411 -0.6220  1.1491  0.1765
 9173SOL    HW239156   2.536   3.513   3.406 -0.9654  0.0525 -0.7612
 9174SOL     OW39157   4.182   4.586   6.472 -0.3739 -0.6344  0.0103
 9174SOL    HW139158   4.193   4.622   6.560  2.4307 -1.1619 -0.1118
 9174SOL    HW239159   4.098   4.543   6.487 -0.9423  0.4794  0.0583
 9175SOL     OW39160   3.703   1.982   0.654 -0.9478 -0.6880  0.8145
 9175SOL    HW139161   3.614   1.973   0.620 -0.2550 -1.8728 -0.6570
 9175SOL    HW239162   3.693   1.952   0.744 -1.5745  1.6097  1.5075
 9176SOL     OW39163   1.500   1.100   0.325 -1.1000 -0.3073 -0.3021
 9176SOL    HW139164   1.589   1.133   0.316 -0.9107 -0.7708 -0.0763
 9176SOL    HW239165   1.503   1.052   0.242  0.8334 -1.8846  0.6974
 9177SOL     OW39166   2.569   2.934   5.145  0.3243  0.2348 -0.4519
 9177SOL    HW139167   2.640   2.988   5.179 -0.3352  0.0702  1.1789
 9177SOL    HW239168   2.505   2.922   5.214  1.8606 -0.0016  0.9230
 9178SOL     OW39169   2.637   3.773   5.822 -0.1520  0.0345 -0.0286
 9178SOL    HW139170   2.570   3.825   5.867  0.8404  0.6813  0.7095
 9178SOL    HW239171   2.612   3.769   5.730  0.3853 -0.3811 -0.1500
 9179SOL     OW39172   0.495   3.581   2.382  0.0252  0.2310 -0.2602
 9179SOL    HW139173   0.448   3.502   2.355  1.2950 -0.7649  0.4482
 9179SOL    HW239174   0.546   3.548   2.455  1.3668 -0.7269 -1.6393
 9180SOL     OW39175   0.949   1.909   7.207  0.1354 -0.4644 -0.0906
 9180SOL    HW139176   0.943   1.943   7.296 -1.2461 -1.8185  0.3505
 9180SOL    HW239177   0.957   1.822   7.246 -0.0390 -1.1776 -1.6157
 9181SOL     OW39178   2.793   3.285   5.650  0.5578 -0.0929  0.7558
 9181SOL    HW139179   2.831   3.205   5.613 -3.0025  0.1497 -3.3640
 9181SOL    HW239180   2.845   3.357   5.614 -1.2591  0.6266 -0.4069
 9182SOL     OW39181   4.304   1.909   4.631 -0.0528  0.2073 -0.0796
 9182SOL    HW139182   4.343   1.877   4.550  0.9132  1.2962 -0.0505
 9182SOL    HW239183   4.300   2.003   4.617  1.6288  0.0721 -1.5561
 9183SOL     OW39184   1.922   3.241   7.791  0.2165  0.4810  0.3259
 9183SOL    HW139185   1.905   3.312   7.729 -3.3495 -1.9082 -1.4196
 9183SOL    HW239186   1.893   3.167   7.737 -1.0026  0.0916  1.5192
 9184SOL     OW39187   2.685   1.057   1.388  0.2860 -0.4809  0.2244
 9184SOL    HW139188   2.735   1.131   1.422 -0.4498 -0.3666  1.0578
 9184SOL    HW239189   2.714   0.992   1.452  0.2888 -1.4428 -0.7537
 9185SOL     OW39190   0.288   1.794   8.876  0.2564  0.9110  0.1056
 9185SOL    HW139191   0.369   1.747   8.858  0.5205  1.2580  0.4012
 9185SOL    HW239192   0.318   1.880   8.846  0.7268  0.9638  0.7248
 9186SOL     OW39193   2.980   2.818  13.898  0.4090  0.1080 -0.0591
 9186SOL    HW139194   3.002   2.909  13.877  2.9719 -0.6020 -0.4414
 9186SOL    HW239195   3.070   2.789  13.914  0.0781  0.3751  2.4184
 9187SOL     OW39196   1.441   2.780   6.286  0.4653 -0.4526  0.4046
 9187SOL    HW139197   1.419   2.874   6.289 -1.6591 -0.9320 -0.0532
 9187SOL    HW239198   1.426   2.759   6.378 -0.5767 -1.9386 -0.1091
 9188SOL     OW39199   0.045   4.056   9.645  0.0030  0.1353 -0.2698
 9188SOL    HW139200   4.734   4.128   9.602  0.6307  0.0785 -1.0518
 9188SOL    HW239201   0.043   4.092   9.734 -0.3443 -2.6516  0.8404
 9189SOL     OW39202   4.365   3.186   4.443 -0.1451  0.2555  0.0480
 9189SOL    HW139203   4.313   3.242   4.386 -2.2733 -1.7447  0.0009
 9189SOL    HW239204   4.450   3.229   4.441  0.2685 -0.6015 -1.1346
 9190SOL     OW39205   1.730   2.615   6.465  0.5793 -0.1825  0.5113
 9190SOL    HW139206   1.710   2.688   6.524 -0.6246  0.5782 -0.8392
 9190SOL    HW239207   1.678   2.545   6.505 -0.7932  1.4104  1.5137
 9191SOL     OW39208   3.166   0.384   5.089  0.3933  0.0496  0.0593
 9191SOL    HW139209   3.135   0.295   5.073  0.3749  0.3258 -1.3980
 9191SOL    HW239210   3.259   0.380   5.067  0.5407  2.8526  0.1547
 9192SOL     OW39211   0.985   0.827   8.616 -0.0036  0.4768 -0.8456
 9192SOL    HW139212   0.975   0.756   8.680  0.3675 -0.5162 -1.8780
 9192SOL    HW239213   0.992   0.901   8.677  0.0779 -0.2877  0.0757
 9193SOL     OW39214   2.891   1.207   4.465  0.8713  0.3248  0.1794
 9193SOL    HW139215   2.953   1.218   4.392  0.4004 -1.3787 -0.4764
 9193SOL    HW239216   2.813   1.251   4.430 -1.1787 -2.0826  1.7740
 9194SOL     OW39217   1.583   0.417   5.984  0.3394 -0.7999 -0.6023
 9194SOL    HW139218   1.504   0.363   5.993  1.0167 -1.6820 -0.0074
 9194SOL    HW239219   1.547   0.491   5.935 -0.2758 -0.3295  0.5565
 9195SOL     OW39220   3.743   3.512   6.977 -0.0431  0.2025 -0.0513
 9195SOL    HW139221   3.699   3.429   6.959 -0.0390  0.0061  0.8683
 9195SOL    HW239222   3.818   3.485   7.029 -1.9284  0.6547  2.8730
 9196SOL     OW39223   0.333   3.540   7.567 -0.1782  0.0229 -0.0647
 9196SOL    HW139224   0.380   3.502   7.493  0.1329 -0.6426  0.4733
 9196SOL    HW239225   0.364   3.487   7.641 -0.6744  3.5608  2.7105
 9197SOL     OW39226   0.068   1.189   7.324 -0.1817 -0.2285 -0.0847
 9197SOL    HW139227   0.046   1.109   7.373  1.5062 -0.9826 -0.5697
 9197SOL    HW239228   0.042   1.259   7.383 -1.5844  2.1749 -3.5211
 9198SOL     OW39229   1.593   3.856   7.596  0.1561  0.1734 -0.2565
 9198SOL    HW139230   1.565   3.899   7.677  0.5965  0.9246 -0.5043
 9198SOL    HW239231   1.643   3.928   7.558 -0.1077  1.0857  1.1290
 9199SOL     OW39232   1.047   1.189   7.606 -1.0437 -0.4068  0.0976
 9199SOL    HW139233   0.983   1.179   7.536 -1.4219 -0.6484  0.4752
 9199SOL    HW239234   1.039   1.110   7.660  1.7394  0.2719  1.5057
 9200SOL     OW39235   4.230   1.933  10.778  0.2469  0.2413 -0.3766
 9200SOL    HW139236   4.170   1.916  10.705 -0.4748  1.3702 -0.0519
 9200SOL    HW239237   4.175   1.950  10.854 -0.0887  1.8336 -0.9758
 9201SOL     OW39238   3.278   3.625   3.119 -0.5241 -0.5827  0.1734
 9201SOL    HW139239   3.284   3.670   3.034 -0.3966  1.0206  1.0424
 9201SOL    HW239240   3.213   3.564   3.085 -2.0281 -0.4198  2.8154
 9202SOL     OW39241   3.530   0.389   6.567 -0.0691  0.2807 -0.7558
 9202SOL    HW139242   3.549   0.371   6.659 -2.4430  2.4475  0.1771
 9202SOL    HW239243   3.507   0.482   6.565  2.6048  0.9585 -0.0175
 9203SOL     OW39244   1.072   0.146   1.030  0.4019  0.0061  0.3142
 9203SOL    HW139245   1.123   0.092   0.969 -0.3378 -0.3191 -0.0206
 9203SOL    HW239246   1.124   0.151   1.110 -0.2003  0.6910  0.6612
 9204SOL     OW39247   0.844   2.060   9.118  0.0309 -0.3448 -0.4310
 9204SOL    HW139248   0.860   1.995   9.186 -2.3580  0.3584  0.7993
 9204SOL    HW239249   0.791   2.123   9.167  0.9706 -0.7377  1.0875
 9205SOL     OW39250   1.799   0.067   4.915  0.3546  0.6190  0.0849
 9205SOL    HW139251   1.895   0.074   4.921  0.2182  1.7868  1.0177
 9205SOL    HW239252   1.781   0.028   5.001 -3.8417 -0.1446 -1.1731
 9206SOL     OW39253   2.646   0.333   8.155 -0.1057  0.4329  0.6053
 9206SOL    HW139254   2.556   0.335   8.188 -0.2717 -0.4708  0.2133
 9206SOL    HW239255   2.686   0.266   8.211 -1.7537 -0.8503  0.2751
 9207SOL     OW39256   3.095   2.369   8.477  0.1490 -0.4780  0.5323
 9207SOL    HW139257   3.020   2.421   8.506 -0.6736 -0.5038 -1.5501
 9207SOL    HW239258   3.059   2.303   8.418  2.5557 -1.8514  0.6121
 9208SOL     OW39259   1.689   1.814  13.625  0.0252  0.1038 -0.0422
 9208SOL    HW139260   1.605   1.847  13.594 -0.9540 -1.4481  0.9479
 9208SOL    HW239261   1.716   1.887  13.680 -0.2937  0.3419 -0.1998
 9209SOL     OW39262   1.973   0.495  17.377 -0.1065  0.4708  0.1506
 9209SOL    HW139263   2.015   0.453  17.452  2.5802 -0.2490 -1.7518
 9209SOL    HW239264   2.004   0.585  17.389  1.0744  0.0137  0.4610
 9210SOL     OW39265   1.185   2.017  13.029 -0.4725  0.1399 -0.3048
 9210SOL    HW139266   1.180   1.921  13.037  0.3145  0.1171 -0.0876
 9210SOL    HW239267   1.094   2.028  13.000 -0.0708  0.2902 -1.4816
 9211SOL     OW39268   2.056   0.796   8.715  0.6364 -0.9697 -0.1027
 9211SOL    HW139269   1.967   0.765   8.698  0.2657  0.6805 -1.1203
 9211SOL    HW239270   2.108   0.750   8.649 -0.5470 -2.8098  0.2345
 9212SOL     OW39271   3.190   2.190   4.320 -0.4361 -0.5714  0.3572
 9212SOL    HW139272   3.176   2.095   4.314 -1.2406 -0.4095 -0.3487
 9212SOL    HW239273   3.235   2.212   4.401 -0.7746 -0.8192  0.6109
 9213SOL     OW39274   3.683   4.069   5.077  0.2241  0.2613  0.2022
 9213SOL    HW139275   3.733   4.145   5.109  1.4585 -0.3973 -0.1460
 9213SOL    HW239276   3.757   4.009   5.069 -0.8636 -1.2801  1.7659
 9214SOL     OW39277   0.888   3.444   0.323  0.8107  0.6112 -0.0527
 9214SOL    HW139278   0.918   3.356   0.347 -2.3655 -0.8390 -1.4980
 9214SOL    HW239279   0.922   3.444   0.234 -0.5076  1.0703 -0.5572
 9215SOL     OW39280   3.188   0.051  10.905  0.1499 -0.6269 -0.1432
 9215SOL    HW139281   3.283   0.040  10.911  0.3563  0.3576 -1.5263
 9215SOL    HW239282   3.162   4.729  10.977 -1.3322  1.9070  1.3447
 9216SOL     OW39283   2.422   3.402   5.184 -0.0520  0.0236 -0.1306
 9216SOL    HW139284   2.431   3.418   5.090 -0.3390  0.2893 -0.1106
 9216SOL    HW239285   2.331   3.424   5.201  0.7547  3.4081 -0.0500
 9217SOL     OW39286   0.265   1.840  16.743 -0.0670 -0.7555  0.2230
 9217SOL    HW139287   0.326   1.781  16.787  0.0920  0.3949  1.5549
 9217SOL    HW239288   0.272   1.922  16.792  3.1846 -0.0442 -1.4727
 9218SOL     OW39289   4.154   1.907  16.585  0.2477  0.3426  0.3339
 9218SOL    HW139290   4.179   1.831  16.532  1.6732  1.3734 -0.4603
 9218SOL    HW239291   4.232   1.930  16.635 -0.5796 -0.0096  1.7910
 9219SOL     OW39292   2.488   0.948   4.172 -0.8096  0.2840  0.3147
 9219SOL    HW139293   2.532   1.029   4.146  0.0789  0.2121  1.5880
 9219SOL    HW239294   2.405   0.954   4.125 -0.5983 -1.2738 -0.2524
 9220SOL     OW39295   4.492   3.045   9.050  0.3813 -0.1776  0.0399
 9220SOL    HW139296   4.462   3.026   8.961 -2.1930 -1.0699  1.0891
 9220SOL    HW239297   4.525   2.960   9.080  1.3865  0.0441 -0.4489
 9221SOL     OW39298   1.281   3.362  12.752 -0.6772  0.0934  0.3520
 9221SOL    HW139299   1.310   3.306  12.680  1.5887  0.8760  0.6632
 9221SOL    HW239300   1.211   3.305  12.784  0.4039 -1.1379  0.5242
 9222SOL     OW39301   3.086   4.130   5.587  0.0885 -0.0025 -0.5601
 9222SOL    HW139302   3.173   4.128   5.548  0.2657  0.6062 -0.1938
 9222SOL    HW239303   3.038   4.058   5.546  0.9724  0.1469 -1.8266
 9223SOL     OW39304   0.012   0.591   9.129 -0.0394  0.2881 -0.0430
 9223SOL    HW139305   0.071   0.516   9.123 -0.1623  0.1912 -0.0384
 9223SOL    HW239306   0.065   0.664   9.099  1.3549 -0.3374  0.8784
 9224SOL     OW39307   1.228   2.149  17.609 -0.1633 -0.0610  0.1684
 9224SOL    HW139308   1.197   2.157  17.519 -0.5927 -2.1768  0.1349
 9224SOL    HW239309   1.280   2.228  17.622  2.2696 -1.3782 -1.6964
 9225SOL     OW39310   1.351   3.046  15.062 -0.3139 -0.5350  0.4311
 9225SOL    HW139311   1.318   3.132  15.089  1.6752  0.1630  0.5879
 9225SOL    HW239312   1.422   3.042  15.126 -0.6637  0.7503  0.9133
 9226SOL     OW39313   0.494   1.715   2.497 -0.0168 -0.1433  0.6902
 9226SOL    HW139314   0.412   1.759   2.520 -0.5109 -0.8011  0.1882
 9226SOL    HW239315   0.474   1.669   2.416 -1.5312 -0.3543  1.1859
 9227SOL     OW39316   2.951   2.282  17.256  0.1997  0.0445  0.1000
 9227SOL    HW139317   3.015   2.306  17.323  0.0429 -1.3355  0.7545
 9227SOL    HW239318   2.997   2.214  17.205  0.4465  0.2573  0.0412
 9228SOL     OW39319   1.126   4.456   0.925 -0.1112 -0.0987 -0.2645
 9228SOL    HW139320   1.059   4.398   0.961  0.1824  1.2440  2.4349
 9228SOL    HW239321   1.194   4.456   0.992 -0.5534  0.5192  0.1815
 9229SOL     OW39322   3.054   4.022  13.832  0.5304 -0.5822 -0.0923
 9229SOL    HW139323   3.048   3.994  13.924 -0.6357  0.6321  0.1958
 9229SOL    HW239324   2.962   4.033  13.810  0.0993 -0.1104  1.8898
 9230SOL     OW39325   3.804   2.033  17.621  0.0991 -0.2931 -0.4457
 9230SOL    HW139326   3.744   1.984  17.566 -1.0910  0.8094 -0.1310
 9230SOL    HW239327   3.890   2.021  17.580  0.5280 -0.0857  0.3922
 9231SOL     OW39328   4.452   0.129   4.661 -0.4643 -0.1283 -0.2492
 9231SOL    HW139329   4.460   0.097   4.571  0.4767  1.4567 -0.7319
 9231SOL    HW239330   4.366   0.093   4.680  0.5527 -1.5518  1.7206
 9232SOL     OW39331   1.528   0.546   4.983  0.3956  0.2922 -1.2280
 9232SOL    HW139332   1.614   0.511   4.958 -0.9330 -2.2173 -2.2715
 9232SOL    HW239333   1.559   0.614   5.042 -1.8322  0.7286 -0.6004
 9233SOL     OW39334   4.223   2.975   9.214 -0.3240 -0.0968 -0.3442
 9233SOL    HW139335   4.295   2.949   9.157  0.1546 -1.6643  0.9910
 9233SOL    HW239336   4.155   2.949   9.152 -1.7401  0.8099  0.8232
 9234SOL     OW39337   1.473   2.691   4.693  0.2584  0.1698  0.4674
 9234SOL    HW139338   1.483   2.628   4.622 -0.9969 -0.6298  1.0073
 9234SOL    HW239339   1.558   2.735   4.697 -0.1552  0.9742  0.3221
 9235SOL     OW39340   0.137   3.555   5.433  0.2214  0.0313  0.3213
 9235SOL    HW139341   0.094   3.633   5.467  1.0691  0.5826  0.1387
 9235SOL    HW239342   0.233   3.561   5.440  0.3822 -0.0216 -1.8232
 9236SOL     OW39343   2.978   3.131  15.127  0.0143  0.7101 -0.3556
 9236SOL    HW139344   2.890   3.148  15.161 -0.3488 -1.8791 -0.0325
 9236SOL    HW239345   2.985   3.190  15.052 -0.8004  0.2004 -0.8277
 9237SOL     OW39346   1.849   1.730   6.009  0.1120 -0.0911  0.3559
 9237SOL    HW139347   1.916   1.785   6.048 -0.3573  0.8117 -0.1010
 9237SOL    HW239348   1.882   1.729   5.919  1.8800  0.9444  0.9920
 9238SOL     OW39349   3.619   0.698   8.646 -0.1248 -0.4853  0.3129
 9238SOL    HW139350   3.578   0.759   8.709 -0.7905 -0.7841  0.1668
 9238SOL    HW239351   3.694   0.677   8.702 -1.1119 -0.8263  1.4974
 9239SOL     OW39352   0.382   0.591   2.994  0.3706 -0.0421 -0.1203
 9239SOL    HW139353   0.367   0.534   3.070  1.1780 -0.4401 -0.2543
 9239SOL    HW239354   0.349   0.671   3.035 -0.0707 -0.1267 -0.3130
 9240SOL     OW39355   2.098   3.746   6.171  0.5197 -0.4038 -0.0288
 9240SOL    HW139356   2.182   3.719   6.208 -0.0490  0.1590  1.6493
 9240SOL    HW239357   2.111   3.729   6.077 -0.1446 -1.8457  0.1378
 9241SOL     OW39358   2.720   0.521  11.447 -0.4225 -0.0895  0.3897
 9241SOL    HW139359   2.701   0.438  11.490 -0.3495 -0.6037 -0.5936
 9241SOL    HW239360   2.769   0.563  11.518 -1.0568 -1.1771  1.4661
 9242SOL     OW39361   3.494   2.253   4.181  0.2474 -0.1924  0.3038
 9242SOL    HW139362   3.520   2.329   4.232 -1.4549  0.1155  0.6923
 9242SOL    HW239363   3.450   2.292   4.106 -0.2331  0.7958  1.1100
 9243SOL     OW39364   4.300   3.940  12.311  0.7361 -0.5209  0.0963
 9243SOL    HW139365   4.321   3.854  12.276 -1.1847 -1.4411  1.2111
 9243SOL    HW239366   4.235   3.915  12.376  0.2120  0.4488 -0.0546
 9244SOL     OW39367   2.150   1.410  10.442 -0.2213  0.5552  0.3049
 9244SOL    HW139368   2.216   1.479  10.447  0.7207 -0.3629  0.4741
 9244SOL    HW239369   2.107   1.432  10.359  0.2306 -0.5214 -0.2085
 9245SOL     OW39370   1.521   4.328   5.028  0.2191 -0.1830 -0.3441
 9245SOL    HW139371   1.432   4.331   5.064  1.2270 -1.6971  2.2907
 9245SOL    HW239372   1.555   4.249   5.068 -1.8800 -0.9822 -0.1089
 9246SOL     OW39373   3.349   3.199   3.568 -1.0148 -0.4338  0.2371
 9246SOL    HW139374   3.273   3.195   3.626 -2.5547 -2.6854 -1.9414
 9246SOL    HW239375   3.406   3.136   3.611 -0.1057  1.3966  1.6888
 9247SOL     OW39376   4.539   1.655   4.222  0.3258  0.4281  0.0735
 9247SOL    HW139377   4.460   1.609   4.249 -0.7662  1.5378 -1.2346
 9247SOL    HW239378   4.588   1.585   4.180 -0.7813  1.3290 -2.7395
 9248SOL     OW39379   2.409   0.184   3.956  0.4828 -0.0331 -0.6691
 9248SOL    HW139380   2.348   0.189   4.029 -0.7523  0.0237 -1.6974
 9248SOL    HW239381   2.493   0.185   4.001 -0.5291 -1.0540  1.2288
 9249SOL     OW39382   4.693   1.758   6.626 -0.2850 -0.3612 -0.4231
 9249SOL    HW139383   4.666   1.808   6.550  0.5148  0.5478 -0.1096
 9249SOL    HW239384   0.032   1.706   6.596 -0.7711 -1.9174  1.0808
 9250SOL     OW39385   4.021   2.654   9.328 -0.1951  0.8848 -0.0648
 9250SOL    HW139386   4.049   2.698   9.408 -0.1455  1.5673 -0.4594
 9250SOL    HW239387   3.936   2.615   9.349  0.0050  0.2511 -0.4299
 9251SOL     OW39388   4.506   1.829   8.817  0.7125 -0.0134  1.4112
 9251SOL    HW139389   4.494   1.763   8.885  0.1529 -0.9115  0.4489
 9251SOL    HW239390   4.417   1.820   8.783  2.1191 -1.7964 -1.8288
 9252SOL     OW39391   2.442   0.146   5.031  0.5639  0.5601  0.3369
 9252SOL    HW139392   2.375   0.164   5.097 -0.7824  1.8352 -1.3744
 9252SOL    HW239393   2.420   0.053   5.026 -2.3337  1.1405  2.8353
 9253SOL     OW39394   1.031   4.379  11.446 -0.1856  0.1694 -0.1057
 9253SOL    HW139395   0.992   4.301  11.406 -0.2327 -0.1475  0.5679
 9253SOL    HW239396   1.104   4.335  11.491 -0.7515  1.8093  2.3479
 9254SOL     OW39397   0.567   2.257   0.457  0.0273  0.5526 -0.4994
 9254SOL    HW139398   0.511   2.196   0.505 -0.5546  0.0403 -1.8130
 9254SOL    HW239399   0.533   2.337   0.497  1.3805  1.8238 -1.8989
 9255SOL     OW39400   1.749   2.888   4.790  0.4981  0.2164  0.4356
 9255SOL    HW139401   1.760   2.957   4.725 -1.3771 -1.1312 -1.3001
 9255SOL    HW239402   1.817   2.829   4.758  2.0626  1.2262  1.9033
 9256SOL     OW39403   1.512   2.379  11.981 -0.0787  0.3834  0.0041
 9256SOL    HW139404   1.587   2.334  11.941 -1.2555 -2.0635  0.5498
 9256SOL    HW239405   1.554   2.397  12.065 -0.6229  0.5793  0.2357
 9257SOL     OW39406   1.944   3.557   0.713 -0.0624 -0.4798 -0.1143
 9257SOL    HW139407   2.003   3.507   0.657  0.6354 -0.4031  0.5467
 9257SOL    HW239408   1.877   3.593   0.654  0.0571  0.0066  0.0471
 9258SOL     OW39409   3.273   1.641   7.983  0.0756 -0.3140 -0.1868
 9258SOL    HW139410   3.368   1.646   7.985  0.1198 -0.5783 -1.7409
 9258SOL    HW239411   3.249   1.732   7.965  1.8296  0.1345 -0.2361
 9259SOL     OW39412   3.204   3.554   8.350 -0.2798 -0.3278  0.1309
 9259SOL    HW139413   3.266   3.627   8.356 -1.7165  1.1567 -3.0329
 9259SOL    HW239414   3.209   3.517   8.438 -2.0131 -0.1554  0.3180
 9260SOL     OW39415   3.865   1.498   4.372 -0.3046 -0.0305 -0.0764
 9260SOL    HW139416   3.824   1.581   4.394  0.1497 -0.1274  1.1389
 9260SOL    HW239417   3.956   1.525   4.380  0.5222 -2.2319 -2.0835
 9261SOL     OW39418   2.852   3.151   2.976 -0.0618  0.0660 -0.0780
 9261SOL    HW139419   2.796   3.134   3.051  0.3075 -0.8676 -0.0196
 9261SOL    HW239420   2.853   3.064   2.938  3.5115  0.3401 -0.6465
 9262SOL     OW39421   4.598   0.357   3.406 -0.4482 -0.0049 -0.1208
 9262SOL    HW139422   4.502   0.348   3.406 -0.5159  0.7925 -0.7077
 9262SOL    HW239423   4.616   0.316   3.322 -0.9376  2.1229 -1.2471
 9263SOL     OW39424   0.274   1.871   6.891 -0.1594 -0.4466 -0.4638
 9263SOL    HW139425   0.255   1.823   6.972  3.3501  2.5642  2.1878
 9263SOL    HW239426   0.188   1.901   6.860  0.0726 -2.3580 -2.8935
 9264SOL     OW39427   2.148   2.216  10.419 -0.3349  0.0161  0.4669
 9264SOL    HW139428   2.223   2.237  10.474 -2.4378  2.1937  2.4918
 9264SOL    HW239429   2.151   2.302  10.377  0.9590  0.0803  0.6723
 9265SOL     OW39430   3.525   4.187   8.622 -0.0477  0.1416  0.1759
 9265SOL    HW139431   3.450   4.199   8.680 -1.8443 -0.0470 -2.0550
 9265SOL    HW239432   3.588   4.144   8.679 -1.7346 -1.9618  0.4335
 9266SOL     OW39433   2.123   1.895   8.570 -0.1475 -0.2252 -0.1998
 9266SOL    HW139434   2.036   1.859   8.549 -0.0144  0.3884 -1.8730
 9266SOL    HW239435   2.103   1.987   8.588  0.7921 -0.0708  0.0245
 9267SOL     OW39436   1.285   4.010   4.517 -0.0490 -0.3204 -0.3551
 9267SOL    HW139437   1.247   4.044   4.435  0.2618  0.1034 -0.3228
 9267SOL    HW239438   1.320   4.088   4.559 -2.2845  0.4573  0.0946
 9268SOL     OW39439   1.417   1.560   7.326  0.0899 -0.0764 -0.1983
 9268SOL    HW139440   1.406   1.521   7.239 -2.2589 -1.3489  0.6818
 9268SOL    HW239441   1.370   1.503   7.386 -0.8258  2.0901  1.1418
 9269SOL     OW39442   1.058   2.503   7.627  0.5417  0.3342  0.1026
 9269SOL    HW139443   1.093   2.521   7.714 -0.0661  0.5710  0.2999
 9269SOL    HW239444   0.978   2.556   7.625 -0.5161 -1.2090  1.9963
 9270SOL     OW39445   4.036   0.585  15.033 -0.0690 -0.2516  1.1570
 9270SOL    HW139446   4.073   0.535  15.106  0.8087  2.0659  2.2919
 9270SOL    HW239447   4.078   0.670  15.042  0.4166 -0.0601 -2.8162
 9271SOL     OW39448   1.904   1.196   9.359 -0.3185  0.0434  0.2409
 9271SOL    HW139449   1.890   1.118   9.413 -1.0407 -0.0170 -0.0325
 9271SOL    HW239450   1.977   1.172   9.301  0.5848 -1.5055  2.0123
 9272SOL     OW39451   4.465   0.687   6.788 -0.2781  0.3151  0.0208
 9272SOL    HW139452   4.558   0.676   6.807 -0.2677  2.0726  1.0162
 9272SOL    HW239453   4.445   0.599   6.755 -0.6311  1.1920 -2.1328
 9273SOL     OW39454   3.435   3.818   9.855 -0.2315 -0.6421 -0.3158
 9273SOL    HW139455   3.390   3.901   9.869  1.1475  0.1035 -0.3003
 9273SOL    HW239456   3.410   3.782   9.940  1.8440  1.1718  1.0649
 9274SOL     OW39457   3.181   3.231   2.568  0.1945  0.1578 -0.0231
 9274SOL    HW139458   3.152   3.256   2.655 -1.0531  2.3304 -1.0544
 9274SOL    HW239459   3.099   3.200   2.531 -0.7558  2.5605  0.0326
 9275SOL     OW39460   4.584   1.823   5.043 -0.6092 -0.5631 -0.4846
 9275SOL    HW139461   4.553   1.775   4.967 -1.5854 -1.9487  0.8046
 9275SOL    HW239462   4.576   1.908   4.999  0.7874 -1.0013 -1.5827
 9276SOL     OW39463   0.846   4.174   2.696  0.5166  0.4937 -0.5430
 9276SOL    HW139464   0.821   4.251   2.644  0.0843 -0.2779 -1.4697
 9276SOL    HW239465   0.935   4.171   2.661  0.8759 -1.5227  0.5960
 9277SOL     OW39466   3.082   1.487   7.161  0.4637 -0.1482 -0.2919
 9277SOL    HW139467   3.121   1.532   7.236  0.8371 -0.0550 -0.5390
 9277SOL    HW239468   2.989   1.505   7.174  0.4297 -0.2166 -0.4371
 9278SOL     OW39469   2.687   3.137  14.986 -0.4675 -0.4011  0.1853
 9278SOL    HW139470   2.710   3.172  15.073 -0.3657 -1.1793  0.4723
 9278SOL    HW239471   2.609   3.086  15.008  0.8034 -2.9143 -1.0967
 9279SOL     OW39472   3.968   2.425   2.536  0.0495  0.6387  0.1423
 9279SOL    HW139473   4.063   2.438   2.534  0.5391 -3.1977 -1.1556
 9279SOL    HW239474   3.955   2.396   2.446  0.7430  0.0635  0.2319
 9280SOL     OW39475   1.460   2.421  14.486  0.3876 -0.0109  0.3938
 9280SOL    HW139476   1.460   2.439  14.392 -0.0447 -3.6326 -0.3232
 9280SOL    HW239477   1.420   2.334  14.488 -0.0071  0.2225  2.1536
 9281SOL     OW39478   3.331   4.305  13.273  0.0708  0.0373 -0.2366
 9281SOL    HW139479   3.236   4.314  13.261 -0.2165 -1.6688  0.7939
 9281SOL    HW239480   3.335   4.275  13.364 -1.3191 -0.6076 -0.3811
 9282SOL     OW39481   1.659   2.220   2.025  0.5688 -0.3261  0.5280
 9282SOL    HW139482   1.669   2.281   1.952 -2.7993  1.2777  1.4364
 9282SOL    HW239483   1.640   2.139   1.978  0.5522 -0.8219  1.3798
 9283SOL     OW39484   0.906   1.886   5.317 -0.2310  0.2978 -0.2266
 9283SOL    HW139485   0.877   1.836   5.240  0.0704  1.6706 -1.2305
 9283SOL    HW239486   0.946   1.965   5.281  0.2368 -0.3330 -1.0925
 9284SOL     OW39487   1.882   3.087  17.561 -0.0131 -0.4916 -0.0890
 9284SOL    HW139488   1.926   3.060  17.481 -1.3451 -1.6997 -0.4237
 9284SOL    HW239489   1.957   3.111  17.615 -0.9183 -0.5944  1.2309
 9285SOL     OW39490   2.480   3.981  16.655 -0.1038  0.4285 -0.0372
 9285SOL    HW139491   2.495   3.926  16.732  0.4522 -1.3747 -1.4496
 9285SOL    HW239492   2.513   4.065  16.689  2.5080 -1.3535  1.7707
 9286SOL     OW39493   3.428   2.261   7.943 -0.2007 -0.4770 -0.0357
 9286SOL    HW139494   3.367   2.188   7.951 -0.5634 -0.3828 -2.0708
 9286SOL    HW239495   3.365   2.333   7.948 -0.4157 -0.6453 -0.3414
 9287SOL     OW39496   2.119   2.145   1.704  0.4695 -0.2768 -0.2961
 9287SOL    HW139497   2.025   2.141   1.723  0.9339  1.3632  2.3102
 9287SOL    HW239498   2.134   2.226   1.654  0.0702 -0.8069 -1.2803
 9288SOL     OW39499   3.429   1.521   4.821  0.4450  0.2058 -0.2372
 9288SOL    HW139500   3.522   1.527   4.846  0.2635 -0.2525  0.5503
 9288SOL    HW239501   3.403   1.487   4.907 -0.2848 -0.5967 -0.7778
 9289SOL     OW39502   0.477   3.971   9.626 -0.3314  0.2076  0.2226
 9289SOL    HW139503   0.408   3.915   9.591  0.0986  0.0554 -0.4008
 9289SOL    HW239504   0.434   4.021   9.695  1.3760 -0.5989  1.8928
 9290SOL     OW39505   1.392   2.058   3.363  0.3552  0.6979 -0.4647
 9290SOL    HW139506   1.397   2.007   3.444 -1.5711  0.6635 -0.3513
 9290SOL    HW239507   1.458   2.125   3.379  1.0721 -0.0702 -0.2341
 9291SOL     OW39508   3.087   1.373   4.605 -0.0587 -0.1125 -0.3357
 9291SOL    HW139509   3.041   1.436   4.662  1.5182  0.4197  0.3363
 9291SOL    HW239510   3.023   1.337   4.544 -0.0205  0.3339 -0.6390
 9292SOL     OW39511   0.750   1.551  15.283 -0.1669 -0.2723 -0.1288
 9292SOL    HW139512   0.756   1.594  15.198  0.3737  1.3330  0.7431
 9292SOL    HW239513   0.670   1.592  15.317  0.3976 -1.1999  2.3089
 9293SOL     OW39514   2.462   2.980  15.061  0.2671 -0.4521 -0.2305
 9293SOL    HW139515   2.504   2.918  15.001  1.8619  0.5771 -0.1792
 9293SOL    HW239516   2.430   2.930  15.136 -0.7891  0.0240 -0.3626
 9294SOL     OW39517   4.544   1.375   2.774  0.4639 -0.0984 -0.1555
 9294SOL    HW139518   4.476   1.321   2.815 -0.0274  1.2775  0.8416
 9294SOL    HW239519   4.601   1.298   2.776 -0.6836 -0.9549 -0.1461
 9295SOL     OW39520   2.025   0.815  12.128 -0.1842 -0.2941  0.6227
 9295SOL    HW139521   2.006   0.745  12.065  2.1422  0.8168 -1.3244
 9295SOL    HW239522   1.942   0.819  12.177 -0.6403  0.4674 -0.2252
 9296SOL     OW39523   2.983   2.569  15.831 -0.2649 -0.2247  0.8142
 9296SOL    HW139524   2.975   2.559  15.737 -0.1510  2.0234  0.5641
 9296SOL    HW239525   3.067   2.525  15.847  1.3755  3.1975  1.8334
 9297SOL     OW39526   0.792   2.373   5.732 -0.0673 -0.4137  0.0765
 9297SOL    HW139527   0.715   2.428   5.715 -0.5061 -1.5363 -1.5081
 9297SOL    HW239528   0.848   2.436   5.778 -1.2374  1.4423 -1.0112
 9298SOL     OW39529   2.759   3.331   6.513  0.0261  0.1201 -0.6171
 9298SOL    HW139530   2.850   3.305   6.524 -0.2851 -0.3241  0.9141
 9298SOL    HW239531   2.768   3.394   6.441 -1.1807  1.6892  0.5863
 9299SOL     OW39532   1.927   3.300   6.091 -0.0932 -0.1413 -0.1965
 9299SOL    HW139533   1.979   3.336   6.162 -0.2299  2.1915 -1.2784
 9299SOL    HW239534   1.859   3.366   6.082  1.7251  1.7940  0.4439
 9300SOL     OW39535   2.401   0.702   6.882  0.2000 -0.0821 -0.1504
 9300SOL    HW139536   2.455   0.746   6.817  0.7430 -1.2728 -0.5035
 9300SOL    HW239537   2.347   0.641   6.831 -1.0855  0.5068  0.5010
 9301SOL     OW39538   2.540   1.466   8.654  0.2831 -0.4164  0.1062
 9301SOL    HW139539   2.490   1.419   8.721  0.0057 -1.7000 -0.9966
 9301SOL    HW239540   2.550   1.550   8.699  0.7382 -0.4642  0.0897
 9302SOL     OW39541   0.630   0.144   2.120 -0.4700 -0.3026 -0.3176
 9302SOL    HW139542   0.603   0.109   2.205 -0.6358 -2.0400 -1.0844
 9302SOL    HW239543   0.655   0.079   2.055 -0.0060 -0.1197 -0.3206
 9303SOL     OW39544   1.031   3.730  12.223  1.0559  0.1413 -0.5797
 9303SOL    HW139545   1.065   3.812  12.259  1.5817 -0.1710 -0.3740
 9303SOL    HW239546   1.027   3.671  12.299 -1.8469  0.6837 -0.3308
 9304SOL     OW39547   3.465   0.459   4.657 -0.9263  0.2947 -0.4466
 9304SOL    HW139548   3.554   0.477   4.626  0.0389 -1.9358  1.0814
 9304SOL    HW239549   3.420   0.535   4.620  2.8402  2.6356 -0.2333
 9305SOL     OW39550   3.490   3.459   3.187 -0.6630 -0.2039 -0.8711
 9305SOL    HW139551   3.556   3.472   3.119 -0.6612  2.8670 -0.2707
 9305SOL    HW239552   3.422   3.519   3.159  1.3275  2.1532 -0.6663
 9306SOL     OW39553   1.208   0.114   8.636 -0.3667 -0.1876  0.0860
 9306SOL    HW139554   1.158   0.126   8.717 -0.7106  0.3907 -0.2138
 9306SOL    HW239555   1.154   0.164   8.575 -0.7775 -0.1594  0.4705
 9307SOL     OW39556   2.917   1.230   8.479 -0.0406 -0.0449 -0.0109
 9307SOL    HW139557   2.903   1.296   8.547 -1.2797 -0.3076 -0.0043
 9307SOL    HW239558   2.826   1.210   8.457 -0.0994  0.1230  0.0767
 9308SOL     OW39559   1.380   2.247   1.850  0.3043 -0.2699 -0.5572
 9308SOL    HW139560   1.307   2.266   1.791  0.3863  1.2409 -0.1612
 9308SOL    HW239561   1.379   2.151   1.855  0.2650 -0.1983  0.7136
 9309SOL     OW39562   1.736   2.104  11.205  0.5198 -0.0551 -0.5760
 9309SOL    HW139563   1.666   2.106  11.271  1.4159 -1.8650  0.4380
 9309SOL    HW239564   1.693   2.124  11.122  0.9002  0.4687 -0.6470
 9310SOL     OW39565   2.162   1.596   5.975  0.4724 -0.1506  0.3537
 9310SOL    HW139566   2.153   1.691   5.987  1.2022 -0.0648  0.2149
 9310SOL    HW239567   2.244   1.584   6.021  0.4377 -0.0041  0.4539
 9311SOL     OW39568   2.006   1.408   9.045  0.1263  0.1733 -0.1922
 9311SOL    HW139569   1.980   1.346   8.977  1.5848 -0.7299  0.0855
 9311SOL    HW239570   1.930   1.463   9.029 -0.2320  0.0995  1.2059
 9312SOL     OW39571   0.877   3.151   2.167 -0.2413 -0.1134 -0.4652
 9312SOL    HW139572   0.886   3.056   2.180 -0.3507 -0.0310  0.1784
 9312SOL    HW239573   0.787   3.158   2.135 -1.5806 -2.3153  2.8961
 9313SOL     OW39574   3.231   2.458   5.447  0.3441  0.0492 -0.3241
 9313SOL    HW139575   3.230   2.494   5.358 -1.7630  0.8004  0.0074
 9313SOL    HW239576   3.179   2.520   5.498 -0.0396 -1.5909  1.2762
 9314SOL     OW39577   1.905   0.291  17.226  0.4127 -0.8287 -0.0681
 9314SOL    HW139578   1.954   0.346  17.287  0.1045 -1.8143  1.0633
 9314SOL    HW239579   1.945   0.204  17.223  5.3629  1.4741  0.0406
 9315SOL     OW39580   0.515   1.681  13.488  0.2496 -0.2467  0.1502
 9315SOL    HW139581   0.598   1.693  13.442  0.5840 -1.0606  0.5284
 9315SOL    HW239582   0.541   1.736  13.562 -3.1692  0.4788  0.7974
 9316SOL     OW39583   2.786   1.659   8.599  0.0087  0.3729 -0.2066
 9316SOL    HW139584   2.847   1.635   8.530 -1.8124 -1.2447 -1.2430
 9316SOL    HW239585   2.834   1.731   8.640 -1.4393  0.7199  0.9199
 9317SOL     OW39586   0.083   3.925   6.130 -0.0437  0.0972 -0.0476
 9317SOL    HW139587   0.057   3.901   6.219 -0.2675  0.3149 -0.0557
 9317SOL    HW239588   0.144   3.995   6.153 -2.2301  1.1779  2.4917
 9318SOL     OW39589   0.465   3.381   7.116  0.1414  0.3334 -0.0725
 9318SOL    HW139590   0.518   3.432   7.054  0.3135 -2.1774 -1.9557
 9318SOL    HW239591   0.464   3.307   7.056 -0.2432 -2.3124  3.1759
 9319SOL     OW39592   2.567   1.062   6.902 -0.1910  0.4518  0.2568
 9319SOL    HW139593   2.513   1.059   6.823  1.7814  0.2485 -1.0893
 9319SOL    HW239594   2.511   1.122   6.951 -0.7823  0.5794 -0.5739
 9320SOL     OW39595   2.915   3.271   9.305  0.2029  0.3263  0.6063
 9320SOL    HW139596   2.977   3.244   9.238 -1.2022  1.6511 -1.2550
 9320SOL    HW239597   2.869   3.345   9.264  0.3133 -0.5519 -1.1004
 9321SOL     OW39598   3.385   0.795   9.037 -0.0525 -0.4083 -0.0977
 9321SOL    HW139599   3.448   0.787   9.108  0.4481  0.0135 -0.4863
 9321SOL    HW239600   3.316   0.736   9.066 -1.0419  0.9195  0.2424
 9322SOL     OW39601   0.904   2.220  17.584  0.2809  0.3692 -0.1407
 9322SOL    HW139602   0.978   2.228  17.645  1.3459  1.0265 -1.5187
 9322SOL    HW239603   0.937   2.155  17.522  0.2224  1.1384 -0.9910
 9323SOL     OW39604   4.577   4.647   8.361 -0.8119  0.6760  0.0854
 9323SOL    HW139605   4.599   4.622   8.271 -1.6540 -2.7704  0.8145
 9323SOL    HW239606   4.483   4.633   8.357 -0.6165 -0.4471 -0.9466
 9324SOL     OW39607   2.792   0.725   4.834  0.2946  0.0915 -0.2507
 9324SOL    HW139608   2.887   0.737   4.836  0.4491 -0.9199 -1.6300
 9324SOL    HW239609   2.774   0.716   4.927  0.2703  0.2106 -0.2434
 9325SOL     OW39610   1.949   2.256   4.616  0.2059 -0.2730  0.0321
 9325SOL    HW139611   2.009   2.310   4.667 -0.0335 -0.1229  0.1555
 9325SOL    HW239612   1.999   2.175   4.629  1.2748  0.7591  2.2564
 9326SOL     OW39613   4.444   1.481   6.482 -0.2006  0.2258 -0.2367
 9326SOL    HW139614   4.389   1.432   6.543 -2.0992  0.2721 -1.9067
 9326SOL    HW239615   4.519   1.489   6.541 -0.1324 -0.6547 -0.1973
 9327SOL     OW39616   3.793   4.555   8.584  0.3576  0.3268  0.1734
 9327SOL    HW139617   3.885   4.533   8.570  0.1200 -0.7590  0.2880
 9327SOL    HW239618   3.746   4.498   8.524  1.0589  2.2039 -2.1566
 9328SOL     OW39619   3.105   1.128  10.925  0.1204  0.0134  0.2586
 9328SOL    HW139620   3.069   1.071  10.857  2.6154  0.1624 -1.1997
 9328SOL    HW239621   3.156   1.069  10.980  1.5188 -0.1050 -1.1621
 9329SOL     OW39622   1.025   2.747   5.112 -0.8326  0.6760  0.1719
 9329SOL    HW139623   1.116   2.738   5.141 -1.1871 -0.6360  0.8484
 9329SOL    HW239624   1.009   2.653   5.106  0.9761  0.5290 -2.2918
 9330SOL     OW39625   1.522   4.258   8.942  0.2149  0.4810 -0.2539
 9330SOL    HW139626   1.488   4.194   9.004  2.0984 -1.7332 -1.4736
 9330SOL    HW239627   1.613   4.260   8.974 -0.4994  1.0540  1.7262
 9331SOL     OW39628   3.803   0.140   1.506  0.1729 -0.2689  0.3517
 9331SOL    HW139629   3.894   0.111   1.504 -0.0095 -0.9103  1.5577
 9331SOL    HW239630   3.750   0.061   1.492 -2.4411  1.9094 -2.2115
 9332SOL     OW39631   1.292   4.334   4.187 -0.0005 -0.1429 -0.0268
 9332SOL    HW139632   1.209   4.380   4.170  0.5147  0.7453 -0.1093
 9332SOL    HW239633   1.359   4.401   4.178 -1.1128  1.2482  2.0619
 9333SOL     OW39634   3.171   0.100   7.264 -0.5360  0.2239  0.4734
 9333SOL    HW139635   3.154   0.047   7.187  0.3379  1.6475 -0.6872
 9333SOL    HW239636   3.112   0.172   7.241 -3.4623 -1.9930  1.0696
 9334SOL     OW39637   3.765   4.500   5.377 -0.3439  0.0421  0.0631
 9334SOL    HW139638   3.828   4.435   5.408 -1.0559 -0.1779  1.0451
 9334SOL    HW239639   3.795   4.579   5.423  0.2046 -0.4112  0.4938
 9335SOL     OW39640   3.987   3.605   8.298 -0.2948 -0.0574  0.2329
 9335SOL    HW139641   3.980   3.598   8.393 -2.6151 -0.8331  0.0070
 9335SOL    HW239642   4.065   3.658   8.282  0.0632 -0.9933 -1.0941
 9336SOL     OW39643   0.311   1.471   5.222  0.0018 -0.1981  0.1648
 9336SOL    HW139644   0.257   1.473   5.301  1.5268 -1.1331  1.2477
 9336SOL    HW239645   0.291   1.555   5.182  1.3158  1.3943  2.8630
 9337SOL     OW39646   2.083   4.166  17.330 -0.6699 -0.8255 -0.0027
 9337SOL    HW139647   2.031   4.215  17.266 -0.6136  0.1000  0.6589
 9337SOL    HW239648   2.114   4.242  17.379 -0.8329 -0.0708 -1.0595
 9338SOL     OW39649   1.804   3.602   6.351 -0.2707  0.2560  0.0098
 9338SOL    HW139650   1.782   3.562   6.267 -0.0983  0.5678 -0.1872
 9338SOL    HW239651   1.724   3.630   6.394 -1.2165 -2.6417  0.1509
 9339SOL     OW39652   2.874   2.686   6.768 -0.3172 -0.0097  0.2190
 9339SOL    HW139653   2.859   2.613   6.828 -1.9899 -0.2866 -0.5173
 9339SOL    HW239654   2.954   2.655   6.725 -1.3401 -0.2042 -1.5529
 9340SOL     OW39655   2.645   0.522   2.596 -0.0037  1.0533 -0.2867
 9340SOL    HW139656   2.685   0.590   2.541  0.1755 -0.1320 -1.6397
 9340SOL    HW239657   2.556   0.525   2.561 -0.3693 -0.6095  0.5033
 9341SOL     OW39658   1.381   3.353  14.010 -0.1783  0.0381 -0.0551
 9341SOL    HW139659   1.301   3.313  13.975  0.4750 -0.3210 -1.1294
 9341SOL    HW239660   1.390   3.436  13.964  0.6074 -0.0421 -0.0480
 9342SOL     OW39661   1.595   1.099   8.577 -0.1963 -0.0962  0.2129
 9342SOL    HW139662   1.690   1.106   8.589 -0.2249 -0.7179  0.7664
 9342SOL    HW239663   1.574   1.019   8.625  2.7178 -0.8350  0.2605
 9343SOL     OW39664   1.944   0.630   4.495  0.0088  0.2208 -0.3826
 9343SOL    HW139665   1.903   0.602   4.577 -2.0053  0.5175 -1.2932
 9343SOL    HW239666   1.875   0.675   4.446 -0.6311 -0.6887 -0.3055
 9344SOL     OW39667   4.298   1.705  11.214 -0.3531  0.2158 -0.2503
 9344SOL    HW139668   4.307   1.621  11.258  1.0288  0.7856  0.5718
 9344SOL    HW239669   4.210   1.736  11.236 -0.5538 -0.0121 -0.7437
 9345SOL     OW39670   0.270   1.726   5.121  0.1794 -0.4963 -0.2994
 9345SOL    HW139671   0.304   1.814   5.102  2.0723 -1.1190  0.2454
 9345SOL    HW239672   0.325   1.686   5.054  2.0846  1.7597 -0.1008
 9346SOL     OW39673   2.483   0.003   5.826 -0.0309  0.0022  0.7147
 9346SOL    HW139674   2.404   4.703   5.784  0.3136  1.4079 -1.1151
 9346SOL    HW239675   2.489   0.088   5.784 -1.2122  0.0772  0.7051
 9347SOL     OW39676   2.151   2.305  17.475  0.0952  0.6588 -0.5779
 9347SOL    HW139677   2.078   2.245  17.483 -0.1014  0.9625 -0.0896
 9347SOL    HW239678   2.215   2.244  17.439 -0.3094 -0.6774  0.9915
 9348SOL     OW39679   4.004   3.496   5.627 -0.0363  0.0884  0.3245
 9348SOL    HW139680   4.015   3.474   5.535 -0.7225 -0.3842  0.3551
 9348SOL    HW239681   4.069   3.566   5.628 -1.5315  1.5090 -1.1289
 9349SOL     OW39682   2.041   2.280   0.632  0.2030 -0.2559 -0.4596
 9349SOL    HW139683   1.986   2.358   0.638 -0.4919 -0.5116 -3.4085
 9349SOL    HW239684   1.979   2.207   0.625 -0.1922  0.1215 -0.8689
 9350SOL     OW39685   3.518   1.989   1.609  0.0414  0.4333 -0.4907
 9350SOL    HW139686   3.473   1.907   1.589  0.4334  0.0015  0.4221
 9350SOL    HW239687   3.450   2.049   1.641  1.7373  1.8869  0.3830
 9351SOL     OW39688   4.635   4.628   4.221  0.2560 -1.0249 -0.2139
 9351SOL    HW139689   4.582   4.614   4.143  0.9112 -1.4036 -0.5947
 9351SOL    HW239690   4.720   4.622   4.178 -1.0022  0.9105 -2.9179
 9352SOL     OW39691   0.553   3.805  15.775  0.5790 -0.0897 -0.0904
 9352SOL    HW139692   0.465   3.767  15.779  0.2122  0.7440 -0.2756
 9352SOL    HW239693   0.605   3.728  15.754  1.0151 -0.3513  1.9493
 9353SOL     OW39694   2.027   2.753   4.374  0.0586  0.4116  0.4650
 9353SOL    HW139695   2.118   2.780   4.364  1.0023 -1.9451  2.7841
 9353SOL    HW239696   2.032   2.695   4.450 -0.2362  1.4020  1.2451
 9354SOL     OW39697   4.061   3.040   7.360 -0.4442  0.0474  0.1346
 9354SOL    HW139698   4.058   2.992   7.443  0.6388 -4.4697 -2.4600
 9354SOL    HW239699   4.155   3.056   7.359 -0.4440 -0.0857 -1.2626
 9355SOL     OW39700   1.747   2.128   2.777 -0.0444 -0.5865  0.3012
 9355SOL    HW139701   1.691   2.052   2.788 -0.9320  0.1786  1.1259
 9355SOL    HW239702   1.728   2.154   2.687  1.3586 -0.4753  0.0475
 9356SOL     OW39703   0.069   3.730   8.821 -0.0606 -0.2346 -0.4964
 9356SOL    HW139704   4.734   3.774   8.869  2.0837  0.9563  1.5854
 9356SOL    HW239705   0.120   3.806   8.792  0.9652 -0.9694 -0.6256
 9357SOL     OW39706   1.917   0.024   6.010  0.2339  0.4060 -0.3220
 9357SOL    HW139707   1.919   0.043   5.917  1.6363  1.9118 -0.0001
 9357SOL    HW239708   1.835   0.069   6.030 -0.5278  0.1538 -2.8896
 9358SOL     OW39709   2.220   2.372  11.457 -0.0257  0.1144  0.3935
 9358SOL    HW139710   2.209   2.448  11.514 -0.5333 -0.3599  0.9247
 9358SOL    HW239711   2.311   2.352  11.480 -0.5382  0.2997  2.5002
 9359SOL     OW39712   2.728   3.262   6.919 -0.2954 -0.4804 -0.0345
 9359SOL    HW139713   2.643   3.250   6.878 -0.2166  1.0870 -0.6527
 9359SOL    HW239714   2.719   3.238   7.011  2.1440 -0.9755  0.0752
 9360SOL     OW39715   1.856   3.697   1.792 -0.0222  0.0244  0.2895
 9360SOL    HW139716   1.853   3.720   1.885 -0.4068  1.4959 -0.0861
 9360SOL    HW239717   1.762   3.680   1.782 -0.1379  0.3918  0.7084
 9361SOL     OW39718   0.009   4.341   2.606 -0.0402 -0.8683 -0.0033
 9361SOL    HW139719   0.047   4.328   2.693 -1.3011  1.3403  0.8636
 9361SOL    HW239720   4.691   4.418   2.627 -1.0270 -2.0106  1.7701
 9362SOL     OW39721   2.535   1.105  16.831  0.1060  0.6407  0.4081
 9362SOL    HW139722   2.569   1.181  16.878  0.1673  1.0654 -0.3157
 9362SOL    HW239723   2.498   1.147  16.753 -2.9539 -0.6275  1.1795
 9363SOL     OW39724   2.270   3.132   5.467 -0.4953 -0.1466  0.5113
 9363SOL    HW139725   2.230   3.078   5.536 -1.7658  0.0363 -0.0851
 9363SOL    HW239726   2.312   3.195   5.526  2.0729  0.2035 -1.6789
 9364SOL     OW39727   4.605   1.732   5.840  0.0316  0.1415 -0.5793
 9364SOL    HW139728   4.548   1.792   5.886 -0.5743 -1.2201  0.4269
 9364SOL    HW239729   4.559   1.648   5.845  2.0905 -0.8517  1.7939
 9365SOL     OW39730   2.492   4.524   3.100 -0.2308  0.3790  0.6194
 9365SOL    HW139731   2.508   4.605   3.051 -0.7407 -0.2974 -0.6627
 9365SOL    HW239732   2.403   4.538   3.132 -1.2414 -2.0764 -1.1207
 9366SOL     OW39733   0.602   3.946  12.536  0.0102 -0.5858  0.3268
 9366SOL    HW139734   0.661   3.952  12.461 -0.6849 -1.0192 -0.2652
 9366SOL    HW239735   0.604   4.037  12.566 -0.1668  0.1770 -1.9557
 9367SOL     OW39736   0.196   2.024   1.129 -0.0689 -0.2639 -0.0833
 9367SOL    HW139737   0.243   2.043   1.048  1.0291  0.6358  0.7628
 9367SOL    HW239738   0.276   2.034   1.182 -0.8163 -0.4576  1.0859
 9368SOL     OW39739   2.680   0.575   8.805 -0.0702 -0.5383  0.0165
 9368SOL    HW139740   2.629   0.644   8.848 -0.1934  0.0757 -1.0965
 9368SOL    HW239741   2.640   0.579   8.718  3.7686  0.6508 -1.6901
 9369SOL     OW39742   2.489   3.259   8.685 -0.0875  0.7772 -0.1070
 9369SOL    HW139743   2.481   3.173   8.644 -0.6019  0.4920  0.5777
 9369SOL    HW239744   2.548   3.305   8.627  0.6194  1.2140  0.9615
 9370SOL     OW39745   2.651   2.482   6.249  0.4183  0.7467 -0.0050
 9370SOL    HW139746   2.669   2.504   6.341  0.3055 -0.1240  0.2215
 9370SOL    HW239747   2.616   2.565   6.215  1.5210  0.8085 -1.0327
 9371SOL     OW39748   0.917   1.661   8.993  0.9649 -0.5122 -0.1239
 9371SOL    HW139749   0.919   1.629   8.902  2.3940 -0.2982 -0.1549
 9371SOL    HW239750   0.909   1.577   9.038  0.4028 -1.1003 -1.3078
 9372SOL     OW39751   0.277   0.118   6.842 -0.1886  0.6937 -0.2928
 9372SOL    HW139752   0.227   0.138   6.762  1.7173  2.8527 -0.9336
 9372SOL    HW239753   0.222   0.159   6.909  0.7614 -0.3595  1.1183
 9373SOL     OW39754   1.730   2.657   1.162  0.5930 -0.2026  0.0844
 9373SOL    HW139755   1.774   2.573   1.176  0.0103 -0.4706  0.3195
 9373SOL    HW239756   1.700   2.652   1.071 -3.8076 -2.3800  1.6654
 9374SOL     OW39757   0.136   3.625  10.888  0.0345  0.3187 -0.0225
 9374SOL    HW139758   0.137   3.555  10.823  1.2882 -0.7120  1.1083
 9374SOL    HW239759   0.168   3.563  10.953 -1.5174  0.0198  0.4560
 9375SOL     OW39760   1.317   1.408  11.945  0.1073 -0.1805  0.2671
 9375SOL    HW139761   1.283   1.328  11.904  1.1151 -1.5186  2.0111
 9375SOL    HW239762   1.400   1.427  11.901 -0.5864 -0.0336 -0.9761
 9376SOL     OW39763   2.949   1.405   6.057  0.0843 -0.1472  0.2390
 9376SOL    HW139764   2.873   1.451   6.022  0.5386  0.2038 -0.2929
 9376SOL    HW239765   3.017   1.443   6.001 -0.0674  0.8803  0.7374
 9377SOL     OW39766   4.531   2.605   2.704  0.1158  0.4525  0.0802
 9377SOL    HW139767   4.540   2.528   2.648 -0.5865 -0.1683  0.8148
 9377SOL    HW239768   4.614   2.648   2.683  1.1648 -0.7945  1.6699
 9378SOL     OW39769   0.812   0.038   8.931 -0.3786 -0.0996 -0.2080
 9378SOL    HW139770   0.791   0.040   9.025  1.4664  2.9024  0.1560
 9378SOL    HW239771   0.795   0.130   8.911  0.9248  0.3442  0.7039
 9379SOL     OW39772   3.186   0.633   1.030  0.7770 -0.8147  0.1086
 9379SOL    HW139773   3.177   0.708   0.970 -1.0964  0.0533  1.4745
 9379SOL    HW239774   3.165   0.673   1.114 -1.4677  0.9343 -1.2668
 9380SOL     OW39775   4.177   4.249  16.515  0.4407 -0.2212 -0.0062
 9380SOL    HW139776   4.141   4.161  16.528  1.7203 -0.9512 -1.4978
 9380SOL    HW239777   4.102   4.299  16.547  1.6705 -1.3205  4.7157
 9381SOL     OW39778   1.547   1.170  10.811  0.8515 -0.0576 -0.1459
 9381SOL    HW139779   1.499   1.219  10.744 -1.7248 -0.4149  1.4622
 9381SOL    HW239780   1.575   1.247  10.860  0.9065  2.5493 -4.2453
 9382SOL     OW39781   2.564   0.722   8.295 -0.3846  0.2787  0.3593
 9382SOL    HW139782   2.493   0.659   8.285 -1.6155  1.3280  2.5302
 9382SOL    HW239783   2.582   0.752   8.206  2.1983 -0.1356  0.7410
 9383SOL     OW39784   3.004   4.725   6.795  0.4196  0.0739  0.1216
 9383SOL    HW139785   3.088   4.735   6.749  0.1109  0.4181 -0.3665
 9383SOL    HW239786   3.001   0.066   6.853  0.4157  0.8586 -0.9128
 9384SOL     OW39787   3.661   0.440   9.888 -0.0118 -0.2080 -0.2252
 9384SOL    HW139788   3.572   0.406   9.889  1.2138 -3.4421  1.2553
 9384SOL    HW239789   3.695   0.387   9.961  0.3811 -1.6262 -1.4419
 9385SOL     OW39790   3.376   4.572   0.982 -0.0433 -0.4389  0.0129
 9385SOL    HW139791   3.358   4.480   1.004  0.5124 -0.4256  0.5348
 9385SOL    HW239792   3.298   4.608   1.023  0.6627  1.7334 -0.5854
 9386SOL     OW39793   4.329   4.090   2.735 -0.0333 -0.2073 -0.3814
 9386SOL    HW139794   4.359   4.135   2.655  1.4539  0.6287  0.6404
 9386SOL    HW239795   4.305   4.160   2.796  1.6078 -0.5978  0.7079
 9387SOL     OW39796   0.119   3.977  12.580  0.2238  0.1126  0.0064
 9387SOL    HW139797   0.108   4.053  12.523  0.3286 -0.1814 -0.3993
 9387SOL    HW239798   0.189   3.932  12.534  0.5719  0.2243  0.4244
 9388SOL     OW39799   2.909   3.391   7.291 -0.2733 -0.2326  0.0675
 9388SOL    HW139800   2.893   3.297   7.284 -2.7084 -0.1934  5.0050
 9388SOL    HW239801   2.959   3.404   7.211  0.9101  0.4033  0.9124
 9389SOL     OW39802   0.120   0.343   8.440  0.4831  0.0926 -0.2262
 9389SOL    HW139803   0.074   0.259   8.432  0.2506  0.2466 -0.4876
 9389SOL    HW239804   0.054   0.379   8.499  0.4293  1.2940 -1.0106
 9390SOL     OW39805   2.290   1.612   0.275  0.4300  0.4106  0.7248
 9390SOL    HW139806   2.336   1.542   0.321  3.4543  1.9045 -0.0088
 9390SOL    HW239807   2.323   1.693   0.314 -0.7130  1.1229  0.2412
 9391SOL     OW39808   0.197   3.297   4.579 -0.0350 -0.4164 -0.0721
 9391SOL    HW139809   0.230   3.348   4.653  2.2906 -2.4470  0.2869
 9391SOL    HW239810   0.111   3.267   4.610 -0.1247  1.8382  1.8935
 9392SOL     OW39811   4.701   0.924   5.006  0.0404  0.2080  0.0750
 9392SOL    HW139812   0.022   0.847   4.997  2.3807  1.7855  0.9164
 9392SOL    HW239813   4.644   0.919   4.930 -0.5981  4.9245  0.2500
 9393SOL     OW39814   2.635   2.541   4.180  0.2035  0.0514  0.2664
 9393SOL    HW139815   2.578   2.590   4.120 -1.1080 -2.1205 -0.2668
 9393SOL    HW239816   2.708   2.602   4.189  0.2398 -0.1464  1.3185
 9394SOL     OW39817   3.674   1.527   1.680  0.4524 -0.6786 -0.3041
 9394SOL    HW139818   3.667   1.618   1.651 -2.0189 -0.6741  0.3645
 9394SOL    HW239819   3.750   1.550   1.733  0.2946 -4.4887  1.5978
 9395SOL     OW39820   1.196   0.226  15.489  0.1859  0.1422 -0.6089
 9395SOL    HW139821   1.212   0.133  15.501 -0.6018 -0.2258 -2.4186
 9395SOL    HW239822   1.209   0.268  15.574  2.6517  0.2458 -1.0360
 9396SOL     OW39823   4.701   1.480   4.115  0.8444 -0.2141 -0.0146
 9396SOL    HW139824   4.695   1.533   4.035 -1.2383  0.5034  0.6017
 9396SOL    HW239825   0.059   1.472   4.135  0.5852  1.6864  1.9708
 9397SOL     OW39826   2.820   0.560  12.176  1.1759 -0.5867  0.7049
 9397SOL    HW139827   2.841   0.487  12.235 -2.0968 -2.2951 -0.2458
 9397SOL    HW239828   2.865   0.540  12.093  0.4534  0.3871  0.0864
 9398SOL     OW39829   0.684   3.145   8.539  0.6024 -0.1659 -0.1413
 9398SOL    HW139830   0.674   3.209   8.468 -3.3488 -1.5904 -0.8760
 9398SOL    HW239831   0.628   3.077   8.500 -1.7703  2.1174 -0.6956
 9399SOL     OW39832   0.714   1.673   7.229 -0.2368  0.4237  0.0116
 9399SOL    HW139833   0.683   1.757   7.197  0.4011  0.9352  0.7115
 9399SOL    HW239834   0.632   1.626   7.240 -0.4006  0.2105 -2.1285
 9400SOL     OW39835   2.988   1.867   6.362 -0.5386  0.2184  0.0926
 9400SOL    HW139836   2.956   1.781   6.336  0.9777 -0.7681  1.4943
 9400SOL    HW239837   2.931   1.894   6.433 -1.6466 -1.5625 -0.1188
 9401SOL     OW39838   0.071   3.284   1.859  0.1626  0.2606  1.1264
 9401SOL    HW139839   0.026   3.255   1.780  0.8842 -0.0857  0.8393
 9401SOL    HW239840   0.100   3.375   1.850 -0.6997  0.4387  0.1594
 9402SOL     OW39841   2.232   4.146   0.986 -0.6842 -0.4399 -0.4354
 9402SOL    HW139842   2.302   4.138   0.920 -1.0493  1.3585 -1.0389
 9402SOL    HW239843   2.153   4.139   0.933 -0.4977 -0.3580 -0.7261
 9403SOL     OW39844   0.530   0.667  16.747  0.2835  0.3025 -0.3752
 9403SOL    HW139845   0.586   0.656  16.824  0.5332  0.6463 -0.5022
 9403SOL    HW239846   0.581   0.633  16.674  0.7503  0.6659 -0.2188
 9404SOL     OW39847   4.308   3.517   8.590  0.0556  0.1119  0.1360
 9404SOL    HW139848   4.368   3.588   8.615  0.2868 -0.2324  0.5533
 9404SOL    HW239849   4.366   3.450   8.555 -0.2138  0.3180 -0.7040
 9405SOL     OW39850   2.482   1.260   9.652  0.0535  0.1793  0.4367
 9405SOL    HW139851   2.432   1.227   9.726  0.7945  0.4851  1.0734
 9405SOL    HW239852   2.442   1.347   9.650 -1.4990 -0.5164  1.4233
 9406SOL     OW39853   3.401   1.132   5.594 -0.1362  0.2185  0.2612
 9406SOL    HW139854   3.341   1.179   5.535 -0.2953 -0.3709 -0.0488
 9406SOL    HW239855   3.350   1.124   5.674 -2.8926  2.0861 -1.3201
 9407SOL     OW39856   2.988   4.115  10.809 -0.7268 -0.1914 -0.3600
 9407SOL    HW139857   2.944   4.199  10.794 -0.8960  0.0986  1.7882
 9407SOL    HW239858   2.957   4.103  10.899  1.5768 -0.8660  0.3592
 9408SOL     OW39859   0.710   2.074   6.767  0.6735  0.1104 -0.4019
 9408SOL    HW139860   0.616   2.056   6.763  1.0923 -2.1706 -0.0943
 9408SOL    HW239861   0.732   2.071   6.860 -0.0112 -0.1015 -0.2485
 9409SOL     OW39862   4.112   2.449   7.682 -0.3326 -0.1336 -0.1055
 9409SOL    HW139863   4.169   2.468   7.757 -0.8473  2.1830 -0.3096
 9409SOL    HW239864   4.042   2.511   7.701 -1.8730 -2.7452  2.8676
 9410SOL     OW39865   3.633   3.215  13.188  0.1739 -0.0670  0.1869
 9410SOL    HW139866   3.606   3.252  13.272  2.5122  0.4082  0.7470
 9410SOL    HW239867   3.606   3.124  13.197 -0.1317  0.1386  1.3061
 9411SOL     OW39868   2.747   0.197  13.720  0.1630 -0.4273 -0.2678
 9411SOL    HW139869   2.710   0.206  13.807 -0.4471  2.1956 -0.7894
 9411SOL    HW239870   2.728   0.289  13.701  2.9087  0.6367  2.1391
 9412SOL     OW39871   1.914   2.001   3.975  0.8132 -0.4665 -0.1137
 9412SOL    HW139872   1.955   2.030   3.894 -0.5236  1.0809 -0.2337
 9412SOL    HW239873   1.939   1.908   3.974  0.3297 -0.5624 -2.3283
 9413SOL     OW39874   3.849   0.231  10.534 -0.0455 -0.1026  0.4001
 9413SOL    HW139875   3.939   0.214  10.559 -0.2174  0.0736  1.1435
 9413SOL    HW239876   3.847   0.185  10.450 -2.2983  0.7241 -0.0026
 9414SOL     OW39877   4.064   3.741   0.657  0.2510  0.0200  0.0407
 9414SOL    HW139878   4.103   3.768   0.740 -1.8726 -0.3819  1.1852
 9414SOL    HW239879   4.067   3.647   0.671  0.5730  0.0712  0.3207
 9415SOL     OW39880   0.510   4.015   8.815 -0.8331  0.6335  0.6669
 9415SOL    HW139881   0.589   4.033   8.865  0.8930  0.9855 -2.1756
 9415SOL    HW239882   0.459   4.096   8.826 -1.0838  0.4340  0.9733
 9416SOL     OW39883   4.025   2.788   1.180 -0.0521  0.1655 -0.3660
 9416SOL    HW139884   4.023   2.702   1.222  0.6330 -0.4006 -1.4666
 9416SOL    HW239885   3.932   2.803   1.165  0.0424 -0.8304 -1.9744
 9417SOL     OW39886   0.041   2.415   0.976 -0.3297  0.1017 -0.3874
 9417SOL    HW139887   0.007   2.480   1.038  0.7098 -1.1448  1.4773
 9417SOL    HW239888   4.701   2.416   0.917 -1.2055 -0.0193  0.7282
 9418SOL     OW39889   1.924   2.587  14.993 -0.2194 -0.3862 -0.4098
 9418SOL    HW139890   1.909   2.500  15.029  1.7783 -1.3398 -1.8802
 9418SOL    HW239891   1.849   2.596  14.935 -0.2101 -1.4030 -0.5783
 9419SOL     OW39892   0.202   1.363   2.483 -0.0973 -0.2179 -0.0225
 9419SOL    HW139893   0.201   1.395   2.393 -0.4990  0.6908  0.3093
 9419SOL    HW239894   0.107   1.355   2.496 -0.3267  2.1745 -0.2653
 9420SOL     OW39895   0.269   2.594  16.152  0.1312 -0.0108  0.3614
 9420SOL    HW139896   0.183   2.573  16.117  0.8737 -1.5744 -0.5112
 9420SOL    HW239897   0.327   2.532  16.107  1.0008  0.1201  1.2991
 9421SOL     OW39898   0.492   3.994  12.181 -0.4161 -0.5053  0.4641
 9421SOL    HW139899   0.572   4.043  12.164 -1.0923  0.7217  0.8440
 9421SOL    HW239900   0.524   3.917  12.133  0.8648  0.8309 -0.8078
 9422SOL     OW39901   3.993   2.250   0.314  0.1290  0.1049 -0.3194
 9422SOL    HW139902   3.935   2.257   0.238  0.1768 -1.1539 -0.4811
 9422SOL    HW239903   3.947   2.309   0.374  0.3206  1.1151 -1.1656
 9423SOL     OW39904   0.241   2.057  16.916 -0.2971  0.2009  0.2155
 9423SOL    HW139905   0.234   2.149  16.892  4.2358 -0.0986 -2.1949
 9423SOL    HW239906   0.155   2.045  16.957 -0.5793  1.7823  0.0955
 9424SOL     OW39907   2.375   1.785  12.244  0.0166  0.0336  0.1607
 9424SOL    HW139908   2.442   1.807  12.179 -0.4437  1.9557  0.3476
 9424SOL    HW239909   2.379   1.865  12.297 -0.0134 -0.8459  1.4822
 9425SOL     OW39910   1.465   1.092   3.272  0.0669 -0.5522 -0.4114
 9425SOL    HW139911   1.503   1.168   3.317 -0.0937 -1.3722  1.1292
 9425SOL    HW239912   1.531   1.060   3.210  1.5252  0.3006  0.6937
 9426SOL     OW39913   4.574   3.402   7.195  0.1389 -0.6257  0.6573
 9426SOL    HW139914   4.614   3.333   7.142 -1.8779 -0.4338 -1.1484
 9426SOL    HW239915   4.531   3.456   7.128  1.6468 -0.7627 -0.4284
 9427SOL     OW39916   2.262   2.255   0.783  0.5846  0.4703 -0.6595
 9427SOL    HW139917   2.250   2.340   0.825 -0.3989  0.5577 -1.1289
 9427SOL    HW239918   2.181   2.246   0.734  0.9013  0.6992 -1.2278
 9428SOL     OW39919   2.186   3.218   3.270 -0.1630 -0.4334  0.6638
 9428SOL    HW139920   2.177   3.313   3.266  0.1393 -0.5248 -2.7510
 9428SOL    HW239921   2.107   3.195   3.320 -1.0838 -0.2976 -0.7231
 9429SOL     OW39922   4.392   4.044   4.144  0.0056  0.9509  0.0879
 9429SOL    HW139923   4.370   4.111   4.209  1.5294  1.1336  0.4183
 9429SOL    HW239924   4.486   4.061   4.144 -0.0917  1.3524  2.8942
 9430SOL     OW39925   0.815   1.833   1.712 -0.0886 -0.4169  0.1631
 9430SOL    HW139926   0.755   1.770   1.752  0.2562 -0.4714  0.5963
 9430SOL    HW239927   0.860   1.772   1.654 -0.0116  0.2080 -0.4399
 9431SOL     OW39928   1.152   2.641   5.626 -0.0337  0.3513 -0.3841
 9431SOL    HW139929   1.138   2.589   5.705 -0.4338  1.3405  0.1957
 9431SOL    HW239930   1.061   2.663   5.604  1.0701  2.0163 -3.2628
 9432SOL     OW39931   2.029   2.550   3.075 -0.2926 -0.1136 -0.0163
 9432SOL    HW139932   2.078   2.632   3.078  0.2774 -0.4649  0.1508
 9432SOL    HW239933   1.967   2.561   3.147  2.0280 -0.1356  1.9660
 9433SOL     OW39934   2.719   0.926  12.586 -0.4304  0.2306  0.2653
 9433SOL    HW139935   2.781   0.999  12.591 -0.8809  0.6328 -0.0049
 9433SOL    HW239936   2.667   0.967  12.517  1.1268 -0.7486 -1.5075
 9434SOL     OW39937   3.635   1.448  17.094 -0.8601 -0.2072 -0.1011
 9434SOL    HW139938   3.674   1.375  17.047 -0.2235  0.2532 -0.2815
 9434SOL    HW239939   3.694   1.517  17.065 -3.0180  1.9948  0.7237
 9435SOL     OW39940   2.453   4.072   7.956 -0.0503 -0.2080 -0.0363
 9435SOL    HW139941   2.463   3.995   8.012 -3.3448  0.7633  1.8824
 9435SOL    HW239942   2.394   4.044   7.886 -0.1989 -0.3166  0.1329
 9436SOL     OW39943   1.368   2.904   5.023 -0.4943  1.1046  0.6220
 9436SOL    HW139944   1.402   2.818   5.050 -0.4893  1.1082  0.6273
 9436SOL    HW239945   1.304   2.886   4.954  0.5860 -1.7455  0.3487
 9437SOL     OW39946   0.447   3.141   7.001 -0.4835 -0.4487 -0.1252
 9437SOL    HW139947   0.542   3.129   6.989 -0.6106 -2.0492  0.5398
 9437SOL    HW239948   0.422   3.134   6.909  0.2081  1.9356 -0.5047
 9438SOL     OW39949   4.126   3.805   6.587  0.2007  0.0663  0.4085
 9438SOL    HW139950   4.108   3.894   6.557 -0.3688  0.7356  2.7526
 9438SOL    HW239951   4.171   3.825   6.669  0.4598  1.2123 -0.0094
 9439SOL     OW39952   0.288   3.806   6.674 -0.0058  0.0004 -0.6811
 9439SOL    HW139953   0.279   3.878   6.735 -0.6774  1.2967 -2.3131
 9439SOL    HW239954   0.226   3.746   6.717  2.1853 -1.9892 -0.3002
 9440SOL     OW39955   0.552   3.051   5.554  0.5670 -0.0938 -0.1919
 9440SOL    HW139956   0.577   3.089   5.638  0.5455  3.1063 -1.6136
 9440SOL    HW239957   0.630   3.063   5.500  0.7224 -0.9414 -0.1541
 9441SOL     OW39958   4.289   0.742  12.697  0.1522  0.1147  0.2101
 9441SOL    HW139959   4.254   0.740  12.786  1.1420 -1.9161  0.5586
 9441SOL    HW239960   4.381   0.724  12.718 -0.2399  0.2857  2.1018
 9442SOL     OW39961   4.351   1.182  10.612 -0.5250  0.2461  0.3745
 9442SOL    HW139962   4.285   1.113  10.608  2.6988 -2.7253 -1.2260
 9442SOL    HW239963   4.350   1.203  10.706 -0.3889  2.8975 -0.2081
 9443SOL     OW39964   2.268   3.717   8.379  0.5429  0.3497 -0.0864
 9443SOL    HW139965   2.173   3.714   8.387  0.5976 -1.0521 -0.0277
 9443SOL    HW239966   2.289   3.636   8.424 -2.3306  0.2486  1.0486
 9444SOL     OW39967   0.947   2.236  11.676  0.1367  0.0479  0.3933
 9444SOL    HW139968   1.042   2.238  11.684  0.1368 -1.4591  0.8981
 9444SOL    HW239969   0.928   2.179  11.751 -1.0314  0.1518  0.1728
 9445SOL     OW39970   1.236   1.549   3.060 -0.2145  0.0376 -0.0349
 9445SOL    HW139971   1.314   1.555   3.004  0.9349 -0.0411  1.5406
 9445SOL    HW239972   1.228   1.631   3.108 -1.7351  0.0436 -0.3040
 9446SOL     OW39973   0.675   2.736   6.537 -0.3903  0.2729  0.2644
 9446SOL    HW139974   0.689   2.721   6.630  0.2356 -1.6213 -0.1244
 9446SOL    HW239975   0.667   2.653   6.488 -0.6103  1.4630 -1.7257
 9447SOL     OW39976   4.356   3.222   7.042 -0.2037  0.2982  0.1702
 9447SOL    HW139977   4.355   3.277   6.965  2.1249 -1.1534 -0.8893
 9447SOL    HW239978   4.348   3.290   7.109  2.8367  2.0360 -1.2798
 9448SOL     OW39979   3.643   2.366   4.487 -0.1217  0.4681  0.0802
 9448SOL    HW139980   3.661   2.437   4.425 -3.0240  0.6053 -0.5682
 9448SOL    HW239981   3.604   2.415   4.559  0.1668  0.2873  0.3616
 9449SOL     OW39982   0.502   1.191   4.294 -0.5931 -0.3670 -0.2221
 9449SOL    HW139983   0.416   1.154   4.316 -1.6672  0.2550 -3.4284
 9449SOL    HW239984   0.533   1.142   4.218 -1.8774 -1.9211  0.2578
 9450SOL     OW39985   1.677   4.338  17.654 -0.2728  0.1618 -1.2089
 9450SOL    HW139986   1.734   4.415  17.646 -1.4264  1.1279 -0.0355
 9450SOL    HW239987   1.600   4.369  17.607 -0.5678  1.3643  0.0851
 9451SOL     OW39988   1.490   1.557   5.046 -0.0399  0.3027 -0.0979
 9451SOL    HW139989   1.430   1.535   5.117  2.1024 -0.6665  1.3832
 9451SOL    HW239990   1.427   1.541   4.975  0.5888 -1.9584 -0.1381
 9452SOL     OW39991   3.070   1.157  12.146  0.0636 -0.1132  0.1698
 9452SOL    HW139992   3.066   1.133  12.239 -0.5204  1.2837  0.5212
 9452SOL    HW239993   3.130   1.232  12.142  0.0954 -0.1424  0.1152
 9453SOL     OW39994   4.659   4.129   5.048  0.4941  0.5101  0.6061
 9453SOL    HW139995   0.018   4.137   5.033  0.4566  1.7237  1.0041
 9453SOL    HW239996   4.658   4.067   5.121  2.8994 -0.6132 -0.3285
 9454SOL     OW39997   1.329   2.743   7.667 -0.9586 -0.0192 -0.3626
 9454SOL    HW139998   1.260   2.709   7.724  0.4929  0.3139  1.5926
 9454SOL    HW239999   1.322   2.680   7.596  0.6588 -0.1981 -0.3600
 9455SOL     OW40000   2.390   3.800  15.064  0.5507  0.6838  0.6111
 9455SOL    HW140001   2.369   3.777  15.155 -0.0442  2.2909  0.8885
 9455SOL    HW240002   2.393   3.708  15.039  0.7885  0.9213 -0.2437
 9456SOL     OW40003   0.315   2.891   6.403 -0.6356 -0.6517  0.2095
 9456SOL    HW140004   0.242   2.923   6.350 -1.2688 -1.6503  0.4871
 9456SOL    HW240005   0.299   2.957   6.470  2.0830 -0.7321  0.9425
 9457SOL     OW40006   1.925   0.153  14.759 -0.4420 -0.2410 -0.0534
 9457SOL    HW140007   1.877   0.071  14.747  0.6301 -0.9415  0.4789
 9457SOL    HW240008   1.933   0.147  14.854  0.0880  2.3520  0.0628
 9458SOL     OW40009   2.065   1.531   1.749  0.0599  0.0986  0.3698
 9458SOL    HW140010   2.036   1.603   1.693 -0.9695 -0.6423 -0.0557
 9458SOL    HW240011   2.136   1.497   1.695 -1.7386  0.3477 -2.1675
 9459SOL     OW40012   2.566   3.994   3.183  0.3103  0.2961 -0.1785
 9459SOL    HW140013   2.654   4.017   3.154  1.3841 -2.4858  0.8337
 9459SOL    HW240014   2.529   4.077   3.212 -1.0600 -0.7952  1.1514
 9460SOL     OW40015   3.093   2.620   1.914  0.2084 -0.5469  0.0934
 9460SOL    HW140016   2.999   2.634   1.925  0.4748  0.4892  1.0481
 9460SOL    HW240017   3.113   2.571   1.994  1.1777  0.9624  0.7679
 9461SOL     OW40018   3.106   3.175   1.166 -0.7949  0.4305  0.7578
 9461SOL    HW140019   3.026   3.128   1.191 -1.1524  1.6634  1.9213
 9461SOL    HW240020   3.069   3.254   1.128  0.0834  1.4525  2.0275
 9462SOL     OW40021   4.514   2.943   2.635 -0.0634  0.0424  0.3630
 9462SOL    HW140022   4.518   2.884   2.560  3.0293  1.6375 -0.7121
 9462SOL    HW240023   4.441   2.998   2.606 -0.2483 -0.0856  0.5849
 9463SOL     OW40024   2.201   2.909   4.925 -0.2982  0.4495 -0.0785
 9463SOL    HW140025   2.283   2.928   4.878 -0.3918 -0.5291 -0.6287
 9463SOL    HW240026   2.213   2.822   4.962 -2.0178 -0.6403 -2.0818
 9464SOL     OW40027   2.792   0.258   8.692  0.4807  0.4306  0.1342
 9464SOL    HW140028   2.883   0.258   8.662  0.5788 -2.1431  0.4510
 9464SOL    HW240029   2.753   0.205   8.622 -0.6289  0.2835  0.8574
 9465SOL     OW40030   1.807   0.701   8.623 -0.8545 -0.6097 -0.2493
 9465SOL    HW140031   1.763   0.726   8.542 -1.8647  2.7460  1.3420
 9465SOL    HW240032   1.786   0.609   8.611 -1.0991 -0.2717 -2.4621
 9466SOL     OW40033   4.255   2.265   1.584  0.1256 -0.4526  0.0778
 9466SOL    HW140034   4.229   2.307   1.502 -1.0811 -3.2299 -0.9858
 9466SOL    HW240035   4.187   2.304   1.639  1.0013 -0.2837  1.0240
 9467SOL     OW40036   4.090   2.727   8.365 -0.3785 -0.5169  0.3419
 9467SOL    HW140037   4.066   2.701   8.454  5.6237  0.3877  2.2343
 9467SOL    HW240038   4.077   2.822   8.367 -0.4059 -0.4768 -1.5267
 9468SOL     OW40039   3.912   3.977   5.827  0.1806  0.0099 -0.3717
 9468SOL    HW140040   3.867   4.032   5.892  0.9216 -0.4742  0.5589
 9468SOL    HW240041   3.914   3.896   5.878  1.7423  0.5452  0.4066
 9469SOL     OW40042   2.070   1.723   0.654  0.2190  0.1849  0.3298
 9469SOL    HW140043   1.995   1.749   0.708  0.4596  0.8221  0.3595
 9469SOL    HW240044   2.129   1.795   0.677  0.6872  0.7535 -2.6431
 9470SOL     OW40045   1.284   4.194   0.782  0.2249 -0.6485  0.3506
 9470SOL    HW140046   1.292   4.160   0.871 -2.5919 -2.7333 -0.1717
 9470SOL    HW240047   1.225   4.130   0.741  0.0548  1.6404 -3.0470
 9471SOL     OW40048   4.486   2.986   3.689  0.4201 -0.1571 -0.1398
 9471SOL    HW140049   4.438   2.963   3.769 -1.2329  1.9036 -0.5466
 9471SOL    HW240050   4.493   3.081   3.696  1.2870 -0.1041 -1.6287
 9472SOL     OW40051   0.438   0.797   9.053 -0.0106  0.2122 -0.2130
 9472SOL    HW140052   0.490   0.858   9.105  1.5304 -0.8017 -0.5522
 9472SOL    HW240053   0.474   0.713   9.081 -0.9152  0.5418  1.9754
 9473SOL     OW40054   3.102   2.518   6.711  0.0422  0.2833 -0.2113
 9473SOL    HW140055   3.191   2.515   6.747 -0.3922 -2.8839  0.6227
 9473SOL    HW240056   3.104   2.432   6.668  3.8048  2.3820 -4.2079
 9474SOL     OW40057   0.657   2.276   6.575 -0.1023  0.4822  0.1460
 9474SOL    HW140058   0.717   2.227   6.632  0.4705 -1.9357 -2.5029
 9474SOL    HW240059   0.577   2.267   6.627  1.0010 -0.3883  1.6892
 9475SOL     OW40060   3.066   3.696   5.596  0.3993  0.2319 -0.3950
 9475SOL    HW140061   2.997   3.761   5.588 -1.1499 -1.2892  0.6805
 9475SOL    HW240062   3.100   3.720   5.682  1.9140  2.4903 -1.6364
 9476SOL     OW40063   3.893   4.467  11.410 -0.1498  0.2318  0.5070
 9476SOL    HW140064   3.951   4.498  11.480  0.9990 -1.1330  0.1814
 9476SOL    HW240065   3.831   4.538  11.395  0.9617  0.6648 -1.9777
 9477SOL     OW40066   3.985   4.406   4.259  0.6738 -0.4483 -0.2323
 9477SOL    HW140067   3.951   4.462   4.189  1.7050  1.0610  0.4828
 9477SOL    HW240068   3.953   4.319   4.233  0.3163 -0.3980  0.0624
 9478SOL     OW40069   3.937   2.446  17.538  0.1642  0.2709  0.0431
 9478SOL    HW140070   3.947   2.392  17.460 -0.4761  0.8424 -0.4375
 9478SOL    HW240071   3.873   2.508  17.502 -0.2398  0.6595  1.4013
 9479SOL     OW40072   3.077   1.472   4.061  0.3733  0.3255 -0.0011
 9479SOL    HW140073   3.072   1.561   4.097  1.1966  1.2923 -2.3116
 9479SOL    HW240074   2.994   1.453   4.017  0.5959 -1.0955  0.1967
 9480SOL     OW40075   3.527   2.726   0.446  0.3953 -0.5479 -0.7878
 9480SOL    HW140076   3.443   2.694   0.412 -0.5538  0.0199  1.0129
 9480SOL    HW240077   3.508   2.720   0.540  2.5165  1.7053 -0.2085
 9481SOL     OW40078   0.328   1.731   6.274 -0.3232 -0.5805  0.3081
 9481SOL    HW140079   0.322   1.672   6.199 -0.2045  1.1828 -1.0712
 9481SOL    HW240080   0.421   1.753   6.275 -0.5478  0.3777  0.0121
 9482SOL     OW40081   0.796   4.642   6.053 -0.2693 -0.3584 -0.6986
 9482SOL    HW140082   0.764   4.713   6.108  1.9416 -0.2351  0.3974
 9482SOL    HW240083   0.812   4.691   5.973  0.6835 -0.1339 -0.3588
 9483SOL     OW40084   2.005   4.486  16.242  0.0579  0.3911 -0.3840
 9483SOL    HW140085   1.923   4.445  16.270  0.6669 -0.7621 -0.2880
 9483SOL    HW240086   1.977   4.576  16.258 -1.8404 -0.4961  1.3484
 9484SOL     OW40087   1.401   2.049   6.273  0.4260 -0.7256  0.4609
 9484SOL    HW140088   1.486   2.018   6.240 -0.6102 -0.1396 -2.7798
 9484SOL    HW240089   1.341   1.975   6.269 -3.5901  2.5910 -1.4048
 9485SOL     OW40090   2.722   0.655   2.038  0.0990 -0.5766  0.5902
 9485SOL    HW140091   2.722   0.680   1.945 -0.2139 -0.3344  0.6544
 9485SOL    HW240092   2.634   0.679   2.067 -1.0336 -3.2333 -0.6501
 9486SOL     OW40093   0.492   4.040   0.570  0.7703  0.1879  0.0522
 9486SOL    HW140094   0.563   4.084   0.617  0.0616  1.5649 -0.1930
 9486SOL    HW240095   0.509   3.948   0.592  2.8834  0.2051 -1.4634
 9487SOL     OW40096   4.658   4.525   9.429 -0.0108 -0.8119 -0.4482
 9487SOL    HW140097   4.632   4.463   9.497  0.8176  0.1709  0.7377
 9487SOL    HW240098   4.578   4.545   9.380  0.8096  2.1154 -0.5947
 9488SOL     OW40099   3.408   1.113  14.928 -0.2311  0.0297 -0.2403
 9488SOL    HW140100   3.478   1.118  14.862  0.3600  1.5152  0.4783
 9488SOL    HW240101   3.414   1.027  14.968 -3.0579 -0.5156 -1.0036
 9489SOL     OW40102   2.758   4.443   1.116  0.5034 -0.1968 -0.1465
 9489SOL    HW140103   2.711   4.498   1.179  1.2126  1.6850 -1.2698
 9489SOL    HW240104   2.682   4.389   1.093 -0.0994  1.3307 -1.7362
 9490SOL     OW40105   3.187   3.666   4.615 -0.0193 -0.2472  0.6839
 9490SOL    HW140106   3.160   3.587   4.660  1.7713 -1.1888  0.1059
 9490SOL    HW240107   3.108   3.698   4.571 -1.3751 -1.2990  2.3732
 9491SOL     OW40108   3.220   0.851   0.857 -0.2463 -0.0501 -0.2211
 9491SOL    HW140109   3.305   0.817   0.831  0.3019  1.6410 -0.6423
 9491SOL    HW240110   3.251   0.920   0.916  1.8777 -0.7577 -0.5349
 9492SOL     OW40111   3.399   0.213   4.592  0.2456  0.3307  0.3215
 9492SOL    HW140112   3.476   0.164   4.562 -1.9209 -1.5678 -2.1774
 9492SOL    HW240113   3.432   0.303   4.592  1.4543 -0.1168 -0.7352
 9493SOL     OW40114   1.932   4.611  13.744  0.4630  0.8017  0.0225
 9493SOL    HW140115   1.959   4.519  13.744 -2.0666  0.0531  1.5104
 9493SOL    HW240116   1.943   4.640  13.654  0.2537 -0.5041 -0.4227
 9494SOL     OW40117   0.101   3.449  10.696  0.0723 -0.5173  0.2301
 9494SOL    HW140118   0.072   3.456  10.605 -0.6337  2.8855  0.7348
 9494SOL    HW240119   0.153   3.369  10.684 -0.0878 -0.5497 -0.2255
 9495SOL     OW40120   4.533   2.413   2.506 -0.0265  0.6828 -0.4758
 9495SOL    HW140121   4.568   2.442   2.422 -1.6338 -0.9525 -1.7285
 9495SOL    HW240122   4.479   2.338   2.481 -1.7618  1.3482  1.2522
 9496SOL     OW40123   3.208   3.139   1.733 -0.1478 -0.6574 -0.1591
 9496SOL    HW140124   3.274   3.208   1.741 -2.0733  1.0192  1.1717
 9496SOL    HW240125   3.266   3.064   1.723  1.9170  0.7431  1.2953
 9497SOL     OW40126   0.041   1.869  11.179 -0.1447  0.0366  0.4242
 9497SOL    HW140127   4.725   1.926  11.122  0.5884 -1.2878 -1.5660
 9497SOL    HW240128   4.700   1.817  11.206 -0.3502  0.6675  1.0718
 9498SOL     OW40129   0.479   1.777   6.550 -0.2602  0.9659 -0.2609
 9498SOL    HW140130   0.494   1.862   6.591  0.3277  0.8967 -0.3355
 9498SOL    HW240131   0.527   1.783   6.468 -0.6037 -0.6788 -0.5905
 9499SOL     OW40132   2.270   1.337   9.291  0.1578 -0.3386 -0.6312
 9499SOL    HW140133   2.333   1.268   9.270  0.2256 -0.5123  0.1662
 9499SOL    HW240134   2.302   1.379   9.370 -1.4335  0.1923 -0.2796
 9500SOL     OW40135   2.243   3.489  10.570 -0.2092 -0.5269 -0.5055
 9500SOL    HW140136   2.152   3.472  10.596 -1.1627  1.6439 -2.3503
 9500SOL    HW240137   2.253   3.581  10.597  1.8766 -1.6302  2.4610
 9501SOL     OW40138   3.455   2.487   6.728 -0.2885 -0.1101  0.3920
 9501SOL    HW140139   3.462   2.575   6.693  1.1313 -1.2484 -2.2015
 9501SOL    HW240140   3.476   2.495   6.821  2.0921 -1.3449 -0.0351
 9502SOL     OW40141   0.170   3.910   4.749  0.0838 -0.2592  0.3311
 9502SOL    HW140142   0.155   3.861   4.829 -3.5573  1.1990  0.5283
 9502SOL    HW240143   0.188   3.998   4.782 -0.7828 -0.3680  1.0814
 9503SOL     OW40144   2.527   4.651   9.373 -0.3334 -0.5345  0.3299
 9503SOL    HW140145   2.619   4.624   9.376 -0.1664  0.0815  0.7899
 9503SOL    HW240146   2.526   4.717   9.303  1.4248  1.1119  1.8732
 9504SOL     OW40147   0.221   2.351   6.804  0.2813  0.3479 -0.3485
 9504SOL    HW140148   0.309   2.379   6.826 -0.3056 -0.0658  2.5230
 9504SOL    HW240149   0.185   2.340   6.892  0.3973 -0.8537 -0.4511
 9505SOL     OW40150   1.643   3.772   6.488 -0.0267  0.2817 -0.1907
 9505SOL    HW140151   1.555   3.788   6.522  0.1559 -0.5877  0.6979
 9505SOL    HW240152   1.684   3.857   6.503  0.9120 -0.1093 -0.5162
 9506SOL     OW40153   4.719   2.043   9.140 -0.5032  0.5964  0.3006
 9506SOL    HW140154   0.055   1.983   9.161 -0.3527  1.0178  1.0070
 9506SOL    HW240155   4.733   2.065   9.048 -1.3610 -2.6754 -0.6003
 9507SOL     OW40156   4.608   3.793   9.850 -1.1012 -0.3030 -0.3219
 9507SOL    HW140157   4.617   3.710   9.897  2.5587  0.3809  0.1955
 9507SOL    HW240158   4.591   3.852   9.924  1.4108  1.6045 -1.2294
 9508SOL     OW40159   2.596   3.803  17.207  0.3019  0.5956  1.0482
 9508SOL    HW140160   2.573   3.753  17.285  0.1299  1.7607  1.7465
 9508SOL    HW240161   2.571   3.890  17.239 -0.4425  0.8871 -0.3338
 9509SOL     OW40162   4.453   1.868   1.028  0.2136 -0.0698  0.3038
 9509SOL    HW140163   4.524   1.928   1.050  0.1290  1.0229 -2.3856
 9509SOL    HW240164   4.470   1.798   1.091  1.1874  1.8513  2.1770
 9510SOL     OW40165   2.216   1.457   6.349 -0.6007  0.6949  0.1783
 9510SOL    HW140166   2.164   1.534   6.372  1.0629  2.5562 -2.2010
 9510SOL    HW240167   2.277   1.444   6.421 -0.4312 -2.3556 -0.5165
 9511SOL     OW40168   0.764   2.846   9.403  0.3454 -0.3169  0.0027
 9511SOL    HW140169   0.796   2.925   9.447 -0.6552  1.3393 -2.2238
 9511SOL    HW240170   0.845   2.801   9.379 -0.2838 -1.3690 -0.1533
 9512SOL     OW40171   2.792   3.557  11.725  0.3589 -0.4267 -0.0566
 9512SOL    HW140172   2.884   3.565  11.700  0.4179 -0.2030  0.2360
 9512SOL    HW240173   2.764   3.646  11.706 -1.4214 -0.3584  2.9034
 9513SOL     OW40174   2.623   2.435   1.403 -0.1593  0.2592  0.2238
 9513SOL    HW140175   2.708   2.467   1.432 -0.2122  1.2535 -0.7173
 9513SOL    HW240176   2.657   2.377   1.336  1.9657 -0.6656  2.1035
 9514SOL     OW40177   1.707   3.402   1.747  0.1148  0.3999 -0.4263
 9514SOL    HW140178   1.702   3.463   1.821  0.5580  0.8595 -0.7772
 9514SOL    HW240179   1.779   3.350   1.783 -0.8798 -0.3373  0.5176
 9515SOL     OW40180   3.174   4.281   4.728 -0.1029  0.2854  0.0489
 9515SOL    HW140181   3.247   4.319   4.680  1.4220  0.4815  2.4955
 9515SOL    HW240182   3.166   4.198   4.682 -0.0790  0.7083 -0.7160
 9516SOL     OW40183   4.361   1.772   8.123  0.2670 -0.3966  0.4612
 9516SOL    HW140184   4.314   1.690   8.135  0.5996 -0.4409  1.4837
 9516SOL    HW240185   4.426   1.763   8.193  0.5030  0.6763  0.3830
 9517SOL     OW40186   1.783   1.901   4.797  0.1171  0.1439  0.1742
 9517SOL    HW140187   1.823   1.892   4.883 -1.6840  0.4841  1.0582
 9517SOL    HW240188   1.745   1.814   4.784  0.3763 -0.0175  0.4858
 9518SOL     OW40189   1.036   3.294   4.168 -0.6183 -0.0351  0.8417
 9518SOL    HW140190   0.970   3.363   4.159  2.0638  2.4573  0.3203
 9518SOL    HW240191   1.102   3.332   4.225  0.3084 -3.1904  1.8701
 9519SOL     OW40192   3.985   2.630   8.061  0.2214  0.0265 -0.1896
 9519SOL    HW140193   3.944   2.615   8.146  1.7520  0.8846  0.7258
 9519SOL    HW240194   3.994   2.542   8.026  3.0026 -0.6334  2.1529
 9520SOL     OW40195   4.669   1.962   3.334  0.0184  0.2426  0.5306
 9520SOL    HW140196   4.647   2.054   3.350 -0.0076  0.2557  0.4203
 9520SOL    HW240197   4.620   1.909   3.396  0.1864 -1.0274 -0.4234
 9521SOL     OW40198   1.848   0.873   8.001  0.0955 -0.1932  0.6229
 9521SOL    HW140199   1.870   0.781   7.988 -0.8144 -0.2075 -0.8003
 9521SOL    HW240200   1.755   0.856   7.989 -0.0442 -0.6086  2.3420
 9522SOL     OW40201   0.018   0.525   6.652  0.0638  0.3367 -0.0271
 9522SOL    HW140202   4.708   0.482   6.580  0.4137 -1.2214  0.6914
 9522SOL    HW240203   0.032   0.613   6.616  1.9354 -0.5379 -1.4284
 9523SOL     OW40204   4.209   0.072   2.724 -0.2940 -0.2605  0.2154
 9523SOL    HW140205   4.238   0.164   2.723  0.0926 -0.3941 -1.2590
 9523SOL    HW240206   4.114   0.070   2.738 -0.6043  0.7180 -1.7166
 9524SOL     OW40207   1.667   2.558   6.207 -0.4299  0.1200 -0.5359
 9524SOL    HW140208   1.746   2.505   6.218  0.7282  1.4281 -2.4106
 9524SOL    HW240209   1.665   2.595   6.295  0.4635 -3.3172  0.9465
 9525SOL     OW40210   3.935   1.949   7.629 -0.2973  0.1558  0.0923
 9525SOL    HW140211   3.879   1.919   7.557  1.6066 -1.8961 -0.5456
 9525SOL    HW240212   3.929   2.044   7.633 -0.1267  0.1639  0.1365
 9526SOL     OW40213   3.810   1.683  17.060  0.1732 -0.0719 -0.1079
 9526SOL    HW140214   3.814   1.728  17.144 -1.7876 -1.5730  0.7745
 9526SOL    HW240215   3.829   1.759  17.004 -1.9515  0.0670 -0.6467
 9527SOL     OW40216   1.691   3.068   3.403 -0.3797 -0.3832  0.2924
 9527SOL    HW140217   1.664   3.142   3.457 -0.9927 -0.9623  0.7800
 9527SOL    HW240218   1.636   3.004   3.448 -0.9423 -0.0590  0.0778
 9528SOL     OW40219   1.250   2.074   2.327 -0.1767 -0.5268 -0.3886
 9528SOL    HW140220   1.319   2.060   2.262 -0.0715  0.7560 -0.5675
 9528SOL    HW240221   1.182   2.115   2.273 -1.3607 -1.1465  0.6410
 9529SOL     OW40222   4.362   2.951   2.246  0.1097 -0.2652 -0.4307
 9529SOL    HW140223   4.400   3.022   2.298 -3.4504  0.9184  0.5331
 9529SOL    HW240224   4.293   2.999   2.201  1.7098  2.6898  0.2039
 9530SOL     OW40225   1.471   3.501   9.299  0.4090  0.6107 -0.4638
 9530SOL    HW140226   1.508   3.426   9.251 -0.7668  0.5334 -1.2626
 9530SOL    HW240227   1.485   3.489   9.393  0.2452  0.6779 -0.4303
 9531SOL     OW40228   4.530   1.826   7.110 -0.1442 -0.3972 -0.7350
 9531SOL    HW140229   4.514   1.783   7.026  0.6092 -0.3363 -0.9133
 9531SOL    HW240230   4.536   1.916   7.078 -1.5264 -0.8722 -2.3422
 9532SOL     OW40231   1.677   1.275   6.952 -0.8157  0.3277 -0.1132
 9532SOL    HW140232   1.712   1.204   6.898  0.5920 -0.1175  1.3885
 9532SOL    HW240233   1.643   1.331   6.883  1.2165 -1.0826 -2.2456
 9533SOL     OW40234   0.248   1.053   8.257 -0.0440  0.2031  0.6474
 9533SOL    HW140235   0.188   0.979   8.257  0.4810 -0.2201  0.5861
 9533SOL    HW240236   0.189   1.128   8.250  1.3495  1.2526  0.1204
 9534SOL     OW40237   3.591   1.753  10.179  0.1849 -0.0780  0.1091
 9534SOL    HW140238   3.501   1.729  10.202 -0.5557  0.8110 -1.8065
 9534SOL    HW240239   3.622   1.787  10.263  0.5319 -1.0622  0.3803
 9535SOL     OW40240   0.838   3.017   6.183  0.3070  0.0789 -0.6758
 9535SOL    HW140241   0.778   3.092   6.180  1.9071  1.5159  2.6452
 9535SOL    HW240242   0.795   2.952   6.238  2.0753  0.6913  1.4880
 9536SOL     OW40243   2.544   3.365  12.138  0.4838 -0.1705 -0.1064
 9536SOL    HW140244   2.502   3.291  12.096 -0.6760  1.5042 -1.9192
 9536SOL    HW240245   2.588   3.397  12.059 -0.7172 -0.8277 -1.0473
 9537SOL     OW40246   3.828   0.690   3.062  0.0187  0.0359  0.0264
 9537SOL    HW140247   3.743   0.718   3.095  0.2986  0.2815  0.5350
 9537SOL    HW240248   3.825   0.595   3.071 -1.5882  0.2551  1.7561
 9538SOL     OW40249   3.144   4.061  13.466 -0.1672  0.6059  0.7356
 9538SOL    HW140250   3.171   4.124  13.399  1.0306 -0.2721  0.3906
 9538SOL    HW240251   3.135   4.119  13.541 -0.2944  1.7036 -0.1309
 9539SOL     OW40252   2.313   4.569   9.848  0.0739 -0.3412  0.3433
 9539SOL    HW140253   2.345   4.506   9.784 -0.8346  0.2851 -0.7335
 9539SOL    HW240254   2.342   4.652   9.810 -1.0773  0.6383  1.5886
 9540SOL     OW40255   3.780   3.668  11.286  0.3914  0.3411  0.4050
 9540SOL    HW140256   3.728   3.592  11.310  1.7495 -0.3028  1.2996
 9540SOL    HW240257   3.713   3.729  11.255  1.5279  2.0747  1.3803
 9541SOL     OW40258   1.811   2.777   3.915  0.0382 -0.0321  0.3040
 9541SOL    HW140259   1.885   2.785   3.855 -0.5808 -0.2465 -0.4718
 9541SOL    HW240260   1.862   2.782   3.996  0.3165 -1.3944  0.2180
 9542SOL     OW40261   2.435   1.311  15.635 -1.0438  0.2372 -0.5087
 9542SOL    HW140262   2.499   1.241  15.647 -1.9955 -0.5373 -0.0624
 9542SOL    HW240263   2.455   1.356  15.717  0.8608  0.7989 -1.2678
 9543SOL     OW40264   3.692   1.631   9.971  0.8329 -0.6517  0.4175
 9543SOL    HW140265   3.686   1.706  10.030 -0.4835  0.3198 -0.9825
 9543SOL    HW240266   3.610   1.583   9.982  0.3473 -0.0674 -0.6392
 9544SOL     OW40267   1.224   4.678   2.179  0.2941  0.3608  0.2086
 9544SOL    HW140268   1.187   0.032   2.182 -1.6003 -0.4638  1.2383
 9544SOL    HW240269   1.149   4.646   2.131  1.9796 -2.6791 -0.3520
 9545SOL     OW40270   1.109   2.008   7.010 -0.2450 -0.2172  0.4149
 9545SOL    HW140271   1.173   1.963   7.065  1.2737 -0.8973 -1.9351
 9545SOL    HW240272   1.034   1.993   7.068 -1.4982 -3.6184 -2.0673
 9546SOL     OW40273   2.169   3.380  11.735  0.4675  0.1567  0.3815
 9546SOL    HW140274   2.089   3.401  11.687 -0.0144 -1.0466  0.6526
 9546SOL    HW240275   2.236   3.409  11.673 -0.6532 -0.3125 -1.0640
 9547SOL     OW40276   0.134   2.083  10.901 -0.3922  0.0428 -0.6804
 9547SOL    HW140277   0.126   2.095  10.806 -1.0536  1.0103 -0.4973
 9547SOL    HW240278   0.220   2.044  10.915  0.6268  1.8196 -2.1231
 9548SOL     OW40279   3.125   1.070   5.686 -0.0808 -0.3844  0.6029
 9548SOL    HW140280   3.087   1.154   5.658  1.4661 -0.0074 -0.3973
 9548SOL    HW240281   3.124   1.023   5.603 -0.7247 -2.1850  1.6430
 9549SOL     OW40282   0.752   1.702   4.420  0.1903  0.2091 -0.3571
 9549SOL    HW140283   0.754   1.618   4.373 -0.1622 -0.4765  0.8715
 9549SOL    HW240284   0.665   1.736   4.398  1.3120  1.0016 -3.5555
 9550SOL     OW40285   1.430   3.886   6.105 -0.3112  0.1294  0.1183
 9550SOL    HW140286   1.517   3.865   6.068 -0.9452  1.5018 -2.1564
 9550SOL    HW240287   1.458   3.955   6.165  0.1239 -1.4555  1.7424
 9551SOL     OW40288   1.143   4.107   4.304 -0.5638 -0.0024 -0.1150
 9551SOL    HW140289   1.191   4.183   4.269 -1.9644  1.2541  0.6972
 9551SOL    HW240290   1.099   4.075   4.226  0.1238 -0.7253 -0.2014
 9552SOL     OW40291   2.042   0.697   9.176 -0.5316 -0.2527 -0.2220
 9552SOL    HW140292   2.017   0.612   9.212  2.4591 -0.4454  1.4191
 9552SOL    HW240293   2.113   0.712   9.239 -0.9780 -1.1986  0.4977
 9553SOL     OW40294   0.817   1.023   5.904  0.2665  0.3967 -0.1818
 9553SOL    HW140295   0.837   0.954   5.841 -0.3740 -0.2828  0.3631
 9553SOL    HW240296   0.785   0.963   5.971  1.6184 -0.6007 -0.4179
 9554SOL     OW40297   3.397   4.722  14.074  0.5001  0.0265 -0.4532
 9554SOL    HW140298   3.305   4.729  14.048 -0.0633 -2.1923  0.9218
 9554SOL    HW240299   3.383   4.631  14.101 -1.9875  0.6676  0.4375
 9555SOL     OW40300   2.183   0.404   8.789 -0.5859  0.0188  0.3907
 9555SOL    HW140301   2.178   0.487   8.836 -0.0678  0.7179 -0.7941
 9555SOL    HW240302   2.230   0.344   8.847 -0.0023 -0.5831 -0.7050
 9556SOL     OW40303   0.578   0.931   4.127  0.4960 -0.2223 -0.5909
 9556SOL    HW140304   0.616   0.913   4.041 -0.5440  0.7213 -1.2424
 9556SOL    HW240305   0.494   0.885   4.118  0.6771 -0.6357 -0.1745
 9557SOL     OW40306   2.301   2.878   1.614  0.5184 -0.0192  0.0144
 9557SOL    HW140307   2.258   2.805   1.659  2.4593 -1.0778  0.1465
 9557SOL    HW240308   2.388   2.849   1.641  0.5634 -1.0290 -1.2211
 9558SOL     OW40309   0.257   1.190   5.356  0.1523 -0.1894  0.4240
 9558SOL    HW140310   0.320   1.259   5.334  0.1347 -0.2176  0.2865
 9558SOL    HW240311   0.191   1.242   5.402 -1.3611 -0.6396 -1.2346
 9559SOL     OW40312   0.222   2.504   5.661  0.3998 -0.2846  0.4147
 9559SOL    HW140313   0.292   2.522   5.598  1.2857 -1.6270  1.0067
 9559SOL    HW240314   0.194   2.590   5.690  1.3444 -0.2663  1.2675
 9560SOL     OW40315   2.860   2.764   7.682  0.0858  0.3211  0.4967
 9560SOL    HW140316   2.866   2.833   7.748  1.3817  1.5480 -0.8934
 9560SOL    HW240317   2.771   2.734   7.697  0.0192 -0.2828 -1.0395
 9561SOL     OW40318   0.025   4.182   1.681  0.5051  0.3949 -0.0923
 9561SOL    HW140319   4.727   4.094   1.661  0.1485  0.7750 -1.1777
 9561SOL    HW240320   0.019   4.226   1.596  0.2876 -0.5681 -0.5792
 9562SOL     OW40321   2.138   0.629   8.916  0.0395 -0.1991 -0.4365
 9562SOL    HW140322   2.100   0.699   8.862 -0.4059 -0.3405 -0.3027
 9562SOL    HW240323   2.154   0.671   9.000 -1.3407  0.0594 -0.3044
 9563SOL     OW40324   3.130   0.088  14.106  0.5477  0.6949  0.5176
 9563SOL    HW140325   3.059   0.047  14.154 -0.6383  1.2870 -0.7351
 9563SOL    HW240326   3.083   0.108  14.025  1.9519  0.8211 -0.2855
 9564SOL     OW40327   4.333   0.006   0.586 -0.1000 -0.0553  0.6978
 9564SOL    HW140328   4.392   0.071   0.623 -1.4293  1.2927  0.4814
 9564SOL    HW240329   4.251   0.043   0.620 -0.9624 -0.6352 -0.7530
 9565SOL     OW40330   3.641   2.558   1.872  0.1682  0.2953  0.2184
 9565SOL    HW140331   3.728   2.589   1.896  1.1618 -1.3587 -1.1894
 9565SOL    HW240332   3.662   2.509   1.792  0.1817  0.5272  0.0822
 9566SOL     OW40333   3.642   4.729   6.856 -0.2312 -0.3737 -0.2800
 9566SOL    HW140334   3.649   0.075   6.806 -0.5581 -0.2774 -0.1731
 9566SOL    HW240335   3.685   0.025   6.936  1.0855 -0.0160 -1.1341
 9567SOL     OW40336   4.419   0.138   6.139 -0.2549  0.0849  0.0717
 9567SOL    HW140337   4.389   0.209   6.082  0.6079  0.4161  0.0262
 9567SOL    HW240338   4.371   0.149   6.221 -0.3405  1.4442 -0.1595
 9568SOL     OW40339   0.821   3.808   7.373 -0.5505  0.5576  0.5552
 9568SOL    HW140340   0.896   3.836   7.425  1.4474  0.1268 -2.0461
 9568SOL    HW240341   0.758   3.872   7.403 -1.8986  0.9555 -3.1091
 9569SOL     OW40342   3.020   1.710   1.234  0.4026 -0.0706 -0.1795
 9569SOL    HW140343   3.078   1.668   1.170  0.4194 -1.6256  0.8425
 9569SOL    HW240344   2.956   1.753   1.177 -0.3627  0.7851  1.3370
   4.73508   4.73508  17.73915
